Generated by trjconv : CNT in water t=   4.00000
33518
    1C        C    1   2.842   2.768   4.745
    1C        C    2   2.897   2.720   4.866
    1C        C    3   2.845   2.774   4.984
    1C        C    4   2.848   2.773   4.261
    1C        C    5   2.897   2.721   4.383
    1C        C    6   2.839   2.767   4.504
    1C        C    7   3.012   2.639   4.627
    1C        C    8   2.895   2.718   4.624
    1C        C    9   3.079   2.607   4.747
    1C        C   10   3.009   2.634   4.867
    1C        C   11   3.184   2.495   4.976
    1C        C   12   3.061   2.563   4.975
    1C        C   13   2.849   2.770   3.771
    1C        C   14   2.901   2.721   3.893
    1C        C   15   2.851   2.776   4.013
    1C        C   16   3.018   2.651   4.138
    1C        C   17   2.900   2.730   4.137
    1C        C   18   3.081   2.618   4.260
    1C        C   19   3.017   2.647   4.383
    1C        C   20   3.209   2.557   4.502
    1C        C   21   3.077   2.609   4.505
    1C        C   22   3.276   2.532   4.624
    1C        C   23   3.211   2.555   4.747
    1C        C   24   3.415   2.484   4.865
    1C        C   25   3.274   2.507   4.865
    1C        C   26   3.491   2.477   4.982
    1C        C   27   2.849   2.771   3.282
    1C        C   28   2.905   2.723   3.402
    1C        C   29   2.851   2.769   3.524
    1C        C   30   3.018   2.644   3.649
    1C        C   31   2.902   2.724   3.648
    1C        C   32   3.077   2.606   3.772
    1C        C   33   3.018   2.643   3.895
    1C        C   34   3.210   2.556   4.017
    1C        C   35   3.081   2.613   4.017
    1C        C   36   3.277   2.536   4.139
    1C        C   37   3.209   2.560   4.261
    1C        C   38   3.416   2.502   4.383
    1C        C   39   3.279   2.536   4.381
    1C        C   40   3.486   2.503   4.505
    1C        C   41   3.414   2.504   4.627
    1C        C   42   3.632   2.480   4.745
    1C        C   43   3.490   2.479   4.744
    1C        C   44   3.706   2.486   4.865
    1C        C   45   3.630   2.474   4.982
    1C        C   46   2.836   2.747   2.789
    1C        C   47   2.892   2.710   2.914
    1C        C   48   2.846   2.759   3.038
    1C        C   49   3.020   2.641   3.158
    1C        C   50   2.902   2.718   3.162
    1C        C   51   3.082   2.610   3.281
    1C        C   52   3.017   2.637   3.403
    1C        C   53   3.204   2.542   3.530
    1C        C   54   3.077   2.604   3.527
    1C        C   55   3.279   2.523   3.648
    1C        C   56   3.206   2.548   3.766
    1C        C   57   3.410   2.509   3.897
    1C        C   58   3.270   2.531   3.891
    1C        C   59   3.490   2.500   4.013
    1C        C   60   3.415   2.505   4.133
    1C        C   61   3.622   2.498   4.260
    1C        C   62   3.481   2.496   4.257
    1C        C   63   3.699   2.507   4.378
    1C        C   64   3.627   2.509   4.499
    1C        C   65   3.832   2.545   4.622
    1C        C   66   3.697   2.504   4.622
    1C        C   67   3.906   2.563   4.741
    1C        C   68   3.842   2.526   4.861
    1C        C   69   4.053   2.582   4.976
    1C        C   70   3.926   2.525   4.973
    1C        C   71   2.822   2.729   2.309
    1C        C   72   2.881   2.689   2.431
    1C        C   73   2.832   2.747   2.550
    1C        C   74   3.008   2.620   2.672
    1C        C   75   2.890   2.696   2.669
    1C        C   76   3.071   2.590   2.795
    1C        C   77   3.010   2.633   2.915
    1C        C   78   3.209   2.549   3.035
    1C        C   79   3.079   2.603   3.035
    1C        C   80   3.276   2.531   3.159
    1C        C   81   3.212   2.553   3.283
    1C        C   82   3.411   2.499   3.398
    1C        C   83   3.272   2.524   3.407
    1C        C   84   3.480   2.494   3.521
    1C        C   85   3.418   2.501   3.649
    1C        C   86   3.622   2.501   3.764
    1C        C   87   3.481   2.502   3.775
    1C        C   88   3.689   2.512   3.888
    1C        C   89   3.631   2.498   4.016
    1C        C   90   3.833   2.543   4.133
    1C        C   91   3.698   2.503   4.141
    1C        C   92   3.898   2.567   4.257
    1C        C   93   3.836   2.541   4.381
    1C        C   94   4.027   2.633   4.497
    1C        C   95   3.905   2.561   4.502
    1C        C   96   4.089   2.669   4.619
    1C        C   97   4.035   2.623   4.740
    1C        C   98   4.188   2.768   4.862
    1C        C   99   4.101   2.655   4.862
    1C        C  100   4.213   2.841   4.979
    1C        C  101   2.822   2.730   2.068
    1C        C  102   2.992   2.597   2.187
    1C        C  103   2.873   2.677   2.187
    1C        C  104   3.065   2.577   2.307
    1C        C  105   3.002   2.616   2.428
    1C        C  106   3.199   2.532   2.549
    1C        C  107   3.067   2.583   2.549
    1C        C  108   3.269   2.514   2.670
    1C        C  109   3.201   2.535   2.793
    1C        C  110   3.410   2.486   2.912
    1C        C  111   3.272   2.516   2.913
    1C        C  112   3.479   2.482   3.035
    1C        C  113   3.413   2.497   3.160
    1C        C  114   3.628   2.498   3.279
    1C        C  115   3.487   2.493   3.280
    1C        C  116   3.689   2.509   3.406
    1C        C  117   3.621   2.496   3.529
    1C        C  118   3.834   2.548   3.645
    1C        C  119   3.699   2.507   3.646
    1C        C  120   3.894   2.568   3.771
    1C        C  121   3.826   2.545   3.893
    1C        C  122   4.023   2.639   4.012
    1C        C  123   3.898   2.574   4.011
    1C        C  124   4.084   2.670   4.135
    1C        C  125   4.023   2.633   4.257
    1C        C  126   4.193   2.766   4.376
    1C        C  127   4.087   2.673   4.376
    1C        C  128   4.242   2.818   4.498
    1C        C  129   4.194   2.764   4.619
    1C        C  130   4.326   2.933   4.738
    1C        C  131   4.240   2.820   4.740
    1C        C  132   4.355   3.001   4.859
    1C        C  133   4.287   2.958   4.974
    1C        C  134   3.173   2.470   2.081
    1C        C  135   3.038   2.508   2.085
    1C        C  136   3.261   2.480   2.190
    1C        C  137   3.197   2.524   2.308
    1C        C  138   3.408   2.485   2.426
    1C        C  139   3.268   2.508   2.429
    1C        C  140   3.478   2.482   2.548
    1C        C  141   3.408   2.490   2.670
    1C        C  142   3.624   2.490   2.792
    1C        C  143   3.483   2.483   2.790
    1C        C  144   3.693   2.503   2.914
    1C        C  145   3.620   2.492   3.034
    1C        C  146   3.831   2.539   3.157
    1C        C  147   3.695   2.502   3.154
    1C        C  148   3.897   2.566   3.279
    1C        C  149   3.826   2.542   3.399
    1C        C  150   4.025   2.627   3.521
    1C        C  151   3.896   2.569   3.519
    1C        C  152   4.078   2.669   3.645
    1C        C  153   4.018   2.635   3.768
    1C        C  154   4.193   2.761   3.885
    1C        C  155   4.081   2.676   3.888
    1C        C  156   4.240   2.810   4.009
    1C        C  157   4.195   2.757   4.132
    1C        C  158   4.336   2.920   4.251
    1C        C  159   4.247   2.811   4.253
    1C        C  160   4.374   2.982   4.373
    1C        C  161   4.330   2.928   4.496
    1C        C  162   4.434   3.116   4.613
    1C        C  163   4.368   2.992   4.616
    1C        C  164   4.470   3.181   4.733
    1C        C  165   4.430   3.120   4.855
    1C        C  166   4.510   3.316   4.969
    1C        C  167   4.472   3.183   4.973
    1C        C  168   3.477   2.440   2.072
    1C        C  169   3.400   2.454   2.187
    1C        C  170   3.619   2.465   2.306
    1C        C  171   3.477   2.460   2.305
    1C        C  172   3.694   2.483   2.424
    1C        C  173   3.619   2.487   2.544
    1C        C  174   3.827   2.531   2.670
    1C        C  175   3.689   2.499   2.667
    1C        C  176   3.899   2.561   2.787
    1C        C  177   3.829   2.540   2.908
    1C        C  178   4.017   2.629   3.035
    1C        C  179   3.893   2.561   3.032
    1C        C  180   4.084   2.667   3.153
    1C        C  181   4.023   2.629   3.275
    1C        C  182   4.192   2.754   3.401
    1C        C  183   4.086   2.661   3.398
    1C        C  184   4.244   2.808   3.521
    1C        C  185   4.190   2.755   3.641
    1C        C  186   4.337   2.912   3.765
    1C        C  187   4.245   2.805   3.761
    1C        C  188   4.375   2.975   3.885
    1C        C  189   4.329   2.920   4.007
    1C        C  190   4.440   3.103   4.127
    1C        C  191   4.372   2.979   4.128
    1C        C  192   4.468   3.171   4.247
    1C        C  193   4.437   3.108   4.370
    1C        C  194   4.499   3.315   4.489
    1C        C  195   4.463   3.179   4.490
    1C        C  196   4.519   3.386   4.610
    1C        C  197   4.510   3.317   4.733
    1C        C  198   4.556   3.532   4.850
    1C        C  199   4.534   3.390   4.853
    1C        C  200   4.586   3.619   4.960
    1C        C  201   3.616   2.420   2.069
    1C        C  202   3.825   2.513   2.183
    1C        C  203   3.691   2.464   2.183
    1C        C  204   3.899   2.542   2.301
    1C        C  205   3.831   2.520   2.422
    1C        C  206   4.018   2.614   2.541
    1C        C  207   3.893   2.548   2.546
    1C        C  208   4.082   2.655   2.660
    1C        C  209   4.025   2.625   2.786
    1C        C  210   4.191   2.745   2.905
    1C        C  211   4.077   2.662   2.911
    1C        C  212   4.244   2.800   3.024
    1C        C  213   4.197   2.753   3.149
    1C        C  214   4.331   2.905   3.271
    1C        C  215   4.241   2.796   3.276
    1C        C  216   4.371   2.970   3.390
    1C        C  217   4.329   2.920   3.515
    1C        C  218   4.434   3.097   3.639
    1C        C  219   4.369   2.971   3.641
    1C        C  220   4.467   3.165   3.758
    1C        C  221   4.439   3.101   3.881
    1C        C  222   4.506   3.301   4.004
    1C        C  223   4.468   3.165   4.003
    1C        C  224   4.512   3.378   4.122
    1C        C  225   4.503   3.308   4.245
    1C        C  226   4.522   3.523   4.366
    1C        C  227   4.512   3.382   4.365
    1C        C  228   4.515   3.595   4.487
    1C        C  229   4.526   3.527   4.610
    1C        C  230   4.506   3.742   4.727
    1C        C  231   4.536   3.603   4.729
    1C        C  232   4.498   3.820   4.844
    1C        C  233   4.553   3.755   4.955
    1C        C  234   4.019   2.605   2.062
    1C        C  235   3.891   2.551   2.064
    1C        C  236   4.085   2.643   2.180
    1C        C  237   4.026   2.606   2.303
    1C        C  238   4.202   2.732   2.419
    1C        C  239   4.089   2.646   2.423
    1C        C  240   4.248   2.783   2.543
    1C        C  241   4.193   2.741   2.666
    1C        C  242   4.334   2.907   2.782
    1C        C  243   4.248   2.795   2.785
    1C        C  244   4.372   2.963   2.906
    1C        C  245   4.335   2.908   3.030
    1C        C  246   4.437   3.095   3.146
    1C        C  247   4.374   2.969   3.152
    1C        C  248   4.460   3.159   3.270
    1C        C  249   4.434   3.096   3.393
    1C        C  250   4.497   3.298   3.513
    1C        C  251   4.459   3.162   3.516
    1C        C  252   4.507   3.369   3.635
    1C        C  253   4.505   3.301   3.759
    1C        C  254   4.520   3.513   3.877
    1C        C  255   4.518   3.371   3.881
    1C        C  256   4.514   3.587   3.997
    1C        C  257   4.517   3.519   4.121
    1C        C  258   4.487   3.729   4.241
    1C        C  259   4.515   3.591   4.242
    1C        C  260   4.472   3.802   4.361
    1C        C  261   4.491   3.734   4.484
    1C        C  262   4.428   3.939   4.605
    1C        C  263   4.478   3.806   4.605
    1C        C  264   4.398   4.008   4.724
    1C        C  265   4.433   3.946   4.846
    1C        C  266   4.321   4.135   4.957
    1C        C  267   4.389   4.014   4.960
    1C        C  268   4.262   2.777   2.062
    1C        C  269   4.197   2.728   2.177
    1C        C  270   4.344   2.889   2.298
    1C        C  271   4.252   2.781   2.296
    1C        C  272   4.386   2.951   2.418
    1C        C  273   4.338   2.892   2.537
    1C        C  274   4.445   3.080   2.659
    1C        C  275   4.376   2.956   2.657
    1C        C  276   4.470   3.151   2.778
    1C        C  277   4.440   3.087   2.901
    1C        C  278   4.505   3.290   3.024
    1C        C  279   4.467   3.154   3.022
    1C        C  280   4.510   3.363   3.145
    1C        C  281   4.497   3.296   3.269
    1C        C  282   4.514   3.507   3.389
    1C        C  283   4.512   3.366   3.391
    1C        C  284   4.514   3.579   3.511
    1C        C  285   4.512   3.510   3.635
    1C        C  286   4.497   3.724   3.753
    1C        C  287   4.515   3.584   3.755
    1C        C  288   4.475   3.794   3.874
    1C        C  289   4.486   3.726   3.997
    1C        C  290   4.419   3.929   4.115
    1C        C  291   4.471   3.797   4.118
    1C        C  292   4.391   3.993   4.237
    1C        C  293   4.423   3.934   4.361
    1C        C  294   4.325   4.124   4.479
    1C        C  295   4.394   4.001   4.483
    1C        C  296   4.283   4.187   4.599
    1C        C  297   4.328   4.132   4.720
    1C        C  298   4.198   4.313   4.837
    1C        C  299   4.278   4.194   4.838
    1C        C  300   4.168   4.401   4.945
    1C        C  301   4.352   2.883   2.060
    1C        C  302   4.467   3.069   2.175
    1C        C  303   4.395   2.945   2.178
    1C        C  304   4.486   3.141   2.296
    1C        C  305   4.452   3.076   2.416
    1C        C  306   4.504   3.283   2.536
    1C        C  307   4.474   3.145   2.537
    1C        C  308   4.510   3.356   2.657
    1C        C  309   4.505   3.288   2.780
    1C        C  310   4.525   3.501   2.901
    1C        C  311   4.518   3.360   2.902
    1C        C  312   4.517   3.573   3.022
    1C        C  313   4.516   3.504   3.145
    1C        C  314   4.486   3.716   3.266
    1C        C  315   4.512   3.577   3.266
    1C        C  316   4.469   3.785   3.389
    1C        C  317   4.492   3.718   3.511
    1C        C  318   4.424   3.923   3.629
    1C        C  319   4.475   3.792   3.631
    1C        C  320   4.394   3.989   3.751
    1C        C  321   4.425   3.926   3.873
    1C        C  322   4.319   4.114   3.990
    1C        C  323   4.395   3.995   3.993
    1C        C  324   4.278   4.170   4.113
    1C        C  325   4.320   4.115   4.237
    1C        C  326   4.185   4.282   4.355
    1C        C  327   4.283   4.180   4.357
    1C        C  328   4.136   4.338   4.475
    1C        C  329   4.190   4.294   4.597
    1C        C  330   4.022   4.436   4.716
    1C        C  331   4.139   4.354   4.714
    1C        C  332   3.966   4.490   4.834
    1C        C  333   4.050   4.476   4.946
    1C        C  334   4.547   3.267   2.060
    1C        C  335   4.525   3.128   2.058
    1C        C  336   4.532   3.350   2.172
    1C        C  337   4.513   3.281   2.294
    1C        C  338   4.524   3.495   2.412
    1C        C  339   4.519   3.354   2.414
    1C        C  340   4.518   3.568   2.533
    1C        C  341   4.519   3.497   2.654
    1C        C  342   4.492   3.707   2.774
    1C        C  343   4.515   3.568   2.777
    1C        C  344   4.472   3.779   2.894
    1C        C  345   4.493   3.712   3.017
    1C        C  346   4.420   3.909   3.141
    1C        C  347   4.475   3.779   3.140
    1C        C  348   4.386   3.978   3.260
    1C        C  349   4.419   3.916   3.383
    1C        C  350   4.317   4.102   3.504
    1C        C  351   4.390   3.981   3.505
    1C        C  352   4.272   4.165   3.622
    1C        C  353   4.319   4.108   3.743
    1C        C  354   4.173   4.261   3.867
    1C        C  355   4.274   4.163   3.865
    1C        C  356   4.122   4.315   3.987
    1C        C  357   4.181   4.272   4.108
    1C        C  358   4.011   4.396   4.233
    1C        C  359   4.131   4.323   4.230
    1C        C  360   3.951   4.444   4.352
    1C        C  361   4.017   4.415   4.474
    1C        C  362   3.827   4.514   4.594
    1C        C  363   3.959   4.463   4.593
    1C        C  364   3.761   4.546   4.715
    1C        C  365   3.837   4.547   4.833
    1C        C  366   3.626   4.590   4.954
    1C        C  367   3.764   4.577   4.949
    1C        C  368   4.507   3.564   2.049
    1C        C  369   4.521   3.490   2.167
    1C        C  370   4.504   3.703   2.288
    1C        C  371   4.519   3.563   2.288
    1C        C  372   4.477   3.774   2.407
    1C        C  373   4.494   3.707   2.530
    1C        C  374   4.422   3.907   2.647
    1C        C  375   4.474   3.776   2.652
    1C        C  376   4.389   3.969   2.770
    1C        C  377   4.424   3.912   2.894
    1C        C  378   4.323   4.095   3.013
    1C        C  379   4.395   3.974   3.018
    1C        C  380   4.272   4.152   3.132
    1C        C  381   4.306   4.094   3.256
    1C        C  382   4.176   4.257   3.377
    1C        C  383   4.273   4.153   3.380
    1C        C  384   4.121   4.306   3.497
    1C        C  385   4.176   4.268   3.622
    1C        C  386   4.008   4.395   3.743
    1C        C  387   4.121   4.310   3.745
    1C        C  388   3.947   4.434   3.864
    1C        C  389   4.006   4.397   3.987
    1C        C  390   3.818   4.487   4.107
    1C        C  391   3.947   4.428   4.111
    1C        C  392   3.751   4.512   4.229
    1C        C  393   3.822   4.499   4.351
    1C        C  394   3.617   4.550   4.474
    1C        C  395   3.756   4.528   4.473
    1C        C  396   3.548   4.564   4.597
    1C        C  397   3.620   4.561   4.718
    1C        C  398   3.409   4.546   4.837
    1C        C  399   3.548   4.572   4.838
    1C        C  400   3.340   4.505   4.952
    1C        C  401   4.504   3.703   2.050
    1C        C  402   4.455   3.914   2.166
    1C        C  403   4.495   3.778   2.168
    1C        C  404   4.405   3.974   2.283
    1C        C  405   4.428   3.907   2.405
    1C        C  406   4.324   4.095   2.526
    1C        C  407   4.397   3.974   2.525
    1C        C  408   4.275   4.147   2.647
    1C        C  409   4.311   4.087   2.770
    1C        C  410   4.172   4.246   2.888
    1C        C  411   4.274   4.148   2.891
    1C        C  412   4.119   4.294   3.010
    1C        C  413   4.172   4.251   3.134
    1C        C  414   4.004   4.381   3.251
    1C        C  415   4.122   4.304   3.255
    1C        C  416   3.942   4.413   3.374
    1C        C  417   4.002   4.383   3.498
    1C        C  418   3.811   4.472   3.618
    1C        C  419   3.944   4.424   3.620
    1C        C  420   3.747   4.501   3.741
    1C        C  421   3.815   4.484   3.863
    1C        C  422   3.610   4.529   3.988
    1C        C  423   3.750   4.509   3.986
    1C        C  424   3.540   4.535   4.110
    1C        C  425   3.612   4.536   4.232
    1C        C  426   3.401   4.550   4.357
    1C        C  427   3.543   4.552   4.354
    1C        C  428   3.331   4.546   4.479
    1C        C  429   3.406   4.560   4.598
    1C        C  430   3.195   4.518   4.724
    1C        C  431   3.333   4.549   4.718
    1C        C  432   3.121   4.499   4.844
    1C        C  433   3.201   4.501   4.959
    1C        C  434   4.381   4.119   2.053
    1C        C  435   4.447   3.995   2.053
    1C        C  436   4.302   4.164   2.163
    1C        C  437   4.339   4.100   2.285
    1C        C  438   4.177   4.246   2.402
    1C        C  439   4.284   4.154   2.404
    1C        C  440   4.123   4.294   2.523
    1C        C  441   4.175   4.247   2.646
    1C        C  442   4.003   4.375   2.765
    1C        C  443   4.119   4.295   2.767
    1C        C  444   3.941   4.412   2.887
    1C        C  445   4.001   4.372   3.009
    1C        C  446   3.810   4.468   3.130
    1C        C  447   3.940   4.413   3.129
    1C        C  448   3.744   4.490   3.253
    1C        C  449   3.813   4.469   3.375
    1C        C  450   3.606   4.523   3.496
    1C        C  451   3.744   4.493   3.496
    1C        C  452   3.537   4.536   3.619
    1C        C  453   3.609   4.534   3.740
    1C        C  454   3.401   4.547   3.863
    1C        C  455   3.542   4.545   3.864
    1C        C  456   3.331   4.535   3.986
    1C        C  457   3.399   4.543   4.109
    1C        C  458   3.196   4.501   4.235
    1C        C  459   3.333   4.537   4.234
    1C        C  460   3.129   4.485   4.358
    1C        C  461   3.193   4.516   4.481
    1C        C  462   2.998   4.433   4.602
    1C        C  463   3.126   4.492   4.603
    1C        C  464   2.930   4.401   4.722
    1C        C  465   2.989   4.445   4.844
    1C        C  466   2.798   4.338   4.957
    1C        C  467   2.905   4.428   4.959
    1C        C  468   4.121   4.286   2.042
    1C        C  469   4.187   4.249   2.160
    1C        C  470   4.002   4.367   2.277
    1C        C  471   4.123   4.292   2.280
    1C        C  472   3.939   4.402   2.398
    1C        C  473   4.003   4.370   2.520
    1C        C  474   3.811   4.460   2.642
    1C        C  475   3.940   4.402   2.642
    1C        C  476   3.744   4.486   2.763
    1C        C  477   3.812   4.468   2.886
    1C        C  478   3.605   4.519   3.011
    1C        C  479   3.743   4.490   3.007
    1C        C  480   3.532   4.528   3.131
    1C        C  481   3.606   4.517   3.251
    1C        C  482   3.395   4.538   3.376
    1C        C  483   3.536   4.534   3.373
    1C        C  484   3.326   4.527   3.499
    1C        C  485   3.396   4.539   3.621
    1C        C  486   3.190   4.501   3.744
    1C        C  487   3.327   4.538   3.744
    1C        C  488   3.127   4.478   3.868
    1C        C  489   3.194   4.501   3.990
    1C        C  490   3.005   4.410   4.115
    1C        C  491   3.128   4.479   4.113
    1C        C  492   2.944   4.381   4.239
    1C        C  493   3.001   4.426   4.360
    1C        C  494   2.832   4.296   4.483
    1C        C  495   2.940   4.388   4.482
    1C        C  496   2.773   4.254   4.604
    1C        C  497   2.818   4.313   4.724
    1C        C  498   2.664   4.161   4.846
    1C        C  499   2.754   4.269   4.842
    1C        C  500   2.592   4.115   4.957
    1C        C  501   4.000   4.354   2.039
    1C        C  502   3.812   4.466   2.154
    1C        C  503   3.937   4.399   2.156
    1C        C  504   3.744   4.486   2.275
    1C        C  505   3.810   4.459   2.397
    1C        C  506   3.605   4.507   2.518
    1C        C  507   3.745   4.484   2.519
    1C        C  508   3.536   4.511   2.641
    1C        C  509   3.605   4.512   2.764
    1C        C  510   3.395   4.519   2.884
    1C        C  511   3.536   4.522   2.887
    1C        C  512   3.323   4.523   3.006
    1C        C  513   3.391   4.531   3.130
    1C        C  514   3.187   4.495   3.254
    1C        C  515   3.324   4.531   3.254
    1C        C  516   3.121   4.471   3.376
    1C        C  517   3.188   4.494   3.498
    1C        C  518   2.996   4.414   3.624
    1C        C  519   3.123   4.475   3.622
    1C        C  520   2.939   4.373   3.747
    1C        C  521   3.003   4.411   3.867
    1C        C  522   2.839   4.282   3.997
    1C        C  523   2.949   4.370   3.992
    1C        C  524   2.788   4.234   4.120
    1C        C  525   2.836   4.290   4.240
    1C        C  526   2.696   4.132   4.366
    1C        C  527   2.781   4.245   4.362
    1C        C  528   2.650   4.076   4.487
    1C        C  529   2.686   4.143   4.606
    1C        C  530   2.584   3.957   4.734
    1C        C  531   2.642   4.087   4.728
    1C        C  532   2.544   3.896   4.856
    1C        C  533   2.525   3.992   4.960
    1C        C  534   3.614   4.556   2.039
    1C        C  535   3.746   4.511   2.039
    1C        C  536   3.533   4.537   2.156
    1C        C  537   3.604   4.513   2.277
    1C        C  538   3.391   4.518   2.400
    1C        C  539   3.532   4.518   2.398
    1C        C  540   3.320   4.512   2.523
    1C        C  541   3.394   4.511   2.643
    1C        C  542   3.184   4.478   2.765
    1C        C  543   3.322   4.506   2.764
    1C        C  544   3.116   4.463   2.889
    1C        C  545   3.185   4.494   3.008
    1C        C  546   2.997   4.402   3.135
    1C        C  547   3.122   4.466   3.132
    1C        C  548   2.937   4.365   3.258
    1C        C  549   2.995   4.407   3.380
    1C        C  550   2.828   4.280   3.505
    1C        C  551   2.936   4.371   3.503
    1C        C  552   2.779   4.233   3.629
    1C        C  553   2.834   4.279   3.750
    1C        C  554   2.706   4.117   3.875
    1C        C  555   2.791   4.230   3.875
    1C        C  556   2.662   4.062   3.998
    1C        C  557   2.700   4.123   4.119
    1C        C  558   2.598   3.943   4.244
    1C        C  559   2.661   4.070   4.244
    1C        C  560   2.565   3.882   4.367
    1C        C  561   2.585   3.951   4.489
    1C        C  562   2.534   3.749   4.614
    1C        C  563   2.564   3.887   4.613
    1C        C  564   2.517   3.681   4.737
    1C        C  565   2.516   3.756   4.858
    1C        C  566   2.525   3.543   4.976
    1C        C  567   2.523   3.682   4.977
    1C        C  568   3.324   4.478   2.040
    1C        C  569   3.393   4.514   2.157
    1C        C  570   3.181   4.478   2.279
    1C        C  571   3.319   4.511   2.279
    1C        C  572   3.113   4.455   2.400
    1C        C  573   3.182   4.484   2.520
    1C        C  574   2.988   4.400   2.645
    1C        C  575   3.115   4.462   2.643
    1C        C  576   2.928   4.362   2.767
    1C        C  577   2.992   4.396   2.888
    1C        C  578   2.827   4.273   3.015
    1C        C  579   2.939   4.359   3.013
    1C        C  580   2.780   4.221   3.138
    1C        C  581   2.833   4.269   3.259
    1C        C  582   2.696   4.114   3.385
    1C        C  583   2.781   4.227   3.383
    1C        C  584   2.663   4.053   3.509
    1C        C  585   2.697   4.117   3.630
    1C        C  586   2.600   3.932   3.754
    1C        C  587   2.663   4.058   3.754
    1C        C  588   2.573   3.870   3.878
    1C        C  589   2.600   3.935   4.000
    1C        C  590   2.543   3.734   4.127
    1C        C  591   2.574   3.871   4.124
    1C        C  592   2.523   3.671   4.252
    1C        C  593   2.532   3.745   4.372
    1C        C  594   2.516   3.534   4.496
    1C        C  595   2.523   3.675   4.495
    1C        C  596   2.515   3.464   4.619
    1C        C  597   2.511   3.539   4.739
    1C        C  598   2.526   3.325   4.861
    1C        C  599   2.519   3.466   4.860
    1C        C  600   2.526   3.248   4.978
    1C        C  601   3.193   4.436   2.046
    1C        C  602   2.978   4.390   2.156
    1C        C  603   3.111   4.441   2.160
    1C        C  604   2.922   4.357   2.283
    1C        C  605   2.984   4.397   2.404
    1C        C  606   2.815   4.269   2.528
    1C        C  607   2.925   4.358   2.526
    1C        C  608   2.770   4.220   2.653
    1C        C  609   2.820   4.271   2.775
    1C        C  610   2.680   4.112   2.896
    1C        C  611   2.769   4.222   2.897
    1C        C  612   2.647   4.055   3.021
    1C        C  613   2.690   4.112   3.142
    1C        C  614   2.591   3.926   3.263
    1C        C  615   2.654   4.053   3.265
    1C        C  616   2.567   3.866   3.388
    1C        C  617   2.596   3.929   3.511
    1C        C  618   2.530   3.729   3.637
    1C        C  619   2.570   3.864   3.634
    1C        C  620   2.519   3.661   3.761
    1C        C  621   2.534   3.734   3.881
    1C        C  622   2.505   3.527   4.009
    1C        C  623   2.521   3.667   4.004
    1C        C  624   2.512   3.455   4.130
    1C        C  625   2.506   3.531   4.250
    1C        C  626   2.535   3.324   4.378
    1C        C  627   2.511   3.464   4.374
    1C        C  628   2.554   3.253   4.499
    1C        C  629   2.536   3.325   4.619
    1C        C  630   2.596   3.120   4.742
    1C        C  631   2.551   3.255   4.741
    1C        C  632   2.616   3.051   4.864
    1C        C  633   2.559   3.112   4.981
    1C        C  634   2.778   4.301   2.052
    1C        C  635   2.882   4.395   2.050
    1C        C  636   2.745   4.228   2.167
    1C        C  637   2.809   4.271   2.285
    1C        C  638   2.680   4.103   2.412
    1C        C  639   2.764   4.217   2.407
    1C        C  640   2.641   4.042   2.534
    1C        C  641   2.684   4.107   2.651
    1C        C  642   2.587   3.921   2.779
    1C        C  643   2.646   4.049   2.774
    1C        C  644   2.564   3.852   2.900
    1C        C  645   2.591   3.925   3.019
    1C        C  646   2.529   3.722   3.148
    1C        C  647   2.568   3.858   3.141
    1C        C  648   2.515   3.655   3.271
    1C        C  649   2.529   3.730   3.390
    1C        C  650   2.510   3.522   3.517
    1C        C  651   2.514   3.663   3.514
    1C        C  652   2.511   3.451   3.639
    1C        C  653   2.507   3.520   3.762
    1C        C  654   2.530   3.315   3.888
    1C        C  655   2.504   3.454   3.887
    1C        C  656   2.549   3.249   4.012
    1C        C  657   2.538   3.316   4.136
    1C        C  658   2.598   3.116   4.257
    1C        C  659   2.555   3.251   4.260
    1C        C  660   2.633   3.055   4.380
    1C        C  661   2.601   3.120   4.501
    1C        C  662   2.713   2.938   4.625
    1C        C  663   2.635   3.055   4.622
    1C        C  664   2.748   2.875   4.747
    1C        C  665   2.694   2.931   4.866
    1C        C  666   2.747   2.873   4.982
    1C        C  667   2.679   4.022   2.052
    1C        C  668   2.679   4.103   2.166
    1C        C  669   2.589   3.913   2.289
    1C        C  670   2.645   4.043   2.289
    1C        C  671   2.553   3.849   2.410
    1C        C  672   2.577   3.916   2.532
    1C        C  673   2.518   3.719   2.658
    1C        C  674   2.555   3.856   2.658
    1C        C  675   2.506   3.646   2.778
    1C        C  676   2.524   3.717   2.900
    1C        C  677   2.506   3.513   3.027
    1C        C  678   2.512   3.654   3.025
    1C        C  679   2.510   3.444   3.151
    1C        C  680   2.507   3.514   3.274
    1C        C  681   2.532   3.307   3.401
    1C        C  682   2.513   3.446   3.398
    1C        C  683   2.551   3.239   3.523
    1C        C  684   2.532   3.311   3.644
    1C        C  685   2.601   3.113   3.772
    1C        C  686   2.548   3.244   3.767
    1C        C  687   2.638   3.052   3.894
    1C        C  688   2.603   3.119   4.013
    1C        C  689   2.713   2.938   4.139
    1C        C  690   2.632   3.053   4.135
    1C        C  691   2.756   2.881   4.261
    1C        C  692   2.714   2.939   4.382
    1C        C  693   2.752   2.878   4.503
    1C        C  694   2.629   3.891   2.056
    1C        C  695   2.527   3.702   2.173
    1C        C  696   2.578   3.833   2.173
    1C        C  697   2.507   3.639   2.298
    1C        C  698   2.518   3.713   2.417
    1C        C  699   2.490   3.503   2.540
    1C        C  700   2.503   3.643   2.540
    1C        C  701   2.500   3.434   2.663
    1C        C  702   2.502   3.505   2.785
    1C        C  703   2.526   3.296   2.910
    1C        C  704   2.506   3.436   2.908
    1C        C  705   2.543   3.231   3.034
    1C        C  706   2.528   3.304   3.154
    1C        C  707   2.598   3.106   3.279
    1C        C  708   2.548   3.238   3.278
    1C        C  709   2.635   3.046   3.401
    1C        C  710   2.605   3.109   3.524
    1C        C  711   2.708   2.931   3.648
    1C        C  712   2.631   3.050   3.650
    1C        C  713   2.760   2.880   3.769
    1C        C  714   2.718   2.935   3.892
    1C        C  715   2.756   2.881   4.017
    1C        C  716   2.443   3.503   2.062
    1C        C  717   2.486   3.636   2.056
    1C        C  718   2.459   3.423   2.180
    1C        C  719   2.479   3.499   2.299
    1C        C  720   2.514   3.289   2.424
    1C        C  721   2.489   3.428   2.420
    1C        C  722   2.529   3.221   2.547
    1C        C  723   2.518   3.294   2.668
    1C        C  724   2.593   3.094   2.788
    1C        C  725   2.539   3.224   2.789
    1C        C  726   2.624   3.038   2.914
    1C        C  727   2.594   3.100   3.037
    1C        C  728   2.708   2.921   3.155
    1C        C  729   2.629   3.038   3.159
    1C        C  730   2.752   2.874   3.281
    1C        C  731   2.714   2.929   3.406
    1C        C  732   2.753   2.871   3.529
    1C        C  733   2.495   3.196   2.073
    1C        C  734   2.493   3.284   2.182
    1C        C  735   2.587   3.088   2.306
    1C        C  736   2.530   3.218   2.303
    1C        C  737   2.619   3.025   2.428
    1C        C  738   2.584   3.091   2.548
    1C        C  739   2.701   2.909   2.673
    1C        C  740   2.623   3.026   2.667
    1C        C  741   2.746   2.855   2.796
    1C        C  742   2.702   2.920   2.914
    1C        C  743   2.750   2.862   3.033
    1C        C  744   2.545   3.066   2.073
    1C        C  745   2.686   2.898   2.187
    1C        C  746   2.604   3.013   2.188
    1C        C  747   2.729   2.837   2.307
    1C        C  748   2.691   2.903   2.426
    1C        C  749   2.741   2.855   2.549
    1C        C  750   2.734   2.837   2.070
    1C        C  751   3.662   2.341   1.953
    1C        O  752   3.676   2.216   1.963
    1C        O  753   3.637   2.390   1.825
    1C        C  754   4.622   3.054   1.975
    1C        O  755   4.607   3.045   1.850
    1C        O  756   4.757   3.037   2.006
    1C        C  757   4.422   4.206   1.940
    1C        O  758   4.484   4.314   1.958
    1C        O  759   4.352   4.181   1.821
    1C        C  760   3.588   4.658   1.935
    1C        O  761   3.553   4.774   1.971
    1C        O  762   3.527   4.623   1.814
    1C        C  763   2.842   4.531   2.009
    1C        O  764   2.872   4.587   1.900
    1C        O  765   2.765   4.611   2.095
    1C        C  766   2.341   3.480   1.957
    1C        O  767   2.377   3.420   1.852
    1C        O  768   2.201   3.479   1.969
    1C        C  769   4.666   3.570   5.074
    1C        O  770   4.621   3.557   5.191
    1C        O  771   4.805   3.592   5.069
    1C        C  772   4.272   4.452   5.038
    1C        O  773   4.256   4.472   5.161
    1C        O  774   4.348   4.560   4.990
    1C        C  775   4.147   2.509   5.064
    1C        O  776   4.211   2.411   5.019
    1C        O  777   4.142   2.517   5.204
    1C        C  778   2.911   4.521   5.074
    1C        O  779   2.920   4.646   5.058
    1C        O  780   2.869   4.488   5.203
    1C        C  781   2.482   3.034   5.080
    1C        O  782   2.370   2.986   5.048
    1C        O  783   2.527   3.004   5.208
    1C        C  784   2.418   3.976   5.062
    1C        O  785   2.312   4.040   5.038
    1C        O  786   2.450   3.949   5.196
    1C        C  787   2.946   2.437   1.993
    1C        O  788   2.953   2.457   1.869
    1C        O  789   2.903   2.311   2.034
    1C        C  790   3.188   2.374   5.061
    1C        O  791   3.170   2.258   5.014
    1C        O  792   3.227   2.372   5.195
    1C        H  793   4.339   2.980   5.065
    1C        H  794   4.161   2.822   5.071
    1C        H  795   4.525   3.117   5.039
    1C        H  796   4.517   3.365   5.064
    1C        H  797   4.589   3.817   5.035
    1C        H  798   4.427   3.989   5.057
    1C        H  799   4.308   4.189   5.049
    1C        H  800   4.044   4.551   5.022
    1C        H  801   3.817   4.584   5.042
    1C        H  802   3.585   4.650   5.032
    1C        H  803   3.394   4.459   5.032
    1C        H  804   3.160   4.474   5.054
    1C        H  805   3.889   2.478   5.062
    1C        H  806   3.666   2.398   5.048
    1C        H  807   3.019   2.590   5.070
    1C        H  808   3.446   2.493   5.078
    1C        H  809   2.854   2.718   5.075
    1C        H  810   2.717   2.903   5.081
    1C        H  811   2.460   3.283   5.054
    1C        H  812   2.587   3.503   5.054
    1C        H  813   2.544   3.728   5.071
    1C        H  814   2.568   4.180   5.039
    1C        H  815   2.755   4.314   5.052
    1C        H  816   2.739   2.894   1.980
    1C        H  817   2.866   2.697   1.976
    1C        H  818   3.216   2.473   1.983
    1C        H  819   3.424   2.420   1.981
    1C        H  820   3.839   2.544   1.971
    1C        H  821   4.061   2.625   1.966
    1C        H  822   4.214   2.756   1.969
    1C        H  823   4.387   2.911   1.962
    1C        H  824   4.531   3.311   1.964
    1C        H  825   4.439   3.523   1.978
    1C        H  826   4.506   3.754   1.956
    1C        H  827   3.800   4.520   1.947
    1C        H  828   3.968   4.392   1.945
    1C        H  829   4.182   4.291   1.955
    1C        H  830   4.485   3.962   1.958
    1C        H  831   2.677   3.828   1.985
    1C        H  832   2.712   4.065   1.959
    1C        H  833   2.711   4.305   1.969
    1C        H  834   3.351   4.532   1.952
    1C        H  835   3.149   4.414   1.951
    1C        H  836   2.519   2.999   1.994
    1C        H  837   2.457   3.237   1.982
    1C        H  838   2.476   3.689   1.964
    2V3OU   H29  839   2.799   3.539   0.630
    2V3OU   C27  840   2.782   3.498   0.733
    2V3OU   H27  841   2.723   3.572   0.793
    2V3OU   H28  842   2.725   3.402   0.731
    2V3OU   O11  843   2.907   3.473   0.798
    2V3OU   C15  844   2.919   3.391   0.908
    2V3OU   C13  845   3.049   3.371   0.959
    2V3OU   C14  846   3.076   3.263   1.043
    2V3OU   C16  847   2.972   3.179   1.083
    2V3OU    H6  848   2.987   3.101   1.158
    2V3OU   C12  849   3.213   3.228   1.089
    2V3OU    O2  850   3.235   3.127   1.158
    2V3OU   C10  851   3.323   3.306   1.031
    2V3OU    C8  852   3.455   3.266   1.051
    2V3OU   O10  853   3.491   3.157   1.124
    2V3OU   H26  854   3.409   3.112   1.151
    2V3OU    C6  855   3.561   3.349   1.004
    2V3OU    C5  856   3.535   3.469   0.938
    2V3OU    C4  857   3.700   3.296   1.009
    2V3OU    H4  858   3.724   3.239   1.105
    2V3OU    H5  859   3.714   3.224   0.923
    2V3OU    C2  860   3.816   3.396   1.003
    2V3OU    O6  861   3.805   3.474   1.122
    2V3OU   H21  862   3.767   3.561   1.099
    2V3OU    C3  863   3.783   3.494   0.890
    2V3OU    H2  864   3.865   3.570   0.888
    2V3OU    H3  865   3.781   3.435   0.795
    2V3OU   C25  866   3.950   3.324   0.987
    2V3OU    O7  867   3.998   3.295   0.878
    2V3OU   C26  868   4.031   3.287   1.110
    2V3OU   H22  869   4.061   3.386   1.154
    2V3OU   H23  870   4.120   3.225   1.083
    2V3OU    O8  871   3.959   3.207   1.202
    2V3OU   H24  872   3.927   3.267   1.271
    2V3OU    C1  873   3.648   3.562   0.904
    2V3OU    H1  874   3.629   3.618   0.808
    2V3OU    O3  875   3.658   3.652   1.015
    2V3OU   C19  876   3.611   3.787   1.010
    2V3OU    H9  877   3.515   3.811   0.954
    2V3OU    O4  878   3.711   3.850   0.933
    2V3OU   C20  879   3.845   3.869   0.979
    2V3OU   H10  880   3.900   3.770   0.990
    2V3OU   C24  881   3.606   3.854   1.147
    2V3OU   H16  882   3.546   3.797   1.223
    2V3OU   H17  883   3.562   3.956   1.135
    2V3OU   C23  884   3.746   3.876   1.204
    2V3OU   H15  885   3.786   3.771   1.223
    2V3OU    N1  886   3.737   3.955   1.325
    2V3OU   H19  887   3.813   3.926   1.383
    2V3OU   H20  888   3.653   3.931   1.374
    2V3OU   C21  889   3.848   3.947   1.110
    2V3OU   H11  890   3.953   3.931   1.148
    2V3OU    O5  891   3.832   4.088   1.105
    2V3OU   H18  892   3.778   4.110   1.182
    2V3OU   C22  893   3.911   3.949   0.867
    2V3OU   H12  894   3.858   4.045   0.848
    2V3OU   H13  895   3.903   3.888   0.773
    2V3OU   H14  896   4.021   3.960   0.889
    2V3OU   C11  897   3.156   3.470   0.941
    2V3OU    O1  898   3.132   3.591   0.918
    2V3OU    C9  899   3.295   3.427   0.962
    2V3OU    C7  900   3.399   3.507   0.915
    2V3OU    O9  901   3.386   3.621   0.840
    2V3OU   H25  902   3.290   3.631   0.830
    2V3OU   C17  903   2.815   3.306   0.950
    2V3OU    H7  904   2.714   3.346   0.959
    2V3OU   C18  905   2.844   3.197   1.031
    2V3OU    H8  906   2.757   3.152   1.081
    3SOL     OW  907   0.706   4.755   1.396
    3SOL    HW1  908   0.696   4.685   1.467
    3SOL    HW2  909   0.738   4.712   1.311
    4SOL     OW  910   6.235   1.895   2.553
    4SOL    HW1  911   6.234   1.845   2.466
    4SOL    HW2  912   6.329   1.907   2.583
    5SOL     OW  913   4.053   3.108   0.268
    5SOL    HW1  914   4.104   3.030   0.303
    5SOL    HW2  915   4.114   3.186   0.255
    6SOL     OW  916   3.447   2.414   0.353
    6SOL    HW1  917   3.419   2.457   0.267
    6SOL    HW2  918   3.393   2.451   0.428
    7SOL     OW  919   5.747   0.897   1.817
    7SOL    HW1  920   5.703   0.817   1.777
    7SOL    HW2  921   5.821   0.869   1.877
    8SOL     OW  922   3.254   2.010   3.194
    8SOL    HW1  923   3.247   1.914   3.220
    8SOL    HW2  924   3.294   2.017   3.102
    9SOL     OW  925   6.554   4.116   6.709
    9SOL    HW1  926   6.518   4.186   6.770
    9SOL    HW2  927   6.478   4.076   6.657
   10SOL     OW  928   6.540   4.181   1.655
   10SOL    HW1  929   6.442   4.166   1.642
   10SOL    HW2  930   6.555   4.231   1.741
   11SOL     OW  931   4.059   6.969   0.624
   11SOL    HW1  932   4.051   6.920   0.537
   11SOL    HW2  933   3.970   6.970   0.670
   12SOL     OW  934   5.490   6.770   2.256
   12SOL    HW1  935   5.469   6.857   2.210
   12SOL    HW2  936   5.562   6.785   2.324
   13SOL     OW  937   2.145   6.495   2.190
   13SOL    HW1  938   2.144   6.584   2.144
   13SOL    HW2  939   2.059   6.483   2.240
   14SOL     OW  940   2.748   0.202   3.170
   14SOL    HW1  941   2.681   0.259   3.124
   14SOL    HW2  942   2.774   0.245   3.257
   15SOL     OW  943   2.690   6.968   6.100
   15SOL    HW1  944   2.617   0.001   6.140
   15SOL    HW2  945   2.666   6.945   6.005
   16SOL     OW  946   6.136   1.648   0.518
   16SOL    HW1  947   6.113   1.707   0.441
   16SOL    HW2  948   6.222   1.678   0.560
   17SOL     OW  949   4.181   5.605   4.053
   17SOL    HW1  950   4.207   5.582   4.147
   17SOL    HW2  951   4.117   5.681   4.054
   18SOL     OW  952   1.360   0.214   6.777
   18SOL    HW1  953   1.339   0.140   6.841
   18SOL    HW2  954   1.276   0.243   6.730
   19SOL     OW  955   0.514   6.901   0.815
   19SOL    HW1  956   0.562   6.932   0.733
   19SOL    HW2  957   0.511   6.976   0.882
   20SOL     OW  958   3.331   0.043   4.645
   20SOL    HW1  959   3.303   0.030   4.740
   20SOL    HW2  960   3.378   0.131   4.635
   21SOL     OW  961   2.771   3.003   1.411
   21SOL    HW1  962   2.771   3.102   1.405
   21SOL    HW2  963   2.836   2.973   1.480
   22SOL     OW  964   1.840   1.060   5.228
   22SOL    HW1  965   1.835   0.963   5.253
   22SOL    HW2  966   1.817   1.071   5.132
   23SOL     OW  967   2.458   6.630   4.420
   23SOL    HW1  968   2.393   6.659   4.490
   23SOL    HW2  969   2.539   6.592   4.463
   24SOL     OW  970   4.829   1.533   5.153
   24SOL    HW1  971   4.825   1.629   5.182
   24SOL    HW2  972   4.809   1.527   5.055
   25SOL     OW  973   2.603   6.041   0.759
   25SOL    HW1  974   2.509   6.009   0.770
   25SOL    HW2  975   2.660   6.002   0.831
   26SOL     OW  976   6.120   1.044   2.936
   26SOL    HW1  977   6.032   1.013   2.973
   26SOL    HW2  978   6.191   1.034   3.006
   27SOL     OW  979   5.826   0.107   2.302
   27SOL    HW1  980   5.866   0.099   2.211
   27SOL    HW2  981   5.732   0.072   2.299
   28SOL     OW  982   2.597   1.347   0.301
   28SOL    HW1  983   2.629   1.289   0.226
   28SOL    HW2  984   2.536   1.295   0.360
   29SOL     OW  985   4.886   3.275   1.925
   29SOL    HW1  986   4.821   3.201   1.943
   29SOL    HW2  987   4.977   3.248   1.958
   30SOL     OW  988   4.177   1.260   6.857
   30SOL    HW1  989   4.083   1.288   6.880
   30SOL    HW2  990   4.174   1.178   6.801
   31SOL     OW  991   1.345   1.781   5.176
   31SOL    HW1  992   1.439   1.816   5.181
   31SOL    HW2  993   1.290   1.822   5.248
   32SOL     OW  994   6.364   1.713   2.343
   32SOL    HW1  995   6.308   1.687   2.265
   32SOL    HW2  996   6.451   1.663   2.339
   33SOL     OW  997   1.332   1.118   4.724
   33SOL    HW1  998   1.398   1.150   4.792
   33SOL    HW2  999   1.380   1.065   4.654
   34SOL     OW 1000   0.954   0.984   4.571
   34SOL    HW1 1001   1.021   0.910   4.579
   34SOL    HW2 1002   0.914   1.002   4.661
   35SOL     OW 1003   4.565   2.228   6.449
   35SOL    HW1 1004   4.561   2.271   6.359
   35SOL    HW2 1005   4.499   2.272   6.510
   36SOL     OW 1006   1.160   2.833   6.587
   36SOL    HW1 1007   1.216   2.751   6.602
   36SOL    HW2 1008   1.219   2.914   6.586
   37SOL     OW 1009   3.660   6.564   2.033
   37SOL    HW1 1010   3.651   6.615   1.948
   37SOL    HW2 1011   3.653   6.628   2.110
   38SOL     OW 1012   6.304   5.304   1.294
   38SOL    HW1 1013   6.345   5.345   1.212
   38SOL    HW2 1014   6.205   5.300   1.283
   39SOL     OW 1015   7.000   2.608   6.402
   39SOL    HW1 1016   7.019   2.638   6.308
   39SOL    HW2 1017   0.064   2.605   6.454
   40SOL     OW 1018   6.888   1.837   1.710
   40SOL    HW1 1019   6.816   1.828   1.779
   40SOL    HW2 1020   6.891   1.756   1.653
   41SOL     OW 1021   0.426   1.698   6.353
   41SOL    HW1 1022   0.417   1.727   6.448
   41SOL    HW2 1023   0.518   1.717   6.321
   42SOL     OW 1024   4.068   6.440   0.705
   42SOL    HW1 1025   3.969   6.433   0.695
   42SOL    HW2 1026   4.089   6.482   0.794
   43SOL     OW 1027   4.495   5.260   5.658
   43SOL    HW1 1028   4.476   5.283   5.753
   43SOL    HW2 1029   4.458   5.331   5.598
   44SOL     OW 1030   1.281   4.755   6.823
   44SOL    HW1 1031   1.371   4.763   6.865
   44SOL    HW2 1032   1.211   4.781   6.890
   45SOL     OW 1033   2.551   0.024   0.779
   45SOL    HW1 1034   2.515   6.966   0.828
   45SOL    HW2 1035   2.569   7.021   0.684
   46SOL     OW 1036   0.602   5.348   4.266
   46SOL    HW1 1037   0.540   5.416   4.227
   46SOL    HW2 1038   0.564   5.312   4.351
   47SOL     OW 1039   6.701   4.348   2.558
   47SOL    HW1 1040   6.718   4.428   2.501
   47SOL    HW2 1041   6.622   4.298   2.522
   48SOL     OW 1042   0.923   1.720   5.367
   48SOL    HW1 1043   0.902   1.736   5.464
   48SOL    HW2 1044   1.022   1.714   5.355
   49SOL     OW 1045   5.859   3.386   6.812
   49SOL    HW1 1046   5.956   3.368   6.798
   49SOL    HW2 1047   5.806   3.304   6.790
   50SOL     OW 1048   0.933   3.860   4.446
   50SOL    HW1 1049   0.887   3.923   4.510
   50SOL    HW2 1050   0.925   3.897   4.353
   51SOL     OW 1051   2.523   6.389   1.605
   51SOL    HW1 1052   2.455   6.415   1.536
   51SOL    HW2 1053   2.485   6.405   1.697
   52SOL     OW 1054   0.566   2.253   2.586
   52SOL    HW1 1055   0.649   2.257   2.531
   52SOL    HW2 1056   0.589   2.261   2.683
   53SOL     OW 1057   4.736   6.663   3.958
   53SOL    HW1 1058   4.781   6.723   4.025
   53SOL    HW2 1059   4.695   6.719   3.886
   54SOL     OW 1060   4.623   4.458   5.443
   54SOL    HW1 1061   4.621   4.425   5.537
   54SOL    HW2 1062   4.541   4.427   5.395
   55SOL     OW 1063   4.387   2.412   1.460
   55SOL    HW1 1064   4.348   2.481   1.399
   55SOL    HW2 1065   4.459   2.453   1.515
   56SOL     OW 1066   7.009   0.892   1.645
   56SOL    HW1 1067   6.943   0.841   1.700
   56SOL    HW2 1068   0.013   0.975   1.693
   57SOL     OW 1069   5.028   0.523   6.935
   57SOL    HW1 1070   4.989   0.599   6.884
   57SOL    HW2 1071   4.959   0.485   6.998
   58SOL     OW 1072   6.898   1.089   6.992
   58SOL    HW1 1073   6.924   1.044   0.056
   58SOL    HW2 1074   6.827   1.157   7.010
   59SOL     OW 1075   0.528   0.164   5.458
   59SOL    HW1 1076   0.623   0.135   5.472
   59SOL    HW2 1077   0.466   0.094   5.494
   60SOL     OW 1078   4.513   6.781   5.409
   60SOL    HW1 1079   4.568   6.843   5.465
   60SOL    HW2 1080   4.542   6.790   5.313
   61SOL     OW 1081   3.401   0.589   5.470
   61SOL    HW1 1082   3.445   0.509   5.430
   61SOL    HW2 1083   3.374   0.570   5.564
   62SOL     OW 1084   3.031   0.301   4.713
   62SOL    HW1 1085   2.985   0.389   4.726
   62SOL    HW2 1086   3.030   0.277   4.616
   63SOL     OW 1087   6.890   3.515   4.172
   63SOL    HW1 1088   6.941   3.563   4.243
   63SOL    HW2 1089   6.858   3.427   4.207
   64SOL     OW 1090   0.063   1.777   5.811
   64SOL    HW1 1091   0.081   1.866   5.852
   64SOL    HW2 1092   6.987   1.768   5.792
   65SOL     OW 1093   1.393   4.586   5.206
   65SOL    HW1 1094   1.383   4.681   5.177
   65SOL    HW2 1095   1.434   4.584   5.297
   66SOL     OW 1096   3.020   0.802   1.290
   66SOL    HW1 1097   2.933   0.787   1.244
   66SOL    HW2 1098   3.087   0.735   1.257
   67SOL     OW 1099   4.535   5.276   4.268
   67SOL    HW1 1100   4.462   5.210   4.286
   67SOL    HW2 1101   4.623   5.227   4.262
   68SOL     OW 1102   5.286   2.702   6.923
   68SOL    HW1 1103   5.261   2.672   7.015
   68SOL    HW2 1104   5.378   2.742   6.925
   69SOL     OW 1105   2.238   3.332   5.704
   69SOL    HW1 1106   2.225   3.430   5.713
   69SOL    HW2 1107   2.277   3.295   5.788
   70SOL     OW 1108   5.744   1.087   3.466
   70SOL    HW1 1109   5.805   1.009   3.478
   70SOL    HW2 1110   5.660   1.072   3.518
   71SOL     OW 1111   1.756   4.380   1.807
   71SOL    HW1 1112   1.687   4.312   1.784
   71SOL    HW2 1113   1.841   4.334   1.832
   72SOL     OW 1114   3.986   5.831   3.989
   72SOL    HW1 1115   3.899   5.815   3.942
   72SOL    HW2 1116   3.999   5.930   4.001
   73SOL     OW 1117   3.538   3.027   6.808
   73SOL    HW1 1118   3.574   3.016   6.716
   73SOL    HW2 1119   3.438   3.029   6.805
   74SOL     OW 1120   5.253   0.090   5.047
   74SOL    HW1 1121   5.176   0.027   5.038
   74SOL    HW2 1122   5.299   0.100   4.958
   75SOL     OW 1123   3.627   5.407   5.457
   75SOL    HW1 1124   3.596   5.326   5.408
   75SOL    HW2 1125   3.572   5.486   5.429
   76SOL     OW 1126   2.790   2.841   0.805
   76SOL    HW1 1127   2.704   2.892   0.807
   76SOL    HW2 1128   2.830   2.841   0.896
   77SOL     OW 1129   5.981   4.138   6.820
   77SOL    HW1 1130   5.946   4.227   6.792
   77SOL    HW2 1131   5.963   4.124   6.918
   78SOL     OW 1132   6.089   0.082   5.606
   78SOL    HW1 1133   6.068   0.117   5.515
   78SOL    HW2 1134   6.087   0.157   5.672
   79SOL     OW 1135   3.274   6.185   0.591
   79SOL    HW1 1136   3.240   6.094   0.568
   79SOL    HW2 1137   3.335   6.217   0.519
   80SOL     OW 1138   0.206   1.337   4.350
   80SOL    HW1 1139   0.185   1.430   4.379
   80SOL    HW2 1140   0.255   1.289   4.423
   81SOL     OW 1141   1.382   5.729   2.787
   81SOL    HW1 1142   1.408   5.743   2.691
   81SOL    HW2 1143   1.438   5.787   2.846
   82SOL     OW 1144   6.430   4.443   5.966
   82SOL    HW1 1145   6.479   4.396   5.893
   82SOL    HW2 1146   6.494   4.464   6.041
   83SOL     OW 1147   5.632   0.065   5.219
   83SOL    HW1 1148   5.582   7.006   5.191
   83SOL    HW2 1149   5.666   0.114   5.139
   84SOL     OW 1150   6.832   3.165   2.409
   84SOL    HW1 1151   6.823   3.070   2.440
   84SOL    HW2 1152   6.796   3.226   2.480
   85SOL     OW 1153   1.004   1.182   5.008
   85SOL    HW1 1154   1.012   1.224   4.918
   85SOL    HW2 1155   0.984   1.085   4.999
   86SOL     OW 1156   1.930   0.652   3.866
   86SOL    HW1 1157   1.976   0.634   3.779
   86SOL    HW2 1158   1.982   0.721   3.918
   87SOL     OW 1159   4.486   6.897   1.449
   87SOL    HW1 1160   4.572   6.941   1.423
   87SOL    HW2 1161   4.460   6.926   1.541
   88SOL     OW 1162   5.976   0.656   1.656
   88SOL    HW1 1163   5.882   0.664   1.687
   88SOL    HW2 1164   6.038   0.674   1.732
   89SOL     OW 1165   1.868   1.832   5.756
   89SOL    HW1 1166   1.878   1.861   5.661
   89SOL    HW2 1167   1.935   1.761   5.777
   90SOL     OW 1168   5.900   6.041   3.525
   90SOL    HW1 1169   5.863   5.987   3.601
   90SOL    HW2 1170   5.844   6.027   3.444
   91SOL     OW 1171   5.405   5.232   4.109
   91SOL    HW1 1172   5.434   5.213   4.203
   91SOL    HW2 1173   5.378   5.328   4.101
   92SOL     OW 1174   3.380   5.671   0.964
   92SOL    HW1 1175   3.349   5.762   0.991
   92SOL    HW2 1176   3.335   5.603   1.023
   93SOL     OW 1177   3.165   4.930   5.635
   93SOL    HW1 1178   3.193   4.866   5.707
   93SOL    HW2 1179   3.071   4.960   5.652
   94SOL     OW 1180   1.973   6.423   2.398
   94SOL    HW1 1181   2.035   6.353   2.434
   94SOL    HW2 1182   1.886   6.381   2.371
   95SOL     OW 1183   0.095   0.117   3.866
   95SOL    HW1 1184   0.005   0.159   3.857
   95SOL    HW2 1185   0.165   0.183   3.837
   96SOL     OW 1186   1.775   6.620   4.517
   96SOL    HW1 1187   1.713   6.542   4.528
   96SOL    HW2 1188   1.836   6.625   4.596
   97SOL     OW 1189   6.639   2.029   3.845
   97SOL    HW1 1190   6.694   2.056   3.766
   97SOL    HW2 1191   6.560   1.975   3.814
   98SOL     OW 1192   4.942   0.902   5.392
   98SOL    HW1 1193   5.014   0.915   5.459
   98SOL    HW2 1194   4.854   0.931   5.430
   99SOL     OW 1195   4.762   1.117   0.839
   99SOL    HW1 1196   4.799   1.025   0.824
   99SOL    HW2 1197   4.800   1.155   0.923
  100SOL     OW 1198   6.449   5.838   0.868
  100SOL    HW1 1199   6.477   5.894   0.790
  100SOL    HW2 1200   6.500   5.865   0.950
  101SOL     OW 1201   1.828   6.545   3.571
  101SOL    HW1 1202   1.831   6.627   3.627
  101SOL    HW2 1203   1.916   6.531   3.526
  102SOL     OW 1204   4.777   0.666   2.088
  102SOL    HW1 1205   4.858   0.694   2.139
  102SOL    HW2 1206   4.780   0.706   1.996
  103SOL     OW 1207   4.864   1.191   2.939
  103SOL    HW1 1208   4.789   1.257   2.953
  103SOL    HW2 1209   4.951   1.236   2.956
  104SOL     OW 1210   6.091   6.359   2.497
  104SOL    HW1 1211   6.137   6.409   2.570
  104SOL    HW2 1212   6.121   6.395   2.408
  105SOL     OW 1213   5.567   1.393   5.600
  105SOL    HW1 1214   5.550   1.477   5.548
  105SOL    HW2 1215   5.546   1.314   5.542
  106SOL     OW 1216   4.202   6.938   0.871
  106SOL    HW1 1217   4.220   0.010   0.901
  106SOL    HW2 1218   4.160   6.939   0.780
  107SOL     OW 1219   2.663   3.727   6.953
  107SOL    HW1 1220   2.650   3.646   7.010
  107SOL    HW2 1221   2.669   3.808   7.011
  108SOL     OW 1222   4.713   4.201   5.613
  108SOL    HW1 1223   4.804   4.163   5.629
  108SOL    HW2 1224   4.669   4.152   5.538
  109SOL     OW 1225   5.916   0.859   2.603
  109SOL    HW1 1226   5.962   0.942   2.572
  109SOL    HW2 1227   5.838   0.840   2.544
  110SOL     OW 1228   3.778   6.501   4.017
  110SOL    HW1 1229   3.860   6.459   4.054
  110SOL    HW2 1230   3.802   6.583   3.966
  111SOL     OW 1231   3.235   1.315   3.255
  111SOL    HW1 1232   3.195   1.236   3.209
  111SOL    HW2 1233   3.274   1.288   3.343
  112SOL     OW 1234   0.097   1.690   0.000
  112SOL    HW1 1235   0.000   1.699   0.025
  112SOL    HW2 1236   0.133   1.780   6.998
  113SOL     OW 1237   6.680   6.776   3.586
  113SOL    HW1 1238   6.667   6.719   3.667
  113SOL    HW2 1239   6.677   6.720   3.504
  114SOL     OW 1240   1.772   6.052   0.476
  114SOL    HW1 1241   1.775   6.084   0.382
  114SOL    HW2 1242   1.828   5.969   0.484
  115SOL     OW 1243   5.375   1.024   5.864
  115SOL    HW1 1244   5.382   0.945   5.803
  115SOL    HW2 1245   5.336   1.101   5.813
  116SOL     OW 1246   5.936   3.892   2.682
  116SOL    HW1 1247   5.892   3.910   2.770
  116SOL    HW2 1248   5.952   3.794   2.671
  117SOL     OW 1249   0.551   6.615   6.182
  117SOL    HW1 1250   0.574   6.552   6.109
  117SOL    HW2 1251   0.454   6.637   6.179
  118SOL     OW 1252   2.649   1.526   3.776
  118SOL    HW1 1253   2.702   1.473   3.711
  118SOL    HW2 1254   2.624   1.614   3.736
  119SOL     OW 1255   6.957   2.676   6.898
  119SOL    HW1 1256   6.865   2.653   6.868
  119SOL    HW2 1257   6.952   2.743   6.972
  120SOL     OW 1258   4.349   5.783   1.517
  120SOL    HW1 1259   4.334   5.881   1.513
  120SOL    HW2 1260   4.373   5.749   1.426
  121SOL     OW 1261   2.777   2.876   6.444
  121SOL    HW1 1262   2.850   2.816   6.411
  121SOL    HW2 1263   2.750   2.847   6.535
  122SOL     OW 1264   1.223   3.332   4.793
  122SOL    HW1 1265   1.280   3.299   4.718
  122SOL    HW2 1266   1.175   3.415   4.764
  123SOL     OW 1267   6.424   1.747   2.000
  123SOL    HW1 1268   6.396   1.700   1.917
  123SOL    HW2 1269   6.365   1.719   2.076
  124SOL     OW 1270   5.019   3.616   1.710
  124SOL    HW1 1271   4.960   3.548   1.666
  124SOL    HW2 1272   5.054   3.680   1.642
  125SOL     OW 1273   2.395   3.200   1.338
  125SOL    HW1 1274   2.401   3.109   1.296
  125SOL    HW2 1275   2.320   3.201   1.404
  126SOL     OW 1276   3.854   4.833   0.471
  126SOL    HW1 1277   3.851   4.893   0.391
  126SOL    HW2 1278   3.941   4.783   0.472
  127SOL     OW 1279   0.468   5.892   6.146
  127SOL    HW1 1280   0.460   5.922   6.051
  127SOL    HW2 1281   0.548   5.834   6.156
  128SOL     OW 1282   5.163   2.137   0.079
  128SOL    HW1 1283   5.255   2.146   0.041
  128SOL    HW2 1284   5.168   2.092   0.169
  129SOL     OW 1285   2.467   3.972   6.868
  129SOL    HW1 1286   2.370   3.968   6.844
  129SOL    HW2 1287   2.477   3.966   6.967
  130SOL     OW 1288   1.287   1.974   4.961
  130SOL    HW1 1289   1.349   1.954   4.885
  130SOL    HW2 1290   1.274   1.891   5.016
  131SOL     OW 1291   6.107   1.360   2.482
  131SOL    HW1 1292   6.176   1.426   2.514
  131SOL    HW2 1293   6.036   1.409   2.431
  132SOL     OW 1294   0.840   1.717   2.622
  132SOL    HW1 1295   0.854   1.762   2.711
  132SOL    HW2 1296   0.861   1.620   2.631
  133SOL     OW 1297   0.089   5.886   2.960
  133SOL    HW1 1298   0.048   5.802   2.924
  133SOL    HW2 1299   0.027   5.963   2.945
  134SOL     OW 1300   1.370   3.654   3.225
  134SOL    HW1 1301   1.387   3.702   3.138
  134SOL    HW2 1302   1.322   3.568   3.207
  135SOL     OW 1303   4.810   0.839   4.648
  135SOL    HW1 1304   4.749   0.816   4.572
  135SOL    HW2 1305   4.881   0.769   4.657
  136SOL     OW 1306   5.137   5.537   6.092
  136SOL    HW1 1307   5.108   5.615   6.146
  136SOL    HW2 1308   5.093   5.454   6.127
  137SOL     OW 1309   4.040   1.194   5.630
  137SOL    HW1 1310   4.044   1.173   5.728
  137SOL    HW2 1311   3.960   1.250   5.612
  138SOL     OW 1312   5.519   5.011   5.395
  138SOL    HW1 1313   5.492   4.967   5.309
  138SOL    HW2 1314   5.618   5.003   5.406
  139SOL     OW 1315   3.633   5.214   5.100
  139SOL    HW1 1316   3.732   5.210   5.087
  139SOL    HW2 1317   3.609   5.162   5.183
  140SOL     OW 1318   6.686   4.064   4.563
  140SOL    HW1 1319   6.734   4.066   4.651
  140SOL    HW2 1320   6.613   4.134   4.564
  141SOL     OW 1321   1.740   2.233   2.692
  141SOL    HW1 1322   1.833   2.259   2.717
  141SOL    HW2 1323   1.681   2.314   2.690
  142SOL     OW 1324   1.293   4.792   1.056
  142SOL    HW1 1325   1.280   4.784   1.155
  142SOL    HW2 1326   1.204   4.791   1.011
  143SOL     OW 1327   5.300   4.740   1.857
  143SOL    HW1 1328   5.304   4.840   1.858
  143SOL    HW2 1329   5.205   4.711   1.847
  144SOL     OW 1330   3.448   6.449   0.535
  144SOL    HW1 1331   3.374   6.517   0.536
  144SOL    HW2 1332   3.488   6.442   0.626
  145SOL     OW 1333   6.040   5.748   1.012
  145SOL    HW1 1334   6.063   5.838   1.048
  145SOL    HW2 1335   6.016   5.755   0.915
  146SOL     OW 1336   0.446   4.346   0.776
  146SOL    HW1 1337   0.475   4.251   0.771
  146SOL    HW2 1338   0.346   4.351   0.775
  147SOL     OW 1339   5.925   2.723   1.114
  147SOL    HW1 1340   5.937   2.732   1.015
  147SOL    HW2 1341   5.975   2.643   1.147
  148SOL     OW 1342   0.764   5.622   5.269
  148SOL    HW1 1343   0.778   5.524   5.285
  148SOL    HW2 1344   0.822   5.674   5.332
  149SOL     OW 1345   2.994   1.038   7.015
  149SOL    HW1 1346   3.051   1.038   0.075
  149SOL    HW2 1347   2.898   1.052   0.019
  150SOL     OW 1348   6.558   5.965   5.177
  150SOL    HW1 1349   6.633   6.028   5.200
  150SOL    HW2 1350   6.474   5.995   5.223
  151SOL     OW 1351   5.015   0.580   1.697
  151SOL    HW1 1352   5.033   0.675   1.672
  151SOL    HW2 1353   5.069   0.520   1.639
  152SOL     OW 1354   2.952   0.885   4.249
  152SOL    HW1 1355   2.924   0.973   4.211
  152SOL    HW2 1356   2.920   0.811   4.190
  153SOL     OW 1357   0.659   0.238   2.485
  153SOL    HW1 1358   0.583   0.190   2.443
  153SOL    HW2 1359   0.626   0.322   2.529
  154SOL     OW 1360   0.948   1.456   2.679
  154SOL    HW1 1361   1.038   1.494   2.661
  154SOL    HW2 1362   0.954   1.357   2.683
  155SOL     OW 1363   1.232   1.236   3.430
  155SOL    HW1 1364   1.171   1.157   3.436
  155SOL    HW2 1365   1.220   1.293   3.512
  156SOL     OW 1366   6.778   1.858   1.269
  156SOL    HW1 1367   6.767   1.879   1.172
  156SOL    HW2 1368   6.757   1.762   1.286
  157SOL     OW 1369   0.514   2.553   2.758
  157SOL    HW1 1370   0.548   2.463   2.786
  157SOL    HW2 1371   0.517   2.561   2.658
  158SOL     OW 1372   2.299   1.239   3.125
  158SOL    HW1 1373   2.291   1.318   3.186
  158SOL    HW2 1374   2.323   1.158   3.178
  159SOL     OW 1375   4.765   3.654   1.433
  159SOL    HW1 1376   4.679   3.662   1.384
  159SOL    HW2 1377   4.770   3.565   1.479
  160SOL     OW 1378   6.633   4.778   6.471
  160SOL    HW1 1379   6.627   4.678   6.472
  160SOL    HW2 1380   6.612   4.813   6.562
  161SOL     OW 1381   2.624   4.610   5.187
  161SOL    HW1 1382   2.713   4.564   5.182
  161SOL    HW2 1383   2.631   4.690   5.246
  162SOL     OW 1384   4.441   5.900   2.729
  162SOL    HW1 1385   4.446   5.977   2.791
  162SOL    HW2 1386   4.530   5.886   2.686
  163SOL     OW 1387   5.878   0.042   1.334
  163SOL    HW1 1388   5.861   0.126   1.386
  163SOL    HW2 1389   5.792   0.008   1.296
  164SOL     OW 1390   6.210   3.106   2.039
  164SOL    HW1 1391   6.244   3.024   2.086
  164SOL    HW2 1392   6.139   3.148   2.095
  165SOL     OW 1393   6.507   3.833   6.688
  165SOL    HW1 1394   6.506   3.903   6.760
  165SOL    HW2 1395   6.414   3.811   6.662
  166SOL     OW 1396   1.233   0.020   0.634
  166SOL    HW1 1397   1.288   6.972   0.680
  166SOL    HW2 1398   1.198   7.005   0.547
  167SOL     OW 1399   6.670   2.300   1.904
  167SOL    HW1 1400   6.750   2.359   1.897
  167SOL    HW2 1401   6.591   2.355   1.932
  168SOL     OW 1402   2.120   4.956   1.135
  168SOL    HW1 1403   2.099   4.858   1.131
  168SOL    HW2 1404   2.195   4.971   1.199
  169SOL     OW 1405   1.040   0.262   1.257
  169SOL    HW1 1406   1.113   0.203   1.222
  169SOL    HW2 1407   0.973   0.278   1.184
  170SOL     OW 1408   0.196   1.868   4.047
  170SOL    HW1 1409   0.142   1.802   3.995
  170SOL    HW2 1410   0.159   1.874   4.140
  171SOL     OW 1411   3.329   3.989   0.863
  171SOL    HW1 1412   3.336   4.006   0.961
  171SOL    HW2 1413   3.403   4.038   0.816
  172SOL     OW 1414   6.966   3.091   1.523
  172SOL    HW1 1415   6.868   3.086   1.500
  172SOL    HW2 1416   6.982   3.173   1.578
  173SOL     OW 1417   6.967   6.499   5.261
  173SOL    HW1 1418   0.016   6.436   5.229
  173SOL    HW2 1419   6.902   6.450   5.319
  174SOL     OW 1420   2.448   5.903   3.132
  174SOL    HW1 1421   2.412   5.952   3.053
  174SOL    HW2 1422   2.484   5.815   3.103
  175SOL     OW 1423   0.185   5.091   3.609
  175SOL    HW1 1424   0.114   5.152   3.575
  175SOL    HW2 1425   0.157   4.996   3.598
  176SOL     OW 1426   2.587   6.197   6.965
  176SOL    HW1 1427   2.513   6.167   0.004
  176SOL    HW2 1428   2.569   6.290   6.934
  177SOL     OW 1429   4.802   1.808   2.302
  177SOL    HW1 1430   4.809   1.729   2.362
  177SOL    HW2 1431   4.779   1.889   2.356
  178SOL     OW 1432   5.690   4.008   6.274
  178SOL    HW1 1433   5.747   3.926   6.278
  178SOL    HW2 1434   5.718   4.072   6.347
  179SOL     OW 1435   3.759   6.785   0.449
  179SOL    HW1 1436   3.702   6.797   0.530
  179SOL    HW2 1437   3.734   6.701   0.402
  180SOL     OW 1438   1.054   2.713   0.123
  180SOL    HW1 1439   0.990   2.790   0.114
  180SOL    HW2 1440   1.056   2.682   0.218
  181SOL     OW 1441   2.979   3.600   3.747
  181SOL    HW1 1442   3.069   3.605   3.704
  181SOL    HW2 1443   2.990   3.578   3.845
  182SOL     OW 1444   5.388   2.595   5.088
  182SOL    HW1 1445   5.350   2.640   5.169
  182SOL    HW2 1446   5.398   2.497   5.107
  183SOL     OW 1447   6.488   1.336   3.299
  183SOL    HW1 1448   6.402   1.344   3.249
  183SOL    HW2 1449   6.561   1.311   3.234
  184SOL     OW 1450   6.969   4.385   2.228
  184SOL    HW1 1451   6.994   4.414   2.321
  184SOL    HW2 1452   6.990   4.459   2.164
  185SOL     OW 1453   3.391   4.042   6.049
  185SOL    HW1 1454   3.408   4.033   5.951
  185SOL    HW2 1455   3.468   4.005   6.100
  186SOL     OW 1456   5.872   0.121   3.855
  186SOL    HW1 1457   5.780   0.135   3.818
  186SOL    HW2 1458   5.866   0.066   3.938
  187SOL     OW 1459   5.512   0.087   4.035
  187SOL    HW1 1460   5.567   0.158   4.079
  187SOL    HW2 1461   5.452   0.045   4.103
  188SOL     OW 1462   6.119   2.693   5.148
  188SOL    HW1 1463   6.216   2.692   5.122
  188SOL    HW2 1464   6.098   2.780   5.194
  189SOL     OW 1465   1.566   5.063   3.539
  189SOL    HW1 1466   1.506   4.985   3.552
  189SOL    HW2 1467   1.521   5.146   3.570
  190SOL     OW 1468   3.256   1.065   0.158
  190SOL    HW1 1469   3.271   1.164   0.155
  190SOL    HW2 1470   3.325   1.019   0.102
  191SOL     OW 1471   5.203   5.710   6.858
  191SOL    HW1 1472   5.226   5.731   6.953
  191SOL    HW2 1473   5.198   5.794   6.805
  192SOL     OW 1474   6.283   1.009   6.784
  192SOL    HW1 1475   6.216   0.936   6.766
  192SOL    HW2 1476   6.236   1.089   6.820
  193SOL     OW 1477   6.263   4.002   0.087
  193SOL    HW1 1478   6.233   3.924   0.141
  193SOL    HW2 1479   6.351   3.982   0.045
  194SOL     OW 1480   4.168   0.025   4.540
  194SOL    HW1 1481   4.097   0.091   4.514
  194SOL    HW2 1482   4.249   0.075   4.573
  195SOL     OW 1483   7.007   5.564   3.387
  195SOL    HW1 1484   0.031   5.488   3.342
  195SOL    HW2 1485   6.983   5.537   3.481
  196SOL     OW 1486   0.280   0.960   1.217
  196SOL    HW1 1487   0.291   0.980   1.314
  196SOL    HW2 1488   0.184   0.938   1.199
  197SOL     OW 1489   1.809   0.963   0.426
  197SOL    HW1 1490   1.801   0.883   0.365
  197SOL    HW2 1491   1.798   0.934   0.521
  198SOL     OW 1492   3.116   1.507   4.968
  198SOL    HW1 1493   3.142   1.578   4.903
  198SOL    HW2 1494   3.050   1.445   4.925
  199SOL     OW 1495   2.231   0.898   4.264
  199SOL    HW1 1496   2.277   0.980   4.231
  199SOL    HW2 1497   2.292   0.848   4.326
  200SOL     OW 1498   6.141   1.740   0.803
  200SOL    HW1 1499   6.052   1.698   0.784
  200SOL    HW2 1500   6.146   1.829   0.758
  201SOL     OW 1501   0.850   1.984   6.042
  201SOL    HW1 1502   0.948   1.970   6.024
  201SOL    HW2 1503   0.803   1.896   6.036
  202SOL     OW 1504   6.075   6.685   6.957
  202SOL    HW1 1505   6.136   6.634   6.896
  202SOL    HW2 1506   6.014   6.741   6.902
  203SOL     OW 1507   6.508   3.908   6.987
  203SOL    HW1 1508   6.474   3.815   6.998
  203SOL    HW2 1509   6.595   3.917   0.014
  204SOL     OW 1510   6.678   0.299   5.316
  204SOL    HW1 1511   6.672   0.292   5.217
  204SOL    HW2 1512   6.754   0.359   5.341
  205SOL     OW 1513   2.197   5.099   3.214
  205SOL    HW1 1514   2.185   5.196   3.231
  205SOL    HW2 1515   2.294   5.075   3.218
  206SOL     OW 1516   1.192   3.913   1.521
  206SOL    HW1 1517   1.144   3.863   1.593
  206SOL    HW2 1518   1.163   4.009   1.522
  207SOL     OW 1519   0.223   2.911   4.288
  207SOL    HW1 1520   0.169   2.853   4.226
  207SOL    HW2 1521   0.161   2.953   4.355
  208SOL     OW 1522   1.635   3.125   4.844
  208SOL    HW1 1523   1.668   3.058   4.911
  208SOL    HW2 1524   1.552   3.168   4.879
  209SOL     OW 1525   5.792   4.232   2.399
  209SOL    HW1 1526   5.738   4.171   2.457
  209SOL    HW2 1527   5.786   4.202   2.304
  210SOL     OW 1528   4.549   4.351   1.336
  210SOL    HW1 1529   4.451   4.364   1.349
  210SOL    HW2 1530   4.599   4.404   1.405
  211SOL     OW 1531   1.785   1.188   1.951
  211SOL    HW1 1532   1.863   1.138   1.914
  211SOL    HW2 1533   1.723   1.212   1.876
  212SOL     OW 1534   2.510   4.611   2.058
  212SOL    HW1 1535   2.471   4.536   2.005
  212SOL    HW2 1536   2.605   4.591   2.081
  213SOL     OW 1537   1.086   5.827   1.180
  213SOL    HW1 1538   1.123   5.919   1.164
  213SOL    HW2 1539   0.989   5.826   1.158
  214SOL     OW 1540   5.643   6.543   2.304
  214SOL    HW1 1541   5.566   6.576   2.249
  214SOL    HW2 1542   5.714   6.613   2.307
  215SOL     OW 1543   2.274   4.917   2.800
  215SOL    HW1 1544   2.189   4.932   2.750
  215SOL    HW2 1545   2.252   4.891   2.894
  216SOL     OW 1546   1.788   5.807   2.820
  216SOL    HW1 1547   1.694   5.837   2.807
  216SOL    HW2 1548   1.845   5.884   2.848
  217SOL     OW 1549   0.054   4.531   4.570
  217SOL    HW1 1550   0.002   4.482   4.641
  217SOL    HW2 1551   0.030   4.495   4.480
  218SOL     OW 1552   3.441   2.999   5.999
  218SOL    HW1 1553   3.389   3.077   6.033
  218SOL    HW2 1554   3.522   3.031   5.950
  219SOL     OW 1555   5.131   2.110   1.120
  219SOL    HW1 1556   5.086   2.188   1.078
  219SOL    HW2 1557   5.211   2.142   1.172
  220SOL     OW 1558   2.241   7.005   0.686
  220SOL    HW1 1559   2.199   6.914   0.687
  220SOL    HW2 1560   2.334   6.998   0.651
  221SOL     OW 1561   5.116   4.203   1.715
  221SOL    HW1 1562   5.213   4.209   1.738
  221SOL    HW2 1563   5.069   4.146   1.781
  222SOL     OW 1564   0.951   4.308   6.279
  222SOL    HW1 1565   1.006   4.382   6.242
  222SOL    HW2 1566   1.006   4.254   6.343
  223SOL     OW 1567   6.061   1.837   5.488
  223SOL    HW1 1568   6.091   1.794   5.573
  223SOL    HW2 1569   6.008   1.919   5.510
  224SOL     OW 1570   3.939   2.903   5.717
  224SOL    HW1 1571   3.938   3.002   5.703
  224SOL    HW2 1572   3.880   2.860   5.648
  225SOL     OW 1573   4.250   6.048   6.281
  225SOL    HW1 1574   4.252   6.125   6.217
  225SOL    HW2 1575   4.159   6.008   6.281
  226SOL     OW 1576   1.607   2.135   0.672
  226SOL    HW1 1577   1.703   2.122   0.696
  226SOL    HW2 1578   1.590   2.231   0.653
  227SOL     OW 1579   1.235   3.490   1.585
  227SOL    HW1 1580   1.316   3.533   1.546
  227SOL    HW2 1581   1.195   3.428   1.518
  228SOL     OW 1582   0.803   6.932   2.607
  228SOL    HW1 1583   0.768   6.987   2.684
  228SOL    HW2 1584   0.902   6.927   2.613
  229SOL     OW 1585   4.259   0.890   6.049
  229SOL    HW1 1586   4.317   0.971   6.065
  229SOL    HW2 1587   4.274   0.857   5.956
  230SOL     OW 1588   5.599   3.321   5.806
  230SOL    HW1 1589   5.535   3.395   5.826
  230SOL    HW2 1590   5.552   3.233   5.814
  231SOL     OW 1591   4.902   1.648   0.396
  231SOL    HW1 1592   4.994   1.678   0.420
  231SOL    HW2 1593   4.865   1.591   0.469
  232SOL     OW 1594   1.545   2.839   5.099
  232SOL    HW1 1595   1.523   2.763   5.160
  232SOL    HW2 1596   1.465   2.859   5.041
  233SOL     OW 1597   3.340   1.759   3.540
  233SOL    HW1 1598   3.355   1.660   3.537
  233SOL    HW2 1599   3.409   1.805   3.484
  234SOL     OW 1600   5.565   6.181   0.309
  234SOL    HW1 1601   5.665   6.176   0.316
  234SOL    HW2 1602   5.539   6.271   0.275
  235SOL     OW 1603   5.044   3.353   2.706
  235SOL    HW1 1604   5.015   3.264   2.742
  235SOL    HW2 1605   4.967   3.417   2.711
  236SOL     OW 1606   3.826   3.264   5.927
  236SOL    HW1 1607   3.902   3.329   5.926
  236SOL    HW2 1608   3.784   3.263   6.017
  237SOL     OW 1609   5.967   3.521   3.430
  237SOL    HW1 1610   6.011   3.453   3.371
  237SOL    HW2 1611   5.893   3.478   3.482
  238SOL     OW 1612   6.263   1.976   0.676
  238SOL    HW1 1613   6.361   1.981   0.696
  238SOL    HW2 1614   6.242   2.034   0.597
  239SOL     OW 1615   1.926   3.521   0.476
  239SOL    HW1 1616   1.983   3.538   0.395
  239SOL    HW2 1617   1.831   3.513   0.448
  240SOL     OW 1618   5.074   3.366   4.411
  240SOL    HW1 1619   5.063   3.297   4.340
  240SOL    HW2 1620   5.018   3.342   4.491
  241SOL     OW 1621   2.210   2.543   3.948
  241SOL    HW1 1622   2.294   2.597   3.951
  241SOL    HW2 1623   2.135   2.594   3.990
  242SOL     OW 1624   3.951   3.398   1.856
  242SOL    HW1 1625   3.950   3.459   1.935
  242SOL    HW2 1626   4.044   3.390   1.821
  243SOL     OW 1627   4.797   3.088   6.327
  243SOL    HW1 1628   4.702   3.056   6.333
  243SOL    HW2 1629   4.850   3.025   6.270
  244SOL     OW 1630   4.919   3.382   4.897
  244SOL    HW1 1631   4.863   3.306   4.928
  244SOL    HW2 1632   4.891   3.466   4.944
  245SOL     OW 1633   3.074   0.837   3.281
  245SOL    HW1 1634   3.018   0.813   3.201
  245SOL    HW2 1635   3.029   0.910   3.332
  246SOL     OW 1636   6.992   1.336   2.275
  246SOL    HW1 1637   6.965   1.416   2.329
  246SOL    HW2 1638   7.006   1.258   2.335
  247SOL     OW 1639   2.410   0.260   1.810
  247SOL    HW1 1640   2.333   0.323   1.799
  247SOL    HW2 1641   2.486   0.308   1.853
  248SOL     OW 1642   3.319   3.324   1.408
  248SOL    HW1 1643   3.357   3.389   1.473
  248SOL    HW2 1644   3.393   3.270   1.367
  249SOL     OW 1645   4.707   6.282   5.805
  249SOL    HW1 1646   4.746   6.340   5.734
  249SOL    HW2 1647   4.650   6.211   5.764
  250SOL     OW 1648   4.147   2.324   0.054
  250SOL    HW1 1649   4.084   2.258   0.096
  250SOL    HW2 1650   4.209   2.276   7.014
  251SOL     OW 1651   4.170   5.250   4.783
  251SOL    HW1 1652   4.142   5.321   4.847
  251SOL    HW2 1653   4.089   5.214   4.736
  252SOL     OW 1654   6.318   6.071   5.306
  252SOL    HW1 1655   6.275   6.009   5.372
  252SOL    HW2 1656   6.321   6.164   5.345
  253SOL     OW 1657   4.563   5.545   5.555
  253SOL    HW1 1658   4.523   5.560   5.464
  253SOL    HW2 1659   4.609   5.629   5.585
  254SOL     OW 1660   6.860   2.279   5.755
  254SOL    HW1 1661   6.797   2.326   5.693
  254SOL    HW2 1662   6.954   2.303   5.729
  255SOL     OW 1663   1.682   5.243   6.638
  255SOL    HW1 1664   1.775   5.215   6.617
  255SOL    HW2 1665   1.657   5.321   6.581
  256SOL     OW 1666   4.948   2.220   5.476
  256SOL    HW1 1667   4.896   2.205   5.560
  256SOL    HW2 1668   5.030   2.164   5.477
  257SOL     OW 1669   5.024   6.727   2.190
  257SOL    HW1 1670   4.976   6.670   2.257
  257SOL    HW2 1671   5.094   6.782   2.237
  258SOL     OW 1672   2.141   3.367   6.186
  258SOL    HW1 1673   2.084   3.448   6.198
  258SOL    HW2 1674   2.236   3.389   6.209
  259SOL     OW 1675   3.217   0.523   3.853
  259SOL    HW1 1676   3.309   0.543   3.887
  259SOL    HW2 1677   3.207   0.560   3.760
  260SOL     OW 1678   3.680   5.479   3.175
  260SOL    HW1 1679   3.763   5.460   3.123
  260SOL    HW2 1680   3.605   5.423   3.140
  261SOL     OW 1681   3.632   4.783   6.621
  261SOL    HW1 1682   3.618   4.779   6.522
  261SOL    HW2 1683   3.681   4.702   6.652
  262SOL     OW 1684   1.008   3.514   6.186
  262SOL    HW1 1685   0.968   3.605   6.176
  262SOL    HW2 1686   1.086   3.505   6.125
  263SOL     OW 1687   1.746   0.295   3.366
  263SOL    HW1 1688   1.796   0.325   3.284
  263SOL    HW2 1689   1.807   0.301   3.445
  264SOL     OW 1690   6.613   3.292   6.330
  264SOL    HW1 1691   6.629   3.361   6.260
  264SOL    HW2 1692   6.603   3.337   6.419
  265SOL     OW 1693   6.891   0.376   2.871
  265SOL    HW1 1694   6.798   0.354   2.841
  265SOL    HW2 1695   6.921   0.309   2.939
  266SOL     OW 1696   2.922   0.588   5.694
  266SOL    HW1 1697   2.968   0.549   5.615
  266SOL    HW2 1698   2.828   0.612   5.670
  267SOL     OW 1699   2.374   6.837   2.146
  267SOL    HW1 1700   2.321   6.806   2.225
  267SOL    HW2 1701   2.320   6.902   2.093
  268SOL     OW 1702   4.211   2.536   0.352
  268SOL    HW1 1703   4.191   2.551   0.449
  268SOL    HW2 1704   4.134   2.488   0.310
  269SOL     OW 1705   5.508   2.004   7.007
  269SOL    HW1 1706   5.475   1.911   7.022
  269SOL    HW2 1707   5.455   2.047   6.934
  270SOL     OW 1708   5.339   1.575   0.786
  270SOL    HW1 1709   5.410   1.550   0.851
  270SOL    HW2 1710   5.373   1.645   0.723
  271SOL     OW 1711   0.434   5.266   6.504
  271SOL    HW1 1712   0.459   5.306   6.592
  271SOL    HW2 1713   0.335   5.251   6.501
  272SOL     OW 1714   3.367   5.866   3.190
  272SOL    HW1 1715   3.325   5.808   3.120
  272SOL    HW2 1716   3.440   5.815   3.236
  273SOL     OW 1717   1.353   5.776   6.291
  273SOL    HW1 1718   1.399   5.694   6.257
  273SOL    HW2 1719   1.420   5.843   6.321
  274SOL     OW 1720   4.508   1.448   3.586
  274SOL    HW1 1721   4.540   1.424   3.678
  274SOL    HW2 1722   4.492   1.547   3.581
  275SOL     OW 1723   5.829   0.839   1.111
  275SOL    HW1 1724   5.758   0.863   1.177
  275SOL    HW2 1725   5.915   0.883   1.137
  276SOL     OW 1726   0.548   6.304   3.885
  276SOL    HW1 1727   0.546   6.401   3.908
  276SOL    HW2 1728   0.600   6.254   3.955
  277SOL     OW 1729   2.232   4.704   1.035
  277SOL    HW1 1730   2.272   4.613   1.033
  277SOL    HW2 1731   2.139   4.701   0.999
  278SOL     OW 1732   1.204   3.208   3.866
  278SOL    HW1 1733   1.140   3.147   3.913
  278SOL    HW2 1734   1.189   3.302   3.898
  279SOL     OW 1735   6.319   1.180   3.479
  279SOL    HW1 1736   6.348   1.128   3.560
  279SOL    HW2 1737   6.400   1.202   3.424
  280SOL     OW 1738   1.846   5.275   2.423
  280SOL    HW1 1739   1.915   5.291   2.353
  280SOL    HW2 1740   1.856   5.182   2.458
  281SOL     OW 1741   2.353   4.462   1.092
  281SOL    HW1 1742   2.441   4.441   1.050
  281SOL    HW2 1743   2.287   4.392   1.067
  282SOL     OW 1744   1.705   1.492   4.824
  282SOL    HW1 1745   1.638   1.558   4.858
  282SOL    HW2 1746   1.781   1.485   4.889
  283SOL     OW 1747   2.730   2.881   6.833
  283SOL    HW1 1748   2.718   2.977   6.808
  283SOL    HW2 1749   2.721   2.824   6.751
  284SOL     OW 1750   0.627   4.103   3.866
  284SOL    HW1 1751   0.562   4.080   3.939
  284SOL    HW2 1752   0.590   4.177   3.810
  285SOL     OW 1753   5.403   3.956   4.008
  285SOL    HW1 1754   5.402   4.055   4.024
  285SOL    HW2 1755   5.323   3.930   3.955
  286SOL     OW 1756   2.636   3.847   1.318
  286SOL    HW1 1757   2.568   3.920   1.315
  286SOL    HW2 1758   2.593   3.762   1.348
  287SOL     OW 1759   0.267   3.437   6.900
  287SOL    HW1 1760   0.209   3.378   6.956
  287SOL    HW2 1761   0.351   3.460   6.950
  288SOL     OW 1762   5.585   3.497   2.353
  288SOL    HW1 1763   5.526   3.441   2.411
  288SOL    HW2 1764   5.609   3.581   2.403
  289SOL     OW 1765   3.756   5.955   6.538
  289SOL    HW1 1766   3.720   6.021   6.605
  289SOL    HW2 1767   3.700   5.959   6.455
  290SOL     OW 1768   1.724   0.826   4.753
  290SOL    HW1 1769   1.774   0.756   4.702
  290SOL    HW2 1770   1.627   0.824   4.727
  291SOL     OW 1771   6.903   1.161   2.961
  291SOL    HW1 1772   6.943   1.138   3.049
  291SOL    HW2 1773   6.879   1.078   2.912
  292SOL     OW 1774   3.583   6.707   3.719
  292SOL    HW1 1775   3.572   6.621   3.769
  292SOL    HW2 1776   3.570   6.784   3.782
  293SOL     OW 1777   3.363   4.903   2.979
  293SOL    HW1 1778   3.266   4.888   2.997
  293SOL    HW2 1779   3.384   4.879   2.884
  294SOL     OW 1780   4.787   0.410   0.442
  294SOL    HW1 1781   4.806   0.507   0.425
  294SOL    HW2 1782   4.690   0.392   0.431
  295SOL     OW 1783   5.857   0.603   4.625
  295SOL    HW1 1784   5.845   0.613   4.723
  295SOL    HW2 1785   5.783   0.547   4.587
  296SOL     OW 1786   2.479   2.088   3.014
  296SOL    HW1 1787   2.492   2.138   2.929
  296SOL    HW2 1788   2.481   2.152   3.091
  297SOL     OW 1789   1.876   4.778   1.805
  297SOL    HW1 1790   1.919   4.689   1.793
  297SOL    HW2 1791   1.803   4.790   1.737
  298SOL     OW 1792   6.304   5.308   0.473
  298SOL    HW1 1793   6.259   5.227   0.511
  298SOL    HW2 1794   6.267   5.326   0.382
  299SOL     OW 1795   5.466   2.730   3.626
  299SOL    HW1 1796   5.482   2.822   3.663
  299SOL    HW2 1797   5.368   2.716   3.612
  300SOL     OW 1798   5.983   0.033   1.750
  300SOL    HW1 1799   6.048   0.019   1.825
  300SOL    HW2 1800   5.961   0.130   1.743
  301SOL     OW 1801   5.322   2.750   5.907
  301SOL    HW1 1802   5.355   2.753   5.813
  301SOL    HW2 1803   5.249   2.681   5.914
  302SOL     OW 1804   1.465   5.584   4.780
  302SOL    HW1 1805   1.528   5.639   4.834
  302SOL    HW2 1806   1.373   5.589   4.819
  303SOL     OW 1807   6.265   0.324   3.284
  303SOL    HW1 1808   6.298   0.243   3.332
  303SOL    HW2 1809   6.277   0.312   3.186
  304SOL     OW 1810   4.041   0.675   4.542
  304SOL    HW1 1811   4.037   0.662   4.641
  304SOL    HW2 1812   4.094   0.757   4.522
  305SOL     OW 1813   1.461   3.635   0.363
  305SOL    HW1 1814   1.472   3.539   0.388
  305SOL    HW2 1815   1.529   3.690   0.412
  306SOL     OW 1816   1.459   1.233   3.080
  306SOL    HW1 1817   1.495   1.187   3.161
  306SOL    HW2 1818   1.534   1.249   3.016
  307SOL     OW 1819   2.943   0.274   0.893
  307SOL    HW1 1820   2.953   0.211   0.970
  307SOL    HW2 1821   2.941   0.368   0.927
  308SOL     OW 1822   0.896   5.012   4.116
  308SOL    HW1 1823   0.897   4.923   4.162
  308SOL    HW2 1824   0.949   5.006   4.031
  309SOL     OW 1825   3.813   4.834   5.344
  309SOL    HW1 1826   3.886   4.777   5.383
  309SOL    HW2 1827   3.728   4.781   5.341
  310SOL     OW 1828   1.165   5.917   6.669
  310SOL    HW1 1829   1.204   5.945   6.757
  310SOL    HW2 1830   1.145   5.819   6.671
  311SOL     OW 1831   6.500   0.833   1.217
  311SOL    HW1 1832   6.469   0.748   1.259
  311SOL    HW2 1833   6.555   0.812   1.136
  312SOL     OW 1834   3.709   1.215   6.597
  312SOL    HW1 1835   3.791   1.249   6.644
  312SOL    HW2 1836   3.736   1.153   6.523
  313SOL     OW 1837   6.694   4.971   1.235
  313SOL    HW1 1838   6.709   4.937   1.328
  313SOL    HW2 1839   6.647   4.901   1.181
  314SOL     OW 1840   3.713   6.061   2.577
  314SOL    HW1 1841   3.771   6.139   2.601
  314SOL    HW2 1842   3.761   5.976   2.597
  315SOL     OW 1843   0.376   4.101   3.349
  315SOL    HW1 1844   0.429   4.152   3.417
  315SOL    HW2 1845   0.358   4.009   3.383
  316SOL     OW 1846   2.186   3.074   4.061
  316SOL    HW1 1847   2.204   3.054   4.158
  316SOL    HW2 1848   2.088   3.064   4.043
  317SOL     OW 1849   6.600   1.499   0.852
  317SOL    HW1 1850   6.536   1.433   0.891
  317SOL    HW2 1851   6.553   1.586   0.838
  318SOL     OW 1852   2.433   4.372   0.554
  318SOL    HW1 1853   2.524   4.333   0.572
  318SOL    HW2 1854   2.369   4.342   0.624
  319SOL     OW 1855   0.270   1.506   6.241
  319SOL    HW1 1856   0.319   1.590   6.264
  319SOL    HW2 1857   0.293   1.478   6.148
  320SOL     OW 1858   5.827   3.408   2.880
  320SOL    HW1 1859   5.769   3.450   2.948
  320SOL    HW2 1860   5.774   3.342   2.826
  321SOL     OW 1861   2.247   1.477   2.108
  321SOL    HW1 1862   2.187   1.557   2.100
  321SOL    HW2 1863   2.342   1.507   2.109
  322SOL     OW 1864   3.838   3.168   5.646
  322SOL    HW1 1865   3.826   3.211   5.736
  322SOL    HW2 1866   3.895   3.227   5.589
  323SOL     OW 1867   1.478   4.422   2.614
  323SOL    HW1 1868   1.550   4.398   2.679
  323SOL    HW2 1869   1.496   4.378   2.526
  324SOL     OW 1870   0.380   2.698   3.961
  324SOL    HW1 1871   0.371   2.690   4.061
  324SOL    HW2 1872   0.293   2.675   3.918
  325SOL     OW 1873   2.142   1.664   2.363
  325SOL    HW1 1874   2.236   1.691   2.381
  325SOL    HW2 1875   2.124   1.576   2.408
  326SOL     OW 1876   2.145   3.777   4.494
  326SOL    HW1 1877   2.134   3.868   4.535
  326SOL    HW2 1878   2.160   3.787   4.395
  327SOL     OW 1879   6.183   4.272   6.191
  327SOL    HW1 1880   6.151   4.180   6.214
  327SOL    HW2 1881   6.200   4.278   6.093
  328SOL     OW 1882   3.548   5.689   3.307
  328SOL    HW1 1883   3.533   5.668   3.404
  328SOL    HW2 1884   3.595   5.613   3.263
  329SOL     OW 1885   3.315   4.223   1.641
  329SOL    HW1 1886   3.348   4.184   1.727
  329SOL    HW2 1887   3.220   4.195   1.627
  330SOL     OW 1888   2.942   2.289   0.959
  330SOL    HW1 1889   3.018   2.321   1.016
  330SOL    HW2 1890   2.934   2.189   0.967
  331SOL     OW 1891   6.633   3.931   5.454
  331SOL    HW1 1892   6.555   3.967   5.404
  331SOL    HW2 1893   6.631   3.831   5.451
  332SOL     OW 1894   4.242   1.821   3.224
  332SOL    HW1 1895   4.156   1.795   3.180
  332SOL    HW2 1896   4.275   1.745   3.280
  333SOL     OW 1897   4.324   6.355   0.640
  333SOL    HW1 1898   4.318   6.304   0.726
  333SOL    HW2 1899   4.236   6.399   0.621
  334SOL     OW 1900   4.996   0.089   2.607
  334SOL    HW1 1901   4.981   7.012   2.608
  334SOL    HW2 1902   5.044   0.114   2.523
  335SOL     OW 1903   3.255   0.285   2.089
  335SOL    HW1 1904   3.166   0.305   2.131
  335SOL    HW2 1905   3.327   0.336   2.137
  336SOL     OW 1906   3.933   1.188   4.845
  336SOL    HW1 1907   3.843   1.148   4.866
  336SOL    HW2 1908   4.003   1.117   4.853
  337SOL     OW 1909   1.146   3.777   2.610
  337SOL    HW1 1910   1.124   3.847   2.542
  337SOL    HW2 1911   1.101   3.799   2.697
  338SOL     OW 1912   2.474   2.543   1.002
  338SOL    HW1 1913   2.416   2.622   0.981
  338SOL    HW2 1914   2.501   2.545   1.098
  339SOL     OW 1915   4.534   0.601   2.757
  339SOL    HW1 1916   4.490   0.574   2.842
  339SOL    HW2 1917   4.499   0.544   2.682
  340SOL     OW 1918   5.391   3.617   4.499
  340SOL    HW1 1919   5.386   3.579   4.407
  340SOL    HW2 1920   5.465   3.573   4.550
  341SOL     OW 1921   4.168   4.407   5.556
  341SOL    HW1 1922   4.148   4.388   5.460
  341SOL    HW2 1923   4.267   4.410   5.570
  342SOL     OW 1924   5.762   3.212   1.055
  342SOL    HW1 1925   5.803   3.125   1.028
  342SOL    HW2 1926   5.708   3.249   0.979
  343SOL     OW 1927   2.176   0.133   2.260
  343SOL    HW1 1928   2.097   0.186   2.290
  343SOL    HW2 1929   2.235   0.113   2.338
  344SOL     OW 1930   4.625   6.911   0.495
  344SOL    HW1 1931   4.697   6.902   0.427
  344SOL    HW2 1932   4.647   6.855   0.575
  345SOL     OW 1933   1.213   0.867   4.815
  345SOL    HW1 1934   1.270   0.947   4.800
  345SOL    HW2 1935   1.134   0.892   4.872
  346SOL     OW 1936   2.111   0.579   5.003
  346SOL    HW1 1937   2.020   0.619   5.009
  346SOL    HW2 1938   2.107   0.483   5.031
  347SOL     OW 1939   5.353   5.553   5.859
  347SOL    HW1 1940   5.432   5.536   5.917
  347SOL    HW2 1941   5.276   5.583   5.916
  348SOL     OW 1942   2.678   0.092   3.940
  348SOL    HW1 1943   2.631   0.151   3.875
  348SOL    HW2 1944   2.641   0.106   4.032
  349SOL     OW 1945   2.399   5.176   1.779
  349SOL    HW1 1946   2.492   5.195   1.749
  349SOL    HW2 1947   2.364   5.096   1.731
  350SOL     OW 1948   5.101   3.247   1.669
  350SOL    HW1 1949   5.021   3.295   1.632
  350SOL    HW2 1950   5.176   3.311   1.683
  351SOL     OW 1951   3.189   1.944   0.345
  351SOL    HW1 1952   3.179   2.038   0.313
  351SOL    HW2 1953   3.099   1.907   0.369
  352SOL     OW 1954   2.969   1.605   6.501
  352SOL    HW1 1955   2.934   1.664   6.428
  352SOL    HW2 1956   3.003   1.520   6.461
  353SOL     OW 1957   1.944   6.517   1.616
  353SOL    HW1 1958   1.965   6.478   1.526
  353SOL    HW2 1959   2.014   6.584   1.641
  354SOL     OW 1960   5.537   0.038   2.653
  354SOL    HW1 1961   5.480   0.077   2.726
  354SOL    HW2 1962   5.485   0.038   2.567
  355SOL     OW 1963   0.868   0.981   2.533
  355SOL    HW1 1964   0.810   0.979   2.451
  355SOL    HW2 1965   0.832   0.917   2.601
  356SOL     OW 1966   2.927   6.895   2.906
  356SOL    HW1 1967   2.986   6.891   2.987
  356SOL    HW2 1968   2.931   6.809   2.857
  357SOL     OW 1969   1.484   4.555   4.281
  357SOL    HW1 1970   1.478   4.603   4.193
  357SOL    HW2 1971   1.564   4.496   4.282
  358SOL     OW 1972   4.920   0.806   3.234
  358SOL    HW1 1973   4.886   0.721   3.194
  358SOL    HW2 1974   4.885   0.884   3.182
  359SOL     OW 1975   0.677   1.735   0.441
  359SOL    HW1 1976   0.760   1.782   0.473
  359SOL    HW2 1977   0.680   1.727   0.341
  360SOL     OW 1978   5.671   6.793   6.469
  360SOL    HW1 1979   5.660   6.839   6.557
  360SOL    HW2 1980   5.581   6.770   6.432
  361SOL     OW 1981   2.824   0.139   2.249
  361SOL    HW1 1982   2.905   0.197   2.238
  361SOL    HW2 1983   2.741   0.196   2.243
  362SOL     OW 1984   2.621   3.357   0.288
  362SOL    HW1 1985   2.559   3.279   0.301
  362SOL    HW2 1986   2.704   3.343   0.341
  363SOL     OW 1987   4.732   4.752   4.251
  363SOL    HW1 1988   4.696   4.660   4.238
  363SOL    HW2 1989   4.807   4.768   4.186
  364SOL     OW 1990   2.816   5.680   6.295
  364SOL    HW1 1991   2.765   5.756   6.255
  364SOL    HW2 1992   2.914   5.694   6.282
  365SOL     OW 1993   5.005   6.270   2.731
  365SOL    HW1 1994   4.962   6.347   2.684
  365SOL    HW2 1995   5.104   6.283   2.732
  366SOL     OW 1996   5.091   1.443   0.776
  366SOL    HW1 1997   5.052   1.471   0.864
  366SOL    HW2 1998   5.176   1.492   0.760
  367SOL     OW 1999   6.867   2.460   2.706
  367SOL    HW1 2000   6.797   2.498   2.646
  367SOL    HW2 2001   6.835   2.461   2.801
  368SOL     OW 2002   6.732   5.007   4.397
  368SOL    HW1 2003   6.724   4.908   4.401
  368SOL    HW2 2004   6.641   5.048   4.381
  369SOL     OW 2005   0.971   3.520   2.240
  369SOL    HW1 2006   0.963   3.546   2.336
  369SOL    HW2 2007   1.061   3.548   2.205
  370SOL     OW 2008   3.786   1.966   6.850
  370SOL    HW1 2009   3.853   2.003   6.915
  370SOL    HW2 2010   3.802   1.868   6.837
  371SOL     OW 2011   3.409   2.201   6.238
  371SOL    HW1 2012   3.461   2.159   6.312
  371SOL    HW2 2013   3.322   2.153   6.228
  372SOL     OW 2014   2.488   5.695   0.180
  372SOL    HW1 2015   2.485   5.647   0.268
  372SOL    HW2 2016   2.395   5.708   0.146
  373SOL     OW 2017   6.414   0.151   6.727
  373SOL    HW1 2018   6.457   0.171   6.639
  373SOL    HW2 2019   6.448   0.064   6.762
  374SOL     OW 2020   4.879   0.889   0.772
  374SOL    HW1 2021   4.893   0.865   0.676
  374SOL    HW2 2022   4.867   0.806   0.826
  375SOL     OW 2023   6.630   3.569   2.539
  375SOL    HW1 2024   6.644   3.478   2.500
  375SOL    HW2 2025   6.661   3.569   2.634
  376SOL     OW 2026   2.568   4.105   5.380
  376SOL    HW1 2027   2.550   4.204   5.378
  376SOL    HW2 2028   2.535   4.063   5.296
  377SOL     OW 2029   4.668   0.688   3.576
  377SOL    HW1 2030   4.631   0.661   3.487
  377SOL    HW2 2031   4.750   0.743   3.563
  378SOL     OW 2032   6.092   2.342   5.803
  378SOL    HW1 2033   6.024   2.360   5.875
  378SOL    HW2 2034   6.053   2.365   5.714
  379SOL     OW 2035   6.386   2.433   0.909
  379SOL    HW1 2036   6.439   2.423   0.994
  379SOL    HW2 2037   6.304   2.376   0.914
  380SOL     OW 2038   6.697   2.304   6.919
  380SOL    HW1 2039   6.735   2.353   6.997
  380SOL    HW2 2040   6.622   2.246   6.950
  381SOL     OW 2041   4.665   4.731   6.683
  381SOL    HW1 2042   4.759   4.698   6.687
  381SOL    HW2 2043   4.662   4.828   6.705
  382SOL     OW 2044   1.749   5.216   6.961
  382SOL    HW1 2045   1.827   5.249   6.908
  382SOL    HW2 2046   1.687   5.293   6.980
  383SOL     OW 2047   5.817   1.983   0.193
  383SOL    HW1 2048   5.877   1.934   0.131
  383SOL    HW2 2049   5.765   2.051   0.142
  384SOL     OW 2050   1.676   5.289   4.547
  384SOL    HW1 2051   1.762   5.264   4.503
  384SOL    HW2 2052   1.695   5.331   4.636
  385SOL     OW 2053   4.647   4.455   0.582
  385SOL    HW1 2054   4.631   4.453   0.680
  385SOL    HW2 2055   4.737   4.418   0.562
  386SOL     OW 2056   2.884   5.962   4.269
  386SOL    HW1 2057   2.854   5.936   4.178
  386SOL    HW2 2058   2.830   6.039   4.302
  387SOL     OW 2059   0.495   0.325   5.705
  387SOL    HW1 2060   0.426   0.397   5.694
  387SOL    HW2 2061   0.472   0.248   5.645
  388SOL     OW 2062   0.151   1.999   4.690
  388SOL    HW1 2063   0.151   1.983   4.789
  388SOL    HW2 2064   0.243   1.985   4.654
  389SOL     OW 2065   5.040   4.174   2.589
  389SOL    HW1 2066   5.082   4.255   2.548
  389SOL    HW2 2067   4.940   4.184   2.587
  390SOL     OW 2068   3.052   2.785   6.856
  390SOL    HW1 2069   3.015   2.872   6.889
  390SOL    HW2 2070   3.000   2.754   6.776
  391SOL     OW 2071   3.813   4.047   3.292
  391SOL    HW1 2072   3.861   4.047   3.380
  391SOL    HW2 2073   3.721   4.084   3.303
  392SOL     OW 2074   1.888   3.102   1.761
  392SOL    HW1 2075   1.814   3.138   1.817
  392SOL    HW2 2076   1.943   3.038   1.815
  393SOL     OW 2077   1.175   6.441   0.571
  393SOL    HW1 2078   1.129   6.352   0.569
  393SOL    HW2 2079   1.152   6.492   0.489
  394SOL     OW 2080   6.086   2.393   6.650
  394SOL    HW1 2081   6.183   2.406   6.673
  394SOL    HW2 2082   6.074   2.405   6.552
  395SOL     OW 2083   6.997   5.738   6.612
  395SOL    HW1 2084   6.996   5.639   6.612
  395SOL    HW2 2085   0.061   5.770   6.571
  396SOL     OW 2086   0.249   1.009   1.477
  396SOL    HW1 2087   0.214   0.981   1.566
  396SOL    HW2 2088   0.176   1.049   1.423
  397SOL     OW 2089   4.712   1.913   4.803
  397SOL    HW1 2090   4.708   2.003   4.760
  397SOL    HW2 2091   4.764   1.851   4.745
  398SOL     OW 2092   0.419   1.439   3.427
  398SOL    HW1 2093   0.375   1.351   3.446
  398SOL    HW2 2094   0.475   1.430   3.345
  399SOL     OW 2095   5.507   4.948   5.124
  399SOL    HW1 2096   5.447   4.987   5.054
  399SOL    HW2 2097   5.541   4.859   5.092
  400SOL     OW 2098   6.619   6.319   3.456
  400SOL    HW1 2099   6.629   6.219   3.462
  400SOL    HW2 2100   6.673   6.354   3.380
  401SOL     OW 2101   0.970   5.678   4.089
  401SOL    HW1 2102   1.020   5.593   4.106
  401SOL    HW2 2103   1.005   5.721   4.006
  402SOL     OW 2104   6.718   0.588   5.166
  402SOL    HW1 2105   6.696   0.610   5.071
  402SOL    HW2 2106   6.815   0.564   5.174
  403SOL     OW 2107   2.733   1.590   5.163
  403SOL    HW1 2108   2.681   1.675   5.150
  403SOL    HW2 2109   2.782   1.594   5.251
  404SOL     OW 2110   3.856   5.630   3.371
  404SOL    HW1 2111   3.907   5.602   3.290
  404SOL    HW2 2112   3.805   5.714   3.351
  405SOL     OW 2113   3.526   4.992   3.714
  405SOL    HW1 2114   3.531   4.963   3.810
  405SOL    HW2 2115   3.616   4.984   3.672
  406SOL     OW 2116   1.432   0.576   0.469
  406SOL    HW1 2117   1.436   0.600   0.566
  406SOL    HW2 2118   1.493   0.498   0.452
  407SOL     OW 2119   2.276   4.191   3.910
  407SOL    HW1 2120   2.270   4.092   3.898
  407SOL    HW2 2121   2.249   4.237   3.826
  408SOL     OW 2122   3.075   1.684   1.850
  408SOL    HW1 2123   3.019   1.767   1.846
  408SOL    HW2 2124   3.037   1.616   1.787
  409SOL     OW 2125   0.452   2.058   2.195
  409SOL    HW1 2126   0.532   2.072   2.136
  409SOL    HW2 2127   0.443   2.136   2.257
  410SOL     OW 2128   1.585   3.489   1.984
  410SOL    HW1 2129   1.491   3.489   1.949
  410SOL    HW2 2130   1.627   3.400   1.966
  411SOL     OW 2131   6.618   1.390   1.933
  411SOL    HW1 2132   6.579   1.345   2.014
  411SOL    HW2 2133   6.665   1.474   1.962
  412SOL     OW 2134   2.730   4.732   3.225
  412SOL    HW1 2135   2.678   4.651   3.252
  412SOL    HW2 2136   2.723   4.745   3.126
  413SOL     OW 2137   6.669   4.397   3.328
  413SOL    HW1 2138   6.744   4.463   3.315
  413SOL    HW2 2139   6.648   4.353   3.240
  414SOL     OW 2140   1.908   0.267   2.315
  414SOL    HW1 2141   1.856   0.274   2.400
  414SOL    HW2 2142   1.889   0.348   2.258
  415SOL     OW 2143   5.837   2.938   1.879
  415SOL    HW1 2144   5.879   2.879   1.947
  415SOL    HW2 2145   5.884   3.026   1.876
  416SOL     OW 2146   6.716   3.535   6.390
  416SOL    HW1 2147   6.702   3.597   6.466
  416SOL    HW2 2148   6.812   3.507   6.388
  417SOL     OW 2149   2.892   1.977   6.177
  417SOL    HW1 2150   2.861   1.976   6.081
  417SOL    HW2 2151   2.844   2.049   6.226
  418SOL     OW 2152   4.148   5.604   6.450
  418SOL    HW1 2153   4.237   5.570   6.418
  418SOL    HW2 2154   4.111   5.540   6.517
  419SOL     OW 2155   5.455   6.851   0.592
  419SOL    HW1 2156   5.432   6.883   0.501
  419SOL    HW2 2157   5.442   6.925   0.658
  420SOL     OW 2158   3.058   6.353   0.641
  420SOL    HW1 2159   3.138   6.293   0.634
  420SOL    HW2 2160   2.992   6.329   0.571
  421SOL     OW 2161   5.155   4.629   3.525
  421SOL    HW1 2162   5.205   4.597   3.606
  421SOL    HW2 2163   5.209   4.699   3.478
  422SOL     OW 2164   4.129   1.469   2.419
  422SOL    HW1 2165   4.111   1.444   2.324
  422SOL    HW2 2166   4.141   1.568   2.426
  423SOL     OW 2167   2.574   0.960   6.778
  423SOL    HW1 2168   2.487   1.008   6.763
  423SOL    HW2 2169   2.648   1.027   6.785
  424SOL     OW 2170   1.945   4.938   3.881
  424SOL    HW1 2171   2.017   4.922   3.813
  424SOL    HW2 2172   1.913   4.850   3.916
  425SOL     OW 2173   3.203   1.210   6.908
  425SOL    HW1 2174   3.124   1.154   6.932
  425SOL    HW2 2175   3.283   1.151   6.893
  426SOL     OW 2176   2.245   2.828   3.431
  426SOL    HW1 2177   2.207   2.783   3.350
  426SOL    HW2 2178   2.268   2.923   3.410
  427SOL     OW 2179   5.003   0.796   5.130
  427SOL    HW1 2180   4.978   0.833   5.220
  427SOL    HW2 2181   5.077   0.730   5.141
  428SOL     OW 2182   2.324   1.234   6.089
  428SOL    HW1 2183   2.373   1.147   6.091
  428SOL    HW2 2184   2.226   1.218   6.077
  429SOL     OW 2185   0.070   6.860   3.893
  429SOL    HW1 2186   0.080   6.959   3.884
  429SOL    HW2 2187   0.007   6.839   3.968
  430SOL     OW 2188   1.688   1.097   4.050
  430SOL    HW1 2189   1.767   1.147   4.085
  430SOL    HW2 2190   1.650   1.146   3.972
  431SOL     OW 2191   2.601   0.367   1.440
  431SOL    HW1 2192   2.606   0.392   1.344
  431SOL    HW2 2193   2.648   0.280   1.455
  432SOL     OW 2194   6.183   1.976   2.227
  432SOL    HW1 2195   6.240   2.006   2.150
  432SOL    HW2 2196   6.166   2.053   2.287
  433SOL     OW 2197   1.404   3.342   6.660
  433SOL    HW1 2198   1.310   3.311   6.679
  433SOL    HW2 2199   1.468   3.280   6.706
  434SOL     OW 2200   4.227   6.179   2.716
  434SOL    HW1 2201   4.157   6.153   2.782
  434SOL    HW2 2202   4.317   6.154   2.752
  435SOL     OW 2203   2.255   2.076   6.270
  435SOL    HW1 2204   2.276   2.015   6.347
  435SOL    HW2 2205   2.339   2.092   6.217
  436SOL     OW 2206   5.723   6.137   2.471
  436SOL    HW1 2207   5.761   6.186   2.550
  436SOL    HW2 2208   5.742   6.188   2.387
  437SOL     OW 2209   6.408   1.724   6.186
  437SOL    HW1 2210   6.504   1.709   6.211
  437SOL    HW2 2211   6.352   1.649   6.221
  438SOL     OW 2212   0.649   2.916   1.598
  438SOL    HW1 2213   0.743   2.882   1.603
  438SOL    HW2 2214   0.585   2.840   1.613
  439SOL     OW 2215   0.512   1.373   6.285
  439SOL    HW1 2216   0.416   1.396   6.272
  439SOL    HW2 2217   0.568   1.455   6.279
  440SOL     OW 2218   3.124   1.815   1.445
  440SOL    HW1 2219   3.129   1.716   1.437
  440SOL    HW2 2220   3.115   1.840   1.542
  441SOL     OW 2221   1.256   4.428   2.808
  441SOL    HW1 2222   1.241   4.331   2.828
  441SOL    HW2 2223   1.331   4.437   2.742
  442SOL     OW 2224   3.276   3.243   4.441
  442SOL    HW1 2225   3.339   3.246   4.364
  442SOL    HW2 2226   3.208   3.171   4.426
  443SOL     OW 2227   5.373   2.809   2.485
  443SOL    HW1 2228   5.300   2.746   2.459
  443SOL    HW2 2229   5.338   2.903   2.483
  444SOL     OW 2230   3.903   2.062   1.266
  444SOL    HW1 2231   3.808   2.059   1.297
  444SOL    HW2 2232   3.955   2.124   1.325
  445SOL     OW 2233   2.748   6.293   4.149
  445SOL    HW1 2234   2.789   6.300   4.240
  445SOL    HW2 2235   2.662   6.242   4.155
  446SOL     OW 2236   6.562   0.263   7.011
  446SOL    HW1 2237   6.648   0.264   6.959
  446SOL    HW2 2238   6.489   0.226   6.955
  447SOL     OW 2239   6.047   3.514   0.277
  447SOL    HW1 2240   5.961   3.467   0.258
  447SOL    HW2 2241   6.099   3.462   0.344
  448SOL     OW 2242   3.564   0.065   5.030
  448SOL    HW1 2243   3.559   6.986   5.032
  448SOL    HW2 2244   3.478   0.103   5.066
  449SOL     OW 2245   0.886   5.005   4.765
  449SOL    HW1 2246   0.798   5.023   4.807
  449SOL    HW2 2247   0.886   4.914   4.723
  450SOL     OW 2248   6.663   3.444   4.725
  450SOL    HW1 2249   6.666   3.345   4.707
  450SOL    HW2 2250   6.609   3.461   4.807
  451SOL     OW 2251   3.054   1.366   6.391
  451SOL    HW1 2252   2.964   1.326   6.372
  451SOL    HW2 2253   3.106   1.304   6.450
  452SOL     OW 2254   4.297   4.857   0.471
  452SOL    HW1 2255   4.330   4.948   0.494
  452SOL    HW2 2256   4.264   4.857   0.376
  453SOL     OW 2257   4.458   0.832   6.994
  453SOL    HW1 2258   4.385   0.767   7.011
  453SOL    HW2 2259   4.424   0.925   7.007
  454SOL     OW 2260   0.526   2.687   3.592
  454SOL    HW1 2261   0.525   2.705   3.494
  454SOL    HW2 2262   0.515   2.589   3.608
  455SOL     OW 2263   5.719   5.723   0.023
  455SOL    HW1 2264   5.679   5.813   0.001
  455SOL    HW2 2265   5.745   5.677   6.960
  456SOL     OW 2266   1.055   1.181   2.505
  456SOL    HW1 2267   1.095   1.173   2.414
  456SOL    HW2 2268   0.983   1.113   2.516
  457SOL     OW 2269   3.220   5.541   0.503
  457SOL    HW1 2270   3.125   5.550   0.531
  457SOL    HW2 2271   3.275   5.507   0.579
  458SOL     OW 2272   3.599   1.311   4.599
  458SOL    HW1 2273   3.522   1.310   4.662
  458SOL    HW2 2274   3.581   1.375   4.525
  459SOL     OW 2275   3.748   0.902   3.783
  459SOL    HW1 2276   3.758   1.002   3.779
  459SOL    HW2 2277   3.769   0.870   3.876
  460SOL     OW 2278   0.690   1.610   6.255
  460SOL    HW1 2279   0.736   1.531   6.215
  460SOL    HW2 2280   0.746   1.648   6.329
  461SOL     OW 2281   0.607   0.335   4.853
  461SOL    HW1 2282   0.702   0.312   4.871
  461SOL    HW2 2283   0.603   0.410   4.787
  462SOL     OW 2284   3.701   4.132   5.238
  462SOL    HW1 2285   3.792   4.090   5.247
  462SOL    HW2 2286   3.633   4.076   5.285
  463SOL     OW 2287   5.586   6.270   3.027
  463SOL    HW1 2288   5.674   6.224   3.023
  463SOL    HW2 2289   5.517   6.213   2.982
  464SOL     OW 2290   4.732   5.970   5.069
  464SOL    HW1 2291   4.728   5.965   5.169
  464SOL    HW2 2292   4.752   6.064   5.041
  465SOL     OW 2293   1.055   5.444   0.986
  465SOL    HW1 2294   0.964   5.438   0.945
  465SOL    HW2 2295   1.053   5.408   1.079
  466SOL     OW 2296   4.116   4.785   3.951
  466SOL    HW1 2297   4.038   4.811   3.894
  466SOL    HW2 2298   4.091   4.794   4.048
  467SOL     OW 2299   6.580   0.193   0.760
  467SOL    HW1 2300   6.572   0.103   0.719
  467SOL    HW2 2301   6.578   0.185   0.860
  468SOL     OW 2302   2.331   6.842   6.298
  468SOL    HW1 2303   2.357   6.935   6.325
  468SOL    HW2 2304   2.393   6.811   6.225
  469SOL     OW 2305   4.356   4.937   5.281
  469SOL    HW1 2306   4.366   4.983   5.193
  469SOL    HW2 2307   4.273   4.882   5.280
  470SOL     OW 2308   2.683   4.822   2.590
  470SOL    HW1 2309   2.777   4.827   2.556
  470SOL    HW2 2310   2.680   4.757   2.666
  471SOL     OW 2311   1.977   2.462   4.175
  471SOL    HW1 2312   1.971   2.561   4.159
  471SOL    HW2 2313   1.922   2.414   4.107
  472SOL     OW 2314   4.445   3.761   5.818
  472SOL    HW1 2315   4.482   3.690   5.877
  472SOL    HW2 2316   4.348   3.774   5.839
  473SOL     OW 2317   5.767   3.799   2.344
  473SOL    HW1 2318   5.758   3.863   2.421
  473SOL    HW2 2319   5.762   3.850   2.258
  474SOL     OW 2320   4.479   5.480   4.093
  474SOL    HW1 2321   4.392   5.449   4.054
  474SOL    HW2 2322   4.511   5.415   4.161
  475SOL     OW 2323   5.198   1.835   0.757
  475SOL    HW1 2324   5.208   1.748   0.805
  475SOL    HW2 2325   5.283   1.887   0.765
  476SOL     OW 2326   0.901   3.106   0.474
  476SOL    HW1 2327   0.848   3.137   0.552
  476SOL    HW2 2328   0.998   3.120   0.492
  477SOL     OW 2329   6.192   6.261   4.314
  477SOL    HW1 2330   6.291   6.250   4.326
  477SOL    HW2 2331   6.149   6.271   4.403
  478SOL     OW 2332   6.552   5.718   1.676
  478SOL    HW1 2333   6.469   5.691   1.724
  478SOL    HW2 2334   6.607   5.638   1.654
  479SOL     OW 2335   4.022   3.850   2.521
  479SOL    HW1 2336   3.972   3.865   2.435
  479SOL    HW2 2337   4.099   3.788   2.505
  480SOL     OW 2338   6.346   0.146   1.025
  480SOL    HW1 2339   6.429   0.202   1.019
  480SOL    HW2 2340   6.289   0.180   1.101
  481SOL     OW 2341   5.707   6.548   0.219
  481SOL    HW1 2342   5.750   6.506   0.139
  481SOL    HW2 2343   5.768   6.616   0.258
  482SOL     OW 2344   3.997   5.408   2.775
  482SOL    HW1 2345   3.974   5.434   2.681
  482SOL    HW2 2346   4.019   5.490   2.828
  483SOL     OW 2347   6.386   2.478   5.335
  483SOL    HW1 2348   6.382   2.547   5.264
  483SOL    HW2 2349   6.368   2.520   5.424
  484SOL     OW 2350   2.580   5.576   4.483
  484SOL    HW1 2351   2.535   5.586   4.572
  484SOL    HW2 2352   2.641   5.653   4.467
  485SOL     OW 2353   5.202   3.016   0.818
  485SOL    HW1 2354   5.299   3.012   0.797
  485SOL    HW2 2355   5.186   2.973   0.907
  486SOL     OW 2356   6.215   6.422   5.749
  486SOL    HW1 2357   6.263   6.340   5.779
  486SOL    HW2 2358   6.125   6.426   5.792
  487SOL     OW 2359   6.133   1.537   0.143
  487SOL    HW1 2360   6.181   1.464   0.192
  487SOL    HW2 2361   6.117   1.613   0.205
  488SOL     OW 2362   1.914   6.464   3.867
  488SOL    HW1 2363   1.820   6.433   3.884
  488SOL    HW2 2364   1.957   6.404   3.800
  489SOL     OW 2365   2.573   4.407   5.392
  489SOL    HW1 2366   2.658   4.413   5.445
  489SOL    HW2 2367   2.570   4.481   5.325
  490SOL     OW 2368   1.046   3.992   4.838
  490SOL    HW1 2369   1.093   4.055   4.900
  490SOL    HW2 2370   0.977   3.941   4.888
  491SOL     OW 2371   6.630   3.313   2.289
  491SOL    HW1 2372   6.680   3.391   2.252
  491SOL    HW2 2373   6.693   3.254   2.340
  492SOL     OW 2374   1.503   1.840   6.291
  492SOL    HW1 2375   1.557   1.918   6.261
  492SOL    HW2 2376   1.452   1.865   6.374
  493SOL     OW 2377   1.980   5.701   3.797
  493SOL    HW1 2378   2.013   5.647   3.874
  493SOL    HW2 2379   1.998   5.652   3.712
  494SOL     OW 2380   2.538   6.507   2.419
  494SOL    HW1 2381   2.576   6.587   2.372
  494SOL    HW2 2382   2.606   6.434   2.420
  495SOL     OW 2383   3.533   4.569   6.226
  495SOL    HW1 2384   3.575   4.554   6.136
  495SOL    HW2 2385   3.509   4.480   6.266
  496SOL     OW 2386   4.730   0.257   2.667
  496SOL    HW1 2387   4.770   0.171   2.696
  496SOL    HW2 2388   4.640   0.241   2.628
  497SOL     OW 2389   4.379   2.835   1.134
  497SOL    HW1 2390   4.454   2.901   1.123
  497SOL    HW2 2391   4.294   2.875   1.102
  498SOL     OW 2392   0.511   0.462   0.356
  498SOL    HW1 2393   0.567   0.385   0.326
  498SOL    HW2 2394   0.512   0.534   0.286
  499SOL     OW 2395   2.632   6.727   6.387
  499SOL    HW1 2396   2.579   6.753   6.468
  499SOL    HW2 2397   2.720   6.688   6.415
  500SOL     OW 2398   6.240   1.547   6.255
  500SOL    HW1 2399   6.258   1.458   6.213
  500SOL    HW2 2400   6.141   1.562   6.261
  501SOL     OW 2401   1.959   2.059   4.866
  501SOL    HW1 2402   1.993   2.115   4.790
  501SOL    HW2 2403   1.874   2.097   4.900
  502SOL     OW 2404   3.491   2.576   6.657
  502SOL    HW1 2405   3.415   2.584   6.722
  502SOL    HW2 2406   3.566   2.636   6.687
  503SOL     OW 2407   4.022   4.967   1.688
  503SOL    HW1 2408   4.036   5.058   1.651
  503SOL    HW2 2409   3.947   4.922   1.639
  504SOL     OW 2410   6.331   0.567   6.523
  504SOL    HW1 2411   6.350   0.476   6.485
  504SOL    HW2 2412   6.382   0.580   6.607
  505SOL     OW 2413   0.376   3.893   5.869
  505SOL    HW1 2414   0.436   3.816   5.847
  505SOL    HW2 2415   0.288   3.858   5.902
  506SOL     OW 2416   3.107   6.158   2.369
  506SOL    HW1 2417   3.153   6.141   2.282
  506SOL    HW2 2418   3.045   6.082   2.390
  507SOL     OW 2419   2.053   6.994   3.622
  507SOL    HW1 2420   2.037   0.023   3.707
  507SOL    HW2 2421   2.065   0.038   3.547
  508SOL     OW 2422   0.298   4.954   2.644
  508SOL    HW1 2423   0.317   4.892   2.720
  508SOL    HW2 2424   0.302   4.903   2.558
  509SOL     OW 2425   4.587   0.595   5.885
  509SOL    HW1 2426   4.678   0.586   5.926
  509SOL    HW2 2427   4.518   0.570   5.953
  510SOL     OW 2428   6.548   4.841   6.966
  510SOL    HW1 2429   6.644   4.847   6.940
  510SOL    HW2 2430   6.497   4.797   6.892
  511SOL     OW 2431   6.937   2.559   0.851
  511SOL    HW1 2432   6.844   2.546   0.885
  511SOL    HW2 2433   6.971   2.473   0.813
  512SOL     OW 2434   1.848   1.331   4.625
  512SOL    HW1 2435   1.946   1.310   4.634
  512SOL    HW2 2436   1.819   1.388   4.703
  513SOL     OW 2437   5.643   5.486   2.175
  513SOL    HW1 2438   5.701   5.519   2.250
  513SOL    HW2 2439   5.656   5.388   2.163
  514SOL     OW 2440   4.994   1.171   5.003
  514SOL    HW1 2441   4.984   1.241   5.074
  514SOL    HW2 2442   5.069   1.109   5.028
  515SOL     OW 2443   3.246   0.331   6.693
  515SOL    HW1 2444   3.189   0.250   6.681
  515SOL    HW2 2445   3.243   0.360   6.789
  516SOL     OW 2446   0.717   5.518   2.488
  516SOL    HW1 2447   0.757   5.457   2.556
  516SOL    HW2 2448   0.623   5.540   2.515
  517SOL     OW 2449   3.557   4.892   0.228
  517SOL    HW1 2450   3.493   4.966   0.250
  517SOL    HW2 2451   3.645   4.930   0.202
  518SOL     OW 2452   2.125   0.180   3.448
  518SOL    HW1 2453   2.201   0.193   3.384
  518SOL    HW2 2454   2.070   0.263   3.452
  519SOL     OW 2455   0.599   6.522   3.496
  519SOL    HW1 2456   0.581   6.563   3.407
  519SOL    HW2 2457   0.688   6.476   3.494
  520SOL     OW 2458   3.163   5.330   0.018
  520SOL    HW1 2459   3.207   5.241   0.026
  520SOL    HW2 2460   3.230   5.398   7.011
  521SOL     OW 2461   0.086   0.147   5.154
  521SOL    HW1 2462   0.155   0.119   5.088
  521SOL    HW2 2463   7.019   0.156   5.108
  522SOL     OW 2464   3.033   5.689   5.700
  522SOL    HW1 2465   2.975   5.672   5.621
  522SOL    HW2 2466   2.987   5.753   5.762
  523SOL     OW 2467   1.835   6.930   6.139
  523SOL    HW1 2468   1.828   6.986   6.056
  523SOL    HW2 2469   1.861   6.837   6.114
  524SOL     OW 2470   6.426   1.932   1.640
  524SOL    HW1 2471   6.393   2.022   1.668
  524SOL    HW2 2472   6.350   1.867   1.637
  525SOL     OW 2473   6.967   3.045   3.945
  525SOL    HW1 2474   6.903   3.005   3.880
  525SOL    HW2 2475   7.017   3.120   3.901
  526SOL     OW 2476   4.162   6.068   5.069
  526SOL    HW1 2477   4.261   6.060   5.081
  526SOL    HW2 2478   4.123   6.113   5.150
  527SOL     OW 2479   6.718   2.026   0.222
  527SOL    HW1 2480   6.712   1.955   0.293
  527SOL    HW2 2481   6.787   2.093   0.249
  528SOL     OW 2482   6.745   1.583   3.397
  528SOL    HW1 2483   6.745   1.565   3.299
  528SOL    HW2 2484   6.825   1.540   3.439
  529SOL     OW 2485   1.158   1.677   5.549
  529SOL    HW1 2486   1.229   1.738   5.583
  529SOL    HW2 2487   1.081   1.675   5.613
  530SOL     OW 2488   3.382   4.497   1.633
  530SOL    HW1 2489   3.337   4.410   1.649
  530SOL    HW2 2490   3.423   4.530   1.719
  531SOL     OW 2491   7.010   1.290   5.797
  531SOL    HW1 2492   7.014   1.273   5.895
  531SOL    HW2 2493   0.025   1.380   5.776
  532SOL     OW 2494   3.230   1.215   6.521
  532SOL    HW1 2495   3.223   1.162   6.605
  532SOL    HW2 2496   3.243   1.154   6.444
  533SOL     OW 2497   3.355   6.728   4.907
  533SOL    HW1 2498   3.314   6.807   4.862
  533SOL    HW2 2499   3.419   6.758   4.978
  534SOL     OW 2500   1.764   4.254   0.771
  534SOL    HW1 2501   1.845   4.214   0.729
  534SOL    HW2 2502   1.694   4.184   0.784
  535SOL     OW 2503   5.120   4.060   3.611
  535SOL    HW1 2504   5.083   4.147   3.642
  535SOL    HW2 2505   5.046   3.996   3.592
  536SOL     OW 2506   6.344   0.429   0.714
  536SOL    HW1 2507   6.402   0.368   0.768
  536SOL    HW2 2508   6.260   0.448   0.763
  537SOL     OW 2509   3.415   2.060   2.359
  537SOL    HW1 2510   3.456   2.136   2.309
  537SOL    HW2 2511   3.481   1.985   2.367
  538SOL     OW 2512   4.236   5.806   6.616
  538SOL    HW1 2513   4.156   5.863   6.637
  538SOL    HW2 2514   4.210   5.738   6.546
  539SOL     OW 2515   2.920   6.664   6.708
  539SOL    HW1 2516   2.968   6.629   6.789
  539SOL    HW2 2517   2.833   6.703   6.736
  540SOL     OW 2518   1.681   1.558   5.518
  540SOL    HW1 2519   1.637   1.648   5.514
  540SOL    HW2 2520   1.679   1.517   5.427
  541SOL     OW 2521   6.204   5.880   1.949
  541SOL    HW1 2522   6.159   5.955   1.900
  541SOL    HW2 2523   6.138   5.836   2.010
  542SOL     OW 2524   4.161   5.793   6.092
  542SOL    HW1 2525   4.189   5.699   6.106
  542SOL    HW2 2526   4.112   5.826   6.173
  543SOL     OW 2527   6.908   2.216   4.962
  543SOL    HW1 2528   6.853   2.151   5.014
  543SOL    HW2 2529   6.873   2.308   4.976
  544SOL     OW 2530   0.897   2.095   1.017
  544SOL    HW1 2531   0.908   1.998   0.994
  544SOL    HW2 2532   0.805   2.124   0.992
  545SOL     OW 2533   6.793   5.004   0.881
  545SOL    HW1 2534   6.848   4.922   0.864
  545SOL    HW2 2535   6.699   4.988   0.849
  546SOL     OW 2536   0.021   5.935   2.412
  546SOL    HW1 2537   6.973   5.991   2.456
  546SOL    HW2 2538   0.056   5.868   2.477
  547SOL     OW 2539   3.579   6.303   0.221
  547SOL    HW1 2540   3.481   6.299   0.199
  547SOL    HW2 2541   3.611   6.397   0.213
  548SOL     OW 2542   4.209   3.246   6.283
  548SOL    HW1 2543   4.222   3.147   6.275
  548SOL    HW2 2544   4.111   3.267   6.283
  549SOL     OW 2545   4.810   2.992   3.856
  549SOL    HW1 2546   4.760   2.974   3.772
  549SOL    HW2 2547   4.821   2.907   3.907
  550SOL     OW 2548   6.817   5.813   4.346
  550SOL    HW1 2549   6.798   5.879   4.419
  550SOL    HW2 2550   6.801   5.856   4.257
  551SOL     OW 2551   5.251   0.793   6.567
  551SOL    HW1 2552   5.350   0.806   6.574
  551SOL    HW2 2553   5.224   0.792   6.471
  552SOL     OW 2554   1.309   0.270   4.057
  552SOL    HW1 2555   1.367   0.189   4.064
  552SOL    HW2 2556   1.315   0.307   3.964
  553SOL     OW 2557   4.437   2.531   5.857
  553SOL    HW1 2558   4.375   2.463   5.896
  553SOL    HW2 2559   4.516   2.543   5.916
  554SOL     OW 2560   6.557   4.777   0.472
  554SOL    HW1 2561   6.492   4.700   0.476
  554SOL    HW2 2562   6.642   4.751   0.517
  555SOL     OW 2563   4.371   4.633   5.498
  555SOL    HW1 2564   4.434   4.689   5.444
  555SOL    HW2 2565   4.350   4.549   5.447
  556SOL     OW 2566   5.475   6.020   2.918
  556SOL    HW1 2567   5.461   5.922   2.905
  556SOL    HW2 2568   5.513   6.059   2.834
  557SOL     OW 2569   0.176   3.709   6.999
  557SOL    HW1 2570   0.233   3.632   0.006
  557SOL    HW2 2571   0.187   3.784   0.044
  558SOL     OW 2572   3.557   3.606   1.468
  558SOL    HW1 2573   3.612   3.575   1.545
  558SOL    HW2 2574   3.508   3.690   1.494
  559SOL     OW 2575   5.636   1.540   5.830
  559SOL    HW1 2576   5.670   1.614   5.773
  559SOL    HW2 2577   5.619   1.459   5.773
  560SOL     OW 2578   1.966   2.467   3.082
  560SOL    HW1 2579   1.976   2.545   3.021
  560SOL    HW2 2580   1.879   2.474   3.132
  561SOL     OW 2581   6.647   4.031   0.763
  561SOL    HW1 2582   6.629   4.128   0.780
  561SOL    HW2 2583   6.577   3.994   0.703
  562SOL     OW 2584   2.959   6.304   2.681
  562SOL    HW1 2585   3.043   6.261   2.647
  562SOL    HW2 2586   2.914   6.243   2.746
  563SOL     OW 2587   0.814   0.237   3.984
  563SOL    HW1 2588   0.859   0.227   3.895
  563SOL    HW2 2589   0.736   0.300   3.974
  564SOL     OW 2590   6.011   2.959   6.000
  564SOL    HW1 2591   5.930   2.928   6.049
  564SOL    HW2 2592   6.085   2.976   6.066
  565SOL     OW 2593   3.390   3.224   3.477
  565SOL    HW1 2594   3.463   3.211   3.544
  565SOL    HW2 2595   3.412   3.173   3.394
  566SOL     OW 2596   0.968   2.324   3.250
  566SOL    HW1 2597   0.881   2.275   3.248
  566SOL    HW2 2598   0.992   2.352   3.157
  567SOL     OW 2599   1.920   2.355   5.211
  567SOL    HW1 2600   1.850   2.409   5.257
  567SOL    HW2 2601   2.007   2.364   5.261
  568SOL     OW 2602   0.892   0.136   6.718
  568SOL    HW1 2603   0.806   0.089   6.699
  568SOL    HW2 2604   0.883   0.188   6.802
  569SOL     OW 2605   5.377   3.475   5.129
  569SOL    HW1 2606   5.325   3.482   5.044
  569SOL    HW2 2607   5.316   3.485   5.207
  570SOL     OW 2608   2.674   0.336   5.484
  570SOL    HW1 2609   2.681   0.373   5.577
  570SOL    HW2 2610   2.588   0.365   5.443
  571SOL     OW 2611   2.384   4.461   2.678
  571SOL    HW1 2612   2.358   4.368   2.652
  571SOL    HW2 2613   2.383   4.520   2.597
  572SOL     OW 2614   2.708   1.590   4.892
  572SOL    HW1 2615   2.710   1.690   4.887
  572SOL    HW2 2616   2.698   1.562   4.987
  573SOL     OW 2617   0.340   0.107   5.929
  573SOL    HW1 2618   0.427   0.072   5.895
  573SOL    HW2 2619   0.270   0.096   5.859
  574SOL     OW 2620   3.107   1.489   5.802
  574SOL    HW1 2621   3.065   1.420   5.861
  574SOL    HW2 2622   3.118   1.453   5.710
  575SOL     OW 2623   3.848   3.967   6.793
  575SOL    HW1 2624   3.906   4.002   6.867
  575SOL    HW2 2625   3.754   3.997   6.808
  576SOL     OW 2626   6.837   1.138   4.177
  576SOL    HW1 2627   6.802   1.120   4.085
  576SOL    HW2 2628   6.761   1.150   4.240
  577SOL     OW 2629   6.297   0.331   1.348
  577SOL    HW1 2630   6.244   0.258   1.304
  577SOL    HW2 2631   6.377   0.352   1.291
  578SOL     OW 2632   4.127   6.550   0.956
  578SOL    HW1 2633   4.173   6.635   0.982
  578SOL    HW2 2634   4.147   6.479   1.023
  579SOL     OW 2635   0.466   4.201   2.126
  579SOL    HW1 2636   0.523   4.251   2.062
  579SOL    HW2 2637   0.494   4.105   2.128
  580SOL     OW 2638   4.796   4.442   4.783
  580SOL    HW1 2639   4.810   4.343   4.780
  580SOL    HW2 2640   4.763   4.469   4.874
  581SOL     OW 2641   2.615   1.964   4.266
  581SOL    HW1 2642   2.592   2.040   4.326
  581SOL    HW2 2643   2.650   1.999   4.179
  582SOL     OW 2644   6.426   4.912   5.176
  582SOL    HW1 2645   6.328   4.900   5.167
  582SOL    HW2 2646   6.450   5.007   5.158
  583SOL     OW 2647   3.052   5.860   5.144
  583SOL    HW1 2648   3.117   5.922   5.188
  583SOL    HW2 2649   3.004   5.909   5.071
  584SOL     OW 2650   3.855   0.746   4.990
  584SOL    HW1 2651   3.882   0.659   4.948
  584SOL    HW2 2652   3.813   0.729   5.079
  585SOL     OW 2653   3.727   6.762   1.660
  585SOL    HW1 2654   3.655   6.753   1.591
  585SOL    HW2 2655   3.690   6.801   1.743
  586SOL     OW 2656   3.218   6.550   1.159
  586SOL    HW1 2657   3.282   6.572   1.232
  586SOL    HW2 2658   3.227   6.617   1.085
  587SOL     OW 2659   5.828   0.713   3.502
  587SOL    HW1 2660   5.800   0.686   3.594
  587SOL    HW2 2661   5.888   0.644   3.463
  588SOL     OW 2662   2.305   4.098   2.846
  588SOL    HW1 2663   2.402   4.110   2.864
  588SOL    HW2 2664   2.253   4.116   2.929
  589SOL     OW 2665   3.613   5.049   5.659
  589SOL    HW1 2666   3.675   5.069   5.583
  589SOL    HW2 2667   3.576   4.957   5.650
  590SOL     OW 2668   2.011   0.608   6.448
  590SOL    HW1 2669   1.948   0.680   6.479
  590SOL    HW2 2670   1.962   0.543   6.390
  591SOL     OW 2671   2.896   0.340   3.829
  591SOL    HW1 2672   2.860   0.390   3.909
  591SOL    HW2 2673   2.837   0.358   3.750
  592SOL     OW 2674   4.771   1.346   4.055
  592SOL    HW1 2675   4.813   1.436   4.068
  592SOL    HW2 2676   4.840   1.275   4.069
  593SOL     OW 2677   1.235   6.626   0.046
  593SOL    HW1 2678   1.310   6.585   7.016
  593SOL    HW2 2679   1.148   6.606   0.001
  594SOL     OW 2680   2.496   1.231   4.737
  594SOL    HW1 2681   2.484   1.330   4.737
  594SOL    HW2 2682   2.459   1.193   4.822
  595SOL     OW 2683   5.738   3.983   2.535
  595SOL    HW1 2684   5.659   3.945   2.582
  595SOL    HW2 2685   5.822   3.959   2.585
  596SOL     OW 2686   6.617   5.098   5.008
  596SOL    HW1 2687   6.656   5.011   5.038
  596SOL    HW2 2688   6.556   5.082   4.931
  597SOL     OW 2689   3.406   1.027   6.955
  597SOL    HW1 2690   3.475   1.087   6.915
  597SOL    HW2 2691   3.421   0.933   6.924
  598SOL     OW 2692   3.306   2.910   2.185
  598SOL    HW1 2693   3.271   2.874   2.099
  598SOL    HW2 2694   3.230   2.923   2.250
  599SOL     OW 2695   1.764   5.707   2.037
  599SOL    HW1 2696   1.841   5.763   2.007
  599SOL    HW2 2697   1.725   5.746   2.121
  600SOL     OW 2698   0.887   4.131   5.354
  600SOL    HW1 2699   0.791   4.107   5.342
  600SOL    HW2 2700   0.900   4.178   5.441
  601SOL     OW 2701   6.726   6.875   5.810
  601SOL    HW1 2702   6.753   6.800   5.750
  601SOL    HW2 2703   6.626   6.881   5.814
  602SOL     OW 2704   0.287   0.533   3.148
  602SOL    HW1 2705   0.385   0.554   3.144
  602SOL    HW2 2706   0.249   0.531   3.056
  603SOL     OW 2707   1.089   1.101   3.728
  603SOL    HW1 2708   1.139   1.186   3.720
  603SOL    HW2 2709   1.140   1.037   3.786
  604SOL     OW 2710   5.319   2.895   1.076
  604SOL    HW1 2711   5.270   2.922   1.159
  604SOL    HW2 2712   5.275   2.815   1.036
  605SOL     OW 2713   6.126   6.681   1.666
  605SOL    HW1 2714   6.094   6.769   1.629
  605SOL    HW2 2715   6.187   6.698   1.743
  606SOL     OW 2716   2.488   6.761   5.404
  606SOL    HW1 2717   2.448   6.675   5.436
  606SOL    HW2 2718   2.549   6.743   5.328
  607SOL     OW 2719   1.809   3.707   5.757
  607SOL    HW1 2720   1.731   3.650   5.731
  607SOL    HW2 2721   1.882   3.650   5.794
  608SOL     OW 2722   2.352   1.355   6.850
  608SOL    HW1 2723   2.389   1.281   6.907
  608SOL    HW2 2724   2.258   1.375   6.879
  609SOL     OW 2725   3.962   3.085   2.570
  609SOL    HW1 2726   3.979   3.010   2.506
  609SOL    HW2 2727   3.872   3.125   2.553
  610SOL     OW 2728   5.651   2.882   2.452
  610SOL    HW1 2729   5.691   2.870   2.543
  610SOL    HW2 2730   5.555   2.856   2.454
  611SOL     OW 2731   4.086   1.221   2.100
  611SOL    HW1 2732   4.180   1.215   2.065
  611SOL    HW2 2733   4.064   1.316   2.121
  612SOL     OW 2734   4.231   5.542   4.299
  612SOL    HW1 2735   4.324   5.521   4.329
  612SOL    HW2 2736   4.165   5.503   4.364
  613SOL     OW 2737   4.174   6.479   6.270
  613SOL    HW1 2738   4.118   6.558   6.248
  613SOL    HW2 2739   4.146   6.401   6.213
  614SOL     OW 2740   3.321   6.613   6.160
  614SOL    HW1 2741   3.239   6.614   6.217
  614SOL    HW2 2742   3.390   6.553   6.202
  615SOL     OW 2743   6.965   5.092   4.217
  615SOL    HW1 2744   0.010   5.114   4.288
  615SOL    HW2 2745   6.902   5.022   4.251
  616SOL     OW 2746   6.809   2.958   3.701
  616SOL    HW1 2747   6.729   2.937   3.645
  616SOL    HW2 2748   6.886   2.982   3.642
  617SOL     OW 2749   2.680   7.012   5.823
  617SOL    HW1 2750   2.715   0.033   5.740
  617SOL    HW2 2751   2.631   6.928   5.800
  618SOL     OW 2752   2.316   6.859   3.076
  618SOL    HW1 2753   2.301   6.872   3.174
  618SOL    HW2 2754   2.413   6.874   3.055
  619SOL     OW 2755   1.531   3.179   6.836
  619SOL    HW1 2756   1.501   3.203   6.928
  619SOL    HW2 2757   1.518   3.080   6.822
  620SOL     OW 2758   4.794   3.783   1.056
  620SOL    HW1 2759   4.827   3.712   0.993
  620SOL    HW2 2760   4.821   3.872   1.021
  621SOL     OW 2761   0.142   5.927   1.208
  621SOL    HW1 2762   0.127   5.874   1.124
  621SOL    HW2 2763   0.218   5.888   1.259
  622SOL     OW 2764   1.525   1.576   0.122
  622SOL    HW1 2765   1.501   1.561   0.218
  622SOL    HW2 2766   1.569   1.665   0.112
  623SOL     OW 2767   6.151   5.722   5.439
  623SOL    HW1 2768   6.068   5.777   5.431
  623SOL    HW2 2769   6.128   5.634   5.482
  624SOL     OW 2770   6.886   1.391   1.253
  624SOL    HW1 2771   6.805   1.333   1.266
  624SOL    HW2 2772   6.934   1.361   1.171
  625SOL     OW 2773   1.949   1.012   1.700
  625SOL    HW1 2774   2.031   1.067   1.719
  625SOL    HW2 2775   1.928   1.017   1.602
  626SOL     OW 2776   3.977   5.929   5.718
  626SOL    HW1 2777   4.073   5.901   5.721
  626SOL    HW2 2778   3.937   5.903   5.630
  627SOL     OW 2779   4.096   5.179   6.945
  627SOL    HW1 2780   4.166   5.143   7.006
  627SOL    HW2 2781   4.015   5.121   6.950
  628SOL     OW 2782   5.109   3.555   4.214
  628SOL    HW1 2783   5.060   3.525   4.132
  628SOL    HW2 2784   5.115   3.479   4.278
  629SOL     OW 2785   0.978   0.314   1.630
  629SOL    HW1 2786   0.962   0.217   1.611
  629SOL    HW2 2787   0.891   0.359   1.652
  630SOL     OW 2788   2.516   1.502   2.034
  630SOL    HW1 2789   2.485   1.473   1.943
  630SOL    HW2 2790   2.563   1.426   2.079
  631SOL     OW 2791   2.923   1.274   3.840
  631SOL    HW1 2792   2.949   1.368   3.820
  631SOL    HW2 2793   2.999   1.227   3.885
  632SOL     OW 2794   2.860   1.004   0.339
  632SOL    HW1 2795   2.929   1.016   0.410
  632SOL    HW2 2796   2.814   0.916   0.352
  633SOL     OW 2797   2.217   0.274   4.071
  633SOL    HW1 2798   2.298   0.254   4.126
  633SOL    HW2 2799   2.144   0.210   4.094
  634SOL     OW 2800   2.791   5.361   2.042
  634SOL    HW1 2801   2.827   5.445   2.001
  634SOL    HW2 2802   2.803   5.365   2.141
  635SOL     OW 2803   2.881   0.119   1.704
  635SOL    HW1 2804   2.925   0.202   1.741
  635SOL    HW2 2805   2.944   0.074   1.640
  636SOL     OW 2806   4.830   5.401   6.462
  636SOL    HW1 2807   4.802   5.340   6.388
  636SOL    HW2 2808   4.764   5.476   6.470
  637SOL     OW 2809   6.064   4.775   6.580
  637SOL    HW1 2810   6.052   4.861   6.529
  637SOL    HW2 2811   5.980   4.753   6.629
  638SOL     OW 2812   5.746   1.606   3.565
  638SOL    HW1 2813   5.828   1.663   3.572
  638SOL    HW2 2814   5.772   1.509   3.563
  639SOL     OW 2815   3.626   3.393   1.320
  639SOL    HW1 2816   3.583   3.476   1.355
  639SOL    HW2 2817   3.696   3.417   1.253
  640SOL     OW 2818   3.223   3.111   5.388
  640SOL    HW1 2819   3.144   3.172   5.395
  640SOL    HW2 2820   3.271   3.107   5.476
  641SOL     OW 2821   0.664   0.680   4.720
  641SOL    HW1 2822   0.583   0.640   4.678
  641SOL    HW2 2823   0.661   0.663   4.819
  642SOL     OW 2824   0.475   5.011   0.037
  642SOL    HW1 2825   0.520   5.099   0.052
  642SOL    HW2 2826   0.494   4.979   6.966
  643SOL     OW 2827   5.488   6.835   4.414
  643SOL    HW1 2828   5.424   6.834   4.492
  643SOL    HW2 2829   5.566   6.894   4.436
  644SOL     OW 2830   3.157   5.787   2.062
  644SOL    HW1 2831   3.242   5.835   2.082
  644SOL    HW2 2832   3.085   5.819   2.123
  645SOL     OW 2833   0.935   3.248   3.341
  645SOL    HW1 2834   0.958   3.221   3.435
  645SOL    HW2 2835   0.973   3.181   3.277
  646SOL     OW 2836   1.749   3.287   4.135
  646SOL    HW1 2837   1.660   3.248   4.111
  646SOL    HW2 2838   1.821   3.224   4.107
  647SOL     OW 2839   5.673   5.258   1.202
  647SOL    HW1 2840   5.730   5.332   1.167
  647SOL    HW2 2841   5.641   5.202   1.125
  648SOL     OW 2842   4.396   2.204   4.093
  648SOL    HW1 2843   4.344   2.270   4.038
  648SOL    HW2 2844   4.361   2.112   4.076
  649SOL     OW 2845   4.268   4.330   1.361
  649SOL    HW1 2846   4.220   4.418   1.353
  649SOL    HW2 2847   4.230   4.265   1.295
  650SOL     OW 2848   5.865   5.373   0.601
  650SOL    HW1 2849   5.916   5.456   0.623
  650SOL    HW2 2850   5.859   5.364   0.502
  651SOL     OW 2851   0.967   5.384   6.429
  651SOL    HW1 2852   1.065   5.398   6.445
  651SOL    HW2 2853   0.952   5.356   6.334
  652SOL     OW 2854   4.947   2.805   1.571
  652SOL    HW1 2855   4.921   2.883   1.628
  652SOL    HW2 2856   4.967   2.726   1.628
  653SOL     OW 2857   3.660   5.576   2.583
  653SOL    HW1 2858   3.756   5.602   2.582
  653SOL    HW2 2859   3.617   5.602   2.496
  654SOL     OW 2860   6.925   4.259   6.780
  654SOL    HW1 2861   6.853   4.190   6.776
  654SOL    HW2 2862   6.958   4.278   6.688
  655SOL     OW 2863   1.830   1.521   1.029
  655SOL    HW1 2864   1.859   1.564   0.943
  655SOL    HW2 2865   1.910   1.482   1.075
  656SOL     OW 2866   2.349   6.387   0.643
  656SOL    HW1 2867   2.263   6.343   0.620
  656SOL    HW2 2868   2.360   6.388   0.743
  657SOL     OW 2869   3.789   0.570   6.331
  657SOL    HW1 2870   3.735   0.599   6.252
  657SOL    HW2 2871   3.886   0.578   6.309
  658SOL     OW 2872   4.058   5.430   0.193
  658SOL    HW1 2873   4.093   5.411   0.102
  658SOL    HW2 2874   4.130   5.474   0.248
  659SOL     OW 2875   3.029   0.957   6.312
  659SOL    HW1 2876   2.976   0.901   6.249
  659SOL    HW2 2877   2.977   0.970   6.397
  660SOL     OW 2878   2.765   6.046   3.701
  660SOL    HW1 2879   2.785   6.036   3.603
  660SOL    HW2 2880   2.671   6.076   3.713
  661SOL     OW 2881   0.244   5.011   3.239
  661SOL    HW1 2882   0.216   5.011   3.143
  661SOL    HW2 2883   0.168   5.044   3.296
  662SOL     OW 2884   3.727   2.244   0.062
  662SOL    HW1 2885   3.731   2.242   6.984
  662SOL    HW2 2886   3.748   2.336   0.094
  663SOL     OW 2887   1.353   3.822   4.986
  663SOL    HW1 2888   1.340   3.909   5.033
  663SOL    HW2 2889   1.439   3.823   4.937
  664SOL     OW 2890   5.718   0.008   6.273
  664SOL    HW1 2891   5.720   0.071   6.195
  664SOL    HW2 2892   5.626   6.994   6.284
  665SOL     OW 2893   1.488   4.244   2.395
  665SOL    HW1 2894   1.486   4.171   2.465
  665SOL    HW2 2895   1.500   4.203   2.305
  666SOL     OW 2896   4.058   0.929   2.812
  666SOL    HW1 2897   4.016   0.859   2.869
  666SOL    HW2 2898   4.056   0.899   2.716
  667SOL     OW 2899   5.928   6.988   1.032
  667SOL    HW1 2900   5.891   0.048   1.076
  667SOL    HW2 2901   5.971   6.930   1.101
  668SOL     OW 2902   5.163   3.682   6.843
  668SOL    HW1 2903   5.224   3.759   6.824
  668SOL    HW2 2904   5.186   3.606   6.782
  669SOL     OW 2905   6.027   0.789   3.750
  669SOL    HW1 2906   5.958   0.725   3.784
  669SOL    HW2 2907   6.098   0.738   3.701
  670SOL     OW 2908   4.230   1.865   1.943
  670SOL    HW1 2909   4.139   1.844   1.979
  670SOL    HW2 2910   4.267   1.945   1.989
  671SOL     OW 2911   0.779   5.544   1.840
  671SOL    HW1 2912   0.869   5.501   1.833
  671SOL    HW2 2913   0.711   5.474   1.865
  672SOL     OW 2914   0.310   0.045   1.324
  672SOL    HW1 2915   0.356   6.981   1.302
  672SOL    HW2 2916   0.239   0.063   1.256
  673SOL     OW 2917   6.432   6.754   6.182
  673SOL    HW1 2918   6.519   6.802   6.191
  673SOL    HW2 2919   6.447   6.656   6.193
  674SOL     OW 2920   5.021   6.738   4.411
  674SOL    HW1 2921   5.022   6.655   4.355
  674SOL    HW2 2922   4.952   6.801   4.376
  675SOL     OW 2923   0.509   5.054   2.187
  675SOL    HW1 2924   0.539   5.117   2.258
  675SOL    HW2 2925   0.478   5.107   2.107
  676SOL     OW 2926   2.170   6.245   6.679
  676SOL    HW1 2927   2.197   6.161   6.725
  676SOL    HW2 2928   2.070   6.254   6.683
  677SOL     OW 2929   5.247   1.019   1.114
  677SOL    HW1 2930   5.195   1.068   1.045
  677SOL    HW2 2931   5.319   0.965   1.070
  678SOL     OW 2932   0.134   5.431   4.119
  678SOL    HW1 2933   0.233   5.431   4.134
  678SOL    HW2 2934   0.087   5.432   4.207
  679SOL     OW 2935   5.670   0.471   6.118
  679SOL    HW1 2936   5.584   0.476   6.168
  679SOL    HW2 2937   5.746   0.487   6.182
  680SOL     OW 2938   6.025   0.331   3.913
  680SOL    HW1 2939   5.975   0.245   3.907
  680SOL    HW2 2940   6.093   0.335   3.840
  681SOL     OW 2941   4.995   5.004   2.867
  681SOL    HW1 2942   4.966   5.028   2.774
  681SOL    HW2 2943   4.972   4.909   2.886
  682SOL     OW 2944   6.134   2.484   3.659
  682SOL    HW1 2945   6.212   2.489   3.721
  682SOL    HW2 2946   6.165   2.452   3.570
  683SOL     OW 2947   3.106   5.841   0.061
  683SOL    HW1 2948   3.035   5.809   7.020
  683SOL    HW2 2949   3.181   5.881   0.007
  684SOL     OW 2950   5.465   2.217   6.363
  684SOL    HW1 2951   5.508   2.282   6.301
  684SOL    HW2 2952   5.451   2.261   6.453
  685SOL     OW 2953   3.406   6.530   3.217
  685SOL    HW1 2954   3.478   6.461   3.226
  685SOL    HW2 2955   3.357   6.539   3.304
  686SOL     OW 2956   2.532   0.904   5.389
  686SOL    HW1 2957   2.572   0.957   5.314
  686SOL    HW2 2958   2.567   0.811   5.387
  687SOL     OW 2959   0.350   1.224   4.590
  687SOL    HW1 2960   0.394   1.137   4.569
  687SOL    HW2 2961   0.416   1.299   4.581
  688SOL     OW 2962   4.974   3.850   6.754
  688SOL    HW1 2963   5.024   3.766   6.774
  688SOL    HW2 2964   5.013   3.894   6.673
  689SOL     OW 2965   2.217   6.471   6.893
  689SOL    HW1 2966   2.244   6.387   6.847
  689SOL    HW2 2967   2.119   6.471   6.910
  690SOL     OW 2968   5.734   3.442   4.126
  690SOL    HW1 2969   5.685   3.506   4.067
  690SOL    HW2 2970   5.819   3.414   4.082
  691SOL     OW 2971   5.361   6.997   3.003
  691SOL    HW1 2972   5.380   0.065   2.962
  691SOL    HW2 2973   5.294   7.008   3.076
  692SOL     OW 2974   1.673   6.788   3.474
  692SOL    HW1 2975   1.766   6.789   3.510
  692SOL    HW2 2976   1.646   6.881   3.451
  693SOL     OW 2977   6.034   4.126   1.879
  693SOL    HW1 2978   5.983   4.209   1.903
  693SOL    HW2 2979   5.983   4.046   1.909
  694SOL     OW 2980   3.946   4.996   4.409
  694SOL    HW1 2981   3.936   4.944   4.494
  694SOL    HW2 2982   3.874   5.064   4.403
  695SOL     OW 2983   4.889   0.192   4.155
  695SOL    HW1 2984   4.888   0.285   4.119
  695SOL    HW2 2985   4.848   0.190   4.246
  696SOL     OW 2986   6.839   4.466   1.757
  696SOL    HW1 2987   6.902   4.398   1.718
  696SOL    HW2 2988   6.892   4.544   1.790
  697SOL     OW 2989   0.965   6.255   3.164
  697SOL    HW1 2990   0.902   6.189   3.204
  697SOL    HW2 2991   0.927   6.347   3.171
  698SOL     OW 2992   5.904   6.878   5.593
  698SOL    HW1 2993   5.824   6.923   5.552
  698SOL    HW2 2994   5.975   6.946   5.611
  699SOL     OW 2995   4.220   2.895   0.704
  699SOL    HW1 2996   4.146   2.846   0.749
  699SOL    HW2 2997   4.202   2.898   0.605
  700SOL     OW 2998   3.571   6.920   5.494
  700SOL    HW1 2999   3.589   6.824   5.469
  700SOL    HW2 3000   3.596   6.934   5.590
  701SOL     OW 3001   4.412   4.133   1.526
  701SOL    HW1 3002   4.380   4.214   1.476
  701SOL    HW2 3003   4.361   4.124   1.611
  702SOL     OW 3004   3.554   0.800   5.165
  702SOL    HW1 3005   3.494   0.879   5.150
  702SOL    HW2 3006   3.575   0.793   5.263
  703SOL     OW 3007   3.711   3.223   0.637
  703SOL    HW1 3008   3.781   3.217   0.566
  703SOL    HW2 3009   3.641   3.289   0.609
  704SOL     OW 3010   3.506   1.695   0.514
  704SOL    HW1 3011   3.556   1.659   0.593
  704SOL    HW2 3012   3.428   1.749   0.545
  705SOL     OW 3013   6.705   6.742   6.332
  705SOL    HW1 3014   6.787   6.797   6.348
  705SOL    HW2 3015   6.727   6.668   6.268
  706SOL     OW 3016   3.695   0.241   4.850
  706SOL    HW1 3017   3.614   0.300   4.849
  706SOL    HW2 3018   3.686   0.174   4.924
  707SOL     OW 3019   3.659   5.148   4.184
  707SOL    HW1 3020   3.627   5.243   4.191
  707SOL    HW2 3021   3.623   5.096   4.262
  708SOL     OW 3022   2.827   5.847   4.032
  708SOL    HW1 3023   2.850   5.757   4.071
  708SOL    HW2 3024   2.742   5.839   3.979
  709SOL     OW 3025   1.824   6.876   1.982
  709SOL    HW1 3026   1.745   6.923   1.943
  709SOL    HW2 3027   1.875   6.939   2.041
  710SOL     OW 3028   4.813   2.984   3.236
  710SOL    HW1 3029   4.900   2.935   3.229
  710SOL    HW2 3030   4.740   2.926   3.199
  711SOL     OW 3031   6.234   1.216   0.466
  711SOL    HW1 3032   6.314   1.158   0.483
  711SOL    HW2 3033   6.227   1.285   0.537
  712SOL     OW 3034   4.933   4.814   6.432
  712SOL    HW1 3035   4.877   4.809   6.515
  712SOL    HW2 3036   5.017   4.761   6.445
  713SOL     OW 3037   2.552   2.729   5.235
  713SOL    HW1 3038   2.526   2.699   5.143
  713SOL    HW2 3039   2.570   2.827   5.234
  714SOL     OW 3040   3.979   6.815   2.721
  714SOL    HW1 3041   4.062   6.870   2.726
  714SOL    HW2 3042   3.902   6.873   2.694
  715SOL     OW 3043   6.258   4.225   5.946
  715SOL    HW1 3044   6.310   4.310   5.941
  715SOL    HW2 3045   6.318   4.152   5.979
  716SOL     OW 3046   3.317   0.851   3.573
  716SOL    HW1 3047   3.345   0.898   3.490
  716SOL    HW2 3048   3.324   0.752   3.559
  717SOL     OW 3049   5.434   4.548   3.310
  717SOL    HW1 3050   5.425   4.647   3.321
  717SOL    HW2 3051   5.371   4.517   3.238
  718SOL     OW 3052   7.001   2.205   5.514
  718SOL    HW1 3053   0.033   2.142   5.570
  718SOL    HW2 3054   0.039   2.251   5.449
  719SOL     OW 3055   4.573   5.436   2.450
  719SOL    HW1 3056   4.646   5.403   2.390
  719SOL    HW2 3057   4.494   5.461   2.395
  720SOL     OW 3058   3.168   1.293   0.822
  720SOL    HW1 3059   3.135   1.295   0.916
  720SOL    HW2 3060   3.189   1.198   0.796
  721SOL     OW 3061   6.983   2.218   2.648
  721SOL    HW1 3062   0.044   2.228   2.594
  721SOL    HW2 3063   6.929   2.302   2.642
  722SOL     OW 3064   5.653   5.960   2.094
  722SOL    HW1 3065   5.622   5.942   2.187
  722SOL    HW2 3066   5.599   6.035   2.055
  723SOL     OW 3067   2.189   0.586   4.386
  723SOL    HW1 3068   2.150   0.671   4.421
  723SOL    HW2 3069   2.189   0.588   4.286
  724SOL     OW 3070   1.473   2.226   4.408
  724SOL    HW1 3071   1.512   2.143   4.368
  724SOL    HW2 3072   1.513   2.306   4.364
  725SOL     OW 3073   1.993   3.673   3.628
  725SOL    HW1 3074   2.062   3.736   3.591
  725SOL    HW2 3075   2.030   3.627   3.708
  726SOL     OW 3076   1.985   2.950   0.557
  726SOL    HW1 3077   1.943   2.908   0.638
  726SOL    HW2 3078   2.044   2.883   0.512
  727SOL     OW 3079   3.776   5.085   5.439
  727SOL    HW1 3080   3.786   4.989   5.411
  727SOL    HW2 3081   3.707   5.128   5.381
  728SOL     OW 3082   5.806   3.390   3.613
  728SOL    HW1 3083   5.849   3.448   3.682
  728SOL    HW2 3084   5.742   3.327   3.657
  729SOL     OW 3085   6.955   4.827   0.691
  729SOL    HW1 3086   6.887   4.777   0.636
  729SOL    HW2 3087   6.955   4.792   0.784
  730SOL     OW 3088   3.350   1.017   4.070
  730SOL    HW1 3089   3.297   0.979   3.994
  730SOL    HW2 3090   3.444   0.982   4.066
  731SOL     OW 3091   5.127   4.454   4.752
  731SOL    HW1 3092   5.191   4.451   4.829
  731SOL    HW2 3093   5.163   4.401   4.676
  732SOL     OW 3094   4.730   0.495   4.741
  732SOL    HW1 3095   4.736   0.404   4.782
  732SOL    HW2 3096   4.820   0.539   4.743
  733SOL     OW 3097   0.132   5.189   4.416
  733SOL    HW1 3098   0.202   5.207   4.347
  733SOL    HW2 3099   0.167   5.124   4.483
  734SOL     OW 3100   6.626   5.483   3.476
  734SOL    HW1 3101   6.533   5.498   3.440
  734SOL    HW2 3102   6.631   5.394   3.520
  735SOL     OW 3103   4.838   0.407   2.454
  735SOL    HW1 3104   4.812   0.330   2.512
  735SOL    HW2 3105   4.930   0.437   2.477
  736SOL     OW 3106   2.023   1.446   2.983
  736SOL    HW1 3107   1.940   1.482   2.941
  736SOL    HW2 3108   2.102   1.497   2.950
  737SOL     OW 3109   3.475   1.795   6.758
  737SOL    HW1 3110   3.456   1.878   6.810
  737SOL    HW2 3111   3.390   1.761   6.717
  738SOL     OW 3112   1.653   5.250   0.526
  738SOL    HW1 3113   1.603   5.191   0.462
  738SOL    HW2 3114   1.633   5.223   0.620
  739SOL     OW 3115   1.823   1.051   2.577
  739SOL    HW1 3116   1.861   1.007   2.496
  739SOL    HW2 3117   1.882   1.034   2.656
  740SOL     OW 3118   4.596   2.400   2.808
  740SOL    HW1 3119   4.625   2.359   2.722
  740SOL    HW2 3120   4.608   2.499   2.805
  741SOL     OW 3121   3.707   1.350   2.213
  741SOL    HW1 3122   3.678   1.412   2.286
  741SOL    HW2 3123   3.751   1.269   2.253
  742SOL     OW 3124   2.399   0.131   2.076
  742SOL    HW1 3125   2.384   0.161   1.982
  742SOL    HW2 3126   2.315   0.144   2.129
  743SOL     OW 3127   6.997   6.283   3.173
  743SOL    HW1 3128   0.009   6.194   3.205
  743SOL    HW2 3129   0.021   6.356   3.225
  744SOL     OW 3130   5.974   1.110   0.444
  744SOL    HW1 3131   5.925   1.108   0.531
  744SOL    HW2 3132   6.065   1.149   0.458
  745SOL     OW 3133   0.672   6.236   5.071
  745SOL    HW1 3134   0.641   6.225   5.166
  745SOL    HW2 3135   0.771   6.222   5.067
  746SOL     OW 3136   6.414   5.624   5.950
  746SOL    HW1 3137   6.502   5.634   5.997
  746SOL    HW2 3138   6.426   5.570   5.866
  747SOL     OW 3139   3.088   4.871   2.242
  747SOL    HW1 3140   3.099   4.820   2.156
  747SOL    HW2 3141   3.070   4.967   2.222
  748SOL     OW 3142   6.515   5.423   2.990
  748SOL    HW1 3143   6.438   5.365   3.014
  748SOL    HW2 3144   6.483   5.518   2.980
  749SOL     OW 3145   4.990   4.009   4.944
  749SOL    HW1 3146   4.997   3.914   4.915
  749SOL    HW2 3147   4.929   4.059   4.882
  750SOL     OW 3148   2.888   1.993   2.410
  750SOL    HW1 3149   2.843   2.068   2.458
  750SOL    HW2 3150   2.931   2.027   2.327
  751SOL     OW 3151   3.976   0.446   0.556
  751SOL    HW1 3152   4.068   0.464   0.592
  751SOL    HW2 3153   3.980   0.439   0.456
  752SOL     OW 3154   2.897   3.319   3.919
  752SOL    HW1 3155   2.916   3.223   3.896
  752SOL    HW2 3156   2.867   3.367   3.837
  753SOL     OW 3157   3.211   3.949   3.669
  753SOL    HW1 3158   3.176   3.946   3.763
  753SOL    HW2 3159   3.306   3.982   3.670
  754SOL     OW 3160   4.666   0.535   5.640
  754SOL    HW1 3161   4.613   0.540   5.724
  754SOL    HW2 3162   4.626   0.597   5.572
  755SOL     OW 3163   5.147   4.423   5.204
  755SOL    HW1 3164   5.215   4.402   5.274
  755SOL    HW2 3165   5.058   4.437   5.247
  756SOL     OW 3166   3.046   5.807   6.215
  756SOL    HW1 3167   3.041   5.885   6.152
  756SOL    HW2 3168   3.141   5.775   6.220
  757SOL     OW 3169   0.277   6.937   1.555
  757SOL    HW1 3170   0.258   7.009   1.488
  757SOL    HW2 3171   0.228   6.957   1.640
  758SOL     OW 3172   3.813   1.264   6.043
  758SOL    HW1 3173   3.752   1.321   6.098
  758SOL    HW2 3174   3.759   1.202   5.987
  759SOL     OW 3175   0.114   2.277   3.516
  759SOL    HW1 3176   0.149   2.360   3.561
  759SOL    HW2 3177   0.160   2.197   3.554
  760SOL     OW 3178   6.779   6.223   4.324
  760SOL    HW1 3179   6.720   6.153   4.365
  760SOL    HW2 3180   6.779   6.213   4.225
  761SOL     OW 3181   4.585   4.272   6.062
  761SOL    HW1 3182   4.569   4.195   6.123
  761SOL    HW2 3183   4.556   4.248   5.969
  762SOL     OW 3184   4.223   6.002   3.778
  762SOL    HW1 3185   4.162   6.021   3.855
  762SOL    HW2 3186   4.190   5.920   3.730
  763SOL     OW 3187   5.671   1.168   0.235
  763SOL    HW1 3188   5.619   1.182   0.150
  763SOL    HW2 3189   5.750   1.109   0.216
  764SOL     OW 3190   4.754   6.438   4.555
  764SOL    HW1 3191   4.663   6.478   4.539
  764SOL    HW2 3192   4.769   6.362   4.492
  765SOL     OW 3193   5.259   6.604   0.041
  765SOL    HW1 3194   5.317   6.659   7.002
  765SOL    HW2 3195   5.286   6.619   0.136
  766SOL     OW 3196   3.339   1.268   3.817
  766SOL    HW1 3197   3.280   1.222   3.884
  766SOL    HW2 3198   3.357   1.205   3.741
  767SOL     OW 3199   6.322   6.832   3.376
  767SOL    HW1 3200   6.241   6.833   3.434
  767SOL    HW2 3201   6.369   6.744   3.385
  768SOL     OW 3202   3.047   6.019   1.147
  768SOL    HW1 3203   2.988   6.093   1.177
  768SOL    HW2 3204   2.999   5.932   1.156
  769SOL     OW 3205   3.494   2.120   5.625
  769SOL    HW1 3206   3.538   2.185   5.686
  769SOL    HW2 3207   3.436   2.169   5.560
  770SOL     OW 3208   0.051   5.018   5.960
  770SOL    HW1 3209   0.071   5.098   5.902
  770SOL    HW2 3210   0.052   4.935   5.904
  771SOL     OW 3211   1.699   4.776   2.690
  771SOL    HW1 3212   1.733   4.840   2.621
  771SOL    HW2 3213   1.775   4.751   2.751
  772SOL     OW 3214   6.099   5.043   0.072
  772SOL    HW1 3215   6.068   5.136   0.051
  772SOL    HW2 3216   6.127   4.997   7.010
  773SOL     OW 3217   1.353   4.747   3.542
  773SOL    HW1 3218   1.342   4.847   3.536
  773SOL    HW2 3219   1.426   4.718   3.479
  774SOL     OW 3220   1.756   2.806   3.376
  774SOL    HW1 3221   1.684   2.744   3.405
  774SOL    HW2 3222   1.793   2.854   3.456
  775SOL     OW 3223   1.007   5.132   2.464
  775SOL    HW1 3224   1.023   5.040   2.428
  775SOL    HW2 3225   1.050   5.140   2.554
  776SOL     OW 3226   2.240   4.729   0.302
  776SOL    HW1 3227   2.239   4.826   0.324
  776SOL    HW2 3228   2.305   4.712   0.228
  777SOL     OW 3229   1.312   3.621   6.414
  777SOL    HW1 3230   1.229   3.566   6.415
  777SOL    HW2 3231   1.370   3.592   6.337
  778SOL     OW 3232   3.386   5.779   0.193
  778SOL    HW1 3233   3.409   5.747   0.285
  778SOL    HW2 3234   3.457   5.750   0.129
  779SOL     OW 3235   5.699   2.242   4.087
  779SOL    HW1 3236   5.652   2.177   4.026
  779SOL    HW2 3237   5.797   2.226   4.084
  780SOL     OW 3238   6.194   1.757   5.260
  780SOL    HW1 3239   6.238   1.667   5.268
  780SOL    HW2 3240   6.151   1.781   5.346
  781SOL     OW 3241   6.974   4.954   6.448
  781SOL    HW1 3242   6.974   4.859   6.416
  781SOL    HW2 3243   0.026   5.005   6.404
  782SOL     OW 3244   2.227   4.326   5.687
  782SOL    HW1 3245   2.233   4.232   5.655
  782SOL    HW2 3246   2.141   4.367   5.655
  783SOL     OW 3247   0.350   5.124   5.339
  783SOL    HW1 3248   0.315   5.199   5.395
  783SOL    HW2 3249   0.356   5.041   5.395
  784SOL     OW 3250   0.877   6.003   5.973
  784SOL    HW1 3251   0.892   6.085   5.918
  784SOL    HW2 3252   0.879   6.027   6.070
  785SOL     OW 3253   0.546   0.395   3.735
  785SOL    HW1 3254   0.564   0.335   3.814
  785SOL    HW2 3255   0.542   0.339   3.652
  786SOL     OW 3256   6.485   2.113   5.031
  786SOL    HW1 3257   6.457   2.150   5.120
  786SOL    HW2 3258   6.435   2.160   4.959
  787SOL     OW 3259   2.581   6.281   0.568
  787SOL    HW1 3260   2.607   6.223   0.645
  787SOL    HW2 3261   2.492   6.323   0.586
  788SOL     OW 3262   2.036   3.353   2.395
  788SOL    HW1 3263   2.045   3.414   2.316
  788SOL    HW2 3264   2.085   3.268   2.377
  789SOL     OW 3265   3.120   5.375   1.866
  789SOL    HW1 3266   3.118   5.475   1.868
  789SOL    HW2 3267   3.028   5.339   1.883
  790SOL     OW 3268   6.797   3.718   3.031
  790SOL    HW1 3269   6.894   3.704   3.050
  790SOL    HW2 3270   6.745   3.637   3.058
  791SOL     OW 3271   3.644   0.471   4.008
  791SOL    HW1 3272   3.575   0.401   4.025
  791SOL    HW2 3273   3.685   0.456   3.919
  792SOL     OW 3274   2.986   0.781   0.767
  792SOL    HW1 3275   3.009   0.778   0.670
  792SOL    HW2 3276   3.067   0.806   0.820
  793SOL     OW 3277   2.490   5.699   4.236
  793SOL    HW1 3278   2.535   5.626   4.287
  793SOL    HW2 3279   2.400   5.667   4.206
  794SOL     OW 3280   3.647   3.049   1.748
  794SOL    HW1 3281   3.654   2.954   1.778
  794SOL    HW2 3282   3.640   3.109   1.828
  795SOL     OW 3283   3.279   6.273   6.171
  795SOL    HW1 3284   3.259   6.204   6.101
  795SOL    HW2 3285   3.358   6.327   6.144
  796SOL     OW 3286   1.313   2.593   6.629
  796SOL    HW1 3287   1.412   2.588   6.611
  796SOL    HW2 3288   1.265   2.528   6.570
  797SOL     OW 3289   2.600   6.772   7.001
  797SOL    HW1 3290   2.649   6.765   6.914
  797SOL    HW2 3291   2.502   6.762   6.985
  798SOL     OW 3292   5.369   4.294   1.749
  798SOL    HW1 3293   5.405   4.384   1.772
  798SOL    HW2 3294   5.373   4.280   1.650
  799SOL     OW 3295   3.432   3.277   4.209
  799SOL    HW1 3296   3.496   3.342   4.251
  799SOL    HW2 3297   3.405   3.311   4.119
  800SOL     OW 3298   5.282   3.362   3.651
  800SOL    HW1 3299   5.336   3.345   3.568
  800SOL    HW2 3300   5.212   3.430   3.631
  801SOL     OW 3301   1.696   4.411   0.099
  801SOL    HW1 3302   1.739   4.360   0.173
  801SOL    HW2 3303   1.628   4.353   0.054
  802SOL     OW 3304   3.975   2.655   5.805
  802SOL    HW1 3305   3.987   2.743   5.758
  802SOL    HW2 3306   4.023   2.658   5.893
  803SOL     OW 3307   3.590   1.958   3.461
  803SOL    HW1 3308   3.587   1.879   3.401
  803SOL    HW2 3309   3.668   1.950   3.523
  804SOL     OW 3310   4.406   7.005   2.822
  804SOL    HW1 3311   4.342   6.942   2.778
  804SOL    HW2 3312   4.495   7.000   2.776
  805SOL     OW 3313   3.664   1.805   3.809
  805SOL    HW1 3314   3.567   1.830   3.803
  805SOL    HW2 3315   3.689   1.791   3.905
  806SOL     OW 3316   4.535   6.589   5.693
  806SOL    HW1 3317   4.494   6.498   5.685
  806SOL    HW2 3318   4.583   6.596   5.781
  807SOL     OW 3319   1.216   6.772   6.246
  807SOL    HW1 3320   1.193   6.813   6.335
  807SOL    HW2 3321   1.287   6.702   6.259
  808SOL     OW 3322   5.359   1.668   5.295
  808SOL    HW1 3323   5.259   1.671   5.289
  808SOL    HW2 3324   5.399   1.728   5.226
  809SOL     OW 3325   2.580   6.180   4.392
  809SOL    HW1 3326   2.501   6.204   4.448
  809SOL    HW2 3327   2.552   6.114   4.322
  810SOL     OW 3328   3.287   3.217   6.068
  810SOL    HW1 3329   3.217   3.190   6.002
  810SOL    HW2 3330   3.307   3.315   6.058
  811SOL     OW 3331   6.104   5.008   5.352
  811SOL    HW1 3332   6.135   5.018   5.257
  811SOL    HW2 3333   6.167   4.949   5.402
  812SOL     OW 3334   1.456   1.926   0.604
  812SOL    HW1 3335   1.496   2.017   0.615
  812SOL    HW2 3336   1.518   1.858   0.644
  813SOL     OW 3337   2.910   1.338   4.896
  813SOL    HW1 3338   2.897   1.363   4.800
  813SOL    HW2 3339   2.831   1.285   4.927
  814SOL     OW 3340   1.181   4.639   1.530
  814SOL    HW1 3341   1.237   4.574   1.478
  814SOL    HW2 3342   1.233   4.674   1.607
  815SOL     OW 3343   3.830   0.083   3.890
  815SOL    HW1 3344   3.885   0.126   3.817
  815SOL    HW2 3345   3.742   0.054   3.852
  816SOL     OW 3346   4.768   3.849   6.225
  816SOL    HW1 3347   4.858   3.810   6.210
  816SOL    HW2 3348   4.699   3.776   6.226
  817SOL     OW 3349   6.380   5.588   0.884
  817SOL    HW1 3350   6.397   5.686   0.870
  817SOL    HW2 3351   6.387   5.540   0.797
  818SOL     OW 3352   6.599   1.054   5.226
  818SOL    HW1 3353   6.511   1.046   5.274
  818SOL    HW2 3354   6.598   1.136   5.169
  819SOL     OW 3355   5.448   3.742   1.995
  819SOL    HW1 3356   5.468   3.815   2.059
  819SOL    HW2 3357   5.395   3.778   1.918
  820SOL     OW 3358   2.221   1.711   5.566
  820SOL    HW1 3359   2.136   1.675   5.527
  820SOL    HW2 3360   2.290   1.718   5.494
  821SOL     OW 3361   4.542   4.038   6.274
  821SOL    HW1 3362   4.563   3.984   6.356
  821SOL    HW2 3363   4.562   4.134   6.292
  822SOL     OW 3364   0.271   4.072   2.718
  822SOL    HW1 3365   0.229   4.028   2.639
  822SOL    HW2 3366   0.201   4.104   2.781
  823SOL     OW 3367   1.793   3.280   5.000
  823SOL    HW1 3368   1.733   3.232   4.936
  823SOL    HW2 3369   1.866   3.325   4.950
  824SOL     OW 3370   5.071   0.703   6.275
  824SOL    HW1 3371   4.972   0.688   6.275
  824SOL    HW2 3372   5.117   0.617   6.253
  825SOL     OW 3373   6.563   6.473   1.812
  825SOL    HW1 3374   6.582   6.393   1.755
  825SOL    HW2 3375   6.601   6.457   1.903
  826SOL     OW 3376   3.755   2.102   0.433
  826SOL    HW1 3377   3.726   2.006   0.429
  826SOL    HW2 3378   3.828   2.117   0.367
  827SOL     OW 3379   3.775   3.354   4.858
  827SOL    HW1 3380   3.828   3.288   4.911
  827SOL    HW2 3381   3.688   3.313   4.832
  828SOL     OW 3382   0.266   6.328   5.921
  828SOL    HW1 3383   0.182   6.333   5.867
  828SOL    HW2 3384   0.330   6.265   5.878
  829SOL     OW 3385   3.622   2.826   2.170
  829SOL    HW1 3386   3.548   2.794   2.112
  829SOL    HW2 3387   3.584   2.859   2.257
  830SOL     OW 3388   0.802   4.336   6.034
  830SOL    HW1 3389   0.846   4.310   6.121
  830SOL    HW2 3390   0.871   4.339   5.962
  831SOL     OW 3391   5.557   1.750   3.743
  831SOL    HW1 3392   5.544   1.708   3.833
  831SOL    HW2 3393   5.625   1.697   3.691
  832SOL     OW 3394   2.891   2.252   5.035
  832SOL    HW1 3395   2.989   2.231   5.031
  832SOL    HW2 3396   2.843   2.180   5.085
  833SOL     OW 3397   3.216   2.547   6.492
  833SOL    HW1 3398   3.282   2.588   6.554
  833SOL    HW2 3399   3.258   2.532   6.403
  834SOL     OW 3400   6.089   3.309   1.311
  834SOL    HW1 3401   6.121   3.216   1.295
  834SOL    HW2 3402   5.994   3.308   1.340
  835SOL     OW 3403   6.725   6.383   5.357
  835SOL    HW1 3404   6.651   6.426   5.305
  835SOL    HW2 3405   6.731   6.287   5.332
  836SOL     OW 3406   6.859   0.260   3.894
  836SOL    HW1 3407   6.862   0.335   3.960
  836SOL    HW2 3408   6.841   0.298   3.803
  837SOL     OW 3409   0.645   0.042   6.616
  837SOL    HW1 3410   0.656   0.106   6.540
  837SOL    HW2 3411   0.562   7.009   6.601
  838SOL     OW 3412   0.785   5.839   3.013
  838SOL    HW1 3413   0.848   5.886   2.950
  838SOL    HW2 3414   0.836   5.772   3.067
  839SOL     OW 3415   1.820   1.925   6.975
  839SOL    HW1 3416   1.899   1.963   0.001
  839SOL    HW2 3417   1.849   1.884   6.889
  840SOL     OW 3418   4.803   4.967   0.375
  840SOL    HW1 3419   4.876   4.904   0.348
  840SOL    HW2 3420   4.724   4.953   0.316
  841SOL     OW 3421   3.216   4.332   7.017
  841SOL    HW1 3422   3.191   4.279   6.936
  841SOL    HW2 3423   3.256   4.419   6.989
  842SOL     OW 3424   3.963   5.241   1.302
  842SOL    HW1 3425   3.888   5.302   1.276
  842SOL    HW2 3426   4.010   5.209   1.219
  843SOL     OW 3427   1.938   0.010   2.202
  843SOL    HW1 3428   1.899   0.099   2.227
  843SOL    HW2 3429   2.034   0.007   2.228
  844SOL     OW 3430   6.886   6.539   1.552
  844SOL    HW1 3431   6.902   6.624   1.603
  844SOL    HW2 3432   6.971   6.487   1.549
  845SOL     OW 3433   4.289   1.679   1.465
  845SOL    HW1 3434   4.365   1.621   1.439
  845SOL    HW2 3435   4.204   1.643   1.426
  846SOL     OW 3436   1.458   0.408   1.597
  846SOL    HW1 3437   1.492   0.354   1.520
  846SOL    HW2 3438   1.382   0.360   1.641
  847SOL     OW 3439   2.547   2.884   1.493
  847SOL    HW1 3440   2.581   2.814   1.556
  847SOL    HW2 3441   2.623   2.943   1.465
  848SOL     OW 3442   6.383   6.427   1.214
  848SOL    HW1 3443   6.346   6.519   1.203
  848SOL    HW2 3444   6.307   6.363   1.229
  849SOL     OW 3445   5.477   3.273   6.267
  849SOL    HW1 3446   5.533   3.203   6.222
  849SOL    HW2 3447   5.403   3.301   6.206
  850SOL     OW 3448   2.315   1.024   3.993
  850SOL    HW1 3449   2.286   1.120   3.994
  850SOL    HW2 3450   2.396   1.014   4.051
  851SOL     OW 3451   4.752   2.712   6.049
  851SOL    HW1 3452   4.819   2.714   6.123
  851SOL    HW2 3453   4.731   2.617   6.026
  852SOL     OW 3454   0.588   4.521   1.498
  852SOL    HW1 3455   0.539   4.499   1.582
  852SOL    HW2 3456   0.527   4.505   1.419
  853SOL     OW 3457   3.430   2.805   0.634
  853SOL    HW1 3458   3.392   2.774   0.722
  853SOL    HW2 3459   3.524   2.771   0.625
  854SOL     OW 3460   6.802   0.920   6.098
  854SOL    HW1 3461   6.837   1.007   6.135
  854SOL    HW2 3462   6.827   0.846   6.160
  855SOL     OW 3463   4.081   1.917   6.646
  855SOL    HW1 3464   4.035   1.995   6.603
  855SOL    HW2 3465   4.098   1.937   6.742
  856SOL     OW 3466   1.364   6.138   1.553
  856SOL    HW1 3467   1.435   6.097   1.496
  856SOL    HW2 3468   1.293   6.070   1.571
  857SOL     OW 3469   6.987   6.145   5.490
  857SOL    HW1 3470   0.010   6.074   5.544
  857SOL    HW2 3471   6.915   6.187   5.544
  858SOL     OW 3472   3.015   4.320   0.623
  858SOL    HW1 3473   2.930   4.355   0.584
  858SOL    HW2 3474   3.003   4.307   0.721
  859SOL     OW 3475   4.574   6.024   5.817
  859SOL    HW1 3476   4.630   6.029   5.900
  859SOL    HW2 3477   4.580   5.932   5.779
  860SOL     OW 3478   4.056   2.933   6.985
  860SOL    HW1 3479   3.998   3.009   7.015
  860SOL    HW2 3480   4.088   2.950   6.892
  861SOL     OW 3481   0.825   5.282   2.307
  861SOL    HW1 3482   0.859   5.364   2.260
  861SOL    HW2 3483   0.902   5.233   2.347
  862SOL     OW 3484   1.127   4.895   4.465
  862SOL    HW1 3485   1.066   4.974   4.461
  862SOL    HW2 3486   1.203   4.915   4.527
  863SOL     OW 3487   5.047   0.431   1.355
  863SOL    HW1 3488   5.095   0.382   1.282
  863SOL    HW2 3489   5.063   0.384   1.442
  864SOL     OW 3490   5.530   3.612   3.652
  864SOL    HW1 3491   5.436   3.643   3.663
  864SOL    HW2 3492   5.557   3.623   3.556
  865SOL     OW 3493   1.893   4.666   4.918
  865SOL    HW1 3494   1.882   4.625   4.827
  865SOL    HW2 3495   1.976   4.722   4.918
  866SOL     OW 3496   3.561   6.454   0.800
  866SOL    HW1 3497   3.511   6.535   0.831
  866SOL    HW2 3498   3.511   6.372   0.826
  867SOL     OW 3499   5.917   3.234   4.514
  867SOL    HW1 3500   5.973   3.258   4.434
  867SOL    HW2 3501   5.940   3.295   4.590
  868SOL     OW 3502   0.155   1.636   1.833
  868SOL    HW1 3503   0.210   1.584   1.768
  868SOL    HW2 3504   0.058   1.629   1.807
  869SOL     OW 3505   1.230   2.707   2.143
  869SOL    HW1 3506   1.226   2.682   2.240
  869SOL    HW2 3507   1.245   2.624   2.089
  870SOL     OW 3508   3.660   4.447   1.634
  870SOL    HW1 3509   3.607   4.508   1.692
  870SOL    HW2 3510   3.665   4.357   1.676
  871SOL     OW 3511   4.823   1.652   3.482
  871SOL    HW1 3512   4.795   1.746   3.499
  871SOL    HW2 3513   4.838   1.605   3.570
  872SOL     OW 3514   2.302   2.055   5.937
  872SOL    HW1 3515   2.391   2.010   5.944
  872SOL    HW2 3516   2.297   2.130   6.003
  873SOL     OW 3517   4.028   1.122   5.903
  873SOL    HW1 3518   3.946   1.148   5.954
  873SOL    HW2 3519   4.058   1.031   5.933
  874SOL     OW 3520   5.131   4.020   2.867
  874SOL    HW1 3521   5.197   4.081   2.911
  874SOL    HW2 3522   5.087   4.067   2.791
  875SOL     OW 3523   4.887   5.527   2.135
  875SOL    HW1 3524   4.894   5.555   2.231
  875SOL    HW2 3525   4.790   5.521   2.109
  876SOL     OW 3526   5.987   1.911   5.886
  876SOL    HW1 3527   6.005   1.986   5.949
  876SOL    HW2 3528   5.888   1.893   5.883
  877SOL     OW 3529   1.239   3.446   6.015
  877SOL    HW1 3530   1.328   3.462   6.059
  877SOL    HW2 3531   1.226   3.348   6.002
  878SOL     OW 3532   4.422   6.602   4.752
  878SOL    HW1 3533   4.497   6.551   4.711
  878SOL    HW2 3534   4.353   6.622   4.682
  879SOL     OW 3535   5.918   0.050   5.895
  879SOL    HW1 3536   5.950   0.123   5.835
  879SOL    HW2 3537   5.974   0.049   5.978
  880SOL     OW 3538   3.758   2.974   3.203
  880SOL    HW1 3539   3.733   3.062   3.243
  880SOL    HW2 3540   3.723   2.969   3.109
  881SOL     OW 3541   5.160   2.393   7.002
  881SOL    HW1 3542   5.249   2.393   0.026
  881SOL    HW2 3543   5.112   2.308   0.003
  882SOL     OW 3544   1.781   2.293   4.050
  882SOL    HW1 3545   1.702   2.273   3.993
  882SOL    HW2 3546   1.821   2.207   4.082
  883SOL     OW 3547   2.968   6.377   3.066
  883SOL    HW1 3548   2.895   6.317   3.099
  883SOL    HW2 3549   2.928   6.447   3.006
  884SOL     OW 3550   2.568   3.805   5.857
  884SOL    HW1 3551   2.485   3.855   5.833
  884SOL    HW2 3552   2.545   3.730   5.919
  885SOL     OW 3553   4.639   3.230   6.680
  885SOL    HW1 3554   4.575   3.259   6.610
  885SOL    HW2 3555   4.654   3.304   6.745
  886SOL     OW 3556   3.890   1.576   5.745
  886SOL    HW1 3557   3.859   1.489   5.706
  886SOL    HW2 3558   3.982   1.565   5.782
  887SOL     OW 3559   3.297   0.894   5.477
  887SOL    HW1 3560   3.259   0.826   5.415
  887SOL    HW2 3561   3.355   0.848   5.545
  888SOL     OW 3562   0.391   6.524   2.116
  888SOL    HW1 3563   0.389   6.425   2.121
  888SOL    HW2 3564   0.356   6.553   2.026
  889SOL     OW 3565   0.534   4.219   1.256
  889SOL    HW1 3566   0.498   4.126   1.243
  889SOL    HW2 3567   0.469   4.285   1.217
  890SOL     OW 3568   2.407   6.748   4.684
  890SOL    HW1 3569   2.312   6.765   4.709
  890SOL    HW2 3570   2.433   6.656   4.715
  891SOL     OW 3571   4.112   4.770   2.327
  891SOL    HW1 3572   4.203   4.731   2.339
  891SOL    HW2 3573   4.048   4.698   2.301
  892SOL     OW 3574   2.409   4.177   0.892
  892SOL    HW1 3575   2.459   4.263   0.891
  892SOL    HW2 3576   2.320   4.191   0.937
  893SOL     OW 3577   1.220   5.201   2.296
  893SOL    HW1 3578   1.135   5.180   2.344
  893SOL    HW2 3579   1.282   5.251   2.357
  894SOL     OW 3580   1.250   4.442   0.593
  894SOL    HW1 3581   1.348   4.452   0.575
  894SOL    HW2 3582   1.228   4.487   0.679
  895SOL     OW 3583   6.575   6.111   5.953
  895SOL    HW1 3584   6.486   6.156   5.946
  895SOL    HW2 3585   6.576   6.031   5.893
  896SOL     OW 3586   6.763   0.729   5.713
  896SOL    HW1 3587   6.737   0.651   5.656
  896SOL    HW2 3588   6.741   0.709   5.808
  897SOL     OW 3589   5.910   0.982   0.204
  897SOL    HW1 3590   5.971   1.015   0.277
  897SOL    HW2 3591   5.963   0.969   0.120
  898SOL     OW 3592   4.047   1.825   3.889
  898SOL    HW1 3593   4.104   1.777   3.822
  898SOL    HW2 3594   3.966   1.862   3.842
  899SOL     OW 3595   6.480   6.915   6.788
  899SOL    HW1 3596   6.559   6.876   6.741
  899SOL    HW2 3597   6.467   6.869   6.876
  900SOL     OW 3598   4.750   4.515   5.817
  900SOL    HW1 3599   4.785   4.486   5.906
  900SOL    HW2 3600   4.652   4.531   5.824
  901SOL     OW 3601   1.034   0.602   2.470
  901SOL    HW1 3602   1.031   0.509   2.507
  901SOL    HW2 3603   1.018   0.600   2.371
  902SOL     OW 3604   6.966   2.718   2.581
  902SOL    HW1 3605   6.935   2.784   2.648
  902SOL    HW2 3606   6.933   2.627   2.606
  903SOL     OW 3607   5.868   1.554   0.143
  903SOL    HW1 3608   5.960   1.530   0.112
  903SOL    HW2 3609   5.830   1.478   0.196
  904SOL     OW 3610   2.849   0.658   3.617
  904SOL    HW1 3611   2.901   0.705   3.688
  904SOL    HW2 3612   2.785   0.722   3.575
  905SOL     OW 3613   4.949   2.410   6.024
  905SOL    HW1 3614   4.982   2.359   6.102
  905SOL    HW2 3615   5.026   2.441   5.968
  906SOL     OW 3616   5.907   3.193   1.783
  906SOL    HW1 3617   6.007   3.188   1.785
  906SOL    HW2 3618   5.878   3.283   1.816
  907SOL     OW 3619   5.955   4.763   0.486
  907SOL    HW1 3620   5.940   4.850   0.439
  907SOL    HW2 3621   5.969   4.691   0.418
  908SOL     OW 3622   1.050   4.065   3.665
  908SOL    HW1 3623   1.061   4.103   3.757
  908SOL    HW2 3624   1.087   3.972   3.662
  909SOL     OW 3625   5.061   4.276   5.862
  909SOL    HW1 3626   5.076   4.344   5.791
  909SOL    HW2 3627   5.120   4.295   5.941
  910SOL     OW 3628   3.402   4.528   0.376
  910SOL    HW1 3629   3.338   4.506   0.449
  910SOL    HW2 3630   3.476   4.584   0.413
  911SOL     OW 3631   0.731   4.750   5.461
  911SOL    HW1 3632   0.642   4.713   5.487
  911SOL    HW2 3633   0.789   4.757   5.542
  912SOL     OW 3634   5.594   1.654   4.857
  912SOL    HW1 3635   5.680   1.646   4.807
  912SOL    HW2 3636   5.580   1.750   4.884
  913SOL     OW 3637   5.730   5.898   3.710
  913SOL    HW1 3638   5.672   5.980   3.704
  913SOL    HW2 3639   5.683   5.821   3.668
  914SOL     OW 3640   2.503   6.504   4.789
  914SOL    HW1 3641   2.415   6.457   4.786
  914SOL    HW2 3642   2.540   6.500   4.881
  915SOL     OW 3643   5.555   5.185   2.300
  915SOL    HW1 3644   5.478   5.250   2.305
  915SOL    HW2 3645   5.545   5.117   2.372
  916SOL     OW 3646   1.519   4.149   3.109
  916SOL    HW1 3647   1.522   4.216   3.184
  916SOL    HW2 3648   1.450   4.079   3.129
  917SOL     OW 3649   0.052   6.761   0.070
  917SOL    HW1 3650   0.076   6.818   0.148
  917SOL    HW2 3651   0.035   6.818   7.011
  918SOL     OW 3652   3.498   5.378   5.694
  918SOL    HW1 3653   3.546   5.366   5.607
  918SOL    HW2 3654   3.400   5.389   5.676
  919SOL     OW 3655   4.310   0.170   6.126
  919SOL    HW1 3656   4.253   0.114   6.066
  919SOL    HW2 3657   4.407   0.151   6.108
  920SOL     OW 3658   3.309   4.288   0.928
  920SOL    HW1 3659   3.402   4.323   0.917
  920SOL    HW2 3660   3.293   4.265   1.024
  921SOL     OW 3661   5.254   5.766   5.511
  921SOL    HW1 3662   5.156   5.758   5.492
  921SOL    HW2 3663   5.305   5.757   5.425
  922SOL     OW 3664   3.531   3.675   2.923
  922SOL    HW1 3665   3.596   3.620   2.975
  922SOL    HW2 3666   3.513   3.760   2.972
  923SOL     OW 3667   2.978   3.858   5.602
  923SOL    HW1 3668   2.959   3.768   5.640
  923SOL    HW2 3669   2.893   3.909   5.591
  924SOL     OW 3670   0.365   2.053   1.148
  924SOL    HW1 3671   0.395   1.974   1.096
  924SOL    HW2 3672   0.404   2.136   1.108
  925SOL     OW 3673   1.163   1.427   0.258
  925SOL    HW1 3674   1.187   1.517   0.221
  925SOL    HW2 3675   1.176   1.428   0.357
  926SOL     OW 3676   1.858   1.930   1.467
  926SOL    HW1 3677   1.842   2.020   1.425
  926SOL    HW2 3678   1.852   1.860   1.396
  927SOL     OW 3679   0.568   4.071   5.202
  927SOL    HW1 3680   0.510   3.989   5.206
  927SOL    HW2 3681   0.615   4.074   5.114
  928SOL     OW 3682   2.760   5.513   5.904
  928SOL    HW1 3683   2.710   5.452   5.842
  928SOL    HW2 3684   2.858   5.506   5.886
  929SOL     OW 3685   2.150   2.515   4.604
  929SOL    HW1 3686   2.141   2.591   4.668
  929SOL    HW2 3687   2.213   2.541   4.530
  930SOL     OW 3688   5.627   5.975   6.043
  930SOL    HW1 3689   5.648   5.941   6.135
  930SOL    HW2 3690   5.696   5.943   5.979
  931SOL     OW 3691   5.965   0.067   2.736
  931SOL    HW1 3692   5.913   7.014   2.776
  931SOL    HW2 3693   6.044   0.088   2.794
  932SOL     OW 3694   4.229   0.002   3.852
  932SOL    HW1 3695   4.327   7.003   3.845
  932SOL    HW2 3696   4.184   7.000   3.766
  933SOL     OW 3697   1.036   5.462   2.198
  933SOL    HW1 3698   1.037   5.477   2.297
  933SOL    HW2 3699   0.995   5.542   2.153
  934SOL     OW 3700   2.101   2.587   1.092
  934SOL    HW1 3701   2.028   2.641   1.133
  934SOL    HW2 3702   2.082   2.574   0.995
  935SOL     OW 3703   5.435   3.155   5.947
  935SOL    HW1 3704   5.519   3.152   6.001
  935SOL    HW2 3705   5.436   3.083   5.878
  936SOL     OW 3706   1.177   1.191   6.309
  936SOL    HW1 3707   1.079   1.199   6.327
  936SOL    HW2 3708   1.196   1.104   6.264
  937SOL     OW 3709   3.570   2.077   6.455
  937SOL    HW1 3710   3.566   2.083   6.554
  937SOL    HW2 3711   3.571   1.981   6.427
  938SOL     OW 3712   5.088   6.726   4.079
  938SOL    HW1 3713   5.051   6.645   4.124
  938SOL    HW2 3714   5.138   6.699   3.997
  939SOL     OW 3715   1.763   6.934   4.627
  939SOL    HW1 3716   1.780   6.845   4.585
  939SOL    HW2 3717   1.830   7.000   4.593
  940SOL     OW 3718   2.113   5.071   0.776
  940SOL    HW1 3719   2.106   5.130   0.856
  940SOL    HW2 3720   2.178   4.997   0.794
  941SOL     OW 3721   3.862   0.351   1.674
  941SOL    HW1 3722   3.864   0.252   1.661
  941SOL    HW2 3723   3.877   0.372   1.771
  942SOL     OW 3724   0.336   4.586   0.263
  942SOL    HW1 3725   0.335   4.542   0.353
  942SOL    HW2 3726   0.247   4.628   0.245
  943SOL     OW 3727   3.483   0.076   1.801
  943SOL    HW1 3728   3.448   0.081   1.894
  943SOL    HW2 3729   3.406   0.079   1.736
  944SOL     OW 3730   6.137   5.734   3.649
  944SOL    HW1 3731   6.093   5.704   3.565
  944SOL    HW2 3732   6.236   5.732   3.638
  945SOL     OW 3733   0.380   4.975   6.604
  945SOL    HW1 3734   0.456   4.911   6.606
  945SOL    HW2 3735   0.304   4.939   6.657
  946SOL     OW 3736   6.130   1.807   4.492
  946SOL    HW1 3737   6.123   1.757   4.406
  946SOL    HW2 3738   6.219   1.853   4.497
  947SOL     OW 3739   3.319   3.862   2.802
  947SOL    HW1 3740   3.239   3.843   2.744
  947SOL    HW2 3741   3.361   3.775   2.829
  948SOL     OW 3742   4.242   2.104   3.650
  948SOL    HW1 3743   4.303   2.135   3.723
  948SOL    HW2 3744   4.289   2.036   3.594
  949SOL     OW 3745   1.919   0.602   5.558
  949SOL    HW1 3746   1.829   0.622   5.596
  949SOL    HW2 3747   1.927   0.504   5.540
  950SOL     OW 3748   6.130   0.172   1.206
  950SOL    HW1 3749   6.054   0.222   1.164
  950SOL    HW2 3750   6.094   0.093   1.256
  951SOL     OW 3751   0.845   0.112   2.307
  951SOL    HW1 3752   0.859   0.162   2.222
  951SOL    HW2 3753   0.794   0.168   2.372
  952SOL     OW 3754   3.242   1.656   2.959
  952SOL    HW1 3755   3.153   1.694   2.932
  952SOL    HW2 3756   3.267   1.690   3.049
  953SOL     OW 3757   0.021   5.540   4.850
  953SOL    HW1 3758   0.037   5.586   4.763
  953SOL    HW2 3759   0.021   5.607   4.924
  954SOL     OW 3760   4.228   6.790   2.402
  954SOL    HW1 3761   4.135   6.756   2.411
  954SOL    HW2 3762   4.241   6.828   2.311
  955SOL     OW 3763   3.412   3.857   1.538
  955SOL    HW1 3764   3.329   3.875   1.485
  955SOL    HW2 3765   3.448   3.944   1.572
  956SOL     OW 3766   3.577   6.833   0.630
  956SOL    HW1 3767   3.512   6.777   0.681
  956SOL    HW2 3768   3.530   6.879   0.555
  957SOL     OW 3769   6.676   0.301   3.181
  957SOL    HW1 3770   6.604   0.368   3.197
  957SOL    HW2 3771   6.646   0.234   3.114
  958SOL     OW 3772   5.154   5.533   2.153
  958SOL    HW1 3773   5.056   5.550   2.151
  958SOL    HW2 3774   5.190   5.529   2.060
  959SOL     OW 3775   5.083   6.116   1.981
  959SOL    HW1 3776   5.135   6.120   1.895
  959SOL    HW2 3777   5.132   6.059   2.046
  960SOL     OW 3778   0.925   6.774   6.230
  960SOL    HW1 3779   0.870   6.776   6.146
  960SOL    HW2 3780   1.022   6.766   6.206
  961SOL     OW 3781   4.630   0.913   4.080
  961SOL    HW1 3782   4.624   1.009   4.104
  961SOL    HW2 3783   4.539   0.877   4.059
  962SOL     OW 3784   0.237   1.056   5.068
  962SOL    HW1 3785   0.184   1.133   5.033
  962SOL    HW2 3786   0.209   1.036   5.162
  963SOL     OW 3787   5.523   2.637   1.867
  963SOL    HW1 3788   5.497   2.541   1.856
  963SOL    HW2 3789   5.457   2.694   1.819
  964SOL     OW 3790   3.510   6.403   4.484
  964SOL    HW1 3791   3.530   6.475   4.550
  964SOL    HW2 3792   3.567   6.416   4.402
  965SOL     OW 3793   5.013   1.184   4.445
  965SOL    HW1 3794   4.961   1.141   4.518
  965SOL    HW2 3795   5.056   1.267   4.479
  966SOL     OW 3796   5.104   1.564   3.125
  966SOL    HW1 3797   5.083   1.604   3.214
  966SOL    HW2 3798   5.170   1.623   3.077
  967SOL     OW 3799   4.711   5.989   6.048
  967SOL    HW1 3800   4.689   6.013   6.143
  967SOL    HW2 3801   4.763   5.904   6.047
  968SOL     OW 3802   4.337   6.561   1.243
  968SOL    HW1 3803   4.275   6.486   1.218
  968SOL    HW2 3804   4.347   6.623   1.164
  969SOL     OW 3805   3.319   3.364   6.824
  969SOL    HW1 3806   3.245   3.373   6.891
  969SOL    HW2 3807   3.401   3.328   6.870
  970SOL     OW 3808   3.720   6.024   5.809
  970SOL    HW1 3809   3.685   5.931   5.823
  970SOL    HW2 3810   3.816   6.019   5.782
  971SOL     OW 3811   4.759   4.027   3.690
  971SOL    HW1 3812   4.820   3.955   3.658
  971SOL    HW2 3813   4.746   4.095   3.616
  972SOL     OW 3814   1.170   1.497   0.824
  972SOL    HW1 3815   1.086   1.537   0.788
  972SOL    HW2 3816   1.248   1.528   0.769
  973SOL     OW 3817   6.911   2.795   4.941
  973SOL    HW1 3818   6.892   2.891   4.920
  973SOL    HW2 3819   6.832   2.740   4.915
  974SOL     OW 3820   1.390   3.218   1.367
  974SOL    HW1 3821   1.390   3.297   1.306
  974SOL    HW2 3822   1.411   3.136   1.316
  975SOL     OW 3823   3.284   0.494   2.351
  975SOL    HW1 3824   3.285   0.539   2.261
  975SOL    HW2 3825   3.375   0.459   2.371
  976SOL     OW 3826   0.027   3.470   3.693
  976SOL    HW1 3827   0.101   3.529   3.727
  976SOL    HW2 3828   6.961   3.508   3.721
  977SOL     OW 3829   0.069   1.781   2.199
  977SOL    HW1 3830   0.038   1.850   2.135
  977SOL    HW2 3831   0.046   1.690   2.164
  978SOL     OW 3832   5.848   1.763   0.722
  978SOL    HW1 3833   5.818   1.854   0.694
  978SOL    HW2 3834   5.863   1.761   0.821
  979SOL     OW 3835   0.136   5.269   6.740
  979SOL    HW1 3836   0.212   5.240   6.797
  979SOL    HW2 3837   0.163   5.348   6.685
  980SOL     OW 3838   5.161   1.673   4.027
  980SOL    HW1 3839   5.107   1.734   3.969
  980SOL    HW2 3840   5.101   1.625   4.090
  981SOL     OW 3841   0.190   6.031   6.055
  981SOL    HW1 3842   0.216   6.008   5.961
  981SOL    HW2 3843   0.271   6.059   6.106
  982SOL     OW 3844   6.871   0.741   6.295
  982SOL    HW1 3845   6.892   0.646   6.321
  982SOL    HW2 3846   6.785   0.769   6.337
  983SOL     OW 3847   0.281   3.783   2.251
  983SOL    HW1 3848   0.281   3.717   2.176
  983SOL    HW2 3849   0.192   3.830   2.254
  984SOL     OW 3850   0.374   3.841   4.654
  984SOL    HW1 3851   0.345   3.885   4.739
  984SOL    HW2 3852   0.335   3.891   4.576
  985SOL     OW 3853   5.000   5.328   6.228
  985SOL    HW1 3854   5.059   5.252   6.256
  985SOL    HW2 3855   4.905   5.305   6.246
  986SOL     OW 3856   3.559   5.293   1.364
  986SOL    HW1 3857   3.504   5.368   1.401
  986SOL    HW2 3858   3.641   5.330   1.321
  987SOL     OW 3859   4.744   5.106   4.275
  987SOL    HW1 3860   4.663   5.054   4.302
  987SOL    HW2 3861   4.817   5.092   4.342
  988SOL     OW 3862   3.196   4.693   1.577
  988SOL    HW1 3863   3.257   4.617   1.598
  988SOL    HW2 3864   3.161   4.684   1.484
  989SOL     OW 3865   0.648   1.894   1.156
  989SOL    HW1 3866   0.630   1.967   1.222
  989SOL    HW2 3867   0.562   1.867   1.111
  990SOL     OW 3868   3.773   0.208   5.193
  990SOL    HW1 3869   3.719   0.287   5.165
  990SOL    HW2 3870   3.740   0.175   5.281
  991SOL     OW 3871   1.177   6.336   4.106
  991SOL    HW1 3872   1.213   6.274   4.177
  991SOL    HW2 3873   1.245   6.345   4.033
  992SOL     OW 3874   6.383   3.478   1.413
  992SOL    HW1 3875   6.386   3.446   1.318
  992SOL    HW2 3876   6.312   3.428   1.462
  993SOL     OW 3877   2.047   4.321   0.031
  993SOL    HW1 3878   2.039   4.415   0.064
  993SOL    HW2 3879   2.122   4.276   0.079
  994SOL     OW 3880   2.178   6.352   1.524
  994SOL    HW1 3881   2.129   6.309   1.600
  994SOL    HW2 3882   2.200   6.446   1.548
  995SOL     OW 3883   5.293   4.424   4.947
  995SOL    HW1 3884   5.273   4.430   5.045
  995SOL    HW2 3885   5.376   4.369   4.934
  996SOL     OW 3886   4.026   6.778   5.063
  996SOL    HW1 3887   3.971   6.860   5.079
  996SOL    HW2 3888   4.024   6.755   4.966
  997SOL     OW 3889   1.070   6.419   3.716
  997SOL    HW1 3890   1.044   6.429   3.812
  997SOL    HW2 3891   0.987   6.416   3.659
  998SOL     OW 3892   4.531   0.325   0.425
  998SOL    HW1 3893   4.449   0.378   0.405
  998SOL    HW2 3894   4.510   0.256   0.494
  999SOL     OW 3895   5.991   2.821   2.740
  999SOL    HW1 3896   6.040   2.869   2.667
  999SOL    HW2 3897   6.001   2.872   2.825
 1000SOL     OW 3898   6.260   1.565   2.577
 1000SOL    HW1 3899   6.266   1.626   2.498
 1000SOL    HW2 3900   6.272   1.619   2.661
 1001SOL     OW 3901   2.579   6.651   3.301
 1001SOL    HW1 3902   2.624   6.698   3.226
 1001SOL    HW2 3903   2.573   6.553   3.281
 1002SOL     OW 3904   4.688   2.301   0.266
 1002SOL    HW1 3905   4.747   2.231   0.308
 1002SOL    HW2 3906   4.610   2.319   0.326
 1003SOL     OW 3907   1.788   1.669   4.088
 1003SOL    HW1 3908   1.746   1.663   3.997
 1003SOL    HW2 3909   1.885   1.693   4.078
 1004SOL     OW 3910   4.275   1.671   4.976
 1004SOL    HW1 3911   4.255   1.574   4.989
 1004SOL    HW2 3912   4.369   1.690   5.004
 1005SOL     OW 3913   0.887   5.651   2.069
 1005SOL    HW1 3914   0.803   5.669   2.121
 1005SOL    HW2 3915   0.862   5.616   1.979
 1006SOL     OW 3916   1.958   3.774   2.296
 1006SOL    HW1 3917   1.999   3.854   2.339
 1006SOL    HW2 3918   1.859   3.773   2.313
 1007SOL     OW 3919   4.619   0.599   6.435
 1007SOL    HW1 3920   4.637   0.524   6.371
 1007SOL    HW2 3921   4.667   0.681   6.404
 1008SOL     OW 3922   0.240   4.270   4.293
 1008SOL    HW1 3923   0.279   4.302   4.207
 1008SOL    HW2 3924   0.157   4.218   4.275
 1009SOL     OW 3925   6.918   6.207   0.056
 1009SOL    HW1 3926   6.924   6.261   6.994
 1009SOL    HW2 3927   6.996   6.145   0.061
 1010SOL     OW 3928   2.932   4.138   0.293
 1010SOL    HW1 3929   2.861   4.098   0.351
 1010SOL    HW2 3930   3.022   4.122   0.333
 1011SOL     OW 3931   6.502   4.609   2.679
 1011SOL    HW1 3932   6.587   4.581   2.635
 1011SOL    HW2 3933   6.522   4.643   2.771
 1012SOL     OW 3934   5.297   6.221   2.865
 1012SOL    HW1 3935   5.342   6.136   2.892
 1012SOL    HW2 3936   5.315   6.239   2.768
 1013SOL     OW 3937   0.342   1.174   6.177
 1013SOL    HW1 3938   0.333   1.176   6.077
 1013SOL    HW2 3939   0.435   1.201   6.202
 1014SOL     OW 3940   0.722   4.710   4.302
 1014SOL    HW1 3941   0.745   4.758   4.388
 1014SOL    HW2 3942   0.624   4.692   4.299
 1015SOL     OW 3943   2.865   6.200   6.297
 1015SOL    HW1 3944   2.939   6.265   6.282
 1015SOL    HW2 3945   2.903   6.115   6.335
 1016SOL     OW 3946   6.876   4.331   0.561
 1016SOL    HW1 3947   6.922   4.409   0.517
 1016SOL    HW2 3948   6.816   4.286   0.495
 1017SOL     OW 3949   1.265   6.996   1.644
 1017SOL    HW1 3950   1.280   6.987   1.742
 1017SOL    HW2 3951   1.181   6.947   1.619
 1018SOL     OW 3952   5.448   5.706   6.479
 1018SOL    HW1 3953   5.503   5.756   6.411
 1018SOL    HW2 3954   5.448   5.609   6.456
 1019SOL     OW 3955   6.929   3.778   2.762
 1019SOL    HW1 3956   6.940   3.767   2.663
 1019SOL    HW2 3957   6.992   3.717   2.810
 1020SOL     OW 3958   5.212   1.714   1.333
 1020SOL    HW1 3959   5.270   1.641   1.298
 1020SOL    HW2 3960   5.151   1.746   1.261
 1021SOL     OW 3961   0.867   6.643   0.930
 1021SOL    HW1 3962   0.861   6.548   0.959
 1021SOL    HW2 3963   0.793   6.664   0.866
 1022SOL     OW 3964   2.168   5.012   5.664
 1022SOL    HW1 3965   2.087   4.964   5.699
 1022SOL    HW2 3966   2.223   4.949   5.610
 1023SOL     OW 3967   0.899   2.556   2.605
 1023SOL    HW1 3968   0.952   2.640   2.605
 1023SOL    HW2 3969   0.801   2.578   2.610
 1024SOL     OW 3970   1.780   3.134   4.606
 1024SOL    HW1 3971   1.772   3.232   4.588
 1024SOL    HW2 3972   1.735   3.111   4.693
 1025SOL     OW 3973   4.237   3.872   0.464
 1025SOL    HW1 3974   4.329   3.849   0.496
 1025SOL    HW2 3975   4.197   3.941   0.525
 1026SOL     OW 3976   3.069   2.699   1.767
 1026SOL    HW1 3977   3.103   2.687   1.674
 1026SOL    HW2 3978   3.015   2.619   1.793
 1027SOL     OW 3979   6.243   0.362   0.443
 1027SOL    HW1 3980   6.303   0.354   0.522
 1027SOL    HW2 3981   6.297   0.387   0.362
 1028SOL     OW 3982   0.407   5.505   4.218
 1028SOL    HW1 3983   0.421   5.521   4.316
 1028SOL    HW2 3984   0.401   5.593   4.171
 1029SOL     OW 3985   1.146   0.067   4.900
 1029SOL    HW1 3986   1.149   0.031   4.807
 1029SOL    HW2 3987   1.111   7.018   4.962
 1030SOL     OW 3988   4.287   3.242   0.466
 1030SOL    HW1 3989   4.223   3.212   0.537
 1030SOL    HW2 3990   4.342   3.163   0.436
 1031SOL     OW 3991   4.531   2.666   0.205
 1031SOL    HW1 3992   4.473   2.678   0.125
 1031SOL    HW2 3993   4.493   2.594   0.263
 1032SOL     OW 3994   1.385   1.300   1.534
 1032SOL    HW1 3995   1.293   1.332   1.558
 1032SOL    HW2 3996   1.435   1.373   1.488
 1033SOL     OW 3997   6.158   7.006   1.963
 1033SOL    HW1 3998   6.204   6.981   2.049
 1033SOL    HW2 3999   6.212   0.054   1.916
 1034SOL     OW 4000   1.948   0.721   4.397
 1034SOL    HW1 4001   1.908   0.667   4.324
 1034SOL    HW2 4002   1.921   0.817   4.387
 1035SOL     OW 4003   1.288   0.016   6.990
 1035SOL    HW1 4004   1.195   0.017   6.954
 1035SOL    HW2 4005   1.295   6.970   0.041
 1036SOL     OW 4006   5.611   1.458   2.589
 1036SOL    HW1 4007   5.518   1.454   2.555
 1036SOL    HW2 4008   5.642   1.553   2.593
 1037SOL     OW 4009   0.556   3.927   2.697
 1037SOL    HW1 4010   0.478   3.864   2.694
 1037SOL    HW2 4011   0.536   4.001   2.761
 1038SOL     OW 4012   1.187   6.174   6.582
 1038SOL    HW1 4013   1.270   6.187   6.529
 1038SOL    HW2 4014   1.182   6.079   6.613
 1039SOL     OW 4015   2.910   3.536   2.872
 1039SOL    HW1 4016   2.891   3.456   2.930
 1039SOL    HW2 4017   2.919   3.506   2.777
 1040SOL     OW 4018   4.449   1.352   2.962
 1040SOL    HW1 4019   4.369   1.413   2.971
 1040SOL    HW2 4020   4.419   1.257   2.972
 1041SOL     OW 4021   0.122   0.333   6.531
 1041SOL    HW1 4022   0.164   0.309   6.618
 1041SOL    HW2 4023   0.191   0.336   6.459
 1042SOL     OW 4024   5.373   2.992   4.000
 1042SOL    HW1 4025   5.341   3.066   4.059
 1042SOL    HW2 4026   5.304   2.973   3.931
 1043SOL     OW 4027   2.561   2.359   3.858
 1043SOL    HW1 4028   2.512   2.417   3.794
 1043SOL    HW2 4029   2.500   2.331   3.932
 1044SOL     OW 4030   4.855   4.442   2.324
 1044SOL    HW1 4031   4.765   4.424   2.284
 1044SOL    HW2 4032   4.922   4.379   2.285
 1045SOL     OW 4033   1.705   0.370   2.910
 1045SOL    HW1 4034   1.735   0.378   2.815
 1045SOL    HW2 4035   1.618   0.418   2.921
 1046SOL     OW 4036   3.754   2.968   0.300
 1046SOL    HW1 4037   3.708   3.055   0.317
 1046SOL    HW2 4038   3.693   2.907   0.250
 1047SOL     OW 4039   4.291   1.036   4.229
 1047SOL    HW1 4040   4.312   0.974   4.153
 1047SOL    HW2 4041   4.282   0.983   4.313
 1048SOL     OW 4042   6.705   0.342   1.717
 1048SOL    HW1 4043   6.642   0.415   1.689
 1048SOL    HW2 4044   6.785   0.382   1.761
 1049SOL     OW 4045   3.709   5.770   0.080
 1049SOL    HW1 4046   3.766   5.713   0.139
 1049SOL    HW2 4047   3.655   5.713   0.019
 1050SOL     OW 4048   2.608   1.699   4.315
 1050SOL    HW1 4049   2.638   1.790   4.287
 1050SOL    HW2 4050   2.685   1.635   4.310
 1051SOL     OW 4051   1.834   2.381   6.517
 1051SOL    HW1 4052   1.829   2.439   6.435
 1051SOL    HW2 4053   1.836   2.285   6.489
 1052SOL     OW 4054   4.364   2.210   6.115
 1052SOL    HW1 4055   4.449   2.163   6.140
 1052SOL    HW2 4056   4.286   2.160   6.151
 1053SOL     OW 4057   4.600   2.627   4.886
 1053SOL    HW1 4058   4.568   2.608   4.979
 1053SOL    HW2 4059   4.658   2.708   4.887
 1054SOL     OW 4060   5.073   5.387   6.899
 1054SOL    HW1 4061   5.111   5.326   6.968
 1054SOL    HW2 4062   5.063   5.479   6.938
 1055SOL     OW 4063   5.169   5.667   6.451
 1055SOL    HW1 4064   5.162   5.569   6.470
 1055SOL    HW2 4065   5.264   5.697   6.464
 1056SOL     OW 4066   3.413   3.176   0.096
 1056SOL    HW1 4067   3.374   3.263   0.066
 1056SOL    HW2 4068   3.340   3.113   0.122
 1057SOL     OW 4069   3.059   3.676   6.648
 1057SOL    HW1 4070   3.021   3.637   6.731
 1057SOL    HW2 4071   3.134   3.738   6.671
 1058SOL     OW 4072   3.384   1.759   1.853
 1058SOL    HW1 4073   3.291   1.741   1.820
 1058SOL    HW2 4074   3.419   1.842   1.808
 1059SOL     OW 4075   1.818   6.715   2.762
 1059SOL    HW1 4076   1.815   6.800   2.813
 1059SOL    HW2 4077   1.748   6.652   2.797
 1060SOL     OW 4078   6.509   6.578   5.192
 1060SOL    HW1 4079   6.475   6.620   5.276
 1060SOL    HW2 4080   6.597   6.619   5.167
 1061SOL     OW 4081   0.346   4.202   6.373
 1061SOL    HW1 4082   0.436   4.203   6.329
 1061SOL    HW2 4083   0.336   4.117   6.425
 1062SOL     OW 4084   3.966   4.716   5.766
 1062SOL    HW1 4085   4.050   4.760   5.798
 1062SOL    HW2 4086   3.973   4.699   5.668
 1063SOL     OW 4087   3.180   6.117   3.752
 1063SOL    HW1 4088   3.152   6.039   3.695
 1063SOL    HW2 4089   3.142   6.106   3.844
 1064SOL     OW 4090   1.167   3.962   0.017
 1064SOL    HW1 4091   1.201   3.998   0.104
 1064SOL    HW2 4092   1.212   4.009   6.963
 1065SOL     OW 4093   5.813   1.228   5.434
 1065SOL    HW1 4094   5.828   1.271   5.345
 1065SOL    HW2 4095   5.753   1.286   5.489
 1066SOL     OW 4096   4.647   6.051   1.011
 1066SOL    HW1 4097   4.743   6.073   1.028
 1066SOL    HW2 4098   4.595   6.062   1.095
 1067SOL     OW 4099   4.108   1.127   0.834
 1067SOL    HW1 4100   4.057   1.204   0.795
 1067SOL    HW2 4101   4.174   1.093   0.766
 1068SOL     OW 4102   6.195   2.364   3.438
 1068SOL    HW1 4103   6.150   2.438   3.388
 1068SOL    HW2 4104   6.164   2.276   3.402
 1069SOL     OW 4105   0.583   1.142   3.058
 1069SOL    HW1 4106   0.626   1.140   3.148
 1069SOL    HW2 4107   0.641   1.195   2.995
 1070SOL     OW 4108   1.415   0.365   2.216
 1070SOL    HW1 4109   1.449   0.276   2.184
 1070SOL    HW2 4110   1.326   0.352   2.259
 1071SOL     OW 4111   1.261   3.176   5.414
 1071SOL    HW1 4112   1.333   3.152   5.347
 1071SOL    HW2 4113   1.283   3.264   5.455
 1072SOL     OW 4114   2.154   1.208   1.720
 1072SOL    HW1 4115   2.231   1.155   1.685
 1072SOL    HW2 4116   2.134   1.283   1.657
 1073SOL     OW 4117   5.349   2.202   2.670
 1073SOL    HW1 4118   5.254   2.232   2.678
 1073SOL    HW2 4119   5.357   2.138   2.593
 1074SOL     OW 4120   3.498   6.699   1.504
 1074SOL    HW1 4121   3.462   6.633   1.437
 1074SOL    HW2 4122   3.435   6.776   1.512
 1075SOL     OW 4123   6.891   3.888   4.756
 1075SOL    HW1 4124   6.893   3.891   4.856
 1075SOL    HW2 4125   6.879   3.793   4.727
 1076SOL     OW 4126   2.927   4.708   5.921
 1076SOL    HW1 4127   2.995   4.781   5.927
 1076SOL    HW2 4128   2.973   4.621   5.902
 1077SOL     OW 4129   6.798   6.886   0.749
 1077SOL    HW1 4130   6.845   6.810   0.704
 1077SOL    HW2 4131   6.744   6.851   0.826
 1078SOL     OW 4132   5.633   6.846   3.783
 1078SOL    HW1 4133   5.722   6.830   3.742
 1078SOL    HW2 4134   5.631   6.806   3.875
 1079SOL     OW 4135   1.415   5.279   1.153
 1079SOL    HW1 4136   1.326   5.234   1.164
 1079SOL    HW2 4137   1.425   5.350   1.222
 1080SOL     OW 4138   5.004   5.920   0.577
 1080SOL    HW1 4139   5.065   6.000   0.585
 1080SOL    HW2 4140   4.965   5.917   0.485
 1081SOL     OW 4141   6.980   6.994   3.375
 1081SOL    HW1 4142   7.015   6.944   3.455
 1081SOL    HW2 4143   0.035   7.020   3.316
 1082SOL     OW 4144   4.781   6.974   0.145
 1082SOL    HW1 4145   4.873   7.005   0.170
 1082SOL    HW2 4146   4.714   0.016   0.183
 1083SOL     OW 4147   6.803   3.784   2.298
 1083SOL    HW1 4148   6.774   3.715   2.232
 1083SOL    HW2 4149   6.732   3.854   2.307
 1084SOL     OW 4150   4.120   0.150   5.397
 1084SOL    HW1 4151   4.098   0.151   5.299
 1084SOL    HW2 4152   4.055   0.091   5.445
 1085SOL     OW 4153   2.060   3.202   4.625
 1085SOL    HW1 4154   2.039   3.251   4.541
 1085SOL    HW2 4155   1.985   3.139   4.647
 1086SOL     OW 4156   5.011   4.556   2.807
 1086SOL    HW1 4157   4.977   4.474   2.853
 1086SOL    HW2 4158   4.934   4.616   2.784
 1087SOL     OW 4159   3.601   0.300   6.112
 1087SOL    HW1 4160   3.684   0.351   6.135
 1087SOL    HW2 4161   3.521   0.356   6.134
 1088SOL     OW 4162   6.001   5.562   4.346
 1088SOL    HW1 4163   6.032   5.468   4.361
 1088SOL    HW2 4164   5.941   5.566   4.266
 1089SOL     OW 4165   5.841   4.567   4.962
 1089SOL    HW1 4166   5.821   4.655   4.920
 1089SOL    HW2 4167   5.808   4.494   4.903
 1090SOL     OW 4168   6.317   3.028   5.245
 1090SOL    HW1 4169   6.391   2.965   5.267
 1090SOL    HW2 4170   6.232   2.994   5.284
 1091SOL     OW 4171   1.926   3.318   3.723
 1091SOL    HW1 4172   1.879   3.387   3.667
 1091SOL    HW2 4173   1.858   3.268   3.777
 1092SOL     OW 4174   0.791   6.185   0.153
 1092SOL    HW1 4175   0.720   6.172   0.084
 1092SOL    HW2 4176   0.874   6.137   0.125
 1093SOL     OW 4177   1.656   0.689   3.244
 1093SOL    HW1 4178   1.590   0.734   3.183
 1093SOL    HW2 4179   1.623   0.598   3.267
 1094SOL     OW 4180   0.311   0.577   3.653
 1094SOL    HW1 4181   0.315   0.533   3.564
 1094SOL    HW2 4182   0.395   0.559   3.703
 1095SOL     OW 4183   6.499   4.556   0.909
 1095SOL    HW1 4184   6.442   4.576   0.830
 1095SOL    HW2 4185   6.594   4.544   0.880
 1096SOL     OW 4186   2.005   5.861   2.135
 1096SOL    HW1 4187   1.987   5.828   2.227
 1096SOL    HW2 4188   2.068   5.798   2.088
 1097SOL     OW 4189   3.346   5.391   4.770
 1097SOL    HW1 4190   3.403   5.342   4.704
 1097SOL    HW2 4191   3.321   5.330   4.845
 1098SOL     OW 4192   6.958   4.152   0.170
 1098SOL    HW1 4193   0.005   4.083   0.194
 1098SOL    HW2 4194   7.002   4.226   0.120
 1099SOL     OW 4195   5.698   0.143   6.923
 1099SOL    HW1 4196   5.738   0.092   6.999
 1099SOL    HW2 4197   5.751   0.227   6.909
 1100SOL     OW 4198   5.126   0.822   4.273
 1100SOL    HW1 4199   5.092   0.898   4.216
 1100SOL    HW2 4200   5.193   0.858   4.339
 1101SOL     OW 4201   4.976   2.657   0.077
 1101SOL    HW1 4202   5.040   2.592   0.035
 1101SOL    HW2 4203   4.894   2.608   0.105
 1102SOL     OW 4204   3.882   1.275   4.616
 1102SOL    HW1 4205   3.913   1.236   4.703
 1102SOL    HW2 4206   3.790   1.312   4.626
 1103SOL     OW 4207   2.881   6.342   0.444
 1103SOL    HW1 4208   2.783   6.361   0.456
 1103SOL    HW2 4209   2.892   6.272   0.373
 1104SOL     OW 4210   6.315   0.650   4.209
 1104SOL    HW1 4211   6.277   0.734   4.248
 1104SOL    HW2 4212   6.411   0.643   4.233
 1105SOL     OW 4213   4.462   6.936   5.816
 1105SOL    HW1 4214   4.523   6.859   5.835
 1105SOL    HW2 4215   4.456   6.950   5.717
 1106SOL     OW 4216   6.522   1.297   2.179
 1106SOL    HW1 4217   6.468   1.220   2.216
 1106SOL    HW2 4218   6.505   1.378   2.235
 1107SOL     OW 4219   1.282   2.694   6.884
 1107SOL    HW1 4220   1.193   2.708   6.927
 1107SOL    HW2 4221   1.275   2.622   6.815
 1108SOL     OW 4222   2.647   1.244   2.043
 1108SOL    HW1 4223   2.719   1.175   2.040
 1108SOL    HW2 4224   2.583   1.229   1.967
 1109SOL     OW 4225   5.282   1.405   5.417
 1109SOL    HW1 4226   5.302   1.314   5.452
 1109SOL    HW2 4227   5.351   1.432   5.351
 1110SOL     OW 4228   1.735   0.271   1.717
 1110SOL    HW1 4229   1.803   0.199   1.726
 1110SOL    HW2 4230   1.644   0.230   1.704
 1111SOL     OW 4231   5.268   3.563   6.264
 1111SOL    HW1 4232   5.297   3.479   6.219
 1111SOL    HW2 4233   5.194   3.543   6.327
 1112SOL     OW 4234   5.752   0.493   2.639
 1112SOL    HW1 4235   5.748   0.393   2.644
 1112SOL    HW2 4236   5.847   0.523   2.650
 1113SOL     OW 4237   0.401   0.983   2.859
 1113SOL    HW1 4238   0.401   0.942   2.951
 1113SOL    HW2 4239   0.410   1.083   2.868
 1114SOL     OW 4240   3.721   3.491   4.555
 1114SOL    HW1 4241   3.698   3.460   4.647
 1114SOL    HW2 4242   3.812   3.533   4.557
 1115SOL     OW 4243   1.830   5.819   6.025
 1115SOL    HW1 4244   1.907   5.757   6.043
 1115SOL    HW2 4245   1.861   5.914   6.032
 1116SOL     OW 4246   4.488   0.107   0.604
 1116SOL    HW1 4247   4.392   0.079   0.614
 1116SOL    HW2 4248   4.535   0.044   0.542
 1117SOL     OW 4249   1.992   2.366   1.576
 1117SOL    HW1 4250   2.070   2.399   1.630
 1117SOL    HW2 4251   2.021   2.288   1.522
 1118SOL     OW 4252   4.763   6.695   0.085
 1118SOL    HW1 4253   4.677   6.717   0.037
 1118SOL    HW2 4254   4.798   6.778   0.128
 1119SOL     OW 4255   3.162   6.350   3.586
 1119SOL    HW1 4256   3.173   6.263   3.634
 1119SOL    HW2 4257   3.069   6.358   3.551
 1120SOL     OW 4258   0.319   2.978   1.835
 1120SOL    HW1 4259   0.404   2.980   1.783
 1120SOL    HW2 4260   0.280   3.070   1.838
 1121SOL     OW 4261   5.461   4.697   5.971
 1121SOL    HW1 4262   5.368   4.729   5.987
 1121SOL    HW2 4263   5.458   4.610   5.921
 1122SOL     OW 4264   6.256   0.898   2.509
 1122SOL    HW1 4265   6.330   0.831   2.516
 1122SOL    HW2 4266   6.264   0.964   2.584
 1123SOL     OW 4267   3.357   2.045   4.981
 1123SOL    HW1 4268   3.435   2.107   4.973
 1123SOL    HW2 4269   3.272   2.097   4.975
 1124SOL     OW 4270   2.807   2.259   3.577
 1124SOL    HW1 4271   2.839   2.337   3.632
 1124SOL    HW2 4272   2.886   2.213   3.537
 1125SOL     OW 4273   1.136   3.190   3.590
 1125SOL    HW1 4274   1.047   3.183   3.636
 1125SOL    HW2 4275   1.180   3.100   3.589
 1126SOL     OW 4276   4.995   4.922   3.549
 1126SOL    HW1 4277   5.022   4.827   3.540
 1126SOL    HW2 4278   4.990   4.947   3.646
 1127SOL     OW 4279   5.392   0.466   0.742
 1127SOL    HW1 4280   5.329   0.523   0.688
 1127SOL    HW2 4281   5.452   0.415   0.679
 1128SOL     OW 4282   3.160   1.719   4.794
 1128SOL    HW1 4283   3.256   1.732   4.770
 1128SOL    HW2 4284   3.110   1.680   4.716
 1129SOL     OW 4285   1.506   0.635   6.784
 1129SOL    HW1 4286   1.595   0.604   6.750
 1129SOL    HW2 4287   1.517   0.669   6.878
 1130SOL     OW 4288   2.439   5.567   0.733
 1130SOL    HW1 4289   2.438   5.648   0.791
 1130SOL    HW2 4290   2.529   5.558   0.689
 1131SOL     OW 4291   1.423   5.783   3.492
 1131SOL    HW1 4292   1.457   5.861   3.545
 1131SOL    HW2 4293   1.327   5.766   3.515
 1132SOL     OW 4294   1.415   2.543   2.868
 1132SOL    HW1 4295   1.460   2.589   2.945
 1132SOL    HW2 4296   1.322   2.578   2.858
 1133SOL     OW 4297   1.197   6.002   6.935
 1133SOL    HW1 4298   1.115   5.975   6.986
 1133SOL    HW2 4299   1.220   6.097   6.956
 1134SOL     OW 4300   4.030   5.117   1.006
 1134SOL    HW1 4301   4.105   5.180   0.983
 1134SOL    HW2 4302   4.059   5.023   0.988
 1135SOL     OW 4303   1.598   6.677   2.482
 1135SOL    HW1 4304   1.684   6.726   2.466
 1135SOL    HW2 4305   1.606   6.583   2.448
 1136SOL     OW 4306   1.520   5.313   3.151
 1136SOL    HW1 4307   1.568   5.338   3.067
 1136SOL    HW2 4308   1.553   5.370   3.227
 1137SOL     OW 4309   1.499   4.946   4.123
 1137SOL    HW1 4310   1.491   4.990   4.034
 1137SOL    HW2 4311   1.413   4.900   4.145
 1138SOL     OW 4312   2.795   4.685   4.417
 1138SOL    HW1 4313   2.866   4.677   4.347
 1138SOL    HW2 4314   2.732   4.608   4.410
 1139SOL     OW 4315   3.497   5.692   4.698
 1139SOL    HW1 4316   3.541   5.756   4.635
 1139SOL    HW2 4317   3.402   5.720   4.712
 1140SOL     OW 4318   1.896   2.769   1.180
 1140SOL    HW1 4319   1.855   2.835   1.117
 1140SOL    HW2 4320   1.865   2.788   1.273
 1141SOL     OW 4321   6.192   4.991   6.117
 1141SOL    HW1 4322   6.198   4.962   6.022
 1141SOL    HW2 4323   6.249   5.073   6.131
 1142SOL     OW 4324   0.817   6.107   3.331
 1142SOL    HW1 4325   0.888   6.050   3.372
 1142SOL    HW2 4326   0.730   6.057   3.331
 1143SOL     OW 4327   6.918   3.756   1.844
 1143SOL    HW1 4328   7.011   3.772   1.876
 1143SOL    HW2 4329   6.890   3.832   1.785
 1144SOL     OW 4330   4.996   4.552   0.046
 1144SOL    HW1 4331   5.005   4.485   6.994
 1144SOL    HW2 4332   4.911   4.535   0.097
 1145SOL     OW 4333   5.857   0.270   1.112
 1145SOL    HW1 4334   5.778   0.221   1.147
 1145SOL    HW2 4335   5.847   0.368   1.128
 1146SOL     OW 4336   1.448   0.247   1.366
 1146SOL    HW1 4337   1.371   0.282   1.313
 1146SOL    HW2 4338   1.455   0.148   1.355
 1147SOL     OW 4339   1.087   5.776   0.326
 1147SOL    HW1 4340   1.071   5.694   0.271
 1147SOL    HW2 4341   0.999   5.816   0.352
 1148SOL     OW 4342   3.754   5.938   1.750
 1148SOL    HW1 4343   3.815   5.947   1.671
 1148SOL    HW2 4344   3.723   5.843   1.757
 1149SOL     OW 4345   6.181   2.604   2.160
 1149SOL    HW1 4346   6.233   2.574   2.080
 1149SOL    HW2 4347   6.089   2.632   2.131
 1150SOL     OW 4348   0.693   1.606   0.801
 1150SOL    HW1 4349   0.700   1.627   0.899
 1150SOL    HW2 4350   0.651   1.683   0.754
 1151SOL     OW 4351   5.702   5.548   4.417
 1151SOL    HW1 4352   5.722   5.537   4.514
 1151SOL    HW2 4353   5.786   5.541   4.364
 1152SOL     OW 4354   3.089   6.279   5.614
 1152SOL    HW1 4355   3.068   6.331   5.696
 1152SOL    HW2 4356   3.036   6.194   5.614
 1153SOL     OW 4357   5.341   0.257   0.902
 1153SOL    HW1 4358   5.384   0.340   0.869
 1153SOL    HW2 4359   5.241   0.268   0.900
 1154SOL     OW 4360   1.365   3.142   0.970
 1154SOL    HW1 4361   1.342   3.222   0.915
 1154SOL    HW2 4362   1.459   3.113   0.950
 1155SOL     OW 4363   4.097   5.823   3.627
 1155SOL    HW1 4364   4.167   5.766   3.585
 1155SOL    HW2 4365   4.032   5.853   3.557
 1156SOL     OW 4366   3.066   0.140   1.094
 1156SOL    HW1 4367   3.144   0.202   1.103
 1156SOL    HW2 4368   3.002   0.155   1.169
 1157SOL     OW 4369   2.410   1.880   0.993
 1157SOL    HW1 4370   2.407   1.978   1.012
 1157SOL    HW2 4371   2.318   1.841   1.002
 1158SOL     OW 4372   5.260   5.061   3.888
 1158SOL    HW1 4373   5.312   5.130   3.937
 1158SOL    HW2 4374   5.314   4.978   3.878
 1159SOL     OW 4375   5.378   4.774   0.227
 1159SOL    HW1 4376   5.296   4.799   0.176
 1159SOL    HW2 4377   5.458   4.814   0.184
 1160SOL     OW 4378   4.332   2.244   1.080
 1160SOL    HW1 4379   4.353   2.161   1.027
 1160SOL    HW2 4380   4.362   2.324   1.028
 1161SOL     OW 4381   0.653   3.889   0.799
 1161SOL    HW1 4382   0.568   3.930   0.767
 1161SOL    HW2 4383   0.710   3.864   0.721
 1162SOL     OW 4384   2.100   3.112   4.961
 1162SOL    HW1 4385   2.173   3.081   4.901
 1162SOL    HW2 4386   2.013   3.073   4.930
 1163SOL     OW 4387   4.366   2.046   2.086
 1163SOL    HW1 4388   4.430   2.003   2.022
 1163SOL    HW2 4389   4.418   2.088   2.161
 1164SOL     OW 4390   3.893   2.115   6.566
 1164SOL    HW1 4391   3.841   2.184   6.516
 1164SOL    HW2 4392   3.849   2.097   6.654
 1165SOL     OW 4393   3.997   0.225   2.741
 1165SOL    HW1 4394   4.005   0.146   2.801
 1165SOL    HW2 4395   4.084   0.241   2.695
 1166SOL     OW 4396   4.370   3.983   6.830
 1166SOL    HW1 4397   4.381   3.928   6.913
 1166SOL    HW2 4398   4.298   4.050   6.845
 1167SOL     OW 4399   5.192   3.949   3.855
 1167SOL    HW1 4400   5.164   3.986   3.766
 1167SOL    HW2 4401   5.113   3.946   3.916
 1168SOL     OW 4402   0.290   0.317   0.250
 1168SOL    HW1 4403   0.226   0.386   0.215
 1168SOL    HW2 4404   0.368   0.362   0.293
 1169SOL     OW 4405   5.010   1.830   5.488
 1169SOL    HW1 4406   5.045   1.921   5.468
 1169SOL    HW2 4407   5.072   1.783   5.551
 1170SOL     OW 4408   5.243   4.496   3.111
 1170SOL    HW1 4409   5.222   4.585   3.071
 1170SOL    HW2 4410   5.160   4.456   3.150
 1171SOL     OW 4411   0.052   6.583   0.911
 1171SOL    HW1 4412   0.058   6.667   0.965
 1171SOL    HW2 4413   0.131   6.525   0.931
 1172SOL     OW 4414   5.694   2.507   6.978
 1172SOL    HW1 4415   5.786   2.540   6.958
 1172SOL    HW2 4416   5.629   2.583   6.971
 1173SOL     OW 4417   5.072   2.952   2.028
 1173SOL    HW1 4418   5.100   2.989   1.939
 1173SOL    HW2 4419   4.985   2.994   2.055
 1174SOL     OW 4420   2.823   5.314   6.585
 1174SOL    HW1 4421   2.837   5.217   6.568
 1174SOL    HW2 4422   2.824   5.364   6.498
 1175SOL     OW 4423   3.039   3.552   4.015
 1175SOL    HW1 4424   3.037   3.463   4.061
 1175SOL    HW2 4425   3.131   3.591   4.021
 1176SOL     OW 4426   5.478   3.751   0.134
 1176SOL    HW1 4427   5.450   3.710   0.048
 1176SOL    HW2 4428   5.552   3.698   0.174
 1177SOL     OW 4429   1.522   0.416   4.175
 1177SOL    HW1 4430   1.484   0.505   4.149
 1177SOL    HW2 4431   1.473   0.343   4.128
 1178SOL     OW 4432   4.120   6.604   6.671
 1178SOL    HW1 4433   4.215   6.611   6.639
 1178SOL    HW2 4434   4.077   6.523   6.631
 1179SOL     OW 4435   0.792   5.938   1.219
 1179SOL    HW1 4436   0.763   6.023   1.261
 1179SOL    HW2 4437   0.815   5.954   1.123
 1180SOL     OW 4438   3.810   6.456   0.650
 1180SOL    HW1 4439   3.716   6.475   0.678
 1180SOL    HW2 4440   3.819   6.360   0.625
 1181SOL     OW 4441   5.956   6.506   5.846
 1181SOL    HW1 4442   5.980   6.583   5.905
 1181SOL    HW2 4443   5.874   6.462   5.881
 1182SOL     OW 4444   5.397   3.558   4.216
 1182SOL    HW1 4445   5.298   3.567   4.214
 1182SOL    HW2 4446   5.438   3.619   4.148
 1183SOL     OW 4447   1.570   4.137   0.063
 1183SOL    HW1 4448   1.520   4.059   0.027
 1183SOL    HW2 4449   1.540   4.155   0.157
 1184SOL     OW 4450   0.609   1.929   4.821
 1184SOL    HW1 4451   0.545   1.933   4.744
 1184SOL    HW2 4452   0.558   1.923   4.907
 1185SOL     OW 4453   0.095   1.960   6.963
 1185SOL    HW1 4454   0.054   1.990   6.877
 1185SOL    HW2 4455   0.184   2.005   6.976
 1186SOL     OW 4456   4.808   6.181   3.664
 1186SOL    HW1 4457   4.801   6.266   3.716
 1186SOL    HW2 4458   4.902   6.147   3.668
 1187SOL     OW 4459   6.188   2.145   6.967
 1187SOL    HW1 4460   6.106   2.094   6.943
 1187SOL    HW2 4461   6.177   2.183   0.038
 1188SOL     OW 4462   4.344   1.876   6.727
 1188SOL    HW1 4463   4.276   1.903   6.660
 1188SOL    HW2 4464   4.435   1.903   6.696
 1189SOL     OW 4465   6.183   3.884   3.925
 1189SOL    HW1 4466   6.245   3.938   3.868
 1189SOL    HW2 4467   6.141   3.943   3.994
 1190SOL     OW 4468   2.332   1.008   3.679
 1190SOL    HW1 4469   2.329   1.009   3.779
 1190SOL    HW2 4470   2.282   1.087   3.644
 1191SOL     OW 4471   2.841   0.357   2.906
 1191SOL    HW1 4472   2.845   0.266   2.863
 1191SOL    HW2 4473   2.914   0.364   2.974
 1192SOL     OW 4474   5.824   5.181   4.273
 1192SOL    HW1 4475   5.849   5.203   4.179
 1192SOL    HW2 4476   5.882   5.233   4.336
 1193SOL     OW 4477   6.583   6.022   3.839
 1193SOL    HW1 4478   6.588   5.928   3.875
 1193SOL    HW2 4479   6.658   6.037   3.775
 1194SOL     OW 4480   3.715   0.145   1.140
 1194SOL    HW1 4481   3.779   0.070   1.125
 1194SOL    HW2 4482   3.755   0.211   1.205
 1195SOL     OW 4483   5.341   3.400   3.176
 1195SOL    HW1 4484   5.412   3.340   3.140
 1195SOL    HW2 4485   5.281   3.430   3.101
 1196SOL     OW 4486   0.172   6.300   5.390
 1196SOL    HW1 4487   0.141   6.266   5.301
 1196SOL    HW2 4488   0.096   6.298   5.454
 1197SOL     OW 4489   2.834   6.554   6.456
 1197SOL    HW1 4490   2.863   6.611   6.533
 1197SOL    HW2 4491   2.784   6.474   6.490
 1198SOL     OW 4492   1.409   2.600   0.689
 1198SOL    HW1 4493   1.314   2.631   0.684
 1198SOL    HW2 4494   1.417   2.527   0.758
 1199SOL     OW 4495   5.483   4.478   2.808
 1199SOL    HW1 4496   5.454   4.535   2.731
 1199SOL    HW2 4497   5.435   4.391   2.805
 1200SOL     OW 4498   3.196   4.034   1.879
 1200SOL    HW1 4499   3.291   4.018   1.852
 1200SOL    HW2 4500   3.143   4.064   1.799
 1201SOL     OW 4501   1.506   2.205   4.935
 1201SOL    HW1 4502   1.469   2.268   4.868
 1201SOL    HW2 4503   1.494   2.111   4.903
 1202SOL     OW 4504   0.633   6.595   4.943
 1202SOL    HW1 4505   0.713   6.613   4.887
 1202SOL    HW2 4506   0.643   6.642   5.031
 1203SOL     OW 4507   4.512   5.455   4.917
 1203SOL    HW1 4508   4.421   5.481   4.949
 1203SOL    HW2 4509   4.581   5.512   4.963
 1204SOL     OW 4510   1.778   0.451   2.668
 1204SOL    HW1 4511   1.859   0.476   2.616
 1204SOL    HW2 4512   1.725   0.533   2.689
 1205SOL     OW 4513   6.211   3.270   2.568
 1205SOL    HW1 4514   6.149   3.346   2.545
 1205SOL    HW2 4515   6.275   3.255   2.492
 1206SOL     OW 4516   3.243   3.034   4.161
 1206SOL    HW1 4517   3.275   3.126   4.136
 1206SOL    HW2 4518   3.312   2.967   4.134
 1207SOL     OW 4519   1.154   6.097   3.247
 1207SOL    HW1 4520   1.236   6.117   3.192
 1207SOL    HW2 4521   1.073   6.132   3.199
 1208SOL     OW 4522   3.510   2.339   6.830
 1208SOL    HW1 4523   3.532   2.426   6.787
 1208SOL    HW2 4524   3.549   2.264   6.776
 1209SOL     OW 4525   4.201   6.695   5.250
 1209SOL    HW1 4526   4.267   6.767   5.272
 1209SOL    HW2 4527   4.140   6.726   5.177
 1210SOL     OW 4528   2.380   1.069   3.312
 1210SOL    HW1 4529   2.326   0.993   3.347
 1210SOL    HW2 4530   2.455   1.090   3.375
 1211SOL     OW 4531   1.067   2.984   0.945
 1211SOL    HW1 4532   1.009   2.944   0.874
 1211SOL    HW2 4533   1.114   3.064   0.909
 1212SOL     OW 4534   0.513   6.766   0.246
 1212SOL    HW1 4535   0.487   6.670   0.255
 1212SOL    HW2 4536   0.531   6.787   0.150
 1213SOL     OW 4537   6.294   2.954   3.025
 1213SOL    HW1 4538   6.340   2.935   2.938
 1213SOL    HW2 4539   6.363   2.964   3.097
 1214SOL     OW 4540   1.169   2.921   2.295
 1214SOL    HW1 4541   1.182   2.856   2.220
 1214SOL    HW2 4542   1.169   3.014   2.259
 1215SOL     OW 4543   2.118   5.671   2.678
 1215SOL    HW1 4544   2.026   5.634   2.693
 1215SOL    HW2 4545   2.165   5.615   2.611
 1216SOL     OW 4546   3.827   0.120   2.076
 1216SOL    HW1 4547   3.873   0.144   2.162
 1216SOL    HW2 4548   3.896   0.103   2.006
 1217SOL     OW 4549   2.530   4.161   0.277
 1217SOL    HW1 4550   2.444   4.211   0.261
 1217SOL    HW2 4551   2.606   4.225   0.278
 1218SOL     OW 4552   2.336   4.966   4.033
 1218SOL    HW1 4553   2.322   4.931   4.126
 1218SOL    HW2 4554   2.297   4.902   3.967
 1219SOL     OW 4555   3.301   5.291   2.047
 1219SOL    HW1 4556   3.267   5.318   1.957
 1219SOL    HW2 4557   3.315   5.192   2.048
 1220SOL     OW 4558   0.909   4.852   2.076
 1220SOL    HW1 4559   0.962   4.776   2.114
 1220SOL    HW2 4560   0.825   4.864   2.129
 1221SOL     OW 4561   4.122   3.658   6.227
 1221SOL    HW1 4562   4.084   3.600   6.155
 1221SOL    HW2 4563   4.209   3.697   6.197
 1222SOL     OW 4564   6.661   2.113   6.667
 1222SOL    HW1 4565   6.633   2.173   6.742
 1222SOL    HW2 4566   6.735   2.053   6.698
 1223SOL     OW 4567   4.510   5.526   1.379
 1223SOL    HW1 4568   4.454   5.445   1.359
 1223SOL    HW2 4569   4.494   5.596   1.309
 1224SOL     OW 4570   3.098   0.909   1.522
 1224SOL    HW1 4571   3.039   0.849   1.468
 1224SOL    HW2 4572   3.193   0.877   1.515
 1225SOL     OW 4573   3.725   4.441   5.785
 1225SOL    HW1 4574   3.704   4.448   5.688
 1225SOL    HW2 4575   3.821   4.416   5.798
 1226SOL     OW 4576   2.171   5.393   0.836
 1226SOL    HW1 4577   2.125   5.332   0.901
 1226SOL    HW2 4578   2.103   5.450   0.790
 1227SOL     OW 4579   1.402   4.574   5.481
 1227SOL    HW1 4580   1.458   4.496   5.507
 1227SOL    HW2 4581   1.332   4.590   5.551
 1228SOL     OW 4582   3.285   2.419   0.648
 1228SOL    HW1 4583   3.246   2.332   0.617
 1228SOL    HW2 4584   3.226   2.494   0.617
 1229SOL     OW 4585   2.749   4.271   0.001
 1229SOL    HW1 4586   2.817   4.267   0.074
 1229SOL    HW2 4587   2.738   4.366   6.992
 1230SOL     OW 4588   3.897   0.285   3.184
 1230SOL    HW1 4589   3.820   0.318   3.239
 1230SOL    HW2 4590   3.952   0.363   3.153
 1231SOL     OW 4591   0.694   3.202   3.213
 1231SOL    HW1 4592   0.694   3.248   3.124
 1231SOL    HW2 4593   0.779   3.225   3.262
 1232SOL     OW 4594   2.033   1.408   2.427
 1232SOL    HW1 4595   1.974   1.415   2.347
 1232SOL    HW2 4596   2.017   1.321   2.473
 1233SOL     OW 4597   0.730   2.518   4.558
 1233SOL    HW1 4598   0.638   2.478   4.562
 1233SOL    HW2 4599   0.781   2.493   4.640
 1234SOL     OW 4600   6.632   4.423   4.109
 1234SOL    HW1 4601   6.663   4.364   4.034
 1234SOL    HW2 4602   6.657   4.518   4.090
 1235SOL     OW 4603   0.105   4.836   3.621
 1235SOL    HW1 4604   0.144   4.790   3.541
 1235SOL    HW2 4605   0.079   4.769   3.689
 1236SOL     OW 4606   5.983   0.604   6.874
 1236SOL    HW1 4607   6.015   0.596   6.779
 1236SOL    HW2 4608   6.059   0.585   6.936
 1237SOL     OW 4609   2.405   3.956   0.114
 1237SOL    HW1 4610   2.443   4.006   0.192
 1237SOL    HW2 4611   2.306   3.949   0.124
 1238SOL     OW 4612   1.857   0.987   1.443
 1238SOL    HW1 4613   1.788   1.060   1.445
 1238SOL    HW2 4614   1.815   0.902   1.412
 1239SOL     OW 4615   0.965   0.774   5.214
 1239SOL    HW1 4616   0.985   0.823   5.299
 1239SOL    HW2 4617   0.877   0.727   5.223
 1240SOL     OW 4618   6.145   5.374   0.841
 1240SOL    HW1 4619   6.126   5.391   0.938
 1240SOL    HW2 4620   6.111   5.451   0.787
 1241SOL     OW 4621   0.801   1.945   4.253
 1241SOL    HW1 4622   0.792   2.020   4.187
 1241SOL    HW2 4623   0.791   1.981   4.346
 1242SOL     OW 4624   1.921   1.900   6.653
 1242SOL    HW1 4625   2.000   1.916   6.713
 1242SOL    HW2 4626   1.926   1.808   6.616
 1243SOL     OW 4627   3.208   5.077   5.117
 1243SOL    HW1 4628   3.113   5.073   5.085
 1243SOL    HW2 4629   3.210   5.108   5.212
 1244SOL     OW 4630   1.344   1.498   3.112
 1244SOL    HW1 4631   1.359   1.404   3.081
 1244SOL    HW2 4632   1.279   1.498   3.188
 1245SOL     OW 4633   3.562   2.971   5.027
 1245SOL    HW1 4634   3.492   2.915   4.983
 1245SOL    HW2 4635   3.519   3.033   5.092
 1246SOL     OW 4636   1.165   6.680   1.770
 1246SOL    HW1 4637   1.077   6.705   1.810
 1246SOL    HW2 4638   1.150   6.644   1.678
 1247SOL     OW 4639   0.560   6.455   6.407
 1247SOL    HW1 4640   0.473   6.405   6.407
 1247SOL    HW2 4641   0.566   6.512   6.326
 1248SOL     OW 4642   2.342   6.830   4.244
 1248SOL    HW1 4643   2.396   6.760   4.291
 1248SOL    HW2 4644   2.363   6.827   4.146
 1249SOL     OW 4645   6.412   3.030   3.476
 1249SOL    HW1 4646   6.370   2.940   3.491
 1249SOL    HW2 4647   6.351   3.086   3.421
 1250SOL     OW 4648   6.292   3.103   4.704
 1250SOL    HW1 4649   6.346   3.023   4.731
 1250SOL    HW2 4650   6.298   3.173   4.776
 1251SOL     OW 4651   2.912   0.636   0.193
 1251SOL    HW1 4652   2.961   0.717   0.159
 1251SOL    HW2 4653   2.976   0.560   0.199
 1252SOL     OW 4654   3.970   3.695   0.059
 1252SOL    HW1 4655   3.983   3.606   0.103
 1252SOL    HW2 4656   3.983   3.768   0.125
 1253SOL     OW 4657   5.370   1.923   3.375
 1253SOL    HW1 4658   5.446   1.895   3.316
 1253SOL    HW2 4659   5.351   1.850   3.441
 1254SOL     OW 4660   5.529   1.026   3.590
 1254SOL    HW1 4661   5.494   0.936   3.563
 1254SOL    HW2 4662   5.466   1.068   3.654
 1255SOL     OW 4663   5.779   0.540   1.095
 1255SOL    HW1 4664   5.810   0.634   1.106
 1255SOL    HW2 4665   5.721   0.533   1.014
 1256SOL     OW 4666   5.428   2.952   3.395
 1256SOL    HW1 4667   5.464   2.861   3.374
 1256SOL    HW2 4668   5.338   2.962   3.353
 1257SOL     OW 4669   5.938   1.759   4.933
 1257SOL    HW1 4670   6.007   1.700   4.975
 1257SOL    HW2 4671   5.897   1.712   4.855
 1258SOL     OW 4672   0.073   5.017   3.952
 1258SOL    HW1 4673   0.031   5.043   4.039
 1258SOL    HW2 4674   0.113   5.098   3.909
 1259SOL     OW 4675   5.940   2.555   5.362
 1259SOL    HW1 4676   5.869   2.623   5.378
 1259SOL    HW2 4677   6.012   2.594   5.304
 1260SOL     OW 4678   0.840   1.394   4.564
 1260SOL    HW1 4679   0.893   1.337   4.501
 1260SOL    HW2 4680   0.896   1.470   4.596
 1261SOL     OW 4681   6.374   2.848   1.407
 1261SOL    HW1 4682   6.314   2.785   1.358
 1261SOL    HW2 4683   6.462   2.804   1.422
 1262SOL     OW 4684   5.405   5.860   1.777
 1262SOL    HW1 4685   5.491   5.811   1.765
 1262SOL    HW2 4686   5.420   5.958   1.763
 1263SOL     OW 4687   1.513   2.245   2.896
 1263SOL    HW1 4688   1.549   2.336   2.913
 1263SOL    HW2 4689   1.505   2.230   2.797
 1264SOL     OW 4690   1.684   2.835   5.504
 1264SOL    HW1 4691   1.729   2.847   5.415
 1264SOL    HW2 4692   1.598   2.886   5.505
 1265SOL     OW 4693   6.283   1.358   6.517
 1265SOL    HW1 4694   6.372   1.320   6.491
 1265SOL    HW2 4695   6.271   1.448   6.474
 1266SOL     OW 4696   3.762   1.928   6.156
 1266SOL    HW1 4697   3.668   1.897   6.164
 1266SOL    HW2 4698   3.823   1.849   6.154
 1267SOL     OW 4699   3.042   1.017   2.115
 1267SOL    HW1 4700   3.129   1.061   2.093
 1267SOL    HW2 4701   3.059   0.922   2.143
 1268SOL     OW 4702   4.286   2.085   5.173
 1268SOL    HW1 4703   4.367   2.077   5.116
 1268SOL    HW2 4704   4.220   2.015   5.147
 1269SOL     OW 4705   5.632   2.013   3.647
 1269SOL    HW1 4706   5.623   2.041   3.743
 1269SOL    HW2 4707   5.609   1.916   3.638
 1270SOL     OW 4708   5.838   5.547   3.517
 1270SOL    HW1 4709   5.765   5.592   3.569
 1270SOL    HW2 4710   5.891   5.615   3.467
 1271SOL     OW 4711   1.542   0.066   1.645
 1271SOL    HW1 4712   1.450   0.061   1.606
 1271SOL    HW2 4713   1.551   7.020   1.718
 1272SOL     OW 4714   5.560   2.224   1.327
 1272SOL    HW1 4715   5.463   2.201   1.318
 1272SOL    HW2 4716   5.584   2.293   1.259
 1273SOL     OW 4717   2.009   4.339   5.317
 1273SOL    HW1 4718   2.089   4.286   5.347
 1273SOL    HW2 4719   2.038   4.431   5.291
 1274SOL     OW 4720   6.996   4.378   4.378
 1274SOL    HW1 4721   6.999   4.412   4.284
 1274SOL    HW2 4722   6.996   4.278   4.377
 1275SOL     OW 4723   2.090   1.667   2.794
 1275SOL    HW1 4724   2.121   1.761   2.811
 1275SOL    HW2 4725   1.996   1.669   2.759
 1276SOL     OW 4726   5.877   3.912   3.736
 1276SOL    HW1 4727   5.829   3.937   3.821
 1276SOL    HW2 4728   5.912   3.995   3.693
 1277SOL     OW 4729   1.513   6.319   6.154
 1277SOL    HW1 4730   1.523   6.262   6.235
 1277SOL    HW2 4731   1.425   6.301   6.110
 1278SOL     OW 4732   6.999   6.125   2.907
 1278SOL    HW1 4733   0.056   6.134   2.846
 1278SOL    HW2 4734   7.005   6.194   2.979
 1279SOL     OW 4735   2.807   2.635   0.550
 1279SOL    HW1 4736   2.847   2.546   0.532
 1279SOL    HW2 4737   2.820   2.658   0.647
 1280SOL     OW 4738   2.889   2.231   2.917
 1280SOL    HW1 4739   2.840   2.314   2.891
 1280SOL    HW2 4740   2.882   2.218   3.016
 1281SOL     OW 4741   5.671   5.682   5.848
 1281SOL    HW1 4742   5.706   5.591   5.825
 1281SOL    HW2 4743   5.617   5.677   5.932
 1282SOL     OW 4744   0.792   2.300   1.328
 1282SOL    HW1 4745   0.777   2.388   1.374
 1282SOL    HW2 4746   0.890   2.284   1.317
 1283SOL     OW 4747   1.425   0.191   5.063
 1283SOL    HW1 4748   1.457   0.261   4.998
 1283SOL    HW2 4749   1.425   0.102   5.019
 1284SOL     OW 4750   3.990   2.291   1.429
 1284SOL    HW1 4751   3.910   2.329   1.475
 1284SOL    HW2 4752   4.064   2.278   1.495
 1285SOL     OW 4753   3.826   1.459   4.226
 1285SOL    HW1 4754   3.776   1.388   4.276
 1285SOL    HW2 4755   3.921   1.460   4.256
 1286SOL     OW 4756   5.516   0.649   2.294
 1286SOL    HW1 4757   5.530   0.590   2.374
 1286SOL    HW2 4758   5.422   0.639   2.261
 1287SOL     OW 4759   5.653   4.481   6.573
 1287SOL    HW1 4760   5.585   4.552   6.591
 1287SOL    HW2 4761   5.608   4.392   6.567
 1288SOL     OW 4762   4.882   4.446   5.594
 1288SOL    HW1 4763   4.852   4.356   5.564
 1288SOL    HW2 4764   4.854   4.461   5.689
 1289SOL     OW 4765   0.987   6.926   0.736
 1289SOL    HW1 4766   0.972   6.922   0.834
 1289SOL    HW2 4767   1.083   6.947   0.718
 1290SOL     OW 4768   1.280   6.871   4.322
 1290SOL    HW1 4769   1.241   6.944   4.265
 1290SOL    HW2 4770   1.294   6.789   4.266
 1291SOL     OW 4771   4.745   6.562   4.217
 1291SOL    HW1 4772   4.706   6.585   4.128
 1291SOL    HW2 4773   4.682   6.503   4.267
 1292SOL     OW 4774   6.747   6.401   3.206
 1292SOL    HW1 4775   6.830   6.348   3.217
 1292SOL    HW2 4776   6.689   6.359   3.137
 1293SOL     OW 4777   4.904   0.166   0.965
 1293SOL    HW1 4778   4.860   0.237   1.020
 1293SOL    HW2 4779   4.840   0.092   0.947
 1294SOL     OW 4780   2.282   4.484   5.384
 1294SOL    HW1 4781   2.361   4.436   5.423
 1294SOL    HW2 4782   2.260   4.445   5.295
 1295SOL     OW 4783   6.978   4.500   0.366
 1295SOL    HW1 4784   0.040   4.555   0.367
 1295SOL    HW2 4785   6.922   4.527   0.288
 1296SOL     OW 4786   3.667   0.602   6.100
 1296SOL    HW1 4787   3.574   0.568   6.110
 1296SOL    HW2 4788   3.683   0.629   6.005
 1297SOL     OW 4789   6.119   6.660   0.561
 1297SOL    HW1 4790   6.101   6.724   0.486
 1297SOL    HW2 4791   6.043   6.664   0.626
 1298SOL     OW 4792   4.821   6.944   2.389
 1298SOL    HW1 4793   4.788   6.911   2.300
 1298SOL    HW2 4794   4.763   6.907   2.462
 1299SOL     OW 4795   1.036   4.943   5.413
 1299SOL    HW1 4796   1.033   4.963   5.511
 1299SOL    HW2 4797   1.114   4.884   5.393
 1300SOL     OW 4798   1.262   5.532   0.556
 1300SOL    HW1 4799   1.223   5.621   0.534
 1300SOL    HW2 4800   1.246   5.511   0.652
 1301SOL     OW 4801   6.316   2.121   6.719
 1301SOL    HW1 4802   6.368   2.197   6.680
 1301SOL    HW2 4803   6.256   2.154   6.791
 1302SOL     OW 4804   6.779   6.659   5.136
 1302SOL    HW1 4805   6.802   6.739   5.191
 1302SOL    HW2 4806   6.835   6.581   5.166
 1303SOL     OW 4807   2.319   6.525   1.172
 1303SOL    HW1 4808   2.246   6.577   1.217
 1303SOL    HW2 4809   2.306   6.427   1.189
 1304SOL     OW 4810   6.525   1.297   6.795
 1304SOL    HW1 4811   6.497   1.210   6.756
 1304SOL    HW2 4812   6.571   1.281   6.882
 1305SOL     OW 4813   3.292   4.255   6.295
 1305SOL    HW1 4814   3.230   4.177   6.301
 1305SOL    HW2 4815   3.387   4.223   6.305
 1306SOL     OW 4816   2.480   6.485   4.061
 1306SOL    HW1 4817   2.510   6.573   4.025
 1306SOL    HW2 4818   2.384   6.491   4.088
 1307SOL     OW 4819   2.189   3.319   2.973
 1307SOL    HW1 4820   2.108   3.377   2.973
 1307SOL    HW2 4821   2.231   3.319   2.882
 1308SOL     OW 4822   0.700   3.996   5.791
 1308SOL    HW1 4823   0.636   3.921   5.802
 1308SOL    HW2 4824   0.779   3.983   5.852
 1309SOL     OW 4825   5.934   4.022   0.400
 1309SOL    HW1 4826   5.910   3.970   0.482
 1309SOL    HW2 4827   5.922   3.964   0.319
 1310SOL     OW 4828   2.432   2.596   3.398
 1310SOL    HW1 4829   2.404   2.580   3.303
 1310SOL    HW2 4830   2.399   2.685   3.428
 1311SOL     OW 4831   6.305   5.493   6.907
 1311SOL    HW1 4832   6.370   5.439   6.961
 1311SOL    HW2 4833   6.324   5.591   6.921
 1312SOL     OW 4834   2.155   1.559   6.639
 1312SOL    HW1 4835   2.218   1.519   6.573
 1312SOL    HW2 4836   2.205   1.617   6.702
 1313SOL     OW 4837   4.714   4.996   3.207
 1313SOL    HW1 4838   4.720   5.088   3.169
 1313SOL    HW2 4839   4.805   4.956   3.214
 1314SOL     OW 4840   3.084   1.822   3.494
 1314SOL    HW1 4841   3.176   1.805   3.529
 1314SOL    HW2 4842   3.016   1.784   3.558
 1315SOL     OW 4843   5.344   0.091   3.492
 1315SOL    HW1 4844   5.369   0.059   3.584
 1315SOL    HW2 4845   5.361   0.189   3.485
 1316SOL     OW 4846   4.985   0.174   6.308
 1316SOL    HW1 4847   5.007   0.179   6.210
 1316SOL    HW2 4848   4.901   0.121   6.321
 1317SOL     OW 4849   3.812   3.042   4.049
 1317SOL    HW1 4850   3.900   3.065   4.090
 1317SOL    HW2 4851   3.738   3.078   4.107
 1318SOL     OW 4852   1.726   0.764   0.210
 1318SOL    HW1 4853   1.731   0.827   0.133
 1318SOL    HW2 4854   1.632   0.760   0.245
 1319SOL     OW 4855   6.538   1.571   0.078
 1319SOL    HW1 4856   6.547   1.528   0.168
 1319SOL    HW2 4857   6.480   1.652   0.086
 1320SOL     OW 4858   2.895   2.905   6.123
 1320SOL    HW1 4859   2.915   2.997   6.157
 1320SOL    HW2 4860   2.799   2.901   6.093
 1321SOL     OW 4861   0.038   2.181   1.477
 1321SOL    HW1 4862   7.008   2.255   1.521
 1321SOL    HW2 4863   0.052   2.107   1.543
 1322SOL     OW 4864   1.897   2.666   0.383
 1322SOL    HW1 4865   1.990   2.700   0.374
 1322SOL    HW2 4866   1.892   2.571   0.353
 1323SOL     OW 4867   4.631   0.969   1.284
 1323SOL    HW1 4868   4.532   0.974   1.296
 1323SOL    HW2 4869   4.656   0.880   1.246
 1324SOL     OW 4870   2.355   3.966   5.817
 1324SOL    HW1 4871   2.296   4.018   5.756
 1324SOL    HW2 4872   2.311   3.879   5.840
 1325SOL     OW 4873   4.618   5.061   4.597
 1325SOL    HW1 4874   4.630   4.992   4.525
 1325SOL    HW2 4875   4.525   5.098   4.592
 1326SOL     OW 4876   3.786   1.513   4.947
 1326SOL    HW1 4877   3.760   1.553   5.035
 1326SOL    HW2 4878   3.820   1.585   4.886
 1327SOL     OW 4879   4.569   5.486   1.830
 1327SOL    HW1 4880   4.474   5.477   1.861
 1327SOL    HW2 4881   4.631   5.465   1.906
 1328SOL     OW 4882   1.347   2.570   5.507
 1328SOL    HW1 4883   1.329   2.661   5.547
 1328SOL    HW2 4884   1.265   2.514   5.517
 1329SOL     OW 4885   1.641   2.453   4.364
 1329SOL    HW1 4886   1.577   2.506   4.421
 1329SOL    HW2 4887   1.726   2.440   4.415
 1330SOL     OW 4888   6.447   2.912   2.488
 1330SOL    HW1 4889   6.475   2.833   2.433
 1330SOL    HW2 4890   6.496   2.994   2.456
 1331SOL     OW 4891   4.242   1.523   3.029
 1331SOL    HW1 4892   4.144   1.533   3.015
 1331SOL    HW2 4893   4.266   1.549   3.122
 1332SOL     OW 4894   2.425   6.719   6.638
 1332SOL    HW1 4895   2.348   6.663   6.605
 1332SOL    HW2 4896   2.398   6.815   6.640
 1333SOL     OW 4897   3.443   3.635   2.532
 1333SOL    HW1 4898   3.525   3.679   2.567
 1333SOL    HW2 4899   3.402   3.579   2.604
 1334SOL     OW 4900   0.487   4.373   1.706
 1334SOL    HW1 4901   0.524   4.364   1.799
 1334SOL    HW2 4902   0.512   4.293   1.652
 1335SOL     OW 4903   6.852   3.520   3.334
 1335SOL    HW1 4904   6.814   3.471   3.255
 1335SOL    HW2 4905   6.944   3.487   3.353
 1336SOL     OW 4906   1.994   6.343   5.675
 1336SOL    HW1 4907   1.993   6.351   5.775
 1336SOL    HW2 4908   1.958   6.254   5.648
 1337SOL     OW 4909   6.917   6.806   1.574
 1337SOL    HW1 4910   6.974   6.873   1.624
 1337SOL    HW2 4911   6.868   6.853   1.501
 1338SOL     OW 4912   0.599   4.347   4.977
 1338SOL    HW1 4913   0.694   4.356   5.007
 1338SOL    HW2 4914   0.596   4.291   4.894
 1339SOL     OW 4915   5.204   1.312   6.754
 1339SOL    HW1 4916   5.139   1.334   6.826
 1339SOL    HW2 4917   5.294   1.350   6.778
 1340SOL     OW 4918   2.544   2.748   0.639
 1340SOL    HW1 4919   2.577   2.830   0.687
 1340SOL    HW2 4920   2.622   2.700   0.599
 1341SOL     OW 4921   6.092   6.054   0.214
 1341SOL    HW1 4922   6.110   5.993   0.291
 1341SOL    HW2 4923   6.150   6.028   0.137
 1342SOL     OW 4924   1.849   6.265   0.659
 1342SOL    HW1 4925   1.805   6.177   0.643
 1342SOL    HW2 4926   1.784   6.339   0.640
 1343SOL     OW 4927   4.855   6.136   2.944
 1343SOL    HW1 4928   4.848   6.206   3.015
 1343SOL    HW2 4929   4.900   6.173   2.863
 1344SOL     OW 4930   1.458   0.803   3.066
 1344SOL    HW1 4931   1.394   0.734   3.033
 1344SOL    HW2 4932   1.462   0.878   3.001
 1345SOL     OW 4933   0.985   6.609   5.173
 1345SOL    HW1 4934   1.012   6.514   5.186
 1345SOL    HW2 4935   1.023   6.643   5.087
 1346SOL     OW 4936   3.811   6.031   3.675
 1346SOL    HW1 4937   3.875   6.106   3.691
 1346SOL    HW2 4938   3.830   5.957   3.740
 1347SOL     OW 4939   6.696   0.984   5.779
 1347SOL    HW1 4940   6.636   0.957   5.854
 1347SOL    HW2 4941   6.755   0.908   5.753
 1348SOL     OW 4942   1.545   6.288   4.722
 1348SOL    HW1 4943   1.574   6.294   4.626
 1348SOL    HW2 4944   1.591   6.359   4.775
 1349SOL     OW 4945   5.078   4.173   4.182
 1349SOL    HW1 4946   5.177   4.182   4.174
 1349SOL    HW2 4947   5.049   4.086   4.143
 1350SOL     OW 4948   5.326   4.434   0.048
 1350SOL    HW1 4949   5.260   4.491   0.097
 1350SOL    HW2 4950   5.304   4.338   0.062
 1351SOL     OW 4951   6.108   3.885   6.864
 1351SOL    HW1 4952   6.133   3.836   6.947
 1351SOL    HW2 4953   6.113   3.984   6.880
 1352SOL     OW 4954   0.274   0.945   4.284
 1352SOL    HW1 4955   0.182   0.984   4.280
 1352SOL    HW2 4956   0.272   0.859   4.335
 1353SOL     OW 4957   6.847   3.259   6.049
 1353SOL    HW1 4958   6.858   3.358   6.035
 1353SOL    HW2 4959   6.895   3.232   6.133
 1354SOL     OW 4960   4.967   5.361   3.289
 1354SOL    HW1 4961   4.935   5.442   3.339
 1354SOL    HW2 4962   4.891   5.322   3.238
 1355SOL     OW 4963   3.672   3.362   4.006
 1355SOL    HW1 4964   3.636   3.379   4.097
 1355SOL    HW2 4965   3.656   3.442   3.948
 1356SOL     OW 4966   2.794   3.426   6.801
 1356SOL    HW1 4967   2.867   3.367   6.769
 1356SOL    HW2 4968   2.760   3.392   6.889
 1357SOL     OW 4969   0.055   3.445   4.825
 1357SOL    HW1 4970   0.057   3.365   4.765
 1357SOL    HW2 4971   7.019   3.425   4.905
 1358SOL     OW 4972   2.646   6.198   5.986
 1358SOL    HW1 4973   2.569   6.186   6.049
 1358SOL    HW2 4974   2.722   6.243   6.033
 1359SOL     OW 4975   6.039   5.459   6.954
 1359SOL    HW1 4976   6.129   5.479   6.917
 1359SOL    HW2 4977   6.036   5.487   0.029
 1360SOL     OW 4978   2.128   1.745   6.007
 1360SOL    HW1 4979   2.150   1.824   5.951
 1360SOL    HW2 4980   2.212   1.704   6.042
 1361SOL     OW 4981   5.793   4.888   4.943
 1361SOL    HW1 4982   5.738   4.966   4.973
 1361SOL    HW2 4983   5.858   4.918   4.873
 1362SOL     OW 4984   3.076   3.939   4.605
 1362SOL    HW1 4985   3.066   3.898   4.695
 1362SOL    HW2 4986   3.036   3.879   4.536
 1363SOL     OW 4987   6.715   6.644   3.346
 1363SOL    HW1 4988   6.806   6.659   3.384
 1363SOL    HW2 4989   6.712   6.555   3.300
 1364SOL     OW 4990   3.399   4.179   0.147
 1364SOL    HW1 4991   3.400   4.101   0.084
 1364SOL    HW2 4992   3.318   4.235   0.128
 1365SOL     OW 4993   5.872   2.470   5.991
 1365SOL    HW1 4994   5.838   2.485   6.084
 1365SOL    HW2 4995   5.797   2.480   5.926
 1366SOL     OW 4996   2.111   0.821   3.972
 1366SOL    HW1 4997   2.145   0.915   3.968
 1366SOL    HW2 4998   2.143   0.777   4.056
 1367SOL     OW 4999   2.456   1.069   1.547
 1367SOL    HW1 5000   2.481   1.066   1.643
 1367SOL    HW2 5001   2.383   1.002   1.530
 1368SOL     OW 5002   0.288   0.832   3.072
 1368SOL    HW1 5003   0.194   0.819   3.104
 1368SOL    HW2 5004   0.309   0.764   3.002
 1369SOL     OW 5005   0.160   6.581   2.743
 1369SOL    HW1 5006   0.241   6.633   2.771
 1369SOL    HW2 5007   0.185   6.517   2.670
 1370SOL     OW 5008   0.505   0.840   2.321
 1370SOL    HW1 5009   0.482   0.802   2.410
 1370SOL    HW2 5010   0.439   0.911   2.297
 1371SOL     OW 5011   1.933   6.759   4.911
 1371SOL    HW1 5012   1.907   6.667   4.881
 1371SOL    HW2 5013   1.854   6.805   4.951
 1372SOL     OW 5014   3.276   1.988   1.190
 1372SOL    HW1 5015   3.221   1.916   1.233
 1372SOL    HW2 5016   3.240   2.006   1.099
 1373SOL     OW 5017   1.007   5.704   6.406
 1373SOL    HW1 5018   0.942   5.632   6.428
 1373SOL    HW2 5019   1.099   5.676   6.435
 1374SOL     OW 5020   5.582   2.999   4.711
 1374SOL    HW1 5021   5.500   2.942   4.717
 1374SOL    HW2 5022   5.582   3.048   4.623
 1375SOL     OW 5023   0.928   4.623   3.648
 1375SOL    HW1 5024   0.845   4.653   3.602
 1375SOL    HW2 5025   0.944   4.679   3.729
 1376SOL     OW 5026   5.162   0.304   2.402
 1376SOL    HW1 5027   5.242   0.246   2.411
 1376SOL    HW2 5028   5.171   0.383   2.463
 1377SOL     OW 5029   6.760   3.702   5.651
 1377SOL    HW1 5030   6.727   3.671   5.562
 1377SOL    HW2 5031   6.738   3.634   5.721
 1378SOL     OW 5032   2.088   1.503   0.521
 1378SOL    HW1 5033   2.064   1.550   0.436
 1378SOL    HW2 5034   2.148   1.426   0.500
 1379SOL     OW 5035   4.574   5.253   1.558
 1379SOL    HW1 5036   4.497   5.316   1.567
 1379SOL    HW2 5037   4.635   5.265   1.636
 1380SOL     OW 5038   6.273   5.332   2.718
 1380SOL    HW1 5039   6.293   5.393   2.641
 1380SOL    HW2 5040   6.190   5.364   2.764
 1381SOL     OW 5041   3.897   6.858   2.153
 1381SOL    HW1 5042   3.927   6.952   2.140
 1381SOL    HW2 5043   3.906   6.833   2.249
 1382SOL     OW 5044   6.458   3.793   0.346
 1382SOL    HW1 5045   6.486   3.710   0.394
 1382SOL    HW2 5046   6.536   3.854   0.335
 1383SOL     OW 5047   3.806   6.973   0.775
 1383SOL    HW1 5048   3.728   6.910   0.774
 1383SOL    HW2 5049   3.833   6.990   0.870
 1384SOL     OW 5050   0.889   1.576   3.031
 1384SOL    HW1 5051   0.828   1.607   2.958
 1384SOL    HW2 5052   0.881   1.637   3.110
 1385SOL     OW 5053   4.987   3.256   4.652
 1385SOL    HW1 5054   4.962   3.292   4.741
 1385SOL    HW2 5055   5.046   3.176   4.664
 1386SOL     OW 5056   2.257   2.579   3.146
 1386SOL    HW1 5057   2.194   2.655   3.161
 1386SOL    HW2 5058   2.209   2.492   3.159
 1387SOL     OW 5059   3.999   0.873   4.774
 1387SOL    HW1 5060   3.943   0.888   4.692
 1387SOL    HW2 5061   3.948   0.818   4.840
 1388SOL     OW 5062   4.724   2.489   3.703
 1388SOL    HW1 5063   4.745   2.409   3.646
 1388SOL    HW2 5064   4.803   2.550   3.704
 1389SOL     OW 5065   0.303   1.470   5.162
 1389SOL    HW1 5066   0.243   1.431   5.092
 1389SOL    HW2 5067   0.372   1.527   5.118
 1390SOL     OW 5068   6.163   2.392   3.101
 1390SOL    HW1 5069   6.220   2.314   3.076
 1390SOL    HW2 5070   6.192   2.473   3.050
 1391SOL     OW 5071   5.673   0.842   5.636
 1391SOL    HW1 5072   5.739   0.896   5.688
 1391SOL    HW2 5073   5.719   0.762   5.597
 1392SOL     OW 5074   2.936   0.105   4.878
 1392SOL    HW1 5075   2.998   0.176   4.845
 1392SOL    HW2 5076   2.892   0.060   4.800
 1393SOL     OW 5077   4.670   6.888   6.903
 1393SOL    HW1 5078   4.742   6.886   6.834
 1393SOL    HW2 5079   4.690   6.958   6.971
 1394SOL     OW 5080   3.937   0.838   5.269
 1394SOL    HW1 5081   3.861   0.899   5.290
 1394SOL    HW2 5082   3.921   0.749   5.310
 1395SOL     OW 5083   0.917   4.842   2.707
 1395SOL    HW1 5084   0.982   4.792   2.650
 1395SOL    HW2 5085   0.923   4.808   2.801
 1396SOL     OW 5086   1.873   2.092   3.370
 1396SOL    HW1 5087   1.889   2.125   3.277
 1396SOL    HW2 5088   1.940   2.021   3.392
 1397SOL     OW 5089   2.192   5.384   5.574
 1397SOL    HW1 5090   2.113   5.336   5.613
 1397SOL    HW2 5091   2.242   5.431   5.647
 1398SOL     OW 5092   2.958   6.910   6.180
 1398SOL    HW1 5093   2.861   6.932   6.180
 1398SOL    HW2 5094   2.976   6.837   6.114
 1399SOL     OW 5095   4.036   0.028   0.205
 1399SOL    HW1 5096   4.090   6.972   0.173
 1399SOL    HW2 5097   3.943   7.019   0.227
 1400SOL     OW 5098   0.679   2.220   6.012
 1400SOL    HW1 5099   0.754   2.155   6.028
 1400SOL    HW2 5100   0.650   2.213   5.916
 1401SOL     OW 5101   4.443   7.018   3.127
 1401SOL    HW1 5102   4.527   0.050   3.127
 1401SOL    HW2 5103   4.397   0.004   3.039
 1402SOL     OW 5104   4.779   3.981   3.065
 1402SOL    HW1 5105   4.710   3.916   3.034
 1402SOL    HW2 5106   4.777   4.062   3.007
 1403SOL     OW 5107   2.758   3.130   6.720
 1403SOL    HW1 5108   2.832   3.143   6.653
 1403SOL    HW2 5109   2.671   3.123   6.671
 1404SOL     OW 5110   3.589   5.933   6.837
 1404SOL    HW1 5111   3.653   5.965   6.907
 1404SOL    HW2 5112   3.523   6.005   6.817
 1405SOL     OW 5113   1.321   5.103   0.182
 1405SOL    HW1 5114   1.348   5.066   0.093
 1405SOL    HW2 5115   1.238   5.057   0.213
 1406SOL     OW 5116   1.863   2.135   0.918
 1406SOL    HW1 5117   1.939   2.176   0.868
 1406SOL    HW2 5118   1.848   2.185   1.004
 1407SOL     OW 5119   6.440   3.461   1.827
 1407SOL    HW1 5120   6.388   3.533   1.874
 1407SOL    HW2 5121   6.536   3.487   1.823
 1408SOL     OW 5122   6.110   6.437   1.794
 1408SOL    HW1 5123   6.105   6.518   1.736
 1408SOL    HW2 5124   6.202   6.397   1.787
 1409SOL     OW 5125   6.115   2.622   5.971
 1409SOL    HW1 5126   6.097   2.670   5.885
 1409SOL    HW2 5127   6.039   2.561   5.993
 1410SOL     OW 5128   3.322   0.478   0.503
 1410SOL    HW1 5129   3.281   0.568   0.486
 1410SOL    HW2 5130   3.334   0.430   0.417
 1411SOL     OW 5131   3.484   0.325   6.945
 1411SOL    HW1 5132   3.440   0.408   6.979
 1411SOL    HW2 5133   3.580   0.323   6.975
 1412SOL     OW 5134   1.586   0.926   6.211
 1412SOL    HW1 5135   1.643   0.915   6.130
 1412SOL    HW2 5136   1.492   0.947   6.183
 1413SOL     OW 5137   1.660   0.815   4.057
 1413SOL    HW1 5138   1.566   0.847   4.070
 1413SOL    HW2 5139   1.715   0.888   4.018
 1414SOL     OW 5140   0.295   5.239   2.890
 1414SOL    HW1 5141   0.387   5.229   2.853
 1414SOL    HW2 5142   0.229   5.246   2.815
 1415SOL     OW 5143   3.005   1.904   5.173
 1415SOL    HW1 5144   3.048   1.992   5.193
 1415SOL    HW2 5145   3.047   1.833   5.231
 1416SOL     OW 5146   4.177   0.436   5.543
 1416SOL    HW1 5147   4.194   0.414   5.639
 1416SOL    HW2 5148   4.134   0.358   5.497
 1417SOL     OW 5149   3.773   3.710   4.242
 1417SOL    HW1 5150   3.819   3.752   4.320
 1417SOL    HW2 5151   3.684   3.753   4.228
 1418SOL     OW 5152   3.108   3.768   6.215
 1418SOL    HW1 5153   3.151   3.685   6.251
 1418SOL    HW2 5154   3.058   3.747   6.131
 1419SOL     OW 5155   0.421   5.370   1.547
 1419SOL    HW1 5156   0.376   5.383   1.635
 1419SOL    HW2 5157   0.517   5.344   1.561
 1420SOL     OW 5158   2.452   6.465   3.629
 1420SOL    HW1 5159   2.496   6.380   3.599
 1420SOL    HW2 5160   2.509   6.543   3.603
 1421SOL     OW 5161   1.514   5.044   1.211
 1421SOL    HW1 5162   1.507   5.135   1.171
 1421SOL    HW2 5163   1.437   4.988   1.181
 1422SOL     OW 5164   1.581   3.506   6.474
 1422SOL    HW1 5165   1.524   3.440   6.522
 1422SOL    HW2 5166   1.586   3.482   6.377
 1423SOL     OW 5167   4.931   0.602   5.416
 1423SOL    HW1 5168   4.850   0.626   5.363
 1423SOL    HW2 5169   4.928   0.647   5.506
 1424SOL     OW 5170   5.883   3.921   1.525
 1424SOL    HW1 5171   5.870   3.927   1.624
 1424SOL    HW2 5172   5.867   4.010   1.483
 1425SOL     OW 5173   5.502   6.818   2.835
 1425SOL    HW1 5174   5.444   6.875   2.894
 1425SOL    HW2 5175   5.544   6.747   2.890
 1426SOL     OW 5176   3.751   0.532   0.667
 1426SOL    HW1 5177   3.840   0.498   0.635
 1426SOL    HW2 5178   3.682   0.461   0.654
 1427SOL     OW 5179   1.389   0.387   3.822
 1427SOL    HW1 5180   1.467   0.449   3.834
 1427SOL    HW2 5181   1.326   0.425   3.754
 1428SOL     OW 5182   2.673   4.644   3.788
 1428SOL    HW1 5183   2.675   4.545   3.795
 1428SOL    HW2 5184   2.766   4.680   3.789
 1429SOL     OW 5185   5.730   0.969   0.902
 1429SOL    HW1 5186   5.782   0.916   0.969
 1429SOL    HW2 5187   5.790   0.997   0.828
 1430SOL     OW 5188   2.199   3.883   4.199
 1430SOL    HW1 5189   2.262   3.858   4.126
 1430SOL    HW2 5190   2.106   3.891   4.162
 1431SOL     OW 5191   3.604   1.968   0.690
 1431SOL    HW1 5192   3.543   1.978   0.612
 1431SOL    HW2 5193   3.558   1.915   0.761
 1432SOL     OW 5194   2.633   6.856   2.869
 1432SOL    HW1 5195   2.619   6.953   2.886
 1432SOL    HW2 5196   2.703   6.845   2.798
 1433SOL     OW 5197   3.966   1.695   3.503
 1433SOL    HW1 5198   3.964   1.595   3.498
 1433SOL    HW2 5199   3.924   1.733   3.420
 1434SOL     OW 5200   6.506   3.366   1.116
 1434SOL    HW1 5201   6.577   3.417   1.164
 1434SOL    HW2 5202   6.456   3.428   1.055
 1435SOL     OW 5203   6.771   5.886   4.103
 1435SOL    HW1 5204   6.707   5.836   4.045
 1435SOL    HW2 5205   6.732   5.975   4.128
 1436SOL     OW 5206   6.063   0.846   6.754
 1436SOL    HW1 5207   6.050   0.847   6.655
 1436SOL    HW2 5208   6.031   0.758   6.791
 1437SOL     OW 5209   4.032   0.866   0.749
 1437SOL    HW1 5210   4.041   0.961   0.779
 1437SOL    HW2 5211   3.994   0.864   0.656
 1438SOL     OW 5212   2.836   6.065   3.439
 1438SOL    HW1 5213   2.929   6.065   3.404
 1438SOL    HW2 5214   2.778   6.009   3.380
 1439SOL     OW 5215   6.470   5.186   4.466
 1439SOL    HW1 5216   6.410   5.122   4.417
 1439SOL    HW2 5217   6.457   5.278   4.427
 1440SOL     OW 5218   3.436   3.086   1.995
 1440SOL    HW1 5219   3.392   3.069   2.083
 1440SOL    HW2 5220   3.530   3.116   2.009
 1441SOL     OW 5221   0.594   2.377   6.874
 1441SOL    HW1 5222   0.642   2.316   6.810
 1441SOL    HW2 5223   0.626   2.471   6.860
 1442SOL     OW 5224   5.598   5.580   0.232
 1442SOL    HW1 5225   5.610   5.574   0.133
 1442SOL    HW2 5226   5.503   5.561   0.256
 1443SOL     OW 5227   2.125   3.075   4.340
 1443SOL    HW1 5228   2.185   3.077   4.420
 1443SOL    HW2 5229   2.061   3.152   4.345
 1444SOL     OW 5230   4.646   6.795   5.169
 1444SOL    HW1 5231   4.649   6.887   5.128
 1444SOL    HW2 5232   4.696   6.731   5.110
 1445SOL     OW 5233   6.539   3.110   6.913
 1445SOL    HW1 5234   6.516   3.203   6.942
 1445SOL    HW2 5235   6.513   3.045   6.984
 1446SOL     OW 5236   3.139   5.913   2.584
 1446SOL    HW1 5237   3.213   5.845   2.582
 1446SOL    HW2 5238   3.175   6.001   2.614
 1447SOL     OW 5239   6.623   1.393   4.828
 1447SOL    HW1 5240   6.586   1.400   4.735
 1447SOL    HW2 5241   6.705   1.336   4.827
 1448SOL     OW 5242   4.877   1.497   0.954
 1448SOL    HW1 5243   4.911   1.406   0.977
 1448SOL    HW2 5244   4.847   1.543   1.038
 1449SOL     OW 5245   4.902   6.065   6.807
 1449SOL    HW1 5246   4.972   5.997   6.785
 1449SOL    HW2 5247   4.945   6.155   6.814
 1450SOL     OW 5248   5.392   1.281   3.853
 1450SOL    HW1 5249   5.320   1.217   3.831
 1450SOL    HW2 5250   5.361   1.375   3.835
 1451SOL     OW 5251   0.165   6.151   2.704
 1451SOL    HW1 5252   0.200   6.245   2.695
 1451SOL    HW2 5253   0.220   6.089   2.648
 1452SOL     OW 5254   1.465   0.354   6.079
 1452SOL    HW1 5255   1.378   0.305   6.081
 1452SOL    HW2 5256   1.518   0.329   6.161
 1453SOL     OW 5257   6.139   4.545   4.172
 1453SOL    HW1 5258   6.137   4.525   4.269
 1453SOL    HW2 5259   6.224   4.510   4.132
 1454SOL     OW 5260   6.433   4.841   1.524
 1454SOL    HW1 5261   6.456   4.931   1.488
 1454SOL    HW2 5262   6.476   4.829   1.614
 1455SOL     OW 5263   2.763   0.967   1.996
 1455SOL    HW1 5264   2.863   0.971   2.006
 1455SOL    HW2 5265   2.737   0.882   1.951
 1456SOL     OW 5266   5.460   4.537   5.278
 1456SOL    HW1 5267   5.534   4.475   5.251
 1456SOL    HW2 5268   5.459   4.616   5.217
 1457SOL     OW 5269   2.431   1.695   4.560
 1457SOL    HW1 5270   2.420   1.603   4.597
 1457SOL    HW2 5271   2.501   1.695   4.489
 1458SOL     OW 5272   6.261   5.557   6.653
 1458SOL    HW1 5273   6.282   5.498   6.731
 1458SOL    HW2 5274   6.203   5.633   6.683
 1459SOL     OW 5275   3.353   6.860   1.235
 1459SOL    HW1 5276   3.400   6.788   1.183
 1459SOL    HW2 5277   3.255   6.855   1.216
 1460SOL     OW 5278   0.865   1.590   7.018
 1460SOL    HW1 5279   0.810   1.549   6.945
 1460SOL    HW2 5280   0.925   1.521   0.036
 1461SOL     OW 5281   5.350   4.040   2.447
 1461SOL    HW1 5282   5.425   4.054   2.512
 1461SOL    HW2 5283   5.278   3.987   2.491
 1462SOL     OW 5284   5.951   0.317   5.018
 1462SOL    HW1 5285   5.917   0.235   4.971
 1462SOL    HW2 5286   6.051   0.311   5.026
 1463SOL     OW 5287   0.857   2.685   5.583
 1463SOL    HW1 5288   0.885   2.772   5.623
 1463SOL    HW2 5289   0.890   2.610   5.641
 1464SOL     OW 5290   0.429   0.685   1.431
 1464SOL    HW1 5291   0.499   0.641   1.376
 1464SOL    HW2 5292   0.466   0.709   1.521
 1465SOL     OW 5293   2.699   0.427   4.026
 1465SOL    HW1 5294   2.646   0.511   4.023
 1465SOL    HW2 5295   2.651   0.359   4.082
 1466SOL     OW 5296   5.796   6.099   4.769
 1466SOL    HW1 5297   5.845   6.087   4.856
 1466SOL    HW2 5298   5.706   6.139   4.787
 1467SOL     OW 5299   1.007   4.742   4.285
 1467SOL    HW1 5300   1.039   4.795   4.363
 1467SOL    HW2 5301   0.917   4.704   4.306
 1468SOL     OW 5302   4.615   0.211   2.287
 1468SOL    HW1 5303   4.694   0.271   2.298
 1468SOL    HW2 5304   4.613   0.174   2.194
 1469SOL     OW 5305   6.540   0.256   1.935
 1469SOL    HW1 5306   6.596   0.258   1.852
 1469SOL    HW2 5307   6.586   0.308   2.007
 1470SOL     OW 5308   6.846   0.870   2.168
 1470SOL    HW1 5309   6.929   0.857   2.113
 1470SOL    HW2 5310   6.825   0.968   2.174
 1471SOL     OW 5311   6.613   1.154   1.020
 1471SOL    HW1 5312   6.665   1.164   1.105
 1471SOL    HW2 5313   6.673   1.170   0.942
 1472SOL     OW 5314   4.664   5.369   4.677
 1472SOL    HW1 5315   4.616   5.372   4.765
 1472SOL    HW2 5316   4.636   5.287   4.626
 1473SOL     OW 5317   0.675   3.335   3.554
 1473SOL    HW1 5318   0.664   3.289   3.642
 1473SOL    HW2 5319   0.763   3.382   3.552
 1474SOL     OW 5320   4.527   6.382   2.177
 1474SOL    HW1 5321   4.538   6.447   2.102
 1474SOL    HW2 5322   4.465   6.420   2.246
 1475SOL     OW 5323   6.330   6.842   2.811
 1475SOL    HW1 5324   6.413   6.786   2.808
 1475SOL    HW2 5325   6.272   6.812   2.886
 1476SOL     OW 5326   1.056   2.309   0.933
 1476SOL    HW1 5327   0.991   2.238   0.959
 1476SOL    HW2 5328   1.145   2.290   0.974
 1477SOL     OW 5329   2.971   6.540   4.184
 1477SOL    HW1 5330   3.036   6.465   4.198
 1477SOL    HW2 5331   3.014   6.627   4.208
 1478SOL     OW 5332   0.035   4.292   1.158
 1478SOL    HW1 5333   0.014   4.389   1.142
 1478SOL    HW2 5334   0.033   4.243   1.071
 1479SOL     OW 5335   1.409   4.850   6.534
 1479SOL    HW1 5336   1.452   4.859   6.623
 1479SOL    HW2 5337   1.311   4.870   6.542
 1480SOL     OW 5338   3.490   0.736   6.895
 1480SOL    HW1 5339   3.517   0.662   6.834
 1480SOL    HW2 5340   3.408   0.710   6.945
 1481SOL     OW 5341   6.905   2.944   1.052
 1481SOL    HW1 5342   6.847   2.986   1.121
 1481SOL    HW2 5343   6.851   2.880   0.996
 1482SOL     OW 5344   6.694   0.477   5.635
 1482SOL    HW1 5345   6.624   0.406   5.642
 1482SOL    HW2 5346   6.776   0.438   5.591
 1483SOL     OW 5347   0.012   1.915   0.825
 1483SOL    HW1 5348   6.977   1.834   0.839
 1483SOL    HW2 5349   0.031   1.958   0.913
 1484SOL     OW 5350   5.654   6.732   3.097
 1484SOL    HW1 5351   5.667   6.831   3.090
 1484SOL    HW2 5352   5.739   6.689   3.127
 1485SOL     OW 5353   5.327   4.050   4.671
 1485SOL    HW1 5354   5.358   4.010   4.757
 1485SOL    HW2 5355   5.284   3.980   4.615
 1486SOL     OW 5356   5.161   2.800   2.244
 1486SOL    HW1 5357   5.142   2.863   2.169
 1486SOL    HW2 5358   5.147   2.706   2.213
 1487SOL     OW 5359   0.592   6.510   5.443
 1487SOL    HW1 5360   0.494   6.520   5.423
 1487SOL    HW2 5361   0.637   6.598   5.432
 1488SOL     OW 5362   4.588   2.143   4.301
 1488SOL    HW1 5363   4.506   2.141   4.359
 1488SOL    HW2 5364   4.569   2.091   4.218
 1489SOL     OW 5365   3.197   5.296   4.439
 1489SOL    HW1 5366   3.218   5.198   4.439
 1489SOL    HW2 5367   3.097   5.309   4.434
 1490SOL     OW 5368   3.209   3.015   0.828
 1490SOL    HW1 5369   3.229   2.917   0.823
 1490SOL    HW2 5370   3.294   3.067   0.824
 1491SOL     OW 5371   2.040   1.688   3.611
 1491SOL    HW1 5372   1.974   1.615   3.591
 1491SOL    HW2 5373   2.047   1.699   3.711
 1492SOL     OW 5374   6.696   2.222   1.616
 1492SOL    HW1 5375   6.691   2.196   1.712
 1492SOL    HW2 5376   6.655   2.150   1.560
 1493SOL     OW 5377   6.631   3.157   4.771
 1493SOL    HW1 5378   6.615   3.062   4.745
 1493SOL    HW2 5379   6.548   3.196   4.809
 1494SOL     OW 5380   5.934   1.961   4.687
 1494SOL    HW1 5381   5.936   1.992   4.592
 1494SOL    HW2 5382   5.927   1.861   4.689
 1495SOL     OW 5383   1.079   3.981   1.878
 1495SOL    HW1 5384   1.148   3.948   1.943
 1495SOL    HW2 5385   1.066   3.913   1.805
 1496SOL     OW 5386   6.608   0.295   2.383
 1496SOL    HW1 5387   6.661   0.218   2.347
 1496SOL    HW2 5388   6.592   0.361   2.309
 1497SOL     OW 5389   5.520   4.124   5.757
 1497SOL    HW1 5390   5.495   4.078   5.671
 1497SOL    HW2 5391   5.595   4.074   5.801
 1498SOL     OW 5392   3.027   6.000   6.447
 1498SOL    HW1 5393   2.993   5.914   6.410
 1498SOL    HW2 5394   3.083   5.983   6.528
 1499SOL     OW 5395   1.976   4.103   3.614
 1499SOL    HW1 5396   1.954   4.076   3.708
 1499SOL    HW2 5397   1.949   4.029   3.552
 1500SOL     OW 5398   4.039   5.789   5.101
 1500SOL    HW1 5399   4.022   5.887   5.086
 1500SOL    HW2 5400   4.136   5.775   5.120
 1501SOL     OW 5401   3.572   1.463   1.497
 1501SOL    HW1 5402   3.490   1.481   1.443
 1501SOL    HW2 5403   3.552   1.481   1.593
 1502SOL     OW 5404   6.801   0.371   6.170
 1502SOL    HW1 5405   6.742   0.451   6.181
 1502SOL    HW2 5406   6.746   0.288   6.175
 1503SOL     OW 5407   3.391   3.724   5.584
 1503SOL    HW1 5408   3.434   3.676   5.660
 1503SOL    HW2 5409   3.333   3.798   5.619
 1504SOL     OW 5410   2.157   0.724   3.064
 1504SOL    HW1 5411   2.153   0.627   3.084
 1504SOL    HW2 5412   2.068   0.756   3.032
 1505SOL     OW 5413   5.881   6.229   3.247
 1505SOL    HW1 5414   5.889   6.229   3.147
 1505SOL    HW2 5415   5.845   6.140   3.278
 1506SOL     OW 5416   6.699   0.666   3.884
 1506SOL    HW1 5417   6.777   0.664   3.947
 1506SOL    HW2 5418   6.643   0.584   3.899
 1507SOL     OW 5419   2.568   1.870   6.224
 1507SOL    HW1 5420   2.535   1.860   6.318
 1507SOL    HW2 5421   2.544   1.961   6.190
 1508SOL     OW 5422   3.907   6.160   0.940
 1508SOL    HW1 5423   3.881   6.137   1.034
 1508SOL    HW2 5424   3.996   6.121   0.919
 1509SOL     OW 5425   4.779   2.161   5.937
 1509SOL    HW1 5426   4.848   2.232   5.922
 1509SOL    HW2 5427   4.810   2.100   6.011
 1510SOL     OW 5428   6.745   1.819   2.278
 1510SOL    HW1 5429   6.816   1.889   2.273
 1510SOL    HW2 5430   6.665   1.856   2.325
 1511SOL     OW 5431   6.934   2.635   0.375
 1511SOL    HW1 5432   6.984   2.550   0.385
 1511SOL    HW2 5433   6.944   2.690   0.458
 1512SOL     OW 5434   0.428   6.985   2.668
 1512SOL    HW1 5435   0.447   6.894   2.631
 1512SOL    HW2 5436   0.418   0.028   2.593
 1513SOL     OW 5437   2.285   0.203   3.001
 1513SOL    HW1 5438   2.379   0.179   2.980
 1513SOL    HW2 5439   2.226   0.123   2.990
 1514SOL     OW 5440   4.359   0.263   5.853
 1514SOL    HW1 5441   4.270   0.305   5.840
 1514SOL    HW2 5442   4.403   0.249   5.764
 1515SOL     OW 5443   5.566   5.615   4.848
 1515SOL    HW1 5444   5.503   5.664   4.788
 1515SOL    HW2 5445   5.583   5.669   4.930
 1516SOL     OW 5446   6.201   2.292   2.687
 1516SOL    HW1 5447   6.217   2.325   2.781
 1516SOL    HW2 5448   6.255   2.209   2.671
 1517SOL     OW 5449   2.658   5.214   1.718
 1517SOL    HW1 5450   2.711   5.169   1.790
 1517SOL    HW2 5451   2.718   5.234   1.641
 1518SOL     OW 5452   1.013   4.846   0.448
 1518SOL    HW1 5453   1.013   4.868   0.546
 1518SOL    HW2 5454   1.059   4.758   0.434
 1519SOL     OW 5455   1.211   4.214   1.820
 1519SOL    HW1 5456   1.172   4.132   1.862
 1519SOL    HW2 5457   1.138   4.278   1.798
 1520SOL     OW 5458   1.769   3.667   3.440
 1520SOL    HW1 5459   1.824   3.633   3.517
 1520SOL    HW2 5460   1.673   3.645   3.455
 1521SOL     OW 5461   1.916   6.097   5.614
 1521SOL    HW1 5462   1.847   6.108   5.543
 1521SOL    HW2 5463   1.898   6.013   5.665
 1522SOL     OW 5464   1.523   2.320   6.167
 1522SOL    HW1 5465   1.601   2.303   6.106
 1522SOL    HW2 5466   1.539   2.276   6.255
 1523SOL     OW 5467   5.233   1.371   0.394
 1523SOL    HW1 5468   5.138   1.341   0.386
 1523SOL    HW2 5469   5.235   1.470   0.410
 1524SOL     OW 5470   1.684   1.904   2.180
 1524SOL    HW1 5471   1.745   1.836   2.222
 1524SOL    HW2 5472   1.639   1.957   2.252
 1525SOL     OW 5473   4.609   2.197   5.268
 1525SOL    HW1 5474   4.599   2.216   5.170
 1525SOL    HW2 5475   4.588   2.280   5.320
 1526SOL     OW 5476   5.720   2.790   1.294
 1526SOL    HW1 5477   5.722   2.861   1.364
 1526SOL    HW2 5478   5.799   2.801   1.233
 1527SOL     OW 5479   1.956   0.042   5.031
 1527SOL    HW1 5480   1.859   0.029   5.009
 1527SOL    HW2 5481   1.977   7.014   5.115
 1528SOL     OW 5482   5.229   6.014   3.369
 1528SOL    HW1 5483   5.236   6.041   3.465
 1528SOL    HW2 5484   5.146   6.054   3.330
 1529SOL     OW 5485   0.963   6.952   5.893
 1529SOL    HW1 5486   0.943   6.880   5.827
 1529SOL    HW2 5487   0.878   6.983   5.936
 1530SOL     OW 5488   4.083   0.191   1.419
 1530SOL    HW1 5489   3.992   0.208   1.382
 1530SOL    HW2 5490   4.134   0.131   1.357
 1531SOL     OW 5491   5.063   1.626   6.814
 1531SOL    HW1 5492   5.068   1.529   6.790
 1531SOL    HW2 5493   5.154   1.667   6.807
 1532SOL     OW 5494   2.750   1.312   5.193
 1532SOL    HW1 5495   2.821   1.264   5.141
 1532SOL    HW2 5496   2.760   1.410   5.182
 1533SOL     OW 5497   4.314   2.823   1.588
 1533SOL    HW1 5498   4.304   2.808   1.489
 1533SOL    HW2 5499   4.225   2.814   1.632
 1534SOL     OW 5500   5.626   0.603   0.295
 1534SOL    HW1 5501   5.697   0.663   0.257
 1534SOL    HW2 5502   5.599   0.536   0.226
 1535SOL     OW 5503   4.578   4.476   4.258
 1535SOL    HW1 5504   4.603   4.488   4.354
 1535SOL    HW2 5505   4.485   4.509   4.244
 1536SOL     OW 5506   2.764   6.142   3.043
 1536SOL    HW1 5507   2.678   6.118   3.087
 1536SOL    HW2 5508   2.747   6.210   2.972
 1537SOL     OW 5509   1.644   4.986   4.960
 1537SOL    HW1 5510   1.570   5.021   5.017
 1537SOL    HW2 5511   1.723   4.963   5.018
 1538SOL     OW 5512   3.601   6.073   0.345
 1538SOL    HW1 5513   3.516   6.033   0.379
 1538SOL    HW2 5514   3.580   6.146   0.281
 1539SOL     OW 5515   1.931   6.407   1.310
 1539SOL    HW1 5516   1.880   6.424   1.225
 1539SOL    HW2 5517   1.893   6.327   1.355
 1540SOL     OW 5518   6.022   1.013   5.948
 1540SOL    HW1 5519   5.963   1.087   5.916
 1540SOL    HW2 5520   5.967   0.945   5.997
 1541SOL     OW 5521   5.045   2.027   2.422
 1541SOL    HW1 5522   5.058   1.977   2.336
 1541SOL    HW2 5523   4.956   2.073   2.420
 1542SOL     OW 5524   0.208   5.570   0.982
 1542SOL    HW1 5525   0.292   5.608   0.944
 1542SOL    HW2 5526   0.231   5.501   1.051
 1543SOL     OW 5527   3.576   3.037   2.982
 1543SOL    HW1 5528   3.584   3.137   2.979
 1543SOL    HW2 5529   3.597   3.000   2.892
 1544SOL     OW 5530   3.077   3.319   1.527
 1544SOL    HW1 5531   3.082   3.396   1.591
 1544SOL    HW2 5532   3.145   3.331   1.455
 1545SOL     OW 5533   0.713   6.479   5.718
 1545SOL    HW1 5534   0.743   6.388   5.690
 1545SOL    HW2 5535   0.641   6.511   5.656
 1546SOL     OW 5536   6.790   6.309   1.049
 1546SOL    HW1 5537   6.866   6.289   1.111
 1546SOL    HW2 5538   6.703   6.297   1.098
 1547SOL     OW 5539   2.701   6.850   0.581
 1547SOL    HW1 5540   2.744   6.778   0.527
 1547SOL    HW2 5541   2.608   6.866   0.548
 1548SOL     OW 5542   6.404   4.192   3.262
 1548SOL    HW1 5543   6.430   4.199   3.359
 1548SOL    HW2 5544   6.485   4.202   3.205
 1549SOL     OW 5545   5.991   2.197   1.582
 1549SOL    HW1 5546   5.903   2.194   1.629
 1549SOL    HW2 5547   6.003   2.286   1.538
 1550SOL     OW 5548   2.803   4.876   2.146
 1550SOL    HW1 5549   2.872   4.885   2.217
 1550SOL    HW2 5550   2.798   4.781   2.116
 1551SOL     OW 5551   0.852   2.050   2.204
 1551SOL    HW1 5552   0.788   2.107   2.152
 1551SOL    HW2 5553   0.926   2.020   2.144
 1552SOL     OW 5554   1.574   6.674   2.161
 1552SOL    HW1 5555   1.658   6.649   2.113
 1552SOL    HW2 5556   1.497   6.670   2.097
 1553SOL     OW 5557   6.270   1.469   5.168
 1553SOL    HW1 5558   6.352   1.412   5.166
 1553SOL    HW2 5559   6.206   1.433   5.236
 1554SOL     OW 5560   2.482   2.951   6.959
 1554SOL    HW1 5561   2.481   3.049   6.936
 1554SOL    HW2 5562   2.573   2.913   6.941
 1555SOL     OW 5563   4.327   1.320   1.103
 1555SOL    HW1 5564   4.281   1.383   1.166
 1555SOL    HW2 5565   4.280   1.231   1.105
 1556SOL     OW 5566   2.549   1.893   0.366
 1556SOL    HW1 5567   2.541   1.867   0.270
 1556SOL    HW2 5568   2.462   1.875   0.412
 1557SOL     OW 5569   2.421   2.094   1.356
 1557SOL    HW1 5570   2.518   2.096   1.329
 1557SOL    HW2 5571   2.407   2.157   1.432
 1558SOL     OW 5572   5.026   1.544   0.126
 1558SOL    HW1 5573   4.952   1.525   0.191
 1558SOL    HW2 5574   5.023   1.640   0.100
 1559SOL     OW 5575   2.331   5.858   3.746
 1559SOL    HW1 5576   2.239   5.894   3.765
 1559SOL    HW2 5577   2.323   5.779   3.686
 1560SOL     OW 5578   4.854   3.028   1.713
 1560SOL    HW1 5579   4.907   3.112   1.726
 1560SOL    HW2 5580   4.786   3.020   1.786
 1561SOL     OW 5581   5.666   6.967   0.874
 1561SOL    HW1 5582   5.761   6.968   0.842
 1561SOL    HW2 5583   5.658   6.904   0.951
 1562SOL     OW 5584   2.296   6.541   3.338
 1562SOL    HW1 5585   2.265   6.516   3.430
 1562SOL    HW2 5586   2.302   6.641   3.331
 1563SOL     OW 5587   2.211   4.547   3.901
 1563SOL    HW1 5588   2.120   4.537   3.940
 1563SOL    HW2 5589   2.276   4.490   3.952
 1564SOL     OW 5590   2.173   2.302   3.232
 1564SOL    HW1 5591   2.162   2.235   3.305
 1564SOL    HW2 5592   2.093   2.298   3.171
 1565SOL     OW 5593   5.702   1.864   5.847
 1565SOL    HW1 5594   5.613   1.870   5.892
 1565SOL    HW2 5595   5.692   1.821   5.758
 1566SOL     OW 5596   1.055   3.564   3.421
 1566SOL    HW1 5597   0.969   3.518   3.446
 1566SOL    HW2 5598   1.091   3.523   3.338
 1567SOL     OW 5599   5.240   0.902   3.537
 1567SOL    HW1 5600   5.176   0.828   3.556
 1567SOL    HW2 5601   5.261   0.951   3.621
 1568SOL     OW 5602   2.278   4.832   0.793
 1568SOL    HW1 5603   2.253   4.793   0.882
 1568SOL    HW2 5604   2.210   4.804   0.725
 1569SOL     OW 5605   2.203   0.935   1.912
 1569SOL    HW1 5606   2.180   0.868   1.982
 1569SOL    HW2 5607   2.218   1.024   1.956
 1570SOL     OW 5608   2.526   6.170   5.556
 1570SOL    HW1 5609   2.428   6.157   5.571
 1570SOL    HW2 5610   2.547   6.155   5.459
 1571SOL     OW 5611   1.799   1.834   4.354
 1571SOL    HW1 5612   1.790   1.745   4.309
 1571SOL    HW2 5613   1.787   1.823   4.453
 1572SOL     OW 5614   2.547   5.205   4.297
 1572SOL    HW1 5615   2.612   5.132   4.278
 1572SOL    HW2 5616   2.597   5.285   4.332
 1573SOL     OW 5617   5.649   6.209   6.869
 1573SOL    HW1 5618   5.714   6.256   6.928
 1573SOL    HW2 5619   5.557   6.245   6.886
 1574SOL     OW 5620   0.880   2.777   3.411
 1574SOL    HW1 5621   0.942   2.778   3.333
 1574SOL    HW2 5622   0.827   2.692   3.411
 1575SOL     OW 5623   6.768   2.142   0.747
 1575SOL    HW1 5624   6.805   2.099   0.665
 1575SOL    HW2 5625   6.772   2.242   0.737
 1576SOL     OW 5626   1.339   6.397   2.581
 1576SOL    HW1 5627   1.245   6.370   2.563
 1576SOL    HW2 5628   1.379   6.435   2.497
 1577SOL     OW 5629   4.677   5.937   3.993
 1577SOL    HW1 5630   4.609   5.913   3.924
 1577SOL    HW2 5631   4.658   5.884   4.077
 1578SOL     OW 5632   5.481   1.697   2.374
 1578SOL    HW1 5633   5.452   1.713   2.468
 1578SOL    HW2 5634   5.402   1.702   2.313
 1579SOL     OW 5635   2.033   3.964   2.693
 1579SOL    HW1 5636   2.022   3.969   2.594
 1579SOL    HW2 5637   2.023   4.055   2.733
 1580SOL     OW 5638   3.642   3.455   4.262
 1580SOL    HW1 5639   3.679   3.438   4.353
 1580SOL    HW2 5640   3.695   3.527   4.217
 1581SOL     OW 5641   5.185   4.139   5.083
 1581SOL    HW1 5642   5.144   4.224   5.049
 1581SOL    HW2 5643   5.157   4.063   5.024
 1582SOL     OW 5644   4.068   6.378   4.071
 1582SOL    HW1 5645   4.064   6.456   4.133
 1582SOL    HW2 5646   4.116   6.302   4.117
 1583SOL     OW 5647   0.253   4.900   4.242
 1583SOL    HW1 5648   0.263   4.999   4.232
 1583SOL    HW2 5649   0.267   4.856   4.153
 1584SOL     OW 5650   0.419   4.555   0.969
 1584SOL    HW1 5651   0.393   4.641   0.925
 1584SOL    HW2 5652   0.437   4.485   0.900
 1585SOL     OW 5653   4.078   6.146   4.511
 1585SOL    HW1 5654   4.130   6.149   4.425
 1585SOL    HW2 5655   4.010   6.219   4.511
 1586SOL     OW 5656   3.134   6.153   2.974
 1586SOL    HW1 5657   3.080   6.232   3.004
 1586SOL    HW2 5658   3.081   6.070   2.987
 1587SOL     OW 5659   4.240   0.633   0.462
 1587SOL    HW1 5660   4.244   0.630   0.562
 1587SOL    HW2 5661   4.183   0.711   0.434
 1588SOL     OW 5662   6.369   1.802   3.995
 1588SOL    HW1 5663   6.278   1.839   3.975
 1588SOL    HW2 5664   6.381   1.715   3.949
 1589SOL     OW 5665   6.968   1.290   3.847
 1589SOL    HW1 5666   6.966   1.311   3.945
 1589SOL    HW2 5667   7.017   1.362   3.798
 1590SOL     OW 5668   5.429   7.019   3.766
 1590SOL    HW1 5669   5.448   0.037   3.856
 1590SOL    HW2 5670   5.501   6.954   3.743
 1591SOL     OW 5671   6.565   4.993   0.743
 1591SOL    HW1 5672   6.512   5.076   0.758
 1591SOL    HW2 5673   6.563   4.969   0.645
 1592SOL     OW 5674   6.992   4.523   4.114
 1592SOL    HW1 5675   6.976   4.463   4.036
 1592SOL    HW2 5676   6.912   4.581   4.129
 1593SOL     OW 5677   4.268   4.866   0.900
 1593SOL    HW1 5678   4.326   4.804   0.847
 1593SOL    HW2 5679   4.193   4.814   0.941
 1594SOL     OW 5680   5.582   1.278   2.886
 1594SOL    HW1 5681   5.666   1.325   2.859
 1594SOL    HW2 5682   5.604   1.206   2.952
 1595SOL     OW 5683   0.146   3.925   0.668
 1595SOL    HW1 5684   0.073   3.984   0.703
 1595SOL    HW2 5685   0.155   3.938   0.569
 1596SOL     OW 5686   5.649   4.188   4.437
 1596SOL    HW1 5687   5.716   4.136   4.490
 1596SOL    HW2 5688   5.566   4.133   4.425
 1597SOL     OW 5689   3.851   6.405   1.070
 1597SOL    HW1 5690   3.834   6.334   1.001
 1597SOL    HW2 5691   3.944   6.395   1.106
 1598SOL     OW 5692   0.742   6.212   6.155
 1598SOL    HW1 5693   0.731   6.119   6.191
 1598SOL    HW2 5694   0.813   6.260   6.207
 1599SOL     OW 5695   5.053   5.798   4.094
 1599SOL    HW1 5696   5.022   5.846   4.011
 1599SOL    HW2 5697   5.121   5.729   4.069
 1600SOL     OW 5698   5.531   0.895   1.495
 1600SOL    HW1 5699   5.549   0.903   1.397
 1600SOL    HW2 5700   5.489   0.807   1.514
 1601SOL     OW 5701   6.310   0.893   5.571
 1601SOL    HW1 5702   6.265   0.829   5.633
 1601SOL    HW2 5703   6.398   0.854   5.542
 1602SOL     OW 5704   3.763   6.018   3.316
 1602SOL    HW1 5705   3.686   6.043   3.375
 1602SOL    HW2 5706   3.779   6.090   3.250
 1603SOL     OW 5707   2.949   5.615   1.471
 1603SOL    HW1 5708   2.872   5.589   1.529
 1603SOL    HW2 5709   2.916   5.634   1.379
 1604SOL     OW 5710   4.370   5.198   2.010
 1604SOL    HW1 5711   4.467   5.206   2.031
 1604SOL    HW2 5712   4.358   5.155   1.921
 1605SOL     OW 5713   3.608   4.681   0.057
 1605SOL    HW1 5714   3.608   4.750   0.130
 1605SOL    HW2 5715   3.613   4.590   0.098
 1606SOL     OW 5716   5.295   5.722   5.046
 1606SOL    HW1 5717   5.313   5.683   4.956
 1606SOL    HW2 5718   5.202   5.760   5.049
 1607SOL     OW 5719   4.376   4.624   4.107
 1607SOL    HW1 5720   4.396   4.722   4.108
 1607SOL    HW2 5721   4.392   4.588   4.016
 1608SOL     OW 5722   6.051   3.258   3.006
 1608SOL    HW1 5723   5.979   3.325   2.986
 1608SOL    HW2 5724   6.090   3.278   3.096
 1609SOL     OW 5725   1.169   0.268   0.788
 1609SOL    HW1 5726   1.247   0.329   0.798
 1609SOL    HW2 5727   1.198   0.183   0.743
 1610SOL     OW 5728   5.096   4.973   0.876
 1610SOL    HW1 5729   5.074   5.009   0.967
 1610SOL    HW2 5730   5.155   4.893   0.885
 1611SOL     OW 5731   0.905   4.579   0.214
 1611SOL    HW1 5732   0.812   4.605   0.238
 1611SOL    HW2 5733   0.961   4.574   0.297
 1612SOL     OW 5734   4.763   0.031   1.978
 1612SOL    HW1 5735   4.746   0.124   2.010
 1612SOL    HW2 5736   4.724   0.020   1.886
 1613SOL     OW 5737   6.559   6.272   3.040
 1613SOL    HW1 5738   6.478   6.275   3.099
 1613SOL    HW2 5739   6.532   6.290   2.946
 1614SOL     OW 5740   6.058   1.242   6.119
 1614SOL    HW1 5741   6.148   1.284   6.103
 1614SOL    HW2 5742   6.047   1.164   6.057
 1615SOL     OW 5743   6.253   3.406   5.925
 1615SOL    HW1 5744   6.203   3.461   5.992
 1615SOL    HW2 5745   6.307   3.337   5.973
 1616SOL     OW 5746   1.966   1.092   3.456
 1616SOL    HW1 5747   1.990   1.023   3.388
 1616SOL    HW2 5748   1.939   1.177   3.410
 1617SOL     OW 5749   0.085   6.438   4.233
 1617SOL    HW1 5750   0.033   6.353   4.223
 1617SOL    HW2 5751   0.182   6.417   4.247
 1618SOL     OW 5752   3.274   5.101   2.596
 1618SOL    HW1 5753   3.174   5.111   2.594
 1618SOL    HW2 5754   3.315   5.190   2.616
 1619SOL     OW 5755   1.272   4.306   6.274
 1619SOL    HW1 5756   1.290   4.253   6.357
 1619SOL    HW2 5757   1.302   4.254   6.194
 1620SOL     OW 5758   3.139   6.913   4.881
 1620SOL    HW1 5759   3.090   6.826   4.877
 1620SOL    HW2 5760   3.074   6.989   4.870
 1621SOL     OW 5761   4.828   4.968   0.788
 1621SOL    HW1 5762   4.783   4.894   0.738
 1621SOL    HW2 5763   4.924   4.944   0.802
 1622SOL     OW 5764   6.385   3.148   4.275
 1622SOL    HW1 5765   6.324   3.118   4.349
 1622SOL    HW2 5766   6.380   3.083   4.200
 1623SOL     OW 5767   0.623   2.325   4.222
 1623SOL    HW1 5768   0.647   2.412   4.264
 1623SOL    HW2 5769   0.597   2.341   4.127
 1624SOL     OW 5770   4.452   2.932   6.875
 1624SOL    HW1 5771   4.366   2.966   6.837
 1624SOL    HW2 5772   4.498   3.006   6.924
 1625SOL     OW 5773   0.581   6.520   0.418
 1625SOL    HW1 5774   0.669   6.553   0.384
 1625SOL    HW2 5775   0.546   6.583   0.488
 1626SOL     OW 5776   2.875   1.523   1.733
 1626SOL    HW1 5777   2.869   1.424   1.725
 1626SOL    HW2 5778   2.843   1.552   1.823
 1627SOL     OW 5779   4.403   1.120   6.068
 1627SOL    HW1 5780   4.416   1.168   6.154
 1627SOL    HW2 5781   4.492   1.104   6.024
 1628SOL     OW 5782   5.765   5.604   1.261
 1628SOL    HW1 5783   5.749   5.543   1.338
 1628SOL    HW2 5784   5.755   5.699   1.290
 1629SOL     OW 5785   1.561   6.089   2.208
 1629SOL    HW1 5786   1.495   6.020   2.177
 1629SOL    HW2 5787   1.567   6.162   2.141
 1630SOL     OW 5788   0.065   4.782   5.803
 1630SOL    HW1 5789   0.065   4.729   5.718
 1630SOL    HW2 5790   7.021   4.741   5.867
 1631SOL     OW 5791   4.971   4.332   6.255
 1631SOL    HW1 5792   4.947   4.318   6.351
 1631SOL    HW2 5793   4.945   4.252   6.202
 1632SOL     OW 5794   5.945   5.014   2.087
 1632SOL    HW1 5795   5.979   4.922   2.071
 1632SOL    HW2 5796   5.976   5.075   2.013
 1633SOL     OW 5797   6.211   4.413   5.407
 1633SOL    HW1 5798   6.279   4.397   5.479
 1633SOL    HW2 5799   6.120   4.421   5.448
 1634SOL     OW 5800   1.308   4.277   5.949
 1634SOL    HW1 5801   1.310   4.179   5.973
 1634SOL    HW2 5802   1.401   4.309   5.933
 1635SOL     OW 5803   3.160   1.214   4.108
 1635SOL    HW1 5804   3.218   1.134   4.122
 1635SOL    HW2 5805   3.173   1.278   4.184
 1636SOL     OW 5806   0.040   6.075   1.995
 1636SOL    HW1 5807   0.004   6.097   1.904
 1636SOL    HW2 5808   0.071   6.159   2.040
 1637SOL     OW 5809   1.586   1.237   1.770
 1637SOL    HW1 5810   1.576   1.154   1.715
 1637SOL    HW2 5811   1.556   1.316   1.717
 1638SOL     OW 5812   5.511   1.211   3.191
 1638SOL    HW1 5813   5.466   1.263   3.118
 1638SOL    HW2 5814   5.594   1.168   3.155
 1639SOL     OW 5815   5.007   2.310   0.962
 1639SOL    HW1 5816   5.018   2.294   0.864
 1639SOL    HW2 5817   4.999   2.408   0.979
 1640SOL     OW 5818   6.811   1.462   6.454
 1640SOL    HW1 5819   6.799   1.377   6.504
 1640SOL    HW2 5820   6.846   1.442   6.362
 1641SOL     OW 5821   6.199   1.099   2.682
 1641SOL    HW1 5822   6.168   1.085   2.776
 1641SOL    HW2 5823   6.125   1.077   2.618
 1642SOL     OW 5824   0.289   3.711   6.501
 1642SOL    HW1 5825   0.252   3.661   6.579
 1642SOL    HW2 5826   0.275   3.658   6.417
 1643SOL     OW 5827   2.364   5.240   4.111
 1643SOL    HW1 5828   2.343   5.146   4.086
 1643SOL    HW2 5829   2.425   5.241   4.191
 1644SOL     OW 5830   5.842   2.024   2.072
 1644SOL    HW1 5831   5.820   1.942   2.125
 1644SOL    HW2 5832   5.930   2.060   2.102
 1645SOL     OW 5833   2.216   1.279   3.965
 1645SOL    HW1 5834   2.288   1.290   3.896
 1645SOL    HW2 5835   2.210   1.362   4.021
 1646SOL     OW 5836   0.058   5.390   1.768
 1646SOL    HW1 5837   0.009   5.469   1.805
 1646SOL    HW2 5838   7.013   5.324   1.732
 1647SOL     OW 5839   6.422   4.505   5.250
 1647SOL    HW1 5840   6.331   4.511   5.291
 1647SOL    HW2 5841   6.465   4.595   5.252
 1648SOL     OW 5842   5.903   5.803   1.974
 1648SOL    HW1 5843   5.807   5.797   1.999
 1648SOL    HW2 5844   5.916   5.875   1.906
 1649SOL     OW 5845   3.553   1.084   3.606
 1649SOL    HW1 5846   3.541   0.986   3.619
 1649SOL    HW2 5847   3.642   1.112   3.641
 1650SOL     OW 5848   2.267   3.096   5.534
 1650SOL    HW1 5849   2.232   3.018   5.586
 1650SOL    HW2 5850   2.265   3.178   5.591
 1651SOL     OW 5851   2.050   2.248   4.650
 1651SOL    HW1 5852   2.014   2.186   4.582
 1651SOL    HW2 5853   2.075   2.335   4.607
 1652SOL     OW 5854   0.098   4.337   1.674
 1652SOL    HW1 5855   0.128   4.295   1.588
 1652SOL    HW2 5856   0.176   4.354   1.733
 1653SOL     OW 5857   5.536   3.903   1.557
 1653SOL    HW1 5858   5.570   3.947   1.641
 1653SOL    HW2 5859   5.559   3.806   1.559
 1654SOL     OW 5860   0.078   2.816   1.512
 1654SOL    HW1 5861   0.069   2.914   1.533
 1654SOL    HW2 5862   0.112   2.768   1.593
 1655SOL     OW 5863   6.684   0.706   5.986
 1655SOL    HW1 5864   6.727   0.792   6.011
 1655SOL    HW2 5865   6.663   0.653   6.068
 1656SOL     OW 5866   1.911   4.847   2.875
 1656SOL    HW1 5867   1.958   4.913   2.817
 1656SOL    HW2 5868   1.944   4.857   2.969
 1657SOL     OW 5869   0.648   1.777   6.009
 1657SOL    HW1 5870   0.614   1.717   6.081
 1657SOL    HW2 5871   0.571   1.817   5.959
 1658SOL     OW 5872   4.562   0.276   5.659
 1658SOL    HW1 5873   4.590   0.367   5.630
 1658SOL    HW2 5874   4.643   0.223   5.686
 1659SOL     OW 5875   2.288   1.091   6.712
 1659SOL    HW1 5876   2.260   1.173   6.762
 1659SOL    HW2 5877   2.305   1.114   6.617
 1660SOL     OW 5878   2.666   0.704   1.424
 1660SOL    HW1 5879   2.624   0.711   1.515
 1660SOL    HW2 5880   2.595   0.684   1.357
 1661SOL     OW 5881   4.476   5.265   3.141
 1661SOL    HW1 5882   4.434   5.175   3.146
 1661SOL    HW2 5883   4.441   5.313   3.060
 1662SOL     OW 5884   0.973   2.348   4.410
 1662SOL    HW1 5885   1.056   2.300   4.436
 1662SOL    HW2 5886   0.938   2.399   4.488
 1663SOL     OW 5887   6.372   3.993   1.360
 1663SOL    HW1 5888   6.380   3.895   1.377
 1663SOL    HW2 5889   6.341   4.039   1.443
 1664SOL     OW 5890   0.904   0.988   6.811
 1664SOL    HW1 5891   0.835   0.915   6.815
 1664SOL    HW2 5892   0.989   0.956   6.854
 1665SOL     OW 5893   1.624   3.072   0.881
 1665SOL    HW1 5894   1.693   3.107   0.818
 1665SOL    HW2 5895   1.590   2.984   0.847
 1666SOL     OW 5896   6.273   6.305   5.452
 1666SOL    HW1 5897   6.298   6.399   5.474
 1666SOL    HW2 5898   6.190   6.281   5.503
 1667SOL     OW 5899   6.131   5.584   1.532
 1667SOL    HW1 5900   6.086   5.673   1.539
 1667SOL    HW2 5901   6.103   5.539   1.447
 1668SOL     OW 5902   6.823   2.845   2.787
 1668SOL    HW1 5903   6.742   2.902   2.781
 1668SOL    HW2 5904   6.888   2.886   2.851
 1669SOL     OW 5905   6.678   2.441   5.612
 1669SOL    HW1 5906   6.627   2.526   5.623
 1669SOL    HW2 5907   6.616   2.367   5.585
 1670SOL     OW 5908   3.076   4.314   5.234
 1670SOL    HW1 5909   3.086   4.250   5.158
 1670SOL    HW2 5910   2.987   4.358   5.230
 1671SOL     OW 5911   5.977   2.647   0.546
 1671SOL    HW1 5912   6.067   2.669   0.584
 1671SOL    HW2 5913   5.988   2.582   0.470
 1672SOL     OW 5914   1.030   1.908   2.038
 1672SOL    HW1 5915   1.004   1.811   2.042
 1672SOL    HW2 5916   1.103   1.920   1.970
 1673SOL     OW 5917   0.840   0.721   6.411
 1673SOL    HW1 5918   0.880   0.678   6.492
 1673SOL    HW2 5919   0.912   0.760   6.354
 1674SOL     OW 5920   4.877   2.555   3.385
 1674SOL    HW1 5921   4.922   2.471   3.413
 1674SOL    HW2 5922   4.778   2.544   3.392
 1675SOL     OW 5923   5.195   0.924   2.111
 1675SOL    HW1 5924   5.161   0.869   2.035
 1675SOL    HW2 5925   5.212   1.017   2.080
 1676SOL     OW 5926   2.613   1.744   3.624
 1676SOL    HW1 5927   2.572   1.828   3.659
 1676SOL    HW2 5928   2.623   1.750   3.525
 1677SOL     OW 5929   2.816   3.121   1.737
 1677SOL    HW1 5930   2.782   3.213   1.714
 1677SOL    HW2 5931   2.904   3.129   1.783
 1678SOL     OW 5932   6.530   0.034   1.257
 1678SOL    HW1 5933   6.476   6.975   1.281
 1678SOL    HW2 5934   6.524   0.102   1.330
 1679SOL     OW 5935   6.875   2.370   6.724
 1679SOL    HW1 5936   6.820   2.315   6.787
 1679SOL    HW2 5937   6.971   2.347   6.735
 1680SOL     OW 5938   5.528   1.605   3.962
 1680SOL    HW1 5939   5.583   1.527   3.992
 1680SOL    HW2 5940   5.504   1.661   4.041
 1681SOL     OW 5941   4.748   6.800   4.319
 1681SOL    HW1 5942   4.735   6.704   4.295
 1681SOL    HW2 5943   4.772   6.852   4.236
 1682SOL     OW 5944   4.441   1.727   5.366
 1682SOL    HW1 5945   4.516   1.783   5.331
 1682SOL    HW2 5946   4.455   1.632   5.338
 1683SOL     OW 5947   0.927   4.515   3.978
 1683SOL    HW1 5948   1.003   4.516   4.043
 1683SOL    HW2 5949   0.913   4.608   3.942
 1684SOL     OW 5950   3.163   6.010   1.718
 1684SOL    HW1 5951   3.156   5.923   1.670
 1684SOL    HW2 5952   3.073   6.038   1.750
 1685SOL     OW 5953   6.730   2.009   6.126
 1685SOL    HW1 5954   6.637   2.004   6.089
 1685SOL    HW2 5955   6.728   2.052   6.216
 1686SOL     OW 5956   2.562   6.046   1.139
 1686SOL    HW1 5957   2.493   6.045   1.211
 1686SOL    HW2 5958   2.643   5.997   1.170
 1687SOL     OW 5959   4.568   4.302   6.754
 1687SOL    HW1 5960   4.664   4.284   6.732
 1687SOL    HW2 5961   4.510   4.240   6.701
 1688SOL     OW 5962   2.468   0.496   2.357
 1688SOL    HW1 5963   2.495   0.527   2.448
 1688SOL    HW2 5964   2.492   0.399   2.345
 1689SOL     OW 5965   4.355   1.231   2.005
 1689SOL    HW1 5966   4.416   1.213   1.928
 1689SOL    HW2 5967   4.364   1.157   2.072
 1690SOL     OW 5968   0.483   4.594   4.267
 1690SOL    HW1 5969   0.458   4.573   4.173
 1690SOL    HW2 5970   0.416   4.553   4.329
 1691SOL     OW 5971   4.567   2.776   5.503
 1691SOL    HW1 5972   4.558   2.833   5.421
 1691SOL    HW2 5973   4.476   2.759   5.541
 1692SOL     OW 5974   5.914   5.355   2.577
 1692SOL    HW1 5975   5.829   5.305   2.596
 1692SOL    HW2 5976   5.983   5.292   2.543
 1693SOL     OW 5977   5.716   0.189   6.075
 1693SOL    HW1 5978   5.774   0.163   5.998
 1693SOL    HW2 5979   5.714   0.288   6.084
 1694SOL     OW 5980   4.388   1.255   6.289
 1694SOL    HW1 5981   4.388   1.352   6.314
 1694SOL    HW2 5982   4.351   1.201   6.364
 1695SOL     OW 5983   5.943   1.038   5.570
 1695SOL    HW1 5984   5.949   1.068   5.665
 1695SOL    HW2 5985   5.873   1.089   5.522
 1696SOL     OW 5986   5.431   6.616   1.074
 1696SOL    HW1 5987   5.391   6.707   1.082
 1696SOL    HW2 5988   5.374   6.560   1.014
 1697SOL     OW 5989   3.936   3.996   1.788
 1697SOL    HW1 5990   3.896   4.009   1.878
 1697SOL    HW2 5991   3.926   3.900   1.760
 1698SOL     OW 5992   4.627   2.499   1.240
 1698SOL    HW1 5993   4.552   2.499   1.307
 1698SOL    HW2 5994   4.663   2.406   1.231
 1699SOL     OW 5995   1.414   0.541   0.763
 1699SOL    HW1 5996   1.468   0.626   0.757
 1699SOL    HW2 5997   1.339   0.554   0.827
 1700SOL     OW 5998   5.740   3.114   3.021
 1700SOL    HW1 5999   5.812   3.121   3.089
 1700SOL    HW2 6000   5.696   3.024   3.029
 1701SOL     OW 6001   1.347   5.829   5.149
 1701SOL    HW1 6002   1.266   5.836   5.208
 1701SOL    HW2 6003   1.321   5.787   5.062
 1702SOL     OW 6004   2.003   2.277   6.895
 1702SOL    HW1 6005   2.065   2.238   6.964
 1702SOL    HW2 6006   2.057   2.307   6.816
 1703SOL     OW 6007   2.524   1.394   1.776
 1703SOL    HW1 6008   2.546   1.460   1.704
 1703SOL    HW2 6009   2.575   1.310   1.761
 1704SOL     OW 6010   2.992   2.579   6.660
 1704SOL    HW1 6011   2.985   2.484   6.690
 1704SOL    HW2 6012   3.077   2.592   6.609
 1705SOL     OW 6013   5.959   3.014   1.009
 1705SOL    HW1 6014   6.050   2.989   1.042
 1705SOL    HW2 6015   5.906   2.931   0.993
 1706SOL     OW 6016   6.197   0.437   5.499
 1706SOL    HW1 6017   6.270   0.378   5.463
 1706SOL    HW2 6018   6.156   0.488   5.423
 1707SOL     OW 6019   2.953   1.522   2.813
 1707SOL    HW1 6020   2.913   1.601   2.860
 1707SOL    HW2 6021   2.972   1.449   2.880
 1708SOL     OW 6022   2.528   4.318   1.409
 1708SOL    HW1 6023   2.433   4.351   1.406
 1708SOL    HW2 6024   2.548   4.285   1.501
 1709SOL     OW 6025   6.106   5.120   2.576
 1709SOL    HW1 6026   6.055   5.095   2.658
 1709SOL    HW2 6027   6.201   5.091   2.586
 1710SOL     OW 6028   4.736   2.775   2.228
 1710SOL    HW1 6029   4.733   2.773   2.128
 1710SOL    HW2 6030   4.787   2.856   2.257
 1711SOL     OW 6031   3.741   5.195   0.385
 1711SOL    HW1 6032   3.822   5.169   0.334
 1711SOL    HW2 6033   3.669   5.222   0.322
 1712SOL     OW 6034   0.549   2.575   1.972
 1712SOL    HW1 6035   0.643   2.609   1.968
 1712SOL    HW2 6036   0.518   2.550   1.880
 1713SOL     OW 6037   2.854   1.616   2.579
 1713SOL    HW1 6038   2.919   1.648   2.510
 1713SOL    HW2 6039   2.904   1.570   2.652
 1714SOL     OW 6040   3.393   4.714   1.001
 1714SOL    HW1 6041   3.321   4.663   1.049
 1714SOL    HW2 6042   3.444   4.651   0.942
 1715SOL     OW 6043   1.408   5.714   0.995
 1715SOL    HW1 6044   1.325   5.682   0.951
 1715SOL    HW2 6045   1.482   5.648   0.981
 1716SOL     OW 6046   5.037   1.856   2.182
 1716SOL    HW1 6047   5.016   1.883   2.087
 1716SOL    HW2 6048   4.951   1.851   2.234
 1717SOL     OW 6049   3.700   6.847   4.141
 1717SOL    HW1 6050   3.785   6.834   4.090
 1717SOL    HW2 6051   3.669   6.758   4.176
 1718SOL     OW 6052   1.654   3.924   2.161
 1718SOL    HW1 6053   1.671   4.004   2.104
 1718SOL    HW2 6054   1.714   3.926   2.241
 1719SOL     OW 6055   1.164   5.002   2.952
 1719SOL    HW1 6056   1.258   5.036   2.953
 1719SOL    HW2 6057   1.125   5.016   2.861
 1720SOL     OW 6058   1.970   2.961   5.392
 1720SOL    HW1 6059   1.919   2.887   5.349
 1720SOL    HW2 6060   2.040   2.994   5.329
 1721SOL     OW 6061   1.884   2.379   0.339
 1721SOL    HW1 6062   1.834   2.415   0.260
 1721SOL    HW2 6063   1.819   2.340   0.405
 1722SOL     OW 6064   3.852   2.073   3.063
 1722SOL    HW1 6065   3.910   2.153   3.044
 1722SOL    HW2 6066   3.814   2.039   2.977
 1723SOL     OW 6067   6.501   5.567   2.002
 1723SOL    HW1 6068   6.572   5.636   2.013
 1723SOL    HW2 6069   6.425   5.605   1.949
 1724SOL     OW 6070   5.799   3.760   1.319
 1724SOL    HW1 6071   5.810   3.664   1.343
 1724SOL    HW2 6072   5.839   3.817   1.390
 1725SOL     OW 6073   1.928   6.510   4.742
 1725SOL    HW1 6074   1.918   6.432   4.681
 1725SOL    HW2 6075   2.025   6.525   4.763
 1726SOL     OW 6076   5.839   5.024   2.632
 1726SOL    HW1 6077   5.761   5.081   2.605
 1726SOL    HW2 6078   5.838   4.940   2.578
 1727SOL     OW 6079   2.894   3.788   3.978
 1727SOL    HW1 6080   2.897   3.801   3.879
 1727SOL    HW2 6081   2.930   3.697   4.001
 1728SOL     OW 6082   5.418   2.151   4.207
 1728SOL    HW1 6083   5.435   2.166   4.304
 1728SOL    HW2 6084   5.470   2.218   4.154
 1729SOL     OW 6085   1.711   3.202   2.582
 1729SOL    HW1 6086   1.739   3.207   2.678
 1729SOL    HW2 6087   1.626   3.252   2.569
 1730SOL     OW 6088   3.141   0.684   4.432
 1730SOL    HW1 6089   3.118   0.780   4.420
 1730SOL    HW2 6090   3.148   0.663   4.529
 1731SOL     OW 6091   6.649   5.009   2.773
 1731SOL    HW1 6092   6.649   5.089   2.713
 1731SOL    HW2 6093   6.566   5.009   2.829
 1732SOL     OW 6094   3.777   2.881   4.878
 1732SOL    HW1 6095   3.785   2.783   4.897
 1732SOL    HW2 6096   3.698   2.918   4.925
 1733SOL     OW 6097   1.379   1.945   6.997
 1733SOL    HW1 6098   1.338   1.990   6.917
 1733SOL    HW2 6099   1.392   2.012   0.048
 1734SOL     OW 6100   0.729   4.805   2.472
 1734SOL    HW1 6101   0.788   4.841   2.544
 1734SOL    HW2 6102   0.676   4.728   2.507
 1735SOL     OW 6103   3.843   5.528   5.614
 1735SOL    HW1 6104   3.777   5.459   5.582
 1735SOL    HW2 6105   3.835   5.611   5.559
 1736SOL     OW 6106   4.364   1.964   4.859
 1736SOL    HW1 6107   4.423   1.895   4.900
 1736SOL    HW2 6108   4.416   2.048   4.844
 1737SOL     OW 6109   1.742   0.015   6.898
 1737SOL    HW1 6110   1.649   7.017   6.868
 1737SOL    HW2 6111   1.744   0.027   6.997
 1738SOL     OW 6112   1.194   3.308   1.977
 1738SOL    HW1 6113   1.240   3.396   1.970
 1738SOL    HW2 6114   1.241   3.240   1.920
 1739SOL     OW 6115   4.480   6.161   2.834
 1739SOL    HW1 6116   4.553   6.185   2.770
 1739SOL    HW2 6117   4.481   6.224   2.912
 1740SOL     OW 6118   0.624   2.234   4.742
 1740SOL    HW1 6119   0.708   2.187   4.768
 1740SOL    HW2 6120   0.603   2.213   4.646
 1741SOL     OW 6121   1.363   1.899   4.489
 1741SOL    HW1 6122   1.340   1.803   4.507
 1741SOL    HW2 6123   1.407   1.907   4.400
 1742SOL     OW 6124   6.383   0.427   6.302
 1742SOL    HW1 6125   6.330   0.498   6.256
 1742SOL    HW2 6126   6.358   0.337   6.265
 1743SOL     OW 6127   1.191   2.393   2.635
 1743SOL    HW1 6128   1.250   2.315   2.658
 1743SOL    HW2 6129   1.165   2.387   2.539
 1744SOL     OW 6130   2.913   1.809   5.535
 1744SOL    HW1 6131   2.897   1.770   5.626
 1744SOL    HW2 6132   2.864   1.895   5.527
 1745SOL     OW 6133   5.643   6.782   1.072
 1745SOL    HW1 6134   5.576   6.710   1.053
 1745SOL    HW2 6135   5.619   6.829   1.157
 1746SOL     OW 6136   2.751   5.124   1.966
 1746SOL    HW1 6137   2.713   5.058   2.031
 1746SOL    HW2 6138   2.748   5.215   2.006
 1747SOL     OW 6139   2.355   6.323   2.302
 1747SOL    HW1 6140   2.432   6.380   2.332
 1747SOL    HW2 6141   2.299   6.374   2.237
 1748SOL     OW 6142   6.351   1.086   4.205
 1748SOL    HW1 6143   6.442   1.086   4.164
 1748SOL    HW2 6144   6.315   1.179   4.208
 1749SOL     OW 6145   6.767   5.222   2.196
 1749SOL    HW1 6146   6.722   5.265   2.118
 1749SOL    HW2 6147   6.860   5.196   2.170
 1750SOL     OW 6148   2.771   2.043   0.399
 1750SOL    HW1 6149   2.753   2.093   0.484
 1750SOL    HW2 6150   2.689   1.995   0.370
 1751SOL     OW 6151   6.508   4.147   4.177
 1751SOL    HW1 6152   6.521   4.245   4.190
 1751SOL    HW2 6153   6.507   4.101   4.266
 1752SOL     OW 6154   6.191   0.047   2.897
 1752SOL    HW1 6155   6.272   7.012   2.880
 1752SOL    HW2 6156   6.158   0.029   2.990
 1753SOL     OW 6157   7.019   1.538   0.789
 1753SOL    HW1 6158   6.974   1.623   0.760
 1753SOL    HW2 6159   0.064   1.511   0.719
 1754SOL     OW 6160   2.154   4.586   3.631
 1754SOL    HW1 6161   2.191   4.542   3.713
 1754SOL    HW2 6162   2.214   4.660   3.603
 1755SOL     OW 6163   5.118   7.005   5.431
 1755SOL    HW1 6164   5.144   0.055   5.366
 1755SOL    HW2 6165   5.199   6.977   5.483
 1756SOL     OW 6166   4.505   5.246   1.019
 1756SOL    HW1 6167   4.443   5.306   0.969
 1756SOL    HW2 6168   4.460   5.158   1.038
 1757SOL     OW 6169   2.980   5.306   5.399
 1757SOL    HW1 6170   3.006   5.342   5.309
 1757SOL    HW2 6171   2.947   5.212   5.389
 1758SOL     OW 6172   0.071   6.133   3.897
 1758SOL    HW1 6173   0.078   6.055   3.958
 1758SOL    HW2 6174   0.130   6.207   3.929
 1759SOL     OW 6175   1.558   5.757   6.054
 1759SOL    HW1 6176   1.655   5.777   6.046
 1759SOL    HW2 6177   1.511   5.833   6.099
 1760SOL     OW 6178   5.738   1.254   4.260
 1760SOL    HW1 6179   5.665   1.232   4.195
 1760SOL    HW2 6180   5.820   1.280   4.210
 1761SOL     OW 6181   4.539   2.624   4.560
 1761SOL    HW1 6182   4.525   2.525   4.553
 1761SOL    HW2 6183   4.476   2.662   4.629
 1762SOL     OW 6184   0.875   1.409   5.310
 1762SOL    HW1 6185   0.871   1.507   5.329
 1762SOL    HW2 6186   0.927   1.392   5.226
 1763SOL     OW 6187   1.434   5.305   4.413
 1763SOL    HW1 6188   1.392   5.396   4.416
 1763SOL    HW2 6189   1.520   5.307   4.465
 1764SOL     OW 6190   0.153   5.012   2.974
 1764SOL    HW1 6191   0.179   5.108   2.963
 1764SOL    HW2 6192   0.095   4.984   2.898
 1765SOL     OW 6193   5.122   3.929   2.543
 1765SOL    HW1 6194   5.087   4.023   2.550
 1765SOL    HW2 6195   5.068   3.879   2.476
 1766SOL     OW 6196   3.924   4.888   3.809
 1766SOL    HW1 6197   3.896   4.955   3.878
 1766SOL    HW2 6198   3.860   4.891   3.732
 1767SOL     OW 6199   2.690   4.522   1.724
 1767SOL    HW1 6200   2.732   4.538   1.634
 1767SOL    HW2 6201   2.753   4.552   1.796
 1768SOL     OW 6202   3.934   5.437   2.494
 1768SOL    HW1 6203   3.955   5.507   2.426
 1768SOL    HW2 6204   3.869   5.372   2.456
 1769SOL     OW 6205   5.248   0.118   0.441
 1769SOL    HW1 6206   5.262   0.116   0.540
 1769SOL    HW2 6207   5.166   0.171   0.420
 1770SOL     OW 6208   2.143   3.059   0.048
 1770SOL    HW1 6209   2.067   3.038   0.110
 1770SOL    HW2 6210   2.213   2.988   0.056
 1771SOL     OW 6211   1.656   3.343   6.268
 1771SOL    HW1 6212   1.655   3.251   6.308
 1771SOL    HW2 6213   1.707   3.341   6.182
 1772SOL     OW 6214   2.601   4.954   1.352
 1772SOL    HW1 6215   2.671   5.018   1.383
 1772SOL    HW2 6216   2.604   4.872   1.410
 1773SOL     OW 6217   2.118   5.729   4.396
 1773SOL    HW1 6218   2.099   5.752   4.301
 1773SOL    HW2 6219   2.201   5.777   4.426
 1774SOL     OW 6220   5.867   4.474   1.610
 1774SOL    HW1 6221   5.937   4.482   1.539
 1774SOL    HW2 6222   5.865   4.558   1.664
 1775SOL     OW 6223   1.913   6.573   0.668
 1775SOL    HW1 6224   1.816   6.552   0.678
 1775SOL    HW2 6225   1.942   6.551   0.574
 1776SOL     OW 6226   4.334   3.038   5.894
 1776SOL    HW1 6227   4.240   3.071   5.905
 1776SOL    HW2 6228   4.385   3.055   5.978
 1777SOL     OW 6229   4.641   5.131   6.000
 1777SOL    HW1 6230   4.615   5.210   5.944
 1777SOL    HW2 6231   4.712   5.158   6.065
 1778SOL     OW 6232   6.871   0.224   2.609
 1778SOL    HW1 6233   6.877   0.215   2.510
 1778SOL    HW2 6234   6.930   0.299   2.639
 1779SOL     OW 6235   6.893   6.194   4.983
 1779SOL    HW1 6236   6.850   6.270   4.935
 1779SOL    HW2 6237   6.915   6.121   4.918
 1780SOL     OW 6238   2.580   6.898   4.850
 1780SOL    HW1 6239   2.580   6.997   4.832
 1780SOL    HW2 6240   2.509   6.855   4.794
 1781SOL     OW 6241   3.777   1.057   5.654
 1781SOL    HW1 6242   3.783   1.029   5.558
 1781SOL    HW2 6243   3.728   1.143   5.661
 1782SOL     OW 6244   6.378   0.127   2.161
 1782SOL    HW1 6245   6.441   0.147   2.086
 1782SOL    HW2 6246   6.310   0.200   2.167
 1783SOL     OW 6247   1.190   3.167   6.789
 1783SOL    HW1 6248   1.145   3.250   6.825
 1783SOL    HW2 6249   1.162   3.088   6.844
 1784SOL     OW 6250   1.477   6.027   1.273
 1784SOL    HW1 6251   1.443   6.046   1.181
 1784SOL    HW2 6252   1.532   5.943   1.272
 1785SOL     OW 6253   2.666   5.356   4.871
 1785SOL    HW1 6254   2.752   5.405   4.854
 1785SOL    HW2 6255   2.657   5.339   4.969
 1786SOL     OW 6256   0.546   5.351   2.177
 1786SOL    HW1 6257   0.621   5.348   2.243
 1786SOL    HW2 6258   0.462   5.380   2.222
 1787SOL     OW 6259   2.727   1.473   6.347
 1787SOL    HW1 6260   2.651   1.495   6.409
 1787SOL    HW2 6261   2.760   1.557   6.304
 1788SOL     OW 6262   3.822   3.945   0.513
 1788SOL    HW1 6263   3.908   3.981   0.550
 1788SOL    HW2 6264   3.756   3.933   0.588
 1789SOL     OW 6265   5.964   3.261   4.009
 1789SOL    HW1 6266   6.026   3.252   3.931
 1789SOL    HW2 6267   5.899   3.185   4.009
 1790SOL     OW 6268   2.598   2.484   4.713
 1790SOL    HW1 6269   2.617   2.565   4.657
 1790SOL    HW2 6270   2.674   2.419   4.704
 1791SOL     OW 6271   6.373   0.293   3.016
 1791SOL    HW1 6272   6.460   0.253   2.990
 1791SOL    HW2 6273   6.304   0.271   2.947
 1792SOL     OW 6274   0.012   3.487   6.020
 1792SOL    HW1 6275   0.067   3.561   5.981
 1792SOL    HW2 6276   0.017   3.492   6.120
 1793SOL     OW 6277   1.106   2.767   5.234
 1793SOL    HW1 6278   1.099   2.857   5.278
 1793SOL    HW2 6279   1.065   2.772   5.143
 1794SOL     OW 6280   0.106   2.251   6.737
 1794SOL    HW1 6281   0.070   2.158   6.729
 1794SOL    HW2 6282   0.203   2.247   6.761
 1795SOL     OW 6283   5.573   3.560   0.922
 1795SOL    HW1 6284   5.572   3.492   0.849
 1795SOL    HW2 6285   5.665   3.566   0.961
 1796SOL     OW 6286   6.164   6.342   6.379
 1796SOL    HW1 6287   6.180   6.406   6.453
 1796SOL    HW2 6288   6.232   6.269   6.382
 1797SOL     OW 6289   3.082   6.608   5.342
 1797SOL    HW1 6290   3.090   6.508   5.338
 1797SOL    HW2 6291   2.985   6.633   5.349
 1798SOL     OW 6292   2.239   4.992   6.694
 1798SOL    HW1 6293   2.306   4.954   6.757
 1798SOL    HW2 6294   2.194   4.918   6.643
 1799SOL     OW 6295   3.412   1.745   1.486
 1799SOL    HW1 6296   3.509   1.770   1.485
 1799SOL    HW2 6297   3.356   1.827   1.491
 1800SOL     OW 6298   5.439   2.486   5.701
 1800SOL    HW1 6299   5.491   2.532   5.629
 1800SOL    HW2 6300   5.342   2.484   5.675
 1801SOL     OW 6301   1.329   2.155   2.647
 1801SOL    HW1 6302   1.311   2.076   2.705
 1801SOL    HW2 6303   1.308   2.131   2.552
 1802SOL     OW 6304   6.087   4.477   4.747
 1802SOL    HW1 6305   6.137   4.468   4.661
 1802SOL    HW2 6306   6.057   4.572   4.758
 1803SOL     OW 6307   5.830   6.456   3.888
 1803SOL    HW1 6308   5.771   6.472   3.809
 1803SOL    HW2 6309   5.818   6.362   3.919
 1804SOL     OW 6310   1.436   3.016   5.884
 1804SOL    HW1 6311   1.522   3.058   5.855
 1804SOL    HW2 6312   1.452   2.920   5.908
 1805SOL     OW 6313   6.682   5.049   6.373
 1805SOL    HW1 6314   6.621   4.974   6.397
 1805SOL    HW2 6315   6.773   5.014   6.353
 1806SOL     OW 6316   0.001   1.161   2.464
 1806SOL    HW1 6317   0.019   1.183   2.559
 1806SOL    HW2 6318   6.970   1.076   2.459
 1807SOL     OW 6319   6.428   2.722   2.723
 1807SOL    HW1 6320   6.425   2.751   2.627
 1807SOL    HW2 6321   6.475   2.792   2.777
 1808SOL     OW 6322   5.519   1.328   0.065
 1808SOL    HW1 6323   5.570   1.402   0.020
 1808SOL    HW2 6324   5.423   1.353   0.070
 1809SOL     OW 6325   4.359   1.009   5.150
 1809SOL    HW1 6326   4.327   1.098   5.180
 1809SOL    HW2 6327   4.316   0.985   5.063
 1810SOL     OW 6328   0.951   1.059   3.506
 1810SOL    HW1 6329   1.000   1.080   3.590
 1810SOL    HW2 6330   0.896   1.138   3.479
 1811SOL     OW 6331   2.814   5.093   1.440
 1811SOL    HW1 6332   2.868   5.054   1.515
 1811SOL    HW2 6333   2.871   5.099   1.358
 1812SOL     OW 6334   3.788   0.677   6.582
 1812SOL    HW1 6335   3.724   0.630   6.643
 1812SOL    HW2 6336   3.783   0.637   6.490
 1813SOL     OW 6337   5.280   3.460   1.671
 1813SOL    HW1 6338   5.224   3.539   1.698
 1813SOL    HW2 6339   5.353   3.447   1.738
 1814SOL     OW 6340   6.634   5.999   1.742
 1814SOL    HW1 6341   6.728   6.016   1.713
 1814SOL    HW2 6342   6.617   5.900   1.744
 1815SOL     OW 6343   6.239   6.139   1.310
 1815SOL    HW1 6344   6.301   6.065   1.334
 1815SOL    HW2 6345   6.226   6.199   1.389
 1816SOL     OW 6346   3.617   5.308   4.776
 1816SOL    HW1 6347   3.664   5.393   4.799
 1816SOL    HW2 6348   3.553   5.285   4.850
 1817SOL     OW 6349   6.683   2.684   4.845
 1817SOL    HW1 6350   6.653   2.589   4.854
 1817SOL    HW2 6351   6.645   2.723   4.761
 1818SOL     OW 6352   2.153   2.430   0.310
 1818SOL    HW1 6353   2.061   2.392   0.311
 1818SOL    HW2 6354   2.189   2.432   0.404
 1819SOL     OW 6355   0.874   3.705   0.797
 1819SOL    HW1 6356   0.859   3.740   0.704
 1819SOL    HW2 6357   0.867   3.781   0.862
 1820SOL     OW 6358   3.620   6.664   4.381
 1820SOL    HW1 6359   3.525   6.633   4.388
 1820SOL    HW2 6360   3.625   6.762   4.402
 1821SOL     OW 6361   4.002   1.212   2.668
 1821SOL    HW1 6362   3.967   1.181   2.756
 1821SOL    HW2 6363   3.995   1.312   2.662
 1822SOL     OW 6364   2.461   4.653   4.981
 1822SOL    HW1 6365   2.520   4.614   5.051
 1822SOL    HW2 6366   2.515   4.707   4.917
 1823SOL     OW 6367   4.890   6.808   4.870
 1823SOL    HW1 6368   4.816   6.766   4.924
 1823SOL    HW2 6369   4.883   6.778   4.775
 1824SOL     OW 6370   4.535   2.815   1.753
 1824SOL    HW1 6371   4.467   2.818   1.680
 1824SOL    HW2 6372   4.578   2.905   1.763
 1825SOL     OW 6373   1.512   3.333   0.325
 1825SOL    HW1 6374   1.487   3.289   0.239
 1825SOL    HW2 6375   1.435   3.324   0.390
 1826SOL     OW 6376   4.110   3.274   6.949
 1826SOL    HW1 6377   4.027   3.219   6.962
 1826SOL    HW2 6378   4.141   3.308   0.017
 1827SOL     OW 6379   5.238   4.562   0.397
 1827SOL    HW1 6380   5.285   4.629   0.339
 1827SOL    HW2 6381   5.303   4.522   0.461
 1828SOL     OW 6382   2.602   6.151   5.034
 1828SOL    HW1 6383   2.584   6.061   5.074
 1828SOL    HW2 6384   2.688   6.148   4.983
 1829SOL     OW 6385   2.472   5.675   2.454
 1829SOL    HW1 6386   2.400   5.607   2.467
 1829SOL    HW2 6387   2.496   5.680   2.357
 1830SOL     OW 6388   4.654   1.607   6.736
 1830SOL    HW1 6389   4.653   1.593   6.637
 1830SOL    HW2 6390   4.678   1.521   6.782
 1831SOL     OW 6391   3.348   3.828   6.732
 1831SOL    HW1 6392   3.447   3.844   6.725
 1831SOL    HW2 6393   3.327   3.788   6.821
 1832SOL     OW 6394   2.388   2.246   5.650
 1832SOL    HW1 6395   2.293   2.215   5.649
 1832SOL    HW2 6396   2.390   2.346   5.650
 1833SOL     OW 6397   5.936   2.002   0.431
 1833SOL    HW1 6398   5.873   1.994   0.508
 1833SOL    HW2 6399   5.885   2.024   0.348
 1834SOL     OW 6400   1.294   3.900   6.400
 1834SOL    HW1 6401   1.379   3.911   6.348
 1834SOL    HW2 6402   1.276   3.803   6.414
 1835SOL     OW 6403   6.259   0.799   6.390
 1835SOL    HW1 6404   6.258   0.726   6.459
 1835SOL    HW2 6405   6.216   0.766   6.306
 1836SOL     OW 6406   5.853   0.399   5.268
 1836SOL    HW1 6407   5.864   0.370   5.173
 1836SOL    HW2 6408   5.760   0.433   5.281
 1837SOL     OW 6409   1.145   1.833   1.591
 1837SOL    HW1 6410   1.054   1.816   1.554
 1837SOL    HW2 6411   1.214   1.814   1.521
 1838SOL     OW 6412   4.604   0.538   0.148
 1838SOL    HW1 6413   4.531   0.523   0.081
 1838SOL    HW2 6414   4.671   0.464   0.141
 1839SOL     OW 6415   0.349   2.382   6.740
 1839SOL    HW1 6416   0.286   2.436   6.795
 1839SOL    HW2 6417   0.436   2.371   6.790
 1840SOL     OW 6418   1.755   6.866   5.518
 1840SOL    HW1 6419   1.783   6.785   5.465
 1840SOL    HW2 6420   1.717   6.935   5.457
 1841SOL     OW 6421   1.942   7.015   1.208
 1841SOL    HW1 6422   2.019   7.009   1.271
 1841SOL    HW2 6423   1.938   0.086   1.169
 1842SOL     OW 6424   0.791   4.887   1.807
 1842SOL    HW1 6425   0.848   4.855   1.731
 1842SOL    HW2 6426   0.842   4.877   1.892
 1843SOL     OW 6427   3.624   0.526   6.695
 1843SOL    HW1 6428   3.675   0.455   6.743
 1843SOL    HW2 6429   3.544   0.486   6.649
 1844SOL     OW 6430   4.947   3.133   1.387
 1844SOL    HW1 6431   4.982   3.080   1.464
 1844SOL    HW2 6432   5.014   3.131   1.313
 1845SOL     OW 6433   0.482   2.453   4.606
 1845SOL    HW1 6434   0.454   2.369   4.653
 1845SOL    HW2 6435   0.402   2.500   4.571
 1846SOL     OW 6436   3.807   0.656   1.879
 1846SOL    HW1 6437   3.872   0.731   1.874
 1846SOL    HW2 6438   3.742   0.662   1.802
 1847SOL     OW 6439   2.836   6.064   6.975
 1847SOL    HW1 6440   2.747   6.108   6.987
 1847SOL    HW2 6441   2.841   6.026   6.883
 1848SOL     OW 6442   2.789   5.925   4.827
 1848SOL    HW1 6443   2.877   5.923   4.875
 1848SOL    HW2 6444   2.783   5.845   4.767
 1849SOL     OW 6445   4.859   2.995   2.620
 1849SOL    HW1 6446   4.911   2.978   2.537
 1849SOL    HW2 6447   4.778   2.937   2.621
 1850SOL     OW 6448   4.968   1.238   0.650
 1850SOL    HW1 6449   5.030   1.309   0.683
 1850SOL    HW2 6450   4.934   1.184   0.727
 1851SOL     OW 6451   2.103   4.926   3.422
 1851SOL    HW1 6452   2.126   4.983   3.344
 1851SOL    HW2 6453   2.004   4.918   3.430
 1852SOL     OW 6454   0.147   0.640   4.426
 1852SOL    HW1 6455   0.149   0.594   4.337
 1852SOL    HW2 6456   0.053   0.640   4.461
 1853SOL     OW 6457   0.920   2.279   4.726
 1853SOL    HW1 6458   1.015   2.248   4.729
 1853SOL    HW2 6459   0.911   2.365   4.777
 1854SOL     OW 6460   1.434   6.810   3.793
 1854SOL    HW1 6461   1.435   6.725   3.845
 1854SOL    HW2 6462   1.377   6.798   3.712
 1855SOL     OW 6463   6.646   1.410   5.271
 1855SOL    HW1 6464   6.598   1.382   5.354
 1855SOL    HW2 6465   6.606   1.364   5.192
 1856SOL     OW 6466   4.692   3.852   6.722
 1856SOL    HW1 6467   4.661   3.897   6.638
 1856SOL    HW2 6468   4.788   3.827   6.713
 1857SOL     OW 6469   4.596   1.110   6.858
 1857SOL    HW1 6470   4.644   1.031   6.817
 1857SOL    HW2 6471   4.511   1.079   6.900
 1858SOL     OW 6472   4.224   1.843   4.622
 1858SOL    HW1 6473   4.251   1.894   4.703
 1858SOL    HW2 6474   4.248   1.747   4.634
 1859SOL     OW 6475   6.677   5.724   3.588
 1859SOL    HW1 6476   6.677   5.642   3.530
 1859SOL    HW2 6477   6.712   5.802   3.536
 1860SOL     OW 6478   1.253   6.863   0.212
 1860SOL    HW1 6479   1.203   6.779   0.191
 1860SOL    HW2 6480   1.200   6.917   0.278
 1861SOL     OW 6481   6.283   0.135   5.214
 1861SOL    HW1 6482   6.255   0.187   5.132
 1861SOL    HW2 6483   6.306   0.042   5.187
 1862SOL     OW 6484   4.253   4.797   4.938
 1862SOL    HW1 6485   4.275   4.701   4.952
 1862SOL    HW2 6486   4.272   4.823   4.843
 1863SOL     OW 6487   6.743   1.177   0.794
 1863SOL    HW1 6488   6.807   1.127   0.736
 1863SOL    HW2 6489   6.651   1.169   0.757
 1864SOL     OW 6490   2.798   5.418   2.738
 1864SOL    HW1 6491   2.717   5.417   2.796
 1864SOL    HW2 6492   2.781   5.475   2.658
 1865SOL     OW 6493   6.171   2.717   6.432
 1865SOL    HW1 6494   6.154   2.619   6.441
 1865SOL    HW2 6495   6.243   2.733   6.363
 1866SOL     OW 6496   6.586   4.713   5.279
 1866SOL    HW1 6497   6.539   4.784   5.226
 1866SOL    HW2 6498   6.677   4.746   5.305
 1867SOL     OW 6499   1.101   7.020   0.395
 1867SOL    HW1 6500   1.172   0.069   0.395
 1867SOL    HW2 6501   1.013   0.039   0.371
 1868SOL     OW 6502   6.111   3.501   6.129
 1868SOL    HW1 6503   6.042   3.442   6.172
 1868SOL    HW2 6504   6.066   3.563   6.065
 1869SOL     OW 6505   4.300   1.132   5.606
 1869SOL    HW1 6506   4.357   1.213   5.597
 1869SOL    HW2 6507   4.204   1.159   5.609
 1870SOL     OW 6508   5.582   1.679   6.080
 1870SOL    HW1 6509   5.597   1.625   5.997
 1870SOL    HW2 6510   5.637   1.640   6.155
 1871SOL     OW 6511   2.707   4.391   0.301
 1871SOL    HW1 6512   2.778   4.407   0.233
 1871SOL    HW2 6513   2.669   4.479   0.331
 1872SOL     OW 6514   1.805   3.836   6.439
 1872SOL    HW1 6515   1.866   3.840   6.519
 1872SOL    HW2 6516   1.804   3.925   6.394
 1873SOL     OW 6517   5.730   0.833   2.414
 1873SOL    HW1 6518   5.687   0.877   2.493
 1873SOL    HW2 6519   5.660   0.790   2.358
 1874SOL     OW 6520   2.184   5.027   6.359
 1874SOL    HW1 6521   2.282   5.043   6.369
 1874SOL    HW2 6522   2.142   5.022   6.450
 1875SOL     OW 6523   1.565   6.951   1.874
 1875SOL    HW1 6524   1.492   7.011   1.906
 1875SOL    HW2 6525   1.532   6.856   1.876
 1876SOL     OW 6526   1.703   4.837   5.345
 1876SOL    HW1 6527   1.689   4.762   5.281
 1876SOL    HW2 6528   1.763   4.806   5.419
 1877SOL     OW 6529   0.391   1.165   3.481
 1877SOL    HW1 6530   0.379   1.094   3.411
 1877SOL    HW2 6531   0.310   1.169   3.539
 1878SOL     OW 6532   5.518   3.778   3.156
 1878SOL    HW1 6533   5.418   3.781   3.151
 1878SOL    HW2 6534   5.555   3.871   3.152
 1879SOL     OW 6535   3.791   6.527   5.093
 1879SOL    HW1 6536   3.750   6.510   5.183
 1879SOL    HW2 6537   3.755   6.462   5.027
 1880SOL     OW 6538   2.196   3.882   3.874
 1880SOL    HW1 6539   2.170   3.788   3.893
 1880SOL    HW2 6540   2.254   3.885   3.792
 1881SOL     OW 6541   3.129   2.142   2.844
 1881SOL    HW1 6542   3.052   2.192   2.883
 1881SOL    HW2 6543   3.153   2.181   2.756
 1882SOL     OW 6544   4.289   0.410   6.463
 1882SOL    HW1 6545   4.373   0.362   6.486
 1882SOL    HW2 6546   4.300   0.508   6.484
 1883SOL     OW 6547   1.738   3.657   3.162
 1883SOL    HW1 6548   1.815   3.693   3.110
 1883SOL    HW2 6549   1.746   3.684   3.258
 1884SOL     OW 6550   4.905   0.798   0.509
 1884SOL    HW1 6551   4.864   0.768   0.423
 1884SOL    HW2 6552   4.999   0.828   0.494
 1885SOL     OW 6553   6.514   1.384   1.235
 1885SOL    HW1 6554   6.542   1.293   1.264
 1885SOL    HW2 6555   6.595   1.441   1.222
 1886SOL     OW 6556   3.776   2.895   5.235
 1886SOL    HW1 6557   3.744   2.895   5.140
 1886SOL    HW2 6558   3.730   2.821   5.285
 1887SOL     OW 6559   0.733   5.965   5.665
 1887SOL    HW1 6560   0.828   5.940   5.647
 1887SOL    HW2 6561   0.672   5.895   5.628
 1888SOL     OW 6562   2.445   1.389   5.149
 1888SOL    HW1 6563   2.369   1.444   5.185
 1888SOL    HW2 6564   2.532   1.434   5.170
 1889SOL     OW 6565   3.877   3.763   6.621
 1889SOL    HW1 6566   3.791   3.712   6.610
 1889SOL    HW2 6567   3.869   3.826   6.698
 1890SOL     OW 6568   6.295   7.013   6.044
 1890SOL    HW1 6569   6.294   6.919   6.078
 1890SOL    HW2 6570   6.361   7.022   5.969
 1891SOL     OW 6571   5.065   3.549   0.042
 1891SOL    HW1 6572   5.155   3.510   0.021
 1891SOL    HW2 6573   5.044   3.621   6.997
 1892SOL     OW 6574   2.562   0.005   3.319
 1892SOL    HW1 6575   2.609   0.050   3.395
 1892SOL    HW2 6576   2.627   7.013   3.244
 1893SOL     OW 6577   2.746   2.691   6.636
 1893SOL    HW1 6578   2.832   2.645   6.660
 1893SOL    HW2 6579   2.684   2.625   6.595
 1894SOL     OW 6580   5.440   3.268   1.061
 1894SOL    HW1 6581   5.361   3.322   1.030
 1894SOL    HW2 6582   5.500   3.327   1.115
 1895SOL     OW 6583   4.109   6.405   3.105
 1895SOL    HW1 6584   4.113   6.377   3.201
 1895SOL    HW2 6585   4.043   6.479   3.095
 1896SOL     OW 6586   0.055   2.200   4.060
 1896SOL    HW1 6587   0.073   2.258   4.139
 1896SOL    HW2 6588   0.032   2.108   4.091
 1897SOL     OW 6589   5.394   5.542   3.454
 1897SOL    HW1 6590   5.329   5.614   3.474
 1897SOL    HW2 6591   5.346   5.461   3.420
 1898SOL     OW 6592   5.247   5.995   6.975
 1898SOL    HW1 6593   5.233   5.989   6.876
 1898SOL    HW2 6594   5.163   6.026   7.019
 1899SOL     OW 6595   1.519   3.196   4.076
 1899SOL    HW1 6596   1.518   3.130   4.001
 1899SOL    HW2 6597   1.445   3.175   4.139
 1900SOL     OW 6598   2.237   5.378   1.517
 1900SOL    HW1 6599   2.318   5.424   1.555
 1900SOL    HW2 6600   2.177   5.446   1.476
 1901SOL     OW 6601   0.259   1.503   0.164
 1901SOL    HW1 6602   0.285   1.545   0.251
 1901SOL    HW2 6603   0.223   1.572   0.102
 1902SOL     OW 6604   1.791   2.801   5.272
 1902SOL    HW1 6605   1.788   2.701   5.285
 1902SOL    HW2 6606   1.725   2.827   5.201
 1903SOL     OW 6607   0.018   5.922   4.069
 1903SOL    HW1 6608   0.076   5.841   4.069
 1903SOL    HW2 6609   6.943   5.894   4.070
 1904SOL     OW 6610   0.380   0.902   3.774
 1904SOL    HW1 6611   0.285   0.874   3.782
 1904SOL    HW2 6612   0.403   0.965   3.848
 1905SOL     OW 6613   5.958   2.882   6.380
 1905SOL    HW1 6614   6.002   2.960   6.337
 1905SOL    HW2 6615   6.025   2.808   6.392
 1906SOL     OW 6616   2.245   5.678   6.194
 1906SOL    HW1 6617   2.260   5.742   6.269
 1906SOL    HW2 6618   2.332   5.636   6.168
 1907SOL     OW 6619   3.978   0.945   2.514
 1907SOL    HW1 6620   3.966   1.022   2.577
 1907SOL    HW2 6621   4.018   0.978   2.429
 1908SOL     OW 6622   5.751   4.469   0.825
 1908SOL    HW1 6623   5.669   4.524   0.808
 1908SOL    HW2 6624   5.827   4.529   0.851
 1909SOL     OW 6625   5.009   5.344   4.643
 1909SOL    HW1 6626   4.946   5.411   4.605
 1909SOL    HW2 6627   4.959   5.263   4.673
 1910SOL     OW 6628   4.829   3.977   4.243
 1910SOL    HW1 6629   4.830   3.921   4.325
 1910SOL    HW2 6630   4.878   4.062   4.259
 1911SOL     OW 6631   0.941   2.516   5.780
 1911SOL    HW1 6632   0.987   2.429   5.798
 1911SOL    HW2 6633   0.964   2.581   5.852
 1912SOL     OW 6634   3.487   0.474   2.096
 1912SOL    HW1 6635   3.528   0.565   2.101
 1912SOL    HW2 6636   3.526   0.424   2.018
 1913SOL     OW 6637   2.931   3.515   0.110
 1913SOL    HW1 6638   2.915   3.559   0.199
 1913SOL    HW2 6639   2.897   3.421   0.113
 1914SOL     OW 6640   4.517   1.333   5.040
 1914SOL    HW1 6641   4.423   1.319   5.011
 1914SOL    HW2 6642   4.572   1.253   5.017
 1915SOL     OW 6643   2.783   6.722   4.886
 1915SOL    HW1 6644   2.878   6.718   4.856
 1915SOL    HW2 6645   2.735   6.793   4.833
 1916SOL     OW 6646   3.648   0.049   2.978
 1916SOL    HW1 6647   3.719   0.113   2.947
 1916SOL    HW2 6648   3.673   6.978   2.952
 1917SOL     OW 6649   3.480   3.852   3.141
 1917SOL    HW1 6650   3.456   3.782   3.208
 1917SOL    HW2 6651   3.435   3.938   3.165
 1918SOL     OW 6652   0.526   6.903   6.207
 1918SOL    HW1 6653   0.460   6.912   6.133
 1918SOL    HW2 6654   0.542   6.806   6.226
 1919SOL     OW 6655   5.283   0.844   1.857
 1919SOL    HW1 6656   5.361   0.880   1.908
 1919SOL    HW2 6657   5.235   0.920   1.812
 1920SOL     OW 6658   5.856   6.467   4.662
 1920SOL    HW1 6659   5.820   6.458   4.755
 1920SOL    HW2 6660   5.793   6.521   4.607
 1921SOL     OW 6661   2.431   6.953   0.266
 1921SOL    HW1 6662   2.515   7.000   0.238
 1921SOL    HW2 6663   2.357   7.020   0.276
 1922SOL     OW 6664   3.405   5.139   6.959
 1922SOL    HW1 6665   3.346   5.063   6.934
 1922SOL    HW2 6666   3.439   5.184   6.877
 1923SOL     OW 6667   1.534   2.580   1.638
 1923SOL    HW1 6668   1.529   2.544   1.731
 1923SOL    HW2 6669   1.559   2.676   1.640
 1924SOL     OW 6670   1.261   3.630   2.231
 1924SOL    HW1 6671   1.220   3.721   2.230
 1924SOL    HW2 6672   1.347   3.632   2.179
 1925SOL     OW 6673   3.002   4.826   0.336
 1925SOL    HW1 6674   2.949   4.873   0.265
 1925SOL    HW2 6675   3.087   4.791   0.296
 1926SOL     OW 6676   0.017   0.016   2.696
 1926SOL    HW1 6677   6.976   0.091   2.675
 1926SOL    HW2 6678   0.068   7.013   2.614
 1927SOL     OW 6679   5.475   3.137   1.409
 1927SOL    HW1 6680   5.406   3.068   1.433
 1927SOL    HW2 6681   5.495   3.132   1.312
 1928SOL     OW 6682   0.071   4.771   4.651
 1928SOL    HW1 6683   7.009   4.821   4.628
 1928SOL    HW2 6684   0.068   4.681   4.607
 1929SOL     OW 6685   1.744   4.564   3.192
 1929SOL    HW1 6686   1.799   4.580   3.110
 1929SOL    HW2 6687   1.670   4.500   3.170
 1930SOL     OW 6688   6.257   5.993   6.570
 1930SOL    HW1 6689   6.291   6.041   6.489
 1930SOL    HW2 6690   6.333   5.946   6.614
 1931SOL     OW 6691   2.258   2.909   3.873
 1931SOL    HW1 6692   2.276   2.960   3.789
 1931SOL    HW2 6693   2.235   2.973   3.946
 1932SOL     OW 6694   5.924   2.490   3.181
 1932SOL    HW1 6695   5.853   2.522   3.119
 1932SOL    HW2 6696   6.003   2.459   3.128
 1933SOL     OW 6697   2.478   4.864   0.402
 1933SOL    HW1 6698   2.480   4.868   0.502
 1933SOL    HW2 6699   2.522   4.780   0.371
 1934SOL     OW 6700   0.564   5.947   3.273
 1934SOL    HW1 6701   0.566   5.849   3.254
 1934SOL    HW2 6702   0.472   5.973   3.303
 1935SOL     OW 6703   0.437   1.328   2.381
 1935SOL    HW1 6704   0.375   1.389   2.332
 1935SOL    HW2 6705   0.450   1.361   2.475
 1936SOL     OW 6706   0.256   5.919   4.944
 1936SOL    HW1 6707   0.311   5.869   4.878
 1936SOL    HW2 6708   0.314   5.954   5.016
 1937SOL     OW 6709   5.128   1.866   3.606
 1937SOL    HW1 6710   5.148   1.787   3.549
 1937SOL    HW2 6711   5.211   1.894   3.655
 1938SOL     OW 6712   4.401   0.247   3.680
 1938SOL    HW1 6713   4.332   0.228   3.610
 1938SOL    HW2 6714   4.355   0.275   3.765
 1939SOL     OW 6715   2.534   1.065   4.158
 1939SOL    HW1 6716   2.507   1.156   4.191
 1939SOL    HW2 6717   2.609   1.030   4.214
 1940SOL     OW 6718   6.498   1.022   6.599
 1940SOL    HW1 6719   6.433   1.036   6.673
 1940SOL    HW2 6720   6.589   1.002   6.638
 1941SOL     OW 6721   4.650   4.817   2.383
 1941SOL    HW1 6722   4.642   4.786   2.478
 1941SOL    HW2 6723   4.718   4.762   2.335
 1942SOL     OW 6724   0.095   3.470   2.461
 1942SOL    HW1 6725   0.169   3.532   2.486
 1942SOL    HW2 6726   0.088   3.397   2.528
 1943SOL     OW 6727   4.220   5.370   3.524
 1943SOL    HW1 6728   4.303   5.319   3.546
 1943SOL    HW2 6729   4.185   5.414   3.607
 1944SOL     OW 6730   6.378   6.563   2.218
 1944SOL    HW1 6731   6.290   6.529   2.182
 1944SOL    HW2 6732   6.452   6.505   2.183
 1945SOL     OW 6733   3.738   5.259   2.399
 1945SOL    HW1 6734   3.647   5.287   2.367
 1945SOL    HW2 6735   3.729   5.213   2.487
 1946SOL     OW 6736   1.374   6.730   6.618
 1946SOL    HW1 6737   1.297   6.789   6.593
 1946SOL    HW2 6738   1.460   6.779   6.601
 1947SOL     OW 6739   4.299   1.190   3.919
 1947SOL    HW1 6740   4.371   1.184   3.849
 1947SOL    HW2 6741   4.319   1.266   3.981
 1948SOL     OW 6742   6.496   2.810   5.283
 1948SOL    HW1 6743   6.514   2.729   5.227
 1948SOL    HW2 6744   6.570   2.821   5.350
 1949SOL     OW 6745   4.543   3.618   6.946
 1949SOL    HW1 6746   4.621   3.664   6.988
 1949SOL    HW2 6747   4.461   3.675   6.956
 1950SOL     OW 6748   2.518   4.747   0.649
 1950SOL    HW1 6749   2.597   4.803   0.673
 1950SOL    HW2 6750   2.437   4.779   0.699
 1951SOL     OW 6751   5.592   2.950   6.685
 1951SOL    HW1 6752   5.632   2.859   6.671
 1951SOL    HW2 6753   5.525   2.969   6.613
 1952SOL     OW 6754   3.203   3.240   3.162
 1952SOL    HW1 6755   3.249   3.151   3.151
 1952SOL    HW2 6756   3.126   3.230   3.224
 1953SOL     OW 6757   1.111   2.095   4.224
 1953SOL    HW1 6758   1.024   2.146   4.218
 1953SOL    HW2 6759   1.093   2.002   4.256
 1954SOL     OW 6760   2.468   1.917   3.983
 1954SOL    HW1 6761   2.557   1.948   4.016
 1954SOL    HW2 6762   2.451   1.955   3.892
 1955SOL     OW 6763   6.735   5.434   2.830
 1955SOL    HW1 6764   6.802   5.369   2.866
 1955SOL    HW2 6765   6.654   5.436   2.889
 1956SOL     OW 6766   3.907   6.260   3.787
 1956SOL    HW1 6767   3.834   6.326   3.768
 1956SOL    HW2 6768   3.996   6.302   3.773
 1957SOL     OW 6769   2.376   6.340   5.967
 1957SOL    HW1 6770   2.385   6.297   6.057
 1957SOL    HW2 6771   2.352   6.271   5.900
 1958SOL     OW 6772   4.018   3.459   6.050
 1958SOL    HW1 6773   4.083   3.421   5.983
 1958SOL    HW2 6774   4.001   3.391   6.121
 1959SOL     OW 6775   3.343   0.060   0.840
 1959SOL    HW1 6776   3.399   0.058   0.923
 1959SOL    HW2 6777   3.252   0.023   0.861
 1960SOL     OW 6778   4.774   5.892   3.038
 1960SOL    HW1 6779   4.807   5.972   2.989
 1960SOL    HW2 6780   4.837   5.816   3.024
 1961SOL     OW 6781   5.969   5.232   5.445
 1961SOL    HW1 6782   5.928   5.259   5.358
 1961SOL    HW2 6783   6.027   5.152   5.431
 1962SOL     OW 6784   0.605   6.440   4.293
 1962SOL    HW1 6785   0.641   6.351   4.265
 1962SOL    HW2 6786   0.677   6.509   4.286
 1963SOL     OW 6787   2.738   2.012   4.000
 1963SOL    HW1 6788   2.754   2.073   3.923
 1963SOL    HW2 6789   2.825   1.984   4.040
 1964SOL     OW 6790   6.704   2.537   2.511
 1964SOL    HW1 6791   6.637   2.464   2.520
 1964SOL    HW2 6792   6.728   2.549   2.414
 1965SOL     OW 6793   1.692   6.337   3.464
 1965SOL    HW1 6794   1.787   6.308   3.451
 1965SOL    HW2 6795   1.690   6.419   3.521
 1966SOL     OW 6796   6.883   5.964   0.295
 1966SOL    HW1 6797   6.801   6.017   0.275
 1966SOL    HW2 6798   6.857   5.868   0.308
 1967SOL     OW 6799   0.171   2.445   4.695
 1967SOL    HW1 6800   0.118   2.382   4.637
 1967SOL    HW2 6801   0.116   2.470   4.775
 1968SOL     OW 6802   4.621   5.643   4.695
 1968SOL    HW1 6803   4.613   5.659   4.793
 1968SOL    HW2 6804   4.608   5.546   4.675
 1969SOL     OW 6805   6.077   0.962   1.216
 1969SOL    HW1 6806   6.081   0.914   1.304
 1969SOL    HW2 6807   6.167   0.999   1.195
 1970SOL     OW 6808   2.247   1.344   4.516
 1970SOL    HW1 6809   2.221   1.255   4.479
 1970SOL    HW2 6810   2.217   1.416   4.455
 1971SOL     OW 6811   0.043   1.530   5.661
 1971SOL    HW1 6812   0.036   1.510   5.563
 1971SOL    HW2 6813   0.080   1.622   5.674
 1972SOL     OW 6814   0.929   6.417   4.128
 1972SOL    HW1 6815   1.023   6.388   4.114
 1972SOL    HW2 6816   0.924   6.476   4.210
 1973SOL     OW 6817   3.469   2.888   0.018
 1973SOL    HW1 6818   3.492   2.923   6.949
 1973SOL    HW2 6819   3.405   2.951   0.063
 1974SOL     OW 6820   6.018   6.516   4.126
 1974SOL    HW1 6821   5.967   6.464   4.195
 1974SOL    HW2 6822   5.972   6.509   4.038
 1975SOL     OW 6823   2.560   0.005   3.661
 1975SOL    HW1 6824   2.478   0.060   3.644
 1975SOL    HW2 6825   2.636   0.041   3.607
 1976SOL     OW 6826   6.172   4.304   6.557
 1976SOL    HW1 6827   6.139   4.323   6.464
 1976SOL    HW2 6828   6.222   4.384   6.591
 1977SOL     OW 6829   2.970   2.392   5.300
 1977SOL    HW1 6830   3.070   2.385   5.290
 1977SOL    HW2 6831   2.927   2.375   5.211
 1978SOL     OW 6832   0.355   2.505   5.031
 1978SOL    HW1 6833   0.363   2.544   4.940
 1978SOL    HW2 6834   0.307   2.417   5.026
 1979SOL     OW 6835   6.733   4.291   2.132
 1979SOL    HW1 6836   6.762   4.205   2.091
 1979SOL    HW2 6837   6.809   4.331   2.184
 1980SOL     OW 6838   2.466   0.545   2.821
 1980SOL    HW1 6839   2.464   0.624   2.882
 1980SOL    HW2 6840   2.377   0.533   2.777
 1981SOL     OW 6841   5.751   3.135   2.743
 1981SOL    HW1 6842   5.756   3.138   2.843
 1981SOL    HW2 6843   5.705   3.051   2.715
 1982SOL     OW 6844   0.383   6.856   5.128
 1982SOL    HW1 6845   0.392   6.760   5.156
 1982SOL    HW2 6846   0.307   6.898   5.177
 1983SOL     OW 6847   1.247   5.428   1.434
 1983SOL    HW1 6848   1.317   5.366   1.468
 1983SOL    HW2 6849   1.197   5.468   1.511
 1984SOL     OW 6850   3.887   0.437   5.895
 1984SOL    HW1 6851   3.793   0.433   5.861
 1984SOL    HW2 6852   3.916   0.533   5.900
 1985SOL     OW 6853   1.159   5.151   1.991
 1985SOL    HW1 6854   1.188   5.173   2.084
 1985SOL    HW2 6855   1.145   5.052   1.983
 1986SOL     OW 6856   5.526   2.219   1.625
 1986SOL    HW1 6857   5.481   2.134   1.599
 1986SOL    HW2 6858   5.552   2.270   1.543
 1987SOL     OW 6859   1.829   2.749   0.786
 1987SOL    HW1 6860   1.732   2.766   0.768
 1987SOL    HW2 6861   1.871   2.831   0.825
 1988SOL     OW 6862   5.117   2.597   1.360
 1988SOL    HW1 6863   5.089   2.689   1.330
 1988SOL    HW2 6864   5.129   2.597   1.459
 1989SOL     OW 6865   2.442   2.292   3.197
 1989SOL    HW1 6866   2.356   2.318   3.242
 1989SOL    HW2 6867   2.518   2.308   3.260
 1990SOL     OW 6868   1.316   6.794   3.195
 1990SOL    HW1 6869   1.321   6.888   3.159
 1990SOL    HW2 6870   1.297   6.731   3.120
 1991SOL     OW 6871   5.242   5.740   2.345
 1991SOL    HW1 6872   5.265   5.837   2.343
 1991SOL    HW2 6873   5.298   5.691   2.279
 1992SOL     OW 6874   2.329   5.909   5.417
 1992SOL    HW1 6875   2.314   5.952   5.506
 1992SOL    HW2 6876   2.350   5.812   5.430
 1993SOL     OW 6877   3.302   3.607   3.970
 1993SOL    HW1 6878   3.345   3.677   3.914
 1993SOL    HW2 6879   3.351   3.598   4.057
 1994SOL     OW 6880   6.273   1.987   1.282
 1994SOL    HW1 6881   6.364   2.027   1.273
 1994SOL    HW2 6882   6.278   1.889   1.265
 1995SOL     OW 6883   4.062   2.850   1.724
 1995SOL    HW1 6884   4.033   2.923   1.662
 1995SOL    HW2 6885   3.998   2.773   1.718
 1996SOL     OW 6886   2.028   5.640   6.043
 1996SOL    HW1 6887   2.109   5.645   6.100
 1996SOL    HW2 6888   1.996   5.546   6.037
 1997SOL     OW 6889   6.174   6.586   5.013
 1997SOL    HW1 6890   6.098   6.627   4.962
 1997SOL    HW2 6891   6.150   6.582   5.110
 1998SOL     OW 6892   3.525   5.061   4.736
 1998SOL    HW1 6893   3.561   5.011   4.815
 1998SOL    HW2 6894   3.575   5.147   4.726
 1999SOL     OW 6895   3.305   0.744   2.051
 1999SOL    HW1 6896   3.308   0.844   2.056
 1999SOL    HW2 6897   3.226   0.711   2.103
 2000SOL     OW 6898   2.893   0.969   6.560
 2000SOL    HW1 6899   2.830   0.901   6.523
 2000SOL    HW2 6900   2.842   1.043   6.603
 2001SOL     OW 6901   2.207   3.273   6.913
 2001SOL    HW1 6902   2.167   3.268   6.822
 2001SOL    HW2 6903   2.158   3.211   6.974
 2002SOL     OW 6904   2.574   5.047   5.168
 2002SOL    HW1 6905   2.641   5.024   5.098
 2002SOL    HW2 6906   2.610   5.024   5.259
 2003SOL     OW 6907   6.209   4.231   4.031
 2003SOL    HW1 6908   6.136   4.167   4.056
 2003SOL    HW2 6909   6.225   4.227   3.933
 2004SOL     OW 6910   3.079   6.933   6.420
 2004SOL    HW1 6911   3.053   6.934   6.324
 2004SOL    HW2 6912   3.172   6.896   6.429
 2005SOL     OW 6913   2.512   6.997   5.511
 2005SOL    HW1 6914   2.493   6.912   5.462
 2005SOL    HW2 6915   2.610   7.008   5.521
 2006SOL     OW 6916   4.706   0.310   2.019
 2006SOL    HW1 6917   4.640   0.356   1.960
 2006SOL    HW2 6918   4.798   0.335   1.992
 2007SOL     OW 6919   6.467   5.564   0.361
 2007SOL    HW1 6920   6.378   5.520   0.346
 2007SOL    HW2 6921   6.530   5.538   0.287
 2008SOL     OW 6922   0.275   5.855   5.801
 2008SOL    HW1 6923   0.357   5.906   5.774
 2008SOL    HW2 6924   0.300   5.762   5.825
 2009SOL     OW 6925   1.117   0.227   0.067
 2009SOL    HW1 6926   1.210   0.190   0.057
 2009SOL    HW2 6927   1.097   0.241   0.164
 2010SOL     OW 6928   2.777   0.924   0.679
 2010SOL    HW1 6929   2.760   0.881   0.590
 2010SOL    HW2 6930   2.844   0.870   0.730
 2011SOL     OW 6931   0.232   1.877   4.935
 2011SOL    HW1 6932   0.325   1.879   4.971
 2011SOL    HW2 6933   0.172   1.831   5.000
 2012SOL     OW 6934   0.019   3.311   2.271
 2012SOL    HW1 6935   6.958   3.267   2.305
 2012SOL    HW2 6936   0.047   3.383   2.334
 2013SOL     OW 6937   3.393   2.262   1.726
 2013SOL    HW1 6938   3.403   2.208   1.809
 2013SOL    HW2 6939   3.463   2.334   1.723
 2014SOL     OW 6940   3.755   4.876   3.603
 2014SOL    HW1 6941   3.697   4.795   3.610
 2014SOL    HW2 6942   3.806   4.873   3.517
 2015SOL     OW 6943   2.882   5.268   6.865
 2015SOL    HW1 6944   2.869   5.307   6.774
 2015SOL    HW2 6945   2.958   5.314   6.911
 2016SOL     OW 6946   6.765   5.716   5.145
 2016SOL    HW1 6947   6.668   5.706   5.124
 2016SOL    HW2 6948   6.811   5.762   5.069
 2017SOL     OW 6949   2.309   4.826   1.925
 2017SOL    HW1 6950   2.370   4.898   1.889
 2017SOL    HW2 6951   2.364   4.756   1.969
 2018SOL     OW 6952   0.431   4.818   4.445
 2018SOL    HW1 6953   0.465   4.726   4.431
 2018SOL    HW2 6954   0.358   4.837   4.379
 2019SOL     OW 6955   5.699   0.885   2.896
 2019SOL    HW1 6956   5.789   0.841   2.903
 2019SOL    HW2 6957   5.676   0.898   2.800
 2020SOL     OW 6958   2.179   5.366   3.292
 2020SOL    HW1 6959   2.096   5.353   3.346
 2020SOL    HW2 6960   2.156   5.407   3.204
 2021SOL     OW 6961   1.742   6.701   1.672
 2021SOL    HW1 6962   1.739   6.789   1.625
 2021SOL    HW2 6963   1.817   6.646   1.636
 2022SOL     OW 6964   4.250   5.402   1.615
 2022SOL    HW1 6965   4.160   5.361   1.605
 2022SOL    HW2 6966   4.283   5.388   1.708
 2023SOL     OW 6967   0.489   2.643   6.230
 2023SOL    HW1 6968   0.550   2.572   6.195
 2023SOL    HW2 6969   0.407   2.648   6.174
 2024SOL     OW 6970   5.391   6.645   3.611
 2024SOL    HW1 6971   5.416   6.642   3.514
 2024SOL    HW2 6972   5.458   6.594   3.665
 2025SOL     OW 6973   6.245   1.087   0.916
 2025SOL    HW1 6974   6.292   1.084   1.005
 2025SOL    HW2 6975   6.159   1.137   0.925
 2026SOL     OW 6976   2.197   1.929   4.927
 2026SOL    HW1 6977   2.233   1.926   5.020
 2026SOL    HW2 6978   2.118   1.990   4.924
 2027SOL     OW 6979   6.229   6.955   2.289
 2027SOL    HW1 6980   6.174   6.985   2.367
 2027SOL    HW2 6981   6.285   0.009   2.256
 2028SOL     OW 6982   3.848   4.143   5.657
 2028SOL    HW1 6983   3.908   4.068   5.630
 2028SOL    HW2 6984   3.900   4.211   5.708
 2029SOL     OW 6985   2.077   0.147   6.789
 2029SOL    HW1 6986   2.035   0.128   6.877
 2029SOL    HW2 6987   2.131   0.231   6.795
 2030SOL     OW 6988   2.027   2.632   2.821
 2030SOL    HW1 6989   2.004   2.664   2.729
 2030SOL    HW2 6990   2.127   2.632   2.832
 2031SOL     OW 6991   6.023   0.001   2.472
 2031SOL    HW1 6992   5.995   0.028   2.564
 2031SOL    HW2 6993   5.954   0.030   2.406
 2032SOL     OW 6994   4.341   6.466   2.367
 2032SOL    HW1 6995   4.258   6.414   2.385
 2032SOL    HW2 6996   4.385   6.489   2.454
 2033SOL     OW 6997   0.027   4.994   0.190
 2033SOL    HW1 6998   7.005   4.908   0.217
 2033SOL    HW2 6999   0.125   4.979   0.178
 2034SOL     OW 7000   2.071   5.414   3.663
 2034SOL    HW1 7001   2.104   5.427   3.756
 2034SOL    HW2 7002   2.078   5.317   3.638
 2035SOL     OW 7003   0.638   0.405   2.725
 2035SOL    HW1 7004   0.693   0.467   2.781
 2035SOL    HW2 7005   0.622   0.319   2.774
 2036SOL     OW 7006   1.271   4.377   2.136
 2036SOL    HW1 7007   1.220   4.441   2.078
 2036SOL    HW2 7008   1.325   4.316   2.079
 2037SOL     OW 7009   0.929   2.943   5.682
 2037SOL    HW1 7010   0.968   2.916   5.770
 2037SOL    HW2 7011   0.865   3.018   5.695
 2038SOL     OW 7012   1.902   6.244   5.152
 2038SOL    HW1 7013   1.893   6.344   5.150
 2038SOL    HW2 7014   1.914   6.210   5.060
 2039SOL     OW 7015   1.263   5.292   1.796
 2039SOL    HW1 7016   1.314   5.364   1.843
 2039SOL    HW2 7017   1.224   5.229   1.863
 2040SOL     OW 7018   3.857   3.025   4.653
 2040SOL    HW1 7019   3.923   3.100   4.659
 2040SOL    HW2 7020   3.833   2.994   4.745
 2041SOL     OW 7021   5.211   3.002   0.225
 2041SOL    HW1 7022   5.123   2.954   0.228
 2041SOL    HW2 7023   5.224   3.053   0.309
 2042SOL     OW 7024   4.067   6.781   0.407
 2042SOL    HW1 7025   4.079   6.758   0.310
 2042SOL    HW2 7026   3.979   6.745   0.438
 2043SOL     OW 7027   5.100   5.411   2.706
 2043SOL    HW1 7028   5.118   5.329   2.652
 2043SOL    HW2 7029   5.125   5.394   2.802
 2044SOL     OW 7030   6.177   1.150   1.817
 2044SOL    HW1 7031   6.086   1.142   1.858
 2044SOL    HW2 7032   6.191   1.244   1.786
 2045SOL     OW 7033   3.411   6.570   5.363
 2045SOL    HW1 7034   3.385   6.661   5.329
 2045SOL    HW2 7035   3.373   6.557   5.455
 2046SOL     OW 7036   6.403   0.637   5.349
 2046SOL    HW1 7037   6.459   0.597   5.277
 2046SOL    HW2 7038   6.461   0.677   5.419
 2047SOL     OW 7039   5.470   3.276   0.108
 2047SOL    HW1 7040   5.421   3.334   0.173
 2047SOL    HW2 7041   5.403   3.226   0.052
 2048SOL     OW 7042   4.732   6.131   5.475
 2048SOL    HW1 7043   4.635   6.135   5.502
 2048SOL    HW2 7044   4.762   6.222   5.446
 2049SOL     OW 7045   5.570   5.965   6.983
 2049SOL    HW1 7046   5.601   6.042   6.927
 2049SOL    HW2 7047   5.486   5.927   6.945
 2050SOL     OW 7048   5.709   1.074   3.794
 2050SOL    HW1 7049   5.655   1.036   3.719
 2050SOL    HW2 7050   5.806   1.060   3.776
 2051SOL     OW 7051   3.134   6.086   0.887
 2051SOL    HW1 7052   3.117   6.041   0.974
 2051SOL    HW2 7053   3.146   6.184   0.902
 2052SOL     OW 7054   1.052   2.270   1.281
 2052SOL    HW1 7055   1.083   2.203   1.213
 2052SOL    HW2 7056   1.101   2.356   1.269
 2053SOL     OW 7057   5.258   0.651   0.010
 2053SOL    HW1 7058   5.323   0.677   6.960
 2053SOL    HW2 7059   5.169   0.634   6.991
 2054SOL     OW 7060   0.617   2.963   0.711
 2054SOL    HW1 7061   0.617   2.904   0.792
 2054SOL    HW2 7062   0.709   2.998   0.695
 2055SOL     OW 7063   6.453   1.074   4.629
 2055SOL    HW1 7064   6.365   1.076   4.582
 2055SOL    HW2 7065   6.499   1.162   4.617
 2056SOL     OW 7066   6.740   6.683   2.091
 2056SOL    HW1 7067   6.667   6.726   2.145
 2056SOL    HW2 7068   6.812   6.651   2.152
 2057SOL     OW 7069   4.906   3.180   3.636
 2057SOL    HW1 7070   4.861   3.115   3.574
 2057SOL    HW2 7071   4.888   3.152   3.730
 2058SOL     OW 7072   1.069   1.015   1.660
 2058SOL    HW1 7073   1.031   0.939   1.606
 2058SOL    HW2 7074   1.167   1.022   1.643
 2059SOL     OW 7075   1.683   0.127   0.125
 2059SOL    HW1 7076   1.601   0.099   0.175
 2059SOL    HW2 7077   1.758   0.143   0.189
 2060SOL     OW 7078   0.711   4.782   3.337
 2060SOL    HW1 7079   0.718   4.716   3.262
 2060SOL    HW2 7080   0.771   4.859   3.319
 2061SOL     OW 7081   1.034   0.741   0.470
 2061SOL    HW1 7082   1.073   0.809   0.409
 2061SOL    HW2 7083   1.052   0.649   0.434
 2062SOL     OW 7084   3.777   0.169   3.480
 2062SOL    HW1 7085   3.764   0.091   3.419
 2062SOL    HW2 7086   3.761   0.254   3.430
 2063SOL     OW 7087   2.406   3.119   1.030
 2063SOL    HW1 7088   2.350   3.200   1.048
 2063SOL    HW2 7089   2.409   3.061   1.111
 2064SOL     OW 7090   0.656   1.645   1.271
 2064SOL    HW1 7091   0.668   1.667   1.368
 2064SOL    HW2 7092   0.682   1.724   1.216
 2065SOL     OW 7093   0.031   3.187   3.294
 2065SOL    HW1 7094   0.037   3.204   3.392
 2065SOL    HW2 7095   0.104   3.236   3.247
 2066SOL     OW 7096   0.861   5.744   3.417
 2066SOL    HW1 7097   0.936   5.801   3.383
 2066SOL    HW2 7098   0.854   5.754   3.516
 2067SOL     OW 7099   6.592   0.524   0.581
 2067SOL    HW1 7100   6.518   0.470   0.620
 2067SOL    HW2 7101   6.656   0.464   0.533
 2068SOL     OW 7102   2.511   2.004   5.522
 2068SOL    HW1 7103   2.474   2.083   5.571
 2068SOL    HW2 7104   2.581   1.960   5.578
 2069SOL     OW 7105   2.314   1.947   1.686
 2069SOL    HW1 7106   2.334   1.875   1.620
 2069SOL    HW2 7107   2.328   1.912   1.779
 2070SOL     OW 7108   0.893   2.029   2.623
 2070SOL    HW1 7109   0.858   1.936   2.618
 2070SOL    HW2 7110   0.956   2.038   2.700
 2071SOL     OW 7111   2.675   6.074   5.743
 2071SOL    HW1 7112   2.621   6.121   5.674
 2071SOL    HW2 7113   2.666   6.120   5.831
 2072SOL     OW 7114   5.308   4.273   2.729
 2072SOL    HW1 7115   5.219   4.287   2.685
 2072SOL    HW2 7116   5.378   4.262   2.659
 2073SOL     OW 7117   3.266   0.007   5.097
 2073SOL    HW1 7118   3.256   6.961   5.169
 2073SOL    HW2 7119   3.212   7.002   5.017
 2074SOL     OW 7120   4.581   1.701   3.337
 2074SOL    HW1 7121   4.653   1.634   3.359
 2074SOL    HW2 7122   4.582   1.719   3.239
 2075SOL     OW 7123   3.717   2.535   5.815
 2075SOL    HW1 7124   3.626   2.576   5.825
 2075SOL    HW2 7125   3.787   2.606   5.825
 2076SOL     OW 7126   4.772   6.310   0.224
 2076SOL    HW1 7127   4.719   6.360   0.293
 2076SOL    HW2 7128   4.820   6.234   0.268
 2077SOL     OW 7129   3.792   1.306   5.150
 2077SOL    HW1 7130   3.847   1.223   5.153
 2077SOL    HW2 7131   3.834   1.371   5.086
 2078SOL     OW 7132   4.132   6.450   3.785
 2078SOL    HW1 7133   4.143   6.542   3.821
 2078SOL    HW2 7134   4.100   6.389   3.857
 2079SOL     OW 7135   5.142   0.019   3.861
 2079SOL    HW1 7136   5.227   0.024   3.808
 2079SOL    HW2 7137   5.141   0.092   3.930
 2080SOL     OW 7138   3.171   1.771   2.635
 2080SOL    HW1 7139   3.198   1.677   2.617
 2080SOL    HW2 7140   3.124   1.776   2.723
 2081SOL     OW 7141   1.262   5.688   3.094
 2081SOL    HW1 7142   1.278   5.772   3.041
 2081SOL    HW2 7143   1.349   5.657   3.133
 2082SOL     OW 7144   4.606   0.986   2.743
 2082SOL    HW1 7145   4.658   1.024   2.819
 2082SOL    HW2 7146   4.664   0.926   2.689
 2083SOL     OW 7147   3.640   4.174   5.872
 2083SOL    HW1 7148   3.684   4.258   5.840
 2083SOL    HW2 7149   3.560   4.197   5.927
 2084SOL     OW 7150   0.469   2.366   3.519
 2084SOL    HW1 7151   0.401   2.418   3.571
 2084SOL    HW2 7152   0.481   2.408   3.429
 2085SOL     OW 7153   5.985   6.931   0.504
 2085SOL    HW1 7154   5.968   6.942   0.602
 2085SOL    HW2 7155   6.018   7.018   0.466
 2086SOL     OW 7156   3.272   5.957   6.566
 2086SOL    HW1 7157   3.310   6.003   6.486
 2086SOL    HW2 7158   3.285   6.015   6.647
 2087SOL     OW 7159   6.288   5.536   2.489
 2087SOL    HW1 7160   6.377   5.514   2.449
 2087SOL    HW2 7161   6.215   5.503   2.429
 2088SOL     OW 7162   2.206   6.279   1.248
 2088SOL    HW1 7163   2.124   6.272   1.192
 2088SOL    HW2 7164   2.181   6.282   1.345
 2089SOL     OW 7165   2.160   0.860   6.813
 2089SOL    HW1 7166   2.061   0.872   6.805
 2089SOL    HW2 7167   2.206   0.948   6.802
 2090SOL     OW 7168   2.914   3.451   3.428
 2090SOL    HW1 7169   2.889   3.532   3.376
 2090SOL    HW2 7170   2.989   3.473   3.491
 2091SOL     OW 7171   2.428   4.032   1.278
 2091SOL    HW1 7172   2.369   3.990   1.208
 2091SOL    HW2 7173   2.397   4.125   1.295
 2092SOL     OW 7174   5.720   0.179   0.343
 2092SOL    HW1 7175   5.684   0.232   0.420
 2092SOL    HW2 7176   5.648   0.123   0.304
 2093SOL     OW 7177   0.929   1.361   2.210
 2093SOL    HW1 7178   0.866   1.308   2.266
 2093SOL    HW2 7179   0.981   1.423   2.269
 2094SOL     OW 7180   0.213   0.871   2.423
 2094SOL    HW1 7181   0.222   0.953   2.367
 2094SOL    HW2 7182   0.128   0.874   2.474
 2095SOL     OW 7183   6.597   4.158   4.969
 2095SOL    HW1 7184   6.677   4.113   5.010
 2095SOL    HW2 7185   6.627   4.241   4.921
 2096SOL     OW 7186   4.948   4.424   3.540
 2096SOL    HW1 7187   4.977   4.364   3.614
 2096SOL    HW2 7188   5.017   4.495   3.525
 2097SOL     OW 7189   6.668   3.463   5.209
 2097SOL    HW1 7190   6.766   3.476   5.197
 2097SOL    HW2 7191   6.646   3.366   5.198
 2098SOL     OW 7192   4.743   0.230   4.387
 2098SOL    HW1 7193   4.790   0.192   4.467
 2098SOL    HW2 7194   4.735   0.329   4.396
 2099SOL     OW 7195   3.046   1.517   3.825
 2099SOL    HW1 7196   3.035   1.538   3.922
 2099SOL    HW2 7197   3.143   1.518   3.801
 2100SOL     OW 7198   4.498   4.267   5.773
 2100SOL    HW1 7199   4.465   4.176   5.798
 2100SOL    HW2 7200   4.591   4.260   5.739
 2101SOL     OW 7201   5.645   0.140   1.943
 2101SOL    HW1 7202   5.604   0.091   1.866
 2101SOL    HW2 7203   5.579   0.206   1.979
 2102SOL     OW 7204   6.962   5.281   1.138
 2102SOL    HW1 7205   6.914   5.245   1.218
 2102SOL    HW2 7206   6.914   5.362   1.104
 2103SOL     OW 7207   3.675   3.642   6.503
 2103SOL    HW1 7208   3.735   3.606   6.432
 2103SOL    HW2 7209   3.592   3.587   6.509
 2104SOL     OW 7210   0.214   5.060   6.366
 2104SOL    HW1 7211   0.283   5.019   6.426
 2104SOL    HW2 7212   0.230   5.030   6.272
 2105SOL     OW 7213   4.890   6.285   2.102
 2105SOL    HW1 7214   4.960   6.233   2.053
 2105SOL    HW2 7215   4.808   6.229   2.111
 2106SOL     OW 7216   6.407   6.564   6.748
 2106SOL    HW1 7217   6.436   6.484   6.696
 2106SOL    HW2 7218   6.405   6.644   6.687
 2107SOL     OW 7219   2.573   5.014   6.664
 2107SOL    HW1 7220   2.575   5.032   6.763
 2107SOL    HW2 7221   2.607   4.922   6.646
 2108SOL     OW 7222   5.431   4.658   6.656
 2108SOL    HW1 7223   5.456   4.707   6.572
 2108SOL    HW2 7224   5.477   4.701   6.734
 2109SOL     OW 7225   5.264   5.663   2.609
 2109SOL    HW1 7226   5.343   5.603   2.620
 2109SOL    HW2 7227   5.266   5.705   2.518
 2110SOL     OW 7228   1.438   5.410   5.654
 2110SOL    HW1 7229   1.459   5.461   5.738
 2110SOL    HW2 7230   1.481   5.320   5.658
 2111SOL     OW 7231   1.453   1.648   6.670
 2111SOL    HW1 7232   1.480   1.577   6.605
 2111SOL    HW2 7233   1.497   1.735   6.644
 2112SOL     OW 7234   5.034   3.889   0.256
 2112SOL    HW1 7235   5.030   3.913   0.159
 2112SOL    HW2 7236   4.945   3.908   0.298
 2113SOL     OW 7237   6.469   1.354   3.989
 2113SOL    HW1 7238   6.562   1.385   4.008
 2113SOL    HW2 7239   6.467   1.254   3.988
 2114SOL     OW 7240   1.309   3.889   5.969
 2114SOL    HW1 7241   1.258   3.955   6.025
 2114SOL    HW2 7242   1.392   3.862   6.018
 2115SOL     OW 7243   4.302   5.050   1.755
 2115SOL    HW1 7244   4.367   5.035   1.680
 2115SOL    HW2 7245   4.212   5.018   1.727
 2116SOL     OW 7246   0.650   3.813   4.725
 2116SOL    HW1 7247   0.702   3.894   4.699
 2116SOL    HW2 7248   0.552   3.832   4.717
 2117SOL     OW 7249   6.021   5.504   6.151
 2117SOL    HW1 7250   6.090   5.539   6.087
 2117SOL    HW2 7251   5.986   5.580   6.206
 2118SOL     OW 7252   0.263   3.080   2.341
 2118SOL    HW1 7253   0.260   3.036   2.252
 2118SOL    HW2 7254   0.186   3.144   2.349
 2119SOL     OW 7255   4.027   6.749   0.115
 2119SOL    HW1 7256   4.023   6.649   0.121
 2119SOL    HW2 7257   4.078   6.776   0.034
 2120SOL     OW 7258   6.655   3.643   1.893
 2120SOL    HW1 7259   6.751   3.665   1.878
 2120SOL    HW2 7260   6.598   3.713   1.849
 2121SOL     OW 7261   0.873   3.582   4.471
 2121SOL    HW1 7262   0.905   3.668   4.432
 2121SOL    HW2 7263   0.774   3.587   4.485
 2122SOL     OW 7264   3.858   5.249   5.708
 2122SOL    HW1 7265   3.864   5.344   5.677
 2122SOL    HW2 7266   3.786   5.202   5.656
 2123SOL     OW 7267   3.848   6.250   3.177
 2123SOL    HW1 7268   3.896   6.325   3.133
 2123SOL    HW2 7269   3.876   6.244   3.273
 2124SOL     OW 7270   2.454   2.502   1.885
 2124SOL    HW1 7271   2.549   2.490   1.855
 2124SOL    HW2 7272   2.409   2.413   1.886
 2125SOL     OW 7273   5.178   5.952   6.670
 2125SOL    HW1 7274   5.241   6.012   6.621
 2125SOL    HW2 7275   5.112   5.912   6.607
 2126SOL     OW 7276   2.984   1.693   1.038
 2126SOL    HW1 7277   2.960   1.759   0.967
 2126SOL    HW2 7278   2.948   1.724   1.126
 2127SOL     OW 7279   5.962   2.311   4.682
 2127SOL    HW1 7280   5.928   2.376   4.749
 2127SOL    HW2 7281   5.991   2.227   4.728
 2128SOL     OW 7282   0.949   3.707   4.735
 2128SOL    HW1 7283   0.908   3.615   4.737
 2128SOL    HW2 7284   0.906   3.761   4.663
 2129SOL     OW 7285   4.470   2.381   5.120
 2129SOL    HW1 7286   4.394   2.418   5.067
 2129SOL    HW2 7287   4.471   2.424   5.210
 2130SOL     OW 7288   4.335   6.490   2.665
 2130SOL    HW1 7289   4.302   6.396   2.671
 2130SOL    HW2 7290   4.307   6.540   2.748
 2131SOL     OW 7291   4.789   1.828   6.796
 2131SOL    HW1 7292   4.871   1.809   6.741
 2131SOL    HW2 7293   4.716   1.765   6.770
 2132SOL     OW 7294   0.430   2.393   1.275
 2132SOL    HW1 7295   0.483   2.380   1.192
 2132SOL    HW2 7296   0.410   2.490   1.288
 2133SOL     OW 7297   2.570   4.429   6.009
 2133SOL    HW1 7298   2.562   4.334   5.979
 2133SOL    HW2 7299   2.559   4.434   6.108
 2134SOL     OW 7300   0.118   7.019   0.758
 2134SOL    HW1 7301   0.196   0.057   0.742
 2134SOL    HW2 7302   0.035   0.053   0.767
 2135SOL     OW 7303   6.050   5.254   5.877
 2135SOL    HW1 7304   5.968   5.268   5.821
 2135SOL    HW2 7305   6.066   5.156   5.889
 2136SOL     OW 7306   1.718   4.943   6.629
 2136SOL    HW1 7307   1.634   4.994   6.608
 2136SOL    HW2 7308   1.795   5.006   6.633
 2137SOL     OW 7309   1.842   6.019   3.584
 2137SOL    HW1 7310   1.915   5.962   3.546
 2137SOL    HW2 7311   1.866   6.047   3.677
 2138SOL     OW 7312   4.890   2.048   1.720
 2138SOL    HW1 7313   4.796   2.052   1.685
 2138SOL    HW2 7314   4.952   2.020   1.647
 2139SOL     OW 7315   2.602   6.046   5.310
 2139SOL    HW1 7316   2.533   5.978   5.335
 2139SOL    HW2 7317   2.690   6.001   5.300
 2140SOL     OW 7318   2.133   2.723   3.714
 2140SOL    HW1 7319   2.160   2.761   3.626
 2140SOL    HW2 7320   2.171   2.779   3.788
 2141SOL     OW 7321   6.432   3.433   3.101
 2141SOL    HW1 7322   6.430   3.363   3.029
 2141SOL    HW2 7323   6.381   3.513   3.070
 2142SOL     OW 7324   2.053   1.408   1.596
 2142SOL    HW1 7325   1.984   1.438   1.662
 2142SOL    HW2 7326   2.077   1.484   1.536
 2143SOL     OW 7327   6.900   5.550   5.463
 2143SOL    HW1 7328   6.868   5.519   5.373
 2143SOL    HW2 7329   6.949   5.636   5.453
 2144SOL     OW 7330   5.895   4.616   2.897
 2144SOL    HW1 7331   5.949   4.686   2.944
 2144SOL    HW2 7332   5.931   4.525   2.920
 2145SOL     OW 7333   3.397   1.024   3.053
 2145SOL    HW1 7334   3.436   0.970   2.979
 2145SOL    HW2 7335   3.306   1.056   3.026
 2146SOL     OW 7336   1.879   1.510   0.131
 2146SOL    HW1 7337   1.976   1.516   0.156
 2146SOL    HW2 7338   1.864   1.561   0.047
 2147SOL     OW 7339   5.924   6.931   4.756
 2147SOL    HW1 7340   5.930   6.850   4.814
 2147SOL    HW2 7341   5.990   6.924   4.682
 2148SOL     OW 7342   2.187   2.481   5.240
 2148SOL    HW1 7343   2.201   2.503   5.144
 2148SOL    HW2 7344   2.179   2.566   5.293
 2149SOL     OW 7345   0.343   6.736   0.008
 2149SOL    HW1 7346   0.340   6.661   0.075
 2149SOL    HW2 7347   0.252   6.777   7.021
 2150SOL     OW 7348   1.164   2.422   0.279
 2150SOL    HW1 7349   1.214   2.421   0.192
 2150SOL    HW2 7350   1.217   2.373   0.348
 2151SOL     OW 7351   0.753   5.090   0.204
 2151SOL    HW1 7352   0.731   5.059   0.297
 2151SOL    HW2 7353   0.805   5.176   0.210
 2152SOL     OW 7354   5.593   6.124   3.691
 2152SOL    HW1 7355   5.554   6.192   3.629
 2152SOL    HW2 7356   5.554   6.137   3.783
 2153SOL     OW 7357   4.711   0.421   3.686
 2153SOL    HW1 7358   4.622   0.376   3.695
 2153SOL    HW2 7359   4.716   0.468   3.598
 2154SOL     OW 7360   1.852   6.335   1.968
 2154SOL    HW1 7361   1.947   6.317   1.993
 2154SOL    HW2 7362   1.837   6.434   1.963
 2155SOL     OW 7363   5.195   0.918   0.591
 2155SOL    HW1 7364   5.227   0.994   0.647
 2155SOL    HW2 7365   5.175   0.951   0.498
 2156SOL     OW 7366   6.512   1.619   4.205
 2156SOL    HW1 7367   6.573   1.698   4.198
 2156SOL    HW2 7368   6.444   1.622   4.131
 2157SOL     OW 7369   4.439   6.410   3.289
 2157SOL    HW1 7370   4.341   6.430   3.291
 2157SOL    HW2 7371   4.453   6.311   3.294
 2158SOL     OW 7372   3.333   0.318   0.281
 2158SOL    HW1 7373   3.329   0.253   0.206
 2158SOL    HW2 7374   3.419   0.306   0.331
 2159SOL     OW 7375   1.268   2.357   5.702
 2159SOL    HW1 7376   1.226   2.306   5.777
 2159SOL    HW2 7377   1.204   2.364   5.626
 2160SOL     OW 7378   5.927   6.746   6.592
 2160SOL    HW1 7379   5.833   6.762   6.561
 2160SOL    HW2 7380   5.959   6.824   6.645
 2161SOL     OW 7381   1.599   3.548   6.968
 2161SOL    HW1 7382   1.510   3.551   7.014
 2161SOL    HW2 7383   1.668   3.513   0.010
 2162SOL     OW 7384   1.439   6.685   0.301
 2162SOL    HW1 7385   1.384   6.765   0.278
 2162SOL    HW2 7386   1.405   6.643   0.385
 2163SOL     OW 7387   0.855   3.141   4.470
 2163SOL    HW1 7388   0.911   3.217   4.503
 2163SOL    HW2 7389   0.896   3.054   4.499
 2164SOL     OW 7390   1.679   4.680   1.949
 2164SOL    HW1 7391   1.767   4.725   1.939
 2164SOL    HW2 7392   1.690   4.581   1.940
 2165SOL     OW 7393   6.001   1.617   5.992
 2165SOL    HW1 7394   5.969   1.705   5.958
 2165SOL    HW2 7395   6.101   1.613   5.985
 2166SOL     OW 7396   6.504   2.322   2.287
 2166SOL    HW1 7397   6.474   2.395   2.348
 2166SOL    HW2 7398   6.569   2.263   2.335
 2167SOL     OW 7399   1.588   2.460   2.681
 2167SOL    HW1 7400   1.611   2.551   2.648
 2167SOL    HW2 7401   1.496   2.460   2.720
 2168SOL     OW 7402   1.472   2.036   4.009
 2168SOL    HW1 7403   1.534   2.010   3.935
 2168SOL    HW2 7404   1.448   2.132   4.000
 2169SOL     OW 7405   6.444   6.987   0.624
 2169SOL    HW1 7406   6.520   6.938   0.583
 2169SOL    HW2 7407   6.390   6.925   0.680
 2170SOL     OW 7408   2.071   2.960   6.171
 2170SOL    HW1 7409   1.995   2.984   6.110
 2170SOL    HW2 7410   2.157   2.994   6.131
 2171SOL     OW 7411   5.788   6.809   1.662
 2171SOL    HW1 7412   5.776   6.775   1.755
 2171SOL    HW2 7413   5.845   6.892   1.664
 2172SOL     OW 7414   2.439   2.650   4.930
 2172SOL    HW1 7415   2.508   2.689   4.869
 2172SOL    HW2 7416   2.475   2.567   4.973
 2173SOL     OW 7417   4.326   0.774   4.925
 2173SOL    HW1 7418   4.334   0.700   4.858
 2173SOL    HW2 7419   4.361   0.859   4.885
 2174SOL     OW 7420   4.982   6.749   5.526
 2174SOL    HW1 7421   4.972   6.705   5.615
 2174SOL    HW2 7422   5.064   6.806   5.526
 2175SOL     OW 7423   3.072   2.819   5.918
 2175SOL    HW1 7424   3.069   2.906   5.967
 2175SOL    HW2 7425   2.981   2.796   5.883
 2176SOL     OW 7426   6.922   1.481   2.676
 2176SOL    HW1 7427   6.967   1.568   2.698
 2176SOL    HW2 7428   6.984   1.406   2.698
 2177SOL     OW 7429   0.910   0.565   4.645
 2177SOL    HW1 7430   0.979   0.629   4.610
 2177SOL    HW2 7431   0.826   0.615   4.666
 2178SOL     OW 7432   2.106   3.724   1.949
 2178SOL    HW1 7433   2.150   3.634   1.952
 2178SOL    HW2 7434   2.119   3.764   1.858
 2179SOL     OW 7435   1.456   4.485   6.687
 2179SOL    HW1 7436   1.427   4.507   6.594
 2179SOL    HW2 7437   1.516   4.557   6.721
 2180SOL     OW 7438   0.159   5.019   2.291
 2180SOL    HW1 7439   0.079   5.000   2.347
 2180SOL    HW2 7440   0.220   4.940   2.292
 2181SOL     OW 7441   4.425   4.942   2.776
 2181SOL    HW1 7442   4.399   4.979   2.865
 2181SOL    HW2 7443   4.402   5.008   2.705
 2182SOL     OW 7444   0.143   6.762   1.400
 2182SOL    HW1 7445   0.181   6.833   1.460
 2182SOL    HW2 7446   0.052   6.736   1.434
 2183SOL     OW 7447   4.425   2.662   6.364
 2183SOL    HW1 7448   4.438   2.697   6.457
 2183SOL    HW2 7449   4.377   2.574   6.368
 2184SOL     OW 7450   6.420   2.555   6.919
 2184SOL    HW1 7451   6.397   2.653   6.919
 2184SOL    HW2 7452   6.519   2.544   6.922
 2185SOL     OW 7453   6.992   1.857   6.474
 2185SOL    HW1 7454   0.049   1.795   6.483
 2185SOL    HW2 7455   7.002   1.911   6.391
 2186SOL     OW 7456   0.013   6.255   5.793
 2186SOL    HW1 7457   0.034   6.157   5.792
 2186SOL    HW2 7458   6.954   6.271   5.851
 2187SOL     OW 7459   5.809   3.486   1.404
 2187SOL    HW1 7460   5.776   3.392   1.399
 2187SOL    HW2 7461   5.900   3.486   1.447
 2188SOL     OW 7462   2.922   2.196   0.694
 2188SOL    HW1 7463   2.830   2.160   0.685
 2188SOL    HW2 7464   2.935   2.232   0.787
 2189SOL     OW 7465   2.206   0.552   2.366
 2189SOL    HW1 7466   2.170   0.626   2.310
 2189SOL    HW2 7467   2.304   0.541   2.348
 2190SOL     OW 7468   6.809   4.834   1.459
 2190SOL    HW1 7469   6.740   4.816   1.530
 2190SOL    HW2 7470   6.862   4.752   1.442
 2191SOL     OW 7471   3.426   0.106   6.281
 2191SOL    HW1 7472   3.331   0.101   6.251
 2191SOL    HW2 7473   3.477   0.166   6.219
 2192SOL     OW 7474   5.323   2.026   1.885
 2192SOL    HW1 7475   5.297   2.018   1.789
 2192SOL    HW2 7476   5.241   2.030   1.942
 2193SOL     OW 7477   1.847   0.216   5.749
 2193SOL    HW1 7478   1.804   0.256   5.668
 2193SOL    HW2 7479   1.922   0.275   5.779
 2194SOL     OW 7480   0.926   4.612   5.240
 2194SOL    HW1 7481   0.982   4.695   5.247
 2194SOL    HW2 7482   0.840   4.626   5.288
 2195SOL     OW 7483   0.525   4.289   5.387
 2195SOL    HW1 7484   0.557   4.238   5.307
 2195SOL    HW2 7485   0.588   4.274   5.463
 2196SOL     OW 7486   3.545   1.492   6.839
 2196SOL    HW1 7487   3.491   1.548   6.902
 2196SOL    HW2 7488   3.488   1.466   6.761
 2197SOL     OW 7489   3.937   4.931   6.852
 2197SOL    HW1 7490   4.013   4.867   6.858
 2197SOL    HW2 7491   3.850   4.882   6.863
 2198SOL     OW 7492   1.391   0.798   5.817
 2198SOL    HW1 7493   1.490   0.807   5.801
 2198SOL    HW2 7494   1.342   0.842   5.742
 2199SOL     OW 7495   4.754   6.330   3.426
 2199SOL    HW1 7496   4.763   6.258   3.495
 2199SOL    HW2 7497   4.706   6.408   3.466
 2200SOL     OW 7498   2.761   2.071   5.189
 2200SOL    HW1 7499   2.826   1.995   5.185
 2200SOL    HW2 7500   2.668   2.034   5.200
 2201SOL     OW 7501   6.042   3.293   4.268
 2201SOL    HW1 7502   6.022   3.276   4.171
 2201SOL    HW2 7503   6.124   3.350   4.275
 2202SOL     OW 7504   4.954   0.031   4.535
 2202SOL    HW1 7505   5.028   6.996   4.500
 2202SOL    HW2 7506   4.971   0.052   4.632
 2203SOL     OW 7507   2.030   6.270   1.023
 2203SOL    HW1 7508   1.963   6.214   0.974
 2203SOL    HW2 7509   2.046   6.354   0.972
 2204SOL     OW 7510   4.695   3.590   0.274
 2204SOL    HW1 7511   4.740   3.649   0.207
 2204SOL    HW2 7512   4.735   3.499   0.271
 2205SOL     OW 7513   4.982   5.001   1.138
 2205SOL    HW1 7514   5.015   5.090   1.168
 2205SOL    HW2 7515   4.887   5.010   1.106
 2206SOL     OW 7516   2.914   3.322   5.210
 2206SOL    HW1 7517   2.919   3.421   5.197
 2206SOL    HW2 7518   2.940   3.276   5.125
 2207SOL     OW 7519   4.715   4.763   1.262
 2207SOL    HW1 7520   4.712   4.797   1.167
 2207SOL    HW2 7521   4.795   4.705   1.274
 2208SOL     OW 7522   6.484   5.676   3.277
 2208SOL    HW1 7523   6.579   5.703   3.262
 2208SOL    HW2 7524   6.448   5.634   3.193
 2209SOL     OW 7525   2.526   5.527   3.952
 2209SOL    HW1 7526   2.531   5.431   3.926
 2209SOL    HW2 7527   2.445   5.543   4.008
 2210SOL     OW 7528   5.335   6.618   2.071
 2210SOL    HW1 7529   5.362   6.678   2.146
 2210SOL    HW2 7530   5.386   6.532   2.077
 2211SOL     OW 7531   1.809   0.903   1.120
 2211SOL    HW1 7532   1.713   0.926   1.134
 2211SOL    HW2 7533   1.859   0.986   1.094
 2212SOL     OW 7534   2.748   6.600   6.158
 2212SOL    HW1 7535   2.716   6.669   6.222
 2212SOL    HW2 7536   2.786   6.522   6.209
 2213SOL     OW 7537   3.464   2.077   4.119
 2213SOL    HW1 7538   3.519   2.091   4.201
 2213SOL    HW2 7539   3.373   2.117   4.132
 2214SOL     OW 7540   4.047   4.706   0.023
 2214SOL    HW1 7541   4.106   4.667   6.974
 2214SOL    HW2 7542   3.998   4.632   0.070
 2215SOL     OW 7543   6.999   5.269   0.160
 2215SOL    HW1 7544   7.006   5.177   0.199
 2215SOL    HW2 7545   0.010   5.336   0.227
 2216SOL     OW 7546   0.285   6.187   0.431
 2216SOL    HW1 7547   0.213   6.118   0.422
 2216SOL    HW2 7548   0.257   6.256   0.498
 2217SOL     OW 7549   4.154   1.415   3.760
 2217SOL    HW1 7550   4.214   1.348   3.804
 2217SOL    HW2 7551   4.207   1.496   3.737
 2218SOL     OW 7552   6.001   5.245   6.310
 2218SOL    HW1 7553   6.060   5.292   6.245
 2218SOL    HW2 7554   6.027   5.149   6.318
 2219SOL     OW 7555   5.652   2.601   0.696
 2219SOL    HW1 7556   5.657   2.558   0.606
 2219SOL    HW2 7557   5.560   2.634   0.713
 2220SOL     OW 7558   6.403   7.015   4.475
 2220SOL    HW1 7559   6.399   6.919   4.503
 2220SOL    HW2 7560   6.498   0.026   4.480
 2221SOL     OW 7561   4.994   0.092   3.354
 2221SOL    HW1 7562   5.004   0.093   3.453
 2221SOL    HW2 7563   5.080   0.120   3.311
 2222SOL     OW 7564   3.964   0.461   4.396
 2222SOL    HW1 7565   3.984   0.551   4.435
 2222SOL    HW2 7566   3.873   0.462   4.354
 2223SOL     OW 7567   0.750   0.234   5.686
 2223SOL    HW1 7568   0.836   0.280   5.709
 2223SOL    HW2 7569   0.674   0.296   5.701
 2224SOL     OW 7570   4.772   4.968   6.227
 2224SOL    HW1 7571   4.674   4.964   6.247
 2224SOL    HW2 7572   4.819   4.894   6.275
 2225SOL     OW 7573   6.474   0.826   0.609
 2225SOL    HW1 7574   6.563   0.808   0.569
 2225SOL    HW2 7575   6.412   0.863   0.539
 2226SOL     OW 7576   2.767   3.447   6.440
 2226SOL    HW1 7577   2.789   3.427   6.536
 2226SOL    HW2 7578   2.750   3.362   6.391
 2227SOL     OW 7579   4.399   1.934   1.509
 2227SOL    HW1 7580   4.381   2.030   1.486
 2227SOL    HW2 7581   4.327   1.876   1.471
 2228SOL     OW 7582   4.776   6.547   6.817
 2228SOL    HW1 7583   4.797   6.634   6.861
 2228SOL    HW2 7584   4.702   6.558   6.752
 2229SOL     OW 7585   3.791   2.914   4.418
 2229SOL    HW1 7586   3.850   2.833   4.417
 2229SOL    HW2 7587   3.791   2.955   4.509
 2230SOL     OW 7588   7.008   2.005   6.694
 2230SOL    HW1 7589   0.001   1.958   6.607
 2230SOL    HW2 7590   6.931   1.962   6.742
 2231SOL     OW 7591   1.038   6.900   5.547
 2231SOL    HW1 7592   1.030   6.814   5.498
 2231SOL    HW2 7593   1.086   6.967   5.490
 2232SOL     OW 7594   1.094   0.843   6.934
 2232SOL    HW1 7595   1.051   0.829   0.001
 2232SOL    HW2 7596   1.118   0.755   6.893
 2233SOL     OW 7597   3.374   5.296   0.853
 2233SOL    HW1 7598   3.421   5.293   0.941
 2233SOL    HW2 7599   3.403   5.218   0.797
 2234SOL     OW 7600   5.262   1.689   2.183
 2234SOL    HW1 7601   5.282   1.679   2.086
 2234SOL    HW2 7602   5.196   1.763   2.196
 2235SOL     OW 7603   1.312   1.785   4.056
 2235SOL    HW1 7604   1.371   1.865   4.049
 2235SOL    HW2 7605   1.329   1.723   3.980
 2236SOL     OW 7606   2.983   5.115   4.951
 2236SOL    HW1 7607   2.956   5.021   4.931
 2236SOL    HW2 7608   2.971   5.171   4.868
 2237SOL     OW 7609   6.251   6.858   6.649
 2237SOL    HW1 7610   6.287   6.786   6.590
 2237SOL    HW2 7611   6.325   6.901   6.699
 2238SOL     OW 7612   5.126   3.764   1.515
 2238SOL    HW1 7613   5.088   3.856   1.520
 2238SOL    HW2 7614   5.140   3.739   1.419
 2239SOL     OW 7615   3.166   0.313   2.748
 2239SOL    HW1 7616   3.134   0.256   2.824
 2239SOL    HW2 7617   3.111   0.293   2.667
 2240SOL     OW 7618   4.754   5.257   3.116
 2240SOL    HW1 7619   4.660   5.291   3.125
 2240SOL    HW2 7620   4.777   5.248   3.019
 2241SOL     OW 7621   1.575   2.111   3.391
 2241SOL    HW1 7622   1.674   2.105   3.377
 2241SOL    HW2 7623   1.528   2.070   3.313
 2242SOL     OW 7624   5.052   2.305   4.215
 2242SOL    HW1 7625   5.110   2.335   4.139
 2242SOL    HW2 7626   5.099   2.233   4.266
 2243SOL     OW 7627   2.460   0.302   7.007
 2243SOL    HW1 7628   2.449   0.211   6.966
 2243SOL    HW2 7629   2.503   0.363   6.941
 2244SOL     OW 7630   2.187   1.948   1.313
 2244SOL    HW1 7631   2.269   2.005   1.308
 2244SOL    HW2 7632   2.110   2.004   1.347
 2245SOL     OW 7633   6.893   1.465   0.008
 2245SOL    HW1 7634   6.960   1.405   0.052
 2245SOL    HW2 7635   6.913   1.470   6.932
 2246SOL     OW 7636   5.689   0.651   5.896
 2246SOL    HW1 7637   5.647   0.624   5.810
 2246SOL    HW2 7638   5.678   0.577   5.963
 2247SOL     OW 7639   3.769   3.494   1.684
 2247SOL    HW1 7640   3.838   3.454   1.745
 2247SOL    HW2 7641   3.678   3.464   1.713
 2248SOL     OW 7642   5.054   3.166   4.217
 2248SOL    HW1 7643   5.130   3.205   4.166
 2248SOL    HW2 7644   5.063   3.066   4.220
 2249SOL     OW 7645   2.492   6.078   3.732
 2249SOL    HW1 7646   2.480   6.143   3.807
 2249SOL    HW2 7647   2.431   6.000   3.745
 2250SOL     OW 7648   4.071   6.023   5.967
 2250SOL    HW1 7649   4.101   5.941   6.016
 2250SOL    HW2 7650   4.038   5.997   5.876
 2251SOL     OW 7651   3.604   6.791   5.037
 2251SOL    HW1 7652   3.659   6.779   4.954
 2251SOL    HW2 7653   3.664   6.789   5.117
 2252SOL     OW 7654   3.570   1.858   2.233
 2252SOL    HW1 7655   3.561   1.759   2.234
 2252SOL    HW2 7656   3.667   1.883   2.228
 2253SOL     OW 7657   1.260   2.233   1.807
 2253SOL    HW1 7658   1.295   2.231   1.713
 2253SOL    HW2 7659   1.263   2.140   1.845
 2254SOL     OW 7660   3.713   2.935   2.717
 2254SOL    HW1 7661   3.669   2.869   2.657
 2254SOL    HW2 7662   3.724   3.022   2.669
 2255SOL     OW 7663   1.748   1.959   6.204
 2255SOL    HW1 7664   1.770   1.992   6.112
 2255SOL    HW2 7665   1.787   1.868   6.217
 2256SOL     OW 7666   5.013   6.939   0.961
 2256SOL    HW1 7667   4.986   6.909   0.869
 2256SOL    HW2 7668   5.012   0.017   0.965
 2257SOL     OW 7669   0.295   1.252   6.512
 2257SOL    HW1 7670   0.251   1.318   6.450
 2257SOL    HW2 7671   0.332   1.176   6.459
 2258SOL     OW 7672   1.516   0.620   3.620
 2258SOL    HW1 7673   1.579   0.592   3.693
 2258SOL    HW2 7674   1.513   0.720   3.616
 2259SOL     OW 7675   6.172   6.889   5.144
 2259SOL    HW1 7676   6.198   6.875   5.048
 2259SOL    HW2 7677   6.154   6.801   5.187
 2260SOL     OW 7678   1.225   3.530   1.249
 2260SOL    HW1 7679   1.261   3.606   1.304
 2260SOL    HW2 7680   1.212   3.560   1.155
 2261SOL     OW 7681   4.265   4.878   6.669
 2261SOL    HW1 7682   4.219   4.821   6.601
 2261SOL    HW2 7683   4.291   4.965   6.627
 2262SOL     OW 7684   6.767   0.941   3.595
 2262SOL    HW1 7685   6.677   0.920   3.557
 2262SOL    HW2 7686   6.823   0.859   3.595
 2263SOL     OW 7687   2.496   4.364   7.004
 2263SOL    HW1 7688   2.505   4.454   0.027
 2263SOL    HW2 7689   2.586   4.328   6.982
 2264SOL     OW 7690   1.925   0.389   6.663
 2264SOL    HW1 7691   1.955   0.425   6.575
 2264SOL    HW2 7692   2.000   0.395   6.729
 2265SOL     OW 7693   0.230   6.531   3.722
 2265SOL    HW1 7694   0.273   6.479   3.647
 2265SOL    HW2 7695   0.131   6.530   3.710
 2266SOL     OW 7696   4.140   3.847   6.601
 2266SOL    HW1 7697   4.162   3.882   6.692
 2266SOL    HW2 7698   4.045   3.817   6.599
 2267SOL     OW 7699   5.774   2.875   5.156
 2267SOL    HW1 7700   5.683   2.894   5.190
 2267SOL    HW2 7701   5.776   2.782   5.118
 2268SOL     OW 7702   1.100   6.107   4.496
 2268SOL    HW1 7703   1.036   6.102   4.572
 2268SOL    HW2 7704   1.054   6.148   4.417
 2269SOL     OW 7705   1.776   2.259   5.665
 2269SOL    HW1 7706   1.772   2.359   5.656
 2269SOL    HW2 7707   1.685   2.223   5.680
 2270SOL     OW 7708   4.066   1.410   6.624
 2270SOL    HW1 7709   4.165   1.407   6.614
 2270SOL    HW2 7710   4.042   1.465   6.704
 2271SOL     OW 7711   3.914   5.586   5.283
 2271SOL    HW1 7712   3.952   5.647   5.213
 2271SOL    HW2 7713   3.824   5.554   5.253
 2272SOL     OW 7714   5.855   1.182   5.784
 2272SOL    HW1 7715   5.761   1.176   5.819
 2272SOL    HW2 7716   5.889   1.275   5.797
 2273SOL     OW 7717   1.959   2.079   4.452
 2273SOL    HW1 7718   2.005   2.132   4.381
 2273SOL    HW2 7719   1.956   1.983   4.425
 2274SOL     OW 7720   1.061   0.962   0.301
 2274SOL    HW1 7721   1.141   1.019   0.279
 2274SOL    HW2 7722   0.983   0.994   0.248
 2275SOL     OW 7723   5.193   3.492   2.950
 2275SOL    HW1 7724   5.201   3.589   2.929
 2275SOL    HW2 7725   5.188   3.439   2.865
 2276SOL     OW 7726   1.856   1.547   1.746
 2276SOL    HW1 7727   1.872   1.583   1.838
 2276SOL    HW2 7728   1.757   1.544   1.729
 2277SOL     OW 7729   4.055   3.377   3.598
 2277SOL    HW1 7730   4.077   3.450   3.534
 2277SOL    HW2 7731   4.066   3.410   3.692
 2278SOL     OW 7732   6.429   3.705   3.839
 2278SOL    HW1 7733   6.497   3.636   3.814
 2278SOL    HW2 7734   6.454   3.748   3.926
 2279SOL     OW 7735   0.616   5.697   5.609
 2279SOL    HW1 7736   0.541   5.680   5.545
 2279SOL    HW2 7737   0.702   5.706   5.559
 2280SOL     OW 7738   4.890   2.570   5.378
 2280SOL    HW1 7739   4.895   2.622   5.463
 2280SOL    HW2 7740   4.861   2.630   5.304
 2281SOL     OW 7741   5.219   6.765   2.374
 2281SOL    HW1 7742   5.221   6.739   2.471
 2281SOL    HW2 7743   5.312   6.772   2.339
 2282SOL     OW 7744   3.637   5.261   5.918
 2282SOL    HW1 7745   3.664   5.165   5.913
 2282SOL    HW2 7746   3.584   5.286   5.837
 2283SOL     OW 7747   6.988   0.740   5.050
 2283SOL    HW1 7748   0.039   0.789   5.003
 2283SOL    HW2 7749   6.906   0.797   5.054
 2284SOL     OW 7750   1.819   4.268   5.846
 2284SOL    HW1 7751   1.772   4.300   5.928
 2284SOL    HW2 7752   1.837   4.345   5.785
 2285SOL     OW 7753   1.762   5.207   0.257
 2285SOL    HW1 7754   1.693   5.135   0.256
 2285SOL    HW2 7755   1.831   5.188   0.187
 2286SOL     OW 7756   4.926   4.722   2.341
 2286SOL    HW1 7757   4.944   4.765   2.252
 2286SOL    HW2 7758   4.916   4.624   2.329
 2287SOL     OW 7759   2.471   1.280   3.855
 2287SOL    HW1 7760   2.448   1.327   3.770
 2287SOL    HW2 7761   2.519   1.343   3.915
 2288SOL     OW 7762   6.529   4.544   2.963
 2288SOL    HW1 7763   6.547   4.461   2.909
 2288SOL    HW2 7764   6.615   4.592   2.979
 2289SOL     OW 7765   0.303   4.450   0.515
 2289SOL    HW1 7766   0.313   4.361   0.470
 2289SOL    HW2 7767   0.391   4.476   0.556
 2290SOL     OW 7768   0.898   5.349   0.018
 2290SOL    HW1 7769   0.891   5.255   7.006
 2290SOL    HW2 7770   0.806   5.382   0.042
 2291SOL     OW 7771   1.658   1.173   0.337
 2291SOL    HW1 7772   1.577   1.125   0.301
 2291SOL    HW2 7773   1.727   1.105   0.363
 2292SOL     OW 7774   2.064   0.986   4.799
 2292SOL    HW1 7775   2.089   1.081   4.777
 2292SOL    HW2 7776   2.123   0.952   4.872
 2293SOL     OW 7777   5.111   4.162   3.344
 2293SOL    HW1 7778   5.085   4.111   3.262
 2293SOL    HW2 7779   5.117   4.099   3.422
 2294SOL     OW 7780   4.215   0.089   6.379
 2294SOL    HW1 7781   4.131   0.140   6.400
 2294SOL    HW2 7782   4.255   0.126   6.295
 2295SOL     OW 7783   0.818   0.805   1.758
 2295SOL    HW1 7784   0.891   0.752   1.713
 2295SOL    HW2 7785   0.801   0.889   1.706
 2296SOL     OW 7786   3.130   6.526   6.596
 2296SOL    HW1 7787   3.055   6.586   6.624
 2296SOL    HW2 7788   3.109   6.432   6.623
 2297SOL     OW 7789   3.993   5.919   6.283
 2297SOL    HW1 7790   3.911   5.976   6.270
 2297SOL    HW2 7791   3.965   5.828   6.312
 2298SOL     OW 7792   4.773   2.735   6.560
 2298SOL    HW1 7793   4.773   2.756   6.658
 2298SOL    HW2 7794   4.837   2.661   6.542
 2299SOL     OW 7795   5.089   0.334   1.598
 2299SOL    HW1 7796   5.175   0.316   1.645
 2299SOL    HW2 7797   5.044   0.247   1.577
 2300SOL     OW 7798   0.924   4.313   1.397
 2300SOL    HW1 7799   0.832   4.350   1.411
 2300SOL    HW2 7800   0.957   4.339   1.307
 2301SOL     OW 7801   3.694   2.652   1.187
 2301SOL    HW1 7802   3.755   2.699   1.251
 2301SOL    HW2 7803   3.600   2.683   1.201
 2302SOL     OW 7804   3.367   5.406   2.884
 2302SOL    HW1 7805   3.446   5.421   2.943
 2302SOL    HW2 7806   3.321   5.321   2.910
 2303SOL     OW 7807   0.867   3.674   5.805
 2303SOL    HW1 7808   0.886   3.708   5.713
 2303SOL    HW2 7809   0.952   3.651   5.851
 2304SOL     OW 7810   2.049   1.130   4.384
 2304SOL    HW1 7811   2.108   1.054   4.356
 2304SOL    HW2 7812   1.990   1.101   4.459
 2305SOL     OW 7813   4.538   4.801   1.817
 2305SOL    HW1 7814   4.545   4.717   1.764
 2305SOL    HW2 7815   4.609   4.865   1.787
 2306SOL     OW 7816   0.143   4.808   0.465
 2306SOL    HW1 7817   0.073   4.841   0.528
 2306SOL    HW2 7818   0.112   4.822   0.371
 2307SOL     OW 7819   0.363   1.051   3.229
 2307SOL    HW1 7820   0.427   1.115   3.187
 2307SOL    HW2 7821   0.350   0.972   3.169
 2308SOL     OW 7822   0.793   0.491   0.206
 2308SOL    HW1 7823   0.762   0.554   0.277
 2308SOL    HW2 7824   0.728   0.492   0.130
 2309SOL     OW 7825   2.007   5.130   6.198
 2309SOL    HW1 7826   2.077   5.081   6.249
 2309SOL    HW2 7827   1.918   5.115   6.240
 2310SOL     OW 7828   5.827   1.334   3.527
 2310SOL    HW1 7829   5.793   1.245   3.496
 2310SOL    HW2 7830   5.923   1.344   3.500
 2311SOL     OW 7831   2.834   6.511   2.840
 2311SOL    HW1 7832   2.738   6.492   2.861
 2311SOL    HW2 7833   2.867   6.445   2.772
 2312SOL     OW 7834   2.839   0.422   1.975
 2312SOL    HW1 7835   2.894   0.434   1.893
 2312SOL    HW2 7836   2.770   0.351   1.959
 2313SOL     OW 7837   4.809   4.928   1.450
 2313SOL    HW1 7838   4.770   4.884   1.369
 2313SOL    HW2 7839   4.831   5.023   1.429
 2314SOL     OW 7840   0.285   6.109   3.062
 2314SOL    HW1 7841   0.314   6.014   3.063
 2314SOL    HW2 7842   0.221   6.123   2.986
 2315SOL     OW 7843   5.246   6.748   5.193
 2315SOL    HW1 7844   5.192   6.691   5.254
 2315SOL    HW2 7845   5.238   6.844   5.221
 2316SOL     OW 7846   4.045   2.664   6.667
 2316SOL    HW1 7847   3.981   2.738   6.688
 2316SOL    HW2 7848   4.011   2.612   6.589
 2317SOL     OW 7849   0.117   5.073   2.011
 2317SOL    HW1 7850   0.128   5.025   2.098
 2317SOL    HW2 7851   0.207   5.093   1.973
 2318SOL     OW 7852   1.116   4.925   3.925
 2318SOL    HW1 7853   1.170   4.871   3.860
 2318SOL    HW2 7854   1.171   4.942   4.007
 2319SOL     OW 7855   2.737   4.791   2.968
 2319SOL    HW1 7856   2.818   4.759   2.919
 2319SOL    HW2 7857   2.727   4.890   2.956
 2320SOL     OW 7858   1.774   2.182   5.026
 2320SOL    HW1 7859   1.681   2.214   5.006
 2320SOL    HW2 7860   1.801   2.213   5.117
 2321SOL     OW 7861   1.976   5.443   4.995
 2321SOL    HW1 7862   1.962   5.531   5.039
 2321SOL    HW2 7863   2.067   5.408   5.018
 2322SOL     OW 7864   1.608   3.253   1.816
 2322SOL    HW1 7865   1.510   3.233   1.829
 2322SOL    HW2 7866   1.656   3.238   1.903
 2323SOL     OW 7867   1.983   5.890   6.429
 2323SOL    HW1 7868   1.939   5.801   6.424
 2323SOL    HW2 7869   2.081   5.881   6.412
 2324SOL     OW 7870   6.455   4.651   2.336
 2324SOL    HW1 7871   6.554   4.635   2.339
 2324SOL    HW2 7872   6.432   4.728   2.395
 2325SOL     OW 7873   6.442   3.739   2.453
 2325SOL    HW1 7874   6.366   3.689   2.496
 2325SOL    HW2 7875   6.527   3.691   2.469
 2326SOL     OW 7876   2.234   0.119   0.246
 2326SOL    HW1 7877   2.175   0.062   0.189
 2326SOL    HW2 7878   2.230   0.213   0.214
 2327SOL     OW 7879   6.262   6.221   2.064
 2327SOL    HW1 7880   6.198   6.297   2.080
 2327SOL    HW2 7881   6.212   6.134   2.069
 2328SOL     OW 7882   2.037   4.024   2.400
 2328SOL    HW1 7883   1.958   4.075   2.365
 2328SOL    HW2 7884   2.119   4.049   2.349
 2329SOL     OW 7885   1.109   4.845   1.854
 2329SOL    HW1 7886   1.038   4.885   1.912
 2329SOL    HW2 7887   1.091   4.869   1.758
 2330SOL     OW 7888   5.934   3.515   1.841
 2330SOL    HW1 7889   5.841   3.550   1.853
 2330SOL    HW2 7890   5.958   3.457   1.919
 2331SOL     OW 7891   5.116   5.471   1.599
 2331SOL    HW1 7892   5.055   5.522   1.537
 2331SOL    HW2 7893   5.068   5.451   1.684
 2332SOL     OW 7894   6.212   0.028   6.458
 2332SOL    HW1 7895   6.245   6.982   6.524
 2332SOL    HW2 7896   6.120   0.004   6.428
 2333SOL     OW 7897   1.313   4.625   2.422
 2333SOL    HW1 7898   1.363   4.577   2.493
 2333SOL    HW2 7899   1.377   4.670   2.360
 2334SOL     OW 7900   3.381   1.112   5.870
 2334SOL    HW1 7901   3.340   1.046   5.807
 2334SOL    HW2 7902   3.479   1.093   5.879
 2335SOL     OW 7903   5.948   0.090   3.587
 2335SOL    HW1 7904   5.873   0.045   3.636
 2335SOL    HW2 7905   6.009   0.135   3.652
 2336SOL     OW 7906   1.930   1.936   2.919
 2336SOL    HW1 7907   1.930   1.865   2.990
 2336SOL    HW2 7908   2.016   1.932   2.868
 2337SOL     OW 7909   4.248   1.216   2.392
 2337SOL    HW1 7910   4.209   1.132   2.354
 2337SOL    HW2 7911   4.174   1.283   2.407
 2338SOL     OW 7912   6.823   3.651   3.810
 2338SOL    HW1 7913   6.773   3.664   3.896
 2338SOL    HW2 7914   6.844   3.740   3.770
 2339SOL     OW 7915   3.161   3.028   2.399
 2339SOL    HW1 7916   3.204   2.961   2.459
 2339SOL    HW2 7917   3.172   3.119   2.438
 2340SOL     OW 7918   1.979   4.182   6.455
 2340SOL    HW1 7919   2.038   4.258   6.425
 2340SOL    HW2 7920   1.943   4.135   6.375
 2341SOL     OW 7921   3.132   5.185   4.131
 2341SOL    HW1 7922   3.148   5.124   4.209
 2341SOL    HW2 7923   3.211   5.180   4.069
 2342SOL     OW 7924   3.688   1.732   4.391
 2342SOL    HW1 7925   3.715   1.676   4.313
 2342SOL    HW2 7926   3.718   1.826   4.376
 2343SOL     OW 7927   6.895   0.109   0.856
 2343SOL    HW1 7928   6.871   0.132   0.951
 2343SOL    HW2 7929   6.835   0.036   0.823
 2344SOL     OW 7930   6.175   4.641   0.023
 2344SOL    HW1 7931   6.177   4.582   6.964
 2344SOL    HW2 7932   6.173   4.737   7.016
 2345SOL     OW 7933   3.709   6.389   3.645
 2345SOL    HW1 7934   3.620   6.388   3.691
 2345SOL    HW2 7935   3.706   6.452   3.568
 2346SOL     OW 7936   4.953   3.521   0.573
 2346SOL    HW1 7937   4.970   3.463   0.653
 2346SOL    HW2 7938   4.928   3.463   0.495
 2347SOL     OW 7939   1.692   1.270   1.139
 2347SOL    HW1 7940   1.630   1.193   1.152
 2347SOL    HW2 7941   1.785   1.236   1.123
 2348SOL     OW 7942   0.117   5.783   2.599
 2348SOL    HW1 7943   0.211   5.782   2.636
 2348SOL    HW2 7944   0.054   5.816   2.670
 2349SOL     OW 7945   0.944   5.090   4.407
 2349SOL    HW1 7946   0.939   5.061   4.312
 2349SOL    HW2 7947   0.861   5.060   4.455
 2350SOL     OW 7948   5.621   3.918   0.602
 2350SOL    HW1 7949   5.585   4.008   0.628
 2350SOL    HW2 7950   5.716   3.911   0.629
 2351SOL     OW 7951   2.410   6.080   1.651
 2351SOL    HW1 7952   2.332   6.038   1.606
 2351SOL    HW2 7953   2.384   6.170   1.687
 2352SOL     OW 7954   6.986   2.209   3.305
 2352SOL    HW1 7955   0.035   2.197   3.374
 2352SOL    HW2 7956   6.954   2.304   3.307
 2353SOL     OW 7957   3.111   5.980   3.980
 2353SOL    HW1 7958   3.177   5.957   4.052
 2353SOL    HW2 7959   3.024   5.936   3.999
 2354SOL     OW 7960   2.688   2.414   4.376
 2354SOL    HW1 7961   2.671   2.379   4.468
 2354SOL    HW2 7962   2.706   2.513   4.380
 2355SOL     OW 7963   2.112   5.463   4.390
 2355SOL    HW1 7964   2.037   5.452   4.325
 2355SOL    HW2 7965   2.122   5.559   4.414
 2356SOL     OW 7966   0.024   2.383   0.024
 2356SOL    HW1 7967   0.080   2.454   7.005
 2356SOL    HW2 7968   6.949   2.408   0.016
 2357SOL     OW 7969   2.294   6.586   2.978
 2357SOL    HW1 7970   2.217   6.528   3.006
 2357SOL    HW2 7971   2.298   6.666   3.038
 2358SOL     OW 7972   4.519   5.604   5.881
 2358SOL    HW1 7973   4.487   5.688   5.925
 2358SOL    HW2 7974   4.445   5.537   5.879
 2359SOL     OW 7975   1.548   0.415   5.220
 2359SOL    HW1 7976   1.481   0.361   5.170
 2359SOL    HW2 7977   1.638   0.372   5.213
 2360SOL     OW 7978   6.910   3.701   0.047
 2360SOL    HW1 7979   6.858   3.639   7.010
 2360SOL    HW2 7980   7.006   3.698   0.022
 2361SOL     OW 7981   3.183   1.050   0.463
 2361SOL    HW1 7982   3.124   1.112   0.515
 2361SOL    HW2 7983   3.186   1.080   0.367
 2362SOL     OW 7984   3.228   5.167   2.917
 2362SOL    HW1 7985   3.287   5.089   2.934
 2362SOL    HW2 7986   3.135   5.136   2.897
 2363SOL     OW 7987   3.593   0.735   3.433
 2363SOL    HW1 7988   3.658   0.759   3.505
 2363SOL    HW2 7989   3.524   0.673   3.470
 2364SOL     OW 7990   0.941   2.349   1.618
 2364SOL    HW1 7991   0.982   2.268   1.577
 2364SOL    HW2 7992   1.013   2.410   1.651
 2365SOL     OW 7993   5.638   2.210   0.789
 2365SOL    HW1 7994   5.563   2.268   0.756
 2365SOL    HW2 7995   5.599   2.127   0.830
 2366SOL     OW 7996   4.599   5.704   0.556
 2366SOL    HW1 7997   4.640   5.698   0.647
 2366SOL    HW2 7998   4.514   5.651   0.554
 2367SOL     OW 7999   2.507   3.597   5.988
 2367SOL    HW1 8000   2.553   3.566   6.072
 2367SOL    HW2 8001   2.408   3.595   6.002
 2368SOL     OW 8002   5.506   6.207   2.033
 2368SOL    HW1 8003   5.525   6.261   1.951
 2368SOL    HW2 8004   5.417   6.234   2.070
 2369SOL     OW 8005   2.754   1.475   3.508
 2369SOL    HW1 8006   2.822   1.434   3.447
 2369SOL    HW2 8007   2.706   1.548   3.459
 2370SOL     OW 8008   5.875   2.524   6.258
 2370SOL    HW1 8009   5.812   2.522   6.335
 2370SOL    HW2 8010   5.869   2.613   6.213
 2371SOL     OW 8011   1.469   5.911   1.890
 2371SOL    HW1 8012   1.471   5.877   1.984
 2371SOL    HW2 8013   1.522   5.996   1.885
 2372SOL     OW 8014   6.656   2.281   3.197
 2372SOL    HW1 8015   6.690   2.188   3.186
 2372SOL    HW2 8016   6.731   2.341   3.226
 2373SOL     OW 8017   2.127   4.133   6.676
 2373SOL    HW1 8018   2.070   4.167   6.602
 2373SOL    HW2 8019   2.178   4.209   6.717
 2374SOL     OW 8020   4.962   2.494   4.916
 2374SOL    HW1 8021   4.928   2.445   4.835
 2374SOL    HW2 8022   4.897   2.481   4.991
 2375SOL     OW 8023   1.275   0.050   5.240
 2375SOL    HW1 8024   1.222   0.094   5.313
 2375SOL    HW2 8025   1.311   0.120   5.178
 2376SOL     OW 8026   6.699   2.013   4.114
 2376SOL    HW1 8027   6.622   1.990   4.173
 2376SOL    HW2 8028   6.668   2.020   4.019
 2377SOL     OW 8029   3.672   2.862   4.174
 2377SOL    HW1 8030   3.711   2.859   4.266
 2377SOL    HW2 8031   3.734   2.909   4.113
 2378SOL     OW 8032   5.389   1.978   1.038
 2378SOL    HW1 8033   5.290   1.994   1.039
 2378SOL    HW2 8034   5.419   1.960   0.945
 2379SOL     OW 8035   6.799   6.957   6.105
 2379SOL    HW1 8036   6.742   6.977   6.184
 2379SOL    HW2 8037   6.755   6.991   6.022
 2380SOL     OW 8038   6.089   1.993   3.718
 2380SOL    HW1 8039   6.103   1.976   3.621
 2380SOL    HW2 8040   6.061   2.088   3.732
 2381SOL     OW 8041   1.727   6.151   2.513
 2381SOL    HW1 8042   1.757   6.067   2.467
 2381SOL    HW2 8043   1.803   6.190   2.565
 2382SOL     OW 8044   1.983   2.587   5.941
 2382SOL    HW1 8045   1.892   2.583   5.900
 2382SOL    HW2 8046   1.976   2.617   6.036
 2383SOL     OW 8047   5.621   5.236   1.471
 2383SOL    HW1 8048   5.625   5.252   1.372
 2383SOL    HW2 8049   5.579   5.147   1.489
 2384SOL     OW 8050   4.281   1.335   1.595
 2384SOL    HW1 8051   4.276   1.421   1.646
 2384SOL    HW2 8052   4.375   1.299   1.600
 2385SOL     OW 8053   1.182   3.066   0.504
 2385SOL    HW1 8054   1.225   3.003   0.439
 2385SOL    HW2 8055   1.252   3.123   0.546
 2386SOL     OW 8056   4.569   4.766   2.636
 2386SOL    HW1 8057   4.518   4.834   2.688
 2386SOL    HW2 8058   4.530   4.676   2.651
 2387SOL     OW 8059   1.215   1.455   2.543
 2387SOL    HW1 8060   1.238   1.513   2.465
 2387SOL    HW2 8061   1.180   1.367   2.510
 2388SOL     OW 8062   6.716   1.423   4.164
 2388SOL    HW1 8063   6.746   1.400   4.257
 2388SOL    HW2 8064   6.644   1.492   4.168
 2389SOL     OW 8065   3.574   6.747   2.227
 2389SOL    HW1 8066   3.520   6.800   2.162
 2389SOL    HW2 8067   3.647   6.804   2.265
 2390SOL     OW 8068   3.190   4.550   0.847
 2390SOL    HW1 8069   3.219   4.550   0.943
 2390SOL    HW2 8070   3.108   4.607   0.837
 2391SOL     OW 8071   4.051   5.374   4.451
 2391SOL    HW1 8072   4.012   5.287   4.420
 2391SOL    HW2 8073   3.991   5.449   4.423
 2392SOL     OW 8074   3.744   0.983   6.846
 2392SOL    HW1 8075   3.771   0.976   6.750
 2392SOL    HW2 8076   3.691   1.066   6.861
 2393SOL     OW 8077   3.715   5.568   4.842
 2393SOL    HW1 8078   3.634   5.609   4.801
 2393SOL    HW2 8079   3.797   5.602   4.797
 2394SOL     OW 8080   0.097   5.020   5.198
 2394SOL    HW1 8081   0.170   5.069   5.244
 2394SOL    HW2 8082   0.136   4.957   5.131
 2395SOL     OW 8083   4.593   6.470   6.431
 2395SOL    HW1 8084   4.681   6.423   6.424
 2395SOL    HW2 8085   4.587   6.539   6.359
 2396SOL     OW 8086   2.825   6.638   0.439
 2396SOL    HW1 8087   2.796   6.658   0.346
 2396SOL    HW2 8088   2.903   6.576   0.438
 2397SOL     OW 8089   0.372   3.108   4.688
 2397SOL    HW1 8090   0.469   3.087   4.695
 2397SOL    HW2 8091   0.357   3.168   4.609
 2398SOL     OW 8092   5.231   3.979   5.476
 2398SOL    HW1 8093   5.307   3.949   5.419
 2398SOL    HW2 8094   5.209   4.074   5.457
 2399SOL     OW 8095   5.033   2.684   1.804
 2399SOL    HW1 8096   4.953   2.636   1.840
 2399SOL    HW2 8097   5.054   2.762   1.863
 2400SOL     OW 8098   1.419   4.382   6.985
 2400SOL    HW1 8099   1.472   4.298   6.993
 2400SOL    HW2 8100   1.424   4.415   6.891
 2401SOL     OW 8101   6.235   6.036   7.007
 2401SOL    HW1 8102   6.280   6.097   6.941
 2401SOL    HW2 8103   6.163   5.985   6.961
 2402SOL     OW 8104   6.913   6.500   3.760
 2402SOL    HW1 8105   6.916   6.563   3.838
 2402SOL    HW2 8106   6.820   6.468   3.747
 2403SOL     OW 8107   1.337   0.833   3.335
 2403SOL    HW1 8108   1.348   0.849   3.236
 2403SOL    HW2 8109   1.382   0.907   3.385
 2404SOL     OW 8110   1.225   0.475   0.309
 2404SOL    HW1 8111   1.288   0.526   0.368
 2404SOL    HW2 8112   1.238   0.504   0.214
 2405SOL     OW 8113   3.400   4.538   1.337
 2405SOL    HW1 8114   3.449   4.624   1.324
 2405SOL    HW2 8115   3.397   4.515   1.435
 2406SOL     OW 8116   4.735   1.485   1.188
 2406SOL    HW1 8117   4.695   1.401   1.224
 2406SOL    HW2 8118   4.671   1.527   1.123
 2407SOL     OW 8119   4.891   6.874   3.455
 2407SOL    HW1 8120   4.884   6.909   3.549
 2407SOL    HW2 8121   4.965   6.921   3.407
 2408SOL     OW 8122   4.151   4.852   2.068
 2408SOL    HW1 8123   4.135   4.848   2.167
 2408SOL    HW2 8124   4.063   4.849   2.020
 2409SOL     OW 8125   1.232   4.051   1.239
 2409SOL    HW1 8126   1.159   4.104   1.283
 2409SOL    HW2 8127   1.219   4.052   1.140
 2410SOL     OW 8128   4.108   3.329   2.565
 2410SOL    HW1 8129   4.075   3.235   2.560
 2410SOL    HW2 8130   4.165   3.341   2.647
 2411SOL     OW 8131   3.658   0.475   5.744
 2411SOL    HW1 8132   3.579   0.498   5.801
 2411SOL    HW2 8133   3.645   0.513   5.653
 2412SOL     OW 8134   4.164   3.595   1.007
 2412SOL    HW1 8135   4.133   3.617   1.100
 2412SOL    HW2 8136   4.205   3.503   1.007
 2413SOL     OW 8137   3.107   0.724   2.981
 2413SOL    HW1 8138   3.126   0.805   2.925
 2413SOL    HW2 8139   3.011   0.725   3.008
 2414SOL     OW 8140   4.803   3.120   4.103
 2414SOL    HW1 8141   4.790   3.102   4.005
 2414SOL    HW2 8142   4.886   3.173   4.116
 2415SOL     OW 8143   3.443   0.285   2.989
 2415SOL    HW1 8144   3.355   0.240   2.973
 2415SOL    HW2 8145   3.517   0.223   2.964
 2416SOL     OW 8146   5.187   1.924   6.160
 2416SOL    HW1 8147   5.201   2.020   6.134
 2416SOL    HW2 8148   5.185   1.917   6.260
 2417SOL     OW 8149   3.152   3.895   5.935
 2417SOL    HW1 8150   3.212   3.957   5.987
 2417SOL    HW2 8151   3.063   3.890   5.980
 2418SOL     OW 8152   3.815   2.960   2.346
 2418SOL    HW1 8153   3.762   2.901   2.285
 2418SOL    HW2 8154   3.762   3.042   2.368
 2419SOL     OW 8155   6.920   0.465   4.039
 2419SOL    HW1 8156   6.997   0.528   4.041
 2419SOL    HW2 8157   6.917   0.412   4.124
 2420SOL     OW 8158   2.021   0.160   1.969
 2420SOL    HW1 8159   1.934   0.209   1.966
 2420SOL    HW2 8160   2.090   0.217   2.014
 2421SOL     OW 8161   4.582   2.228   3.303
 2421SOL    HW1 8162   4.484   2.209   3.307
 2421SOL    HW2 8163   4.633   2.142   3.304
 2422SOL     OW 8164   5.722   1.714   1.360
 2422SOL    HW1 8165   5.808   1.732   1.312
 2422SOL    HW2 8166   5.646   1.758   1.312
 2423SOL     OW 8167   1.375   4.893   2.633
 2423SOL    HW1 8168   1.439   4.935   2.568
 2423SOL    HW2 8169   1.411   4.903   2.726
 2424SOL     OW 8170   6.660   6.723   6.963
 2424SOL    HW1 8171   6.691   6.644   7.016
 2424SOL    HW2 8172   6.560   6.728   6.966
 2425SOL     OW 8173   6.880   6.728   4.505
 2425SOL    HW1 8174   6.825   6.727   4.589
 2425SOL    HW2 8175   6.915   6.636   4.487
 2426SOL     OW 8176   1.803   5.621   4.554
 2426SOL    HW1 8177   1.731   5.682   4.588
 2426SOL    HW2 8178   1.767   5.565   4.480
 2427SOL     OW 8179   6.202   0.753   5.208
 2427SOL    HW1 8180   6.280   0.721   5.263
 2427SOL    HW2 8181   6.118   0.716   5.245
 2428SOL     OW 8182   6.079   2.350   0.624
 2428SOL    HW1 8183   6.140   2.399   0.561
 2428SOL    HW2 8184   5.994   2.402   0.634
 2429SOL     OW 8185   4.655   4.377   2.557
 2429SOL    HW1 8186   4.570   4.415   2.593
 2429SOL    HW2 8187   4.711   4.450   2.517
 2430SOL     OW 8188   5.433   0.266   2.086
 2430SOL    HW1 8189   5.340   0.249   2.052
 2430SOL    HW2 8190   5.429   0.324   2.167
 2431SOL     OW 8191   4.271   6.927   2.166
 2431SOL    HW1 8192   4.234   6.882   2.085
 2431SOL    HW2 8193   4.340   6.993   2.138
 2432SOL     OW 8194   2.876   5.644   2.508
 2432SOL    HW1 8195   2.877   5.715   2.578
 2432SOL    HW2 8196   2.962   5.647   2.457
 2433SOL     OW 8197   5.311   0.033   0.750
 2433SOL    HW1 8198   5.211   0.034   0.752
 2433SOL    HW2 8199   5.345   0.117   0.793
 2434SOL     OW 8200   3.314   2.846   5.030
 2434SOL    HW1 8201   3.258   2.875   5.107
 2434SOL    HW2 8202   3.259   2.847   4.946
 2435SOL     OW 8203   5.632   5.029   6.973
 2435SOL    HW1 8204   5.722   5.068   6.953
 2435SOL    HW2 8205   5.580   5.093   0.009
 2436SOL     OW 8206   3.255   4.451   0.597
 2436SOL    HW1 8207   3.236   4.496   0.684
 2436SOL    HW2 8208   3.182   4.386   0.576
 2437SOL     OW 8209   0.329   1.273   5.584
 2437SOL    HW1 8210   0.418   1.246   5.621
 2437SOL    HW2 8211   0.265   1.196   5.592
 2438SOL     OW 8212   3.568   3.564   0.491
 2438SOL    HW1 8213   3.661   3.543   0.460
 2438SOL    HW2 8214   3.569   3.646   0.548
 2439SOL     OW 8215   6.296   3.999   6.291
 2439SOL    HW1 8216   6.381   4.044   6.264
 2439SOL    HW2 8217   6.296   3.905   6.257
 2440SOL     OW 8218   6.552   5.297   6.330
 2440SOL    HW1 8219   6.597   5.212   6.359
 2440SOL    HW2 8220   6.619   5.358   6.288
 2441SOL     OW 8221   6.503   2.235   0.531
 2441SOL    HW1 8222   6.528   2.194   0.619
 2441SOL    HW2 8223   6.406   2.217   0.512
 2442SOL     OW 8224   6.728   1.950   4.823
 2442SOL    HW1 8225   6.810   1.923   4.772
 2442SOL    HW2 8226   6.749   1.948   4.921
 2443SOL     OW 8227   3.138   4.988   6.847
 2443SOL    HW1 8228   3.066   5.057   6.843
 2443SOL    HW2 8229   3.129   4.934   6.931
 2444SOL     OW 8230   3.885   2.701   6.159
 2444SOL    HW1 8231   3.976   2.707   6.118
 2444SOL    HW2 8232   3.890   2.649   6.244
 2445SOL     OW 8233   0.884   1.041   0.822
 2445SOL    HW1 8234   0.916   0.965   0.765
 2445SOL    HW2 8235   0.852   1.115   0.764
 2446SOL     OW 8236   5.202   3.069   6.316
 2446SOL    HW1 8237   5.134   3.109   6.255
 2446SOL    HW2 8238   5.265   3.012   6.262
 2447SOL     OW 8239   0.914   3.674   6.446
 2447SOL    HW1 8240   0.816   3.655   6.447
 2447SOL    HW2 8241   0.945   3.686   6.352
 2448SOL     OW 8242   6.208   0.306   5.019
 2448SOL    HW1 8243   6.258   0.386   4.988
 2448SOL    HW2 8244   6.227   0.229   4.957
 2449SOL     OW 8245   7.012   2.966   5.735
 2449SOL    HW1 8246   7.012   2.887   5.674
 2449SOL    HW2 8247   0.083   3.005   5.739
 2450SOL     OW 8248   2.970   2.833   1.023
 2450SOL    HW1 8249   2.983   2.923   0.981
 2450SOL    HW2 8250   3.058   2.802   1.060
 2451SOL     OW 8251   2.076   5.902   3.467
 2451SOL    HW1 8252   2.113   5.920   3.376
 2451SOL    HW2 8253   2.122   5.823   3.507
 2452SOL     OW 8254   3.085   1.554   4.120
 2452SOL    HW1 8255   3.110   1.641   4.163
 2452SOL    HW2 8256   3.123   1.478   4.172
 2453SOL     OW 8257   0.747   3.430   1.182
 2453SOL    HW1 8258   0.690   3.420   1.100
 2453SOL    HW2 8259   0.821   3.495   1.163
 2454SOL     OW 8260   6.948   6.872   2.277
 2454SOL    HW1 8261   6.912   6.780   2.295
 2454SOL    HW2 8262   6.987   6.875   2.185
 2455SOL     OW 8263   5.255   3.580   1.225
 2455SOL    HW1 8264   5.286   3.519   1.298
 2455SOL    HW2 8265   5.160   3.607   1.243
 2456SOL     OW 8266   2.598   6.633   1.264
 2456SOL    HW1 8267   2.686   6.585   1.259
 2456SOL    HW2 8268   2.528   6.578   1.218
 2457SOL     OW 8269   5.278   5.838   0.945
 2457SOL    HW1 8270   5.261   5.932   0.915
 2457SOL    HW2 8271   5.283   5.779   0.864
 2458SOL     OW 8272   0.286   6.682   1.909
 2458SOL    HW1 8273   0.373   6.726   1.890
 2458SOL    HW2 8274   0.224   6.697   1.831
 2459SOL     OW 8275   1.380   2.347   0.423
 2459SOL    HW1 8276   1.387   2.324   0.520
 2459SOL    HW2 8277   1.432   2.430   0.405
 2460SOL     OW 8278   1.570   4.173   1.159
 2460SOL    HW1 8279   1.534   4.097   1.213
 2460SOL    HW2 8280   1.572   4.256   1.215
 2461SOL     OW 8281   4.780   0.995   3.102
 2461SOL    HW1 8282   4.768   0.942   3.018
 2461SOL    HW2 8283   4.831   1.079   3.081
 2462SOL     OW 8284   3.166   5.274   6.679
 2462SOL    HW1 8285   3.232   5.330   6.729
 2462SOL    HW2 8286   3.167   5.181   6.715
 2463SOL     OW 8287   2.074   3.081   5.824
 2463SOL    HW1 8288   2.016   3.108   5.747
 2463SOL    HW2 8289   2.128   3.001   5.798
 2464SOL     OW 8290   0.836   3.952   1.005
 2464SOL    HW1 8291   0.810   3.967   1.101
 2464SOL    HW2 8292   0.755   3.936   0.950
 2465SOL     OW 8293   6.109   4.267   3.312
 2465SOL    HW1 8294   6.126   4.303   3.221
 2465SOL    HW2 8295   6.179   4.201   3.337
 2466SOL     OW 8296   4.061   1.551   1.687
 2466SOL    HW1 8297   4.112   1.636   1.701
 2466SOL    HW2 8298   4.069   1.522   1.592
 2467SOL     OW 8299   1.603   1.160   4.312
 2467SOL    HW1 8300   1.547   1.243   4.305
 2467SOL    HW2 8301   1.647   1.143   4.224
 2468SOL     OW 8302   0.033   4.634   6.682
 2468SOL    HW1 8303   6.986   4.583   6.735
 2468SOL    HW2 8304   0.007   4.632   6.585
 2469SOL     OW 8305   2.729   1.971   6.576
 2469SOL    HW1 8306   2.816   1.981   6.624
 2469SOL    HW2 8307   2.726   2.034   6.499
 2470SOL     OW 8308   5.224   3.048   0.476
 2470SOL    HW1 8309   5.206   2.952   0.500
 2470SOL    HW2 8310   5.320   3.070   0.495
 2471SOL     OW 8311   0.948   1.304   3.111
 2471SOL    HW1 8312   1.041   1.270   3.100
 2471SOL    HW2 8313   0.943   1.399   3.079
 2472SOL     OW 8314   6.915   0.278   4.616
 2472SOL    HW1 8315   7.003   0.323   4.602
 2472SOL    HW2 8316   6.873   0.312   4.700
 2473SOL     OW 8317   0.314   5.262   4.710
 2473SOL    HW1 8318   0.252   5.202   4.661
 2473SOL    HW2 8319   0.329   5.227   4.803
 2474SOL     OW 8320   5.647   6.876   4.115
 2474SOL    HW1 8321   5.602   6.956   4.074
 2474SOL    HW2 8322   5.602   6.793   4.083
 2475SOL     OW 8323   4.026   2.888   6.442
 2475SOL    HW1 8324   3.964   2.954   6.485
 2475SOL    HW2 8325   4.004   2.797   6.475
 2476SOL     OW 8326   0.581   1.636   3.849
 2476SOL    HW1 8327   0.669   1.590   3.859
 2476SOL    HW2 8328   0.529   1.626   3.933
 2477SOL     OW 8329   4.891   4.347   1.944
 2477SOL    HW1 8330   4.814   4.311   1.891
 2477SOL    HW2 8331   4.855   4.401   2.021
 2478SOL     OW 8332   6.840   0.815   1.858
 2478SOL    HW1 8333   6.911   0.801   1.927
 2478SOL    HW2 8334   6.772   0.742   1.866
 2479SOL     OW 8335   1.355   3.432   0.546
 2479SOL    HW1 8336   1.364   3.525   0.581
 2479SOL    HW2 8337   1.270   3.423   0.495
 2480SOL     OW 8338   6.505   5.011   0.336
 2480SOL    HW1 8339   6.506   4.919   0.375
 2480SOL    HW2 8340   6.545   5.008   0.244
 2481SOL     OW 8341   4.092   4.920   2.630
 2481SOL    HW1 8342   4.021   4.990   2.627
 2481SOL    HW2 8343   4.138   4.915   2.541
 2482SOL     OW 8344   3.835   2.160   4.492
 2482SOL    HW1 8345   3.785   2.149   4.578
 2482SOL    HW2 8346   3.930   2.183   4.511
 2483SOL     OW 8347   0.845   2.840   6.786
 2483SOL    HW1 8348   0.784   2.920   6.787
 2483SOL    HW2 8349   0.896   2.838   6.700
 2484SOL     OW 8350   3.487   3.995   5.426
 2484SOL    HW1 8351   3.520   3.907   5.458
 2484SOL    HW2 8352   3.387   3.992   5.417
 2485SOL     OW 8353   0.935   4.950   0.733
 2485SOL    HW1 8354   0.939   5.044   0.767
 2485SOL    HW2 8355   0.841   4.916   0.739
 2486SOL     OW 8356   0.159   5.270   3.926
 2486SOL    HW1 8357   0.166   5.311   3.835
 2486SOL    HW2 8358   0.138   5.342   3.993
 2487SOL     OW 8359   2.808   1.326   1.236
 2487SOL    HW1 8360   2.856   1.284   1.313
 2487SOL    HW2 8361   2.722   1.366   1.267
 2488SOL     OW 8362   2.394   5.731   6.642
 2488SOL    HW1 8363   2.429   5.638   6.649
 2488SOL    HW2 8364   2.407   5.778   6.730
 2489SOL     OW 8365   6.512   5.381   4.780
 2489SOL    HW1 8366   6.478   5.386   4.873
 2489SOL    HW2 8367   6.499   5.288   4.745
 2490SOL     OW 8368   5.735   2.820   1.600
 2490SOL    HW1 8369   5.690   2.870   1.674
 2490SOL    HW2 8370   5.731   2.721   1.618
 2491SOL     OW 8371   0.059   3.938   2.219
 2491SOL    HW1 8372   0.068   3.983   2.308
 2491SOL    HW2 8373   6.989   3.954   2.183
 2492SOL     OW 8374   4.139   1.510   0.516
 2492SOL    HW1 8375   4.192   1.447   0.573
 2492SOL    HW2 8376   4.192   1.534   0.435
 2493SOL     OW 8377   6.386   0.724   5.899
 2493SOL    HW1 8378   6.424   0.650   5.954
 2493SOL    HW2 8379   6.318   0.687   5.835
 2494SOL     OW 8380   5.715   5.365   0.859
 2494SOL    HW1 8381   5.771   5.346   0.778
 2494SOL    HW2 8382   5.630   5.410   0.831
 2495SOL     OW 8383   6.702   1.217   3.159
 2495SOL    HW1 8384   6.769   1.279   3.200
 2495SOL    HW2 8385   6.747   1.163   3.088
 2496SOL     OW 8386   1.671   4.819   0.680
 2496SOL    HW1 8387   1.749   4.873   0.651
 2496SOL    HW2 8388   1.699   4.723   0.691
 2497SOL     OW 8389   5.961   1.537   6.234
 2497SOL    HW1 8390   5.903   1.456   6.228
 2497SOL    HW2 8391   5.973   1.577   6.143
 2498SOL     OW 8392   1.440   3.267   4.631
 2498SOL    HW1 8393   1.466   3.298   4.539
 2498SOL    HW2 8394   1.506   3.303   4.697
 2499SOL     OW 8395   4.830   0.339   0.063
 2499SOL    HW1 8396   4.888   0.271   0.018
 2499SOL    HW2 8397   4.743   0.298   0.087
 2500SOL     OW 8398   5.032   2.862   5.934
 2500SOL    HW1 8399   4.937   2.845   5.958
 2500SOL    HW2 8400   5.044   2.957   5.907
 2501SOL     OW 8401   6.016   5.171   0.706
 2501SOL    HW1 8402   5.960   5.239   0.657
 2501SOL    HW2 8403   6.080   5.218   0.766
 2502SOL     OW 8404   1.203   6.614   3.024
 2502SOL    HW1 8405   1.195   6.515   3.037
 2502SOL    HW2 8406   1.238   6.634   2.932
 2503SOL     OW 8407   5.584   5.690   3.583
 2503SOL    HW1 8408   5.560   5.693   3.680
 2503SOL    HW2 8409   5.514   5.639   3.533
 2504SOL     OW 8410   3.424   4.893   2.702
 2504SOL    HW1 8411   3.364   4.960   2.659
 2504SOL    HW2 8412   3.510   4.887   2.651
 2505SOL     OW 8413   4.960   3.593   4.649
 2505SOL    HW1 8414   5.047   3.607   4.697
 2505SOL    HW2 8415   4.924   3.503   4.671
 2506SOL     OW 8416   1.463   1.310   0.049
 2506SOL    HW1 8417   1.416   1.397   0.036
 2506SOL    HW2 8418   1.562   1.325   0.047
 2507SOL     OW 8419   6.461   5.393   1.067
 2507SOL    HW1 8420   6.462   5.460   1.141
 2507SOL    HW2 8421   6.458   5.441   0.979
 2508SOL     OW 8422   1.347   1.630   1.702
 2508SOL    HW1 8423   1.291   1.686   1.642
 2508SOL    HW2 8424   1.290   1.561   1.746
 2509SOL     OW 8425   6.270   0.099   3.687
 2509SOL    HW1 8426   6.350   0.100   3.747
 2509SOL    HW2 8427   6.299   0.116   3.593
 2510SOL     OW 8428   3.571   5.793   2.872
 2510SOL    HW1 8429   3.498   5.727   2.857
 2510SOL    HW2 8430   3.541   5.883   2.840
 2511SOL     OW 8431   1.030   5.360   4.483
 2511SOL    HW1 8432   1.126   5.335   4.498
 2511SOL    HW2 8433   0.982   5.284   4.439
 2512SOL     OW 8434   6.051   3.227   4.791
 2512SOL    HW1 8435   6.123   3.188   4.734
 2512SOL    HW2 8436   6.074   3.214   4.888
 2513SOL     OW 8437   1.076   4.417   1.709
 2513SOL    HW1 8438   0.978   4.433   1.720
 2513SOL    HW2 8439   1.110   4.469   1.631
 2514SOL     OW 8440   0.022   2.173   4.508
 2514SOL    HW1 8441   0.072   2.101   4.557
 2514SOL    HW2 8442   6.980   2.218   4.570
 2515SOL     OW 8443   0.092   5.299   6.251
 2515SOL    HW1 8444   0.061   5.219   6.302
 2515SOL    HW2 8445   0.154   5.271   6.179
 2516SOL     OW 8446   4.932   6.459   4.896
 2516SOL    HW1 8447   4.918   6.509   4.810
 2516SOL    HW2 8448   5.024   6.478   4.930
 2517SOL     OW 8449   2.661   5.833   6.511
 2517SOL    HW1 8450   2.582   5.803   6.564
 2517SOL    HW2 8451   2.697   5.755   6.459
 2518SOL     OW 8452   2.140   2.222   0.834
 2518SOL    HW1 8453   2.126   2.321   0.827
 2518SOL    HW2 8454   2.237   2.202   0.824
 2519SOL     OW 8455   5.857   3.896   4.461
 2519SOL    HW1 8456   5.776   3.912   4.404
 2519SOL    HW2 8457   5.848   3.947   4.546
 2520SOL     OW 8458   4.424   5.745   1.223
 2520SOL    HW1 8459   4.349   5.722   1.161
 2520SOL    HW2 8460   4.510   5.745   1.173
 2521SOL     OW 8461   5.515   6.144   5.884
 2521SOL    HW1 8462   5.556   6.071   5.939
 2521SOL    HW2 8463   5.434   6.108   5.837
 2522SOL     OW 8464   3.353   5.526   4.343
 2522SOL    HW1 8465   3.301   5.441   4.353
 2522SOL    HW2 8466   3.315   5.596   4.403
 2523SOL     OW 8467   0.980   1.944   0.211
 2523SOL    HW1 8468   0.991   1.852   0.175
 2523SOL    HW2 8469   1.017   2.010   0.145
 2524SOL     OW 8470   1.987   0.357   4.447
 2524SOL    HW1 8471   1.978   0.336   4.544
 2524SOL    HW2 8472   2.062   0.422   4.434
 2525SOL     OW 8473   2.937   4.837   2.504
 2525SOL    HW1 8474   2.993   4.809   2.426
 2525SOL    HW2 8475   2.955   4.933   2.525
 2526SOL     OW 8476   2.205   3.433   5.280
 2526SOL    HW1 8477   2.293   3.388   5.263
 2526SOL    HW2 8478   2.132   3.365   5.281
 2527SOL     OW 8479   6.832   0.115   4.194
 2527SOL    HW1 8480   6.790   0.152   4.111
 2527SOL    HW2 8481   6.822   0.181   4.269
 2528SOL     OW 8482   5.539   4.955   2.851
 2528SOL    HW1 8483   5.590   4.871   2.831
 2528SOL    HW2 8484   5.461   4.933   2.908
 2529SOL     OW 8485   5.017   5.821   5.035
 2529SOL    HW1 8486   4.970   5.908   5.026
 2529SOL    HW2 8487   4.990   5.760   4.959
 2530SOL     OW 8488   1.243   6.755   3.589
 2530SOL    HW1 8489   1.298   6.717   3.515
 2530SOL    HW2 8490   1.185   6.683   3.628
 2531SOL     OW 8491   5.108   2.579   5.908
 2531SOL    HW1 8492   5.069   2.666   5.939
 2531SOL    HW2 8493   5.061   2.550   5.824
 2532SOL     OW 8494   6.542   5.345   0.033
 2532SOL    HW1 8495   6.554   5.322   0.130
 2532SOL    HW2 8496   6.622   5.396   0.001
 2533SOL     OW 8497   4.778   0.575   3.899
 2533SOL    HW1 8498   4.785   0.522   3.814
 2533SOL    HW2 8499   4.686   0.566   3.937
 2534SOL     OW 8500   6.562   0.472   2.184
 2534SOL    HW1 8501   6.468   0.505   2.195
 2534SOL    HW2 8502   6.626   0.547   2.201
 2535SOL     OW 8503   2.939   1.130   1.412
 2535SOL    HW1 8504   3.012   1.069   1.442
 2535SOL    HW2 8505   2.851   1.096   1.446
 2536SOL     OW 8506   0.386   6.717   2.811
 2536SOL    HW1 8507   0.424   6.626   2.825
 2536SOL    HW2 8508   0.425   6.758   2.728
 2537SOL     OW 8509   2.075   6.699   1.995
 2537SOL    HW1 8510   2.094   6.790   1.958
 2537SOL    HW2 8511   1.988   6.667   1.959
 2538SOL     OW 8512   6.935   5.122   4.882
 2538SOL    HW1 8513   6.845   5.091   4.911
 2538SOL    HW2 8514   6.949   5.100   4.785
 2539SOL     OW 8515   0.533   0.048   5.026
 2539SOL    HW1 8516   0.576   0.026   4.938
 2539SOL    HW2 8517   0.487   6.989   5.062
 2540SOL     OW 8518   5.788   3.035   2.263
 2540SOL    HW1 8519   5.737   3.044   2.178
 2540SOL    HW2 8520   5.730   2.990   2.332
 2541SOL     OW 8521   1.714   0.371   6.982
 2541SOL    HW1 8522   1.701   0.272   6.983
 2541SOL    HW2 8523   1.797   0.393   6.930
 2542SOL     OW 8524   4.051   2.069   2.768
 2542SOL    HW1 8525   4.123   2.003   2.745
 2542SOL    HW2 8526   4.086   2.135   2.834
 2543SOL     OW 8527   5.828   6.359   5.466
 2543SOL    HW1 8528   5.754   6.319   5.521
 2543SOL    HW2 8529   5.827   6.458   5.476
 2544SOL     OW 8530   0.098   0.869   0.494
 2544SOL    HW1 8531   0.138   0.960   0.476
 2544SOL    HW2 8532   0.153   0.799   0.449
 2545SOL     OW 8533   0.910   1.404   0.568
 2545SOL    HW1 8534   0.851   1.418   0.488
 2545SOL    HW2 8535   0.907   1.486   0.626
 2546SOL     OW 8536   6.273   2.771   3.797
 2546SOL    HW1 8537   6.212   2.837   3.842
 2546SOL    HW2 8538   6.263   2.682   3.841
 2547SOL     OW 8539   6.528   3.352   0.634
 2547SOL    HW1 8540   6.604   3.292   0.608
 2547SOL    HW2 8541   6.476   3.309   0.707
 2548SOL     OW 8542   5.592   0.113   5.644
 2548SOL    HW1 8543   5.667   0.101   5.578
 2548SOL    HW2 8544   5.610   0.059   5.726
 2549SOL     OW 8545   2.939   4.082   6.649
 2549SOL    HW1 8546   2.913   4.003   6.593
 2549SOL    HW2 8547   2.861   4.112   6.704
 2550SOL     OW 8548   3.969   0.849   1.756
 2550SOL    HW1 8549   3.941   0.943   1.773
 2550SOL    HW2 8550   3.947   0.824   1.662
 2551SOL     OW 8551   2.613   4.618   0.410
 2551SOL    HW1 8552   2.689   4.620   0.475
 2551SOL    HW2 8553   2.527   4.605   0.459
 2552SOL     OW 8554   3.164   5.273   0.604
 2552SOL    HW1 8555   3.126   5.182   0.616
 2552SOL    HW2 8556   3.226   5.294   0.679
 2553SOL     OW 8557   3.641   1.926   1.445
 2553SOL    HW1 8558   3.637   2.018   1.407
 2553SOL    HW2 8559   3.715   1.920   1.512
 2554SOL     OW 8560   1.274   5.410   0.793
 2554SOL    HW1 8561   1.288   5.311   0.796
 2554SOL    HW2 8562   1.191   5.434   0.845
 2555SOL     OW 8563   0.300   5.775   4.653
 2555SOL    HW1 8564   0.232   5.836   4.612
 2555SOL    HW2 8565   0.261   5.683   4.662
 2556SOL     OW 8566   5.469   0.275   6.804
 2556SOL    HW1 8567   5.490   0.359   6.754
 2556SOL    HW2 8568   5.554   0.229   6.830
 2557SOL     OW 8569   2.447   1.198   0.578
 2557SOL    HW1 8570   2.513   1.249   0.632
 2557SOL    HW2 8571   2.490   1.114   0.544
 2558SOL     OW 8572   5.363   2.808   1.726
 2558SOL    HW1 8573   5.435   2.871   1.756
 2558SOL    HW2 8574   5.274   2.854   1.735
 2559SOL     OW 8575   0.038   6.028   3.218
 2559SOL    HW1 8576   0.002   5.954   3.275
 2559SOL    HW2 8577   0.117   5.995   3.166
 2560SOL     OW 8578   3.888   3.044   1.569
 2560SOL    HW1 8579   3.845   3.074   1.484
 2560SOL    HW2 8580   3.819   3.042   1.642
 2561SOL     OW 8581   3.605   0.947   4.629
 2561SOL    HW1 8582   3.661   0.864   4.620
 2561SOL    HW2 8583   3.630   0.994   4.714
 2562SOL     OW 8584   0.809   6.694   4.765
 2562SOL    HW1 8585   0.811   6.622   4.695
 2562SOL    HW2 8586   0.767   6.776   4.727
 2563SOL     OW 8587   4.676   1.760   0.325
 2563SOL    HW1 8588   4.663   1.767   0.226
 2563SOL    HW2 8589   4.747   1.692   0.343
 2564SOL     OW 8590   2.172   0.241   1.568
 2564SOL    HW1 8591   2.256   0.294   1.555
 2564SOL    HW2 8592   2.097   0.303   1.592
 2565SOL     OW 8593   6.006   0.529   0.432
 2565SOL    HW1 8594   6.075   0.473   0.480
 2565SOL    HW2 8595   5.938   0.561   0.497
 2566SOL     OW 8596   2.893   1.555   0.571
 2566SOL    HW1 8597   2.831   1.633   0.579
 2566SOL    HW2 8598   2.929   1.532   0.661
 2567SOL     OW 8599   1.907   0.421   6.281
 2567SOL    HW1 8600   1.892   0.465   6.192
 2567SOL    HW2 8601   1.920   0.323   6.268
 2568SOL     OW 8602   3.143   6.315   6.855
 2568SOL    HW1 8603   3.094   6.394   6.892
 2568SOL    HW2 8604   3.078   6.252   6.813
 2569SOL     OW 8605   3.118   6.634   6.339
 2569SOL    HW1 8606   3.146   6.578   6.417
 2569SOL    HW2 8607   3.054   6.704   6.370
 2570SOL     OW 8608   0.267   0.343   3.807
 2570SOL    HW1 8609   0.363   0.334   3.779
 2570SOL    HW2 8610   0.220   0.406   3.745
 2571SOL     OW 8611   3.299   3.381   2.273
 2571SOL    HW1 8612   3.387   3.427   2.284
 2571SOL    HW2 8613   3.234   3.444   2.230
 2572SOL     OW 8614   2.128   6.207   2.454
 2572SOL    HW1 8615   2.200   6.275   2.442
 2572SOL    HW2 8616   2.126   6.146   2.375
 2573SOL     OW 8617   6.385   0.101   2.478
 2573SOL    HW1 8618   6.433   0.177   2.434
 2573SOL    HW2 8619   6.363   0.032   2.410
 2574SOL     OW 8620   0.819   4.453   1.699
 2574SOL    HW1 8621   0.821   4.366   1.749
 2574SOL    HW2 8622   0.728   4.468   1.662
 2575SOL     OW 8623   4.176   3.494   5.210
 2575SOL    HW1 8624   4.157   3.518   5.115
 2575SOL    HW2 8625   4.270   3.461   5.217
 2576SOL     OW 8626   1.431   0.903   3.726
 2576SOL    HW1 8627   1.527   0.904   3.756
 2576SOL    HW2 8628   1.427   0.922   3.628
 2577SOL     OW 8629   1.313   4.675   0.167
 2577SOL    HW1 8630   1.230   4.712   0.125
 2577SOL    HW2 8631   1.370   4.633   0.096
 2578SOL     OW 8632   5.382   0.806   5.153
 2578SOL    HW1 8633   5.384   0.774   5.059
 2578SOL    HW2 8634   5.473   0.796   5.194
 2579SOL     OW 8635   0.467   2.392   6.473
 2579SOL    HW1 8636   0.401   2.385   6.548
 2579SOL    HW2 8637   0.525   2.472   6.487
 2580SOL     OW 8638   1.704   2.507   5.260
 2580SOL    HW1 8639   1.676   2.507   5.164
 2580SOL    HW2 8640   1.630   2.471   5.316
 2581SOL     OW 8641   4.875   6.892   4.078
 2581SOL    HW1 8642   4.869   6.966   4.010
 2581SOL    HW2 8643   4.963   6.846   4.069
 2582SOL     OW 8644   6.789   4.623   2.567
 2582SOL    HW1 8645   6.850   4.606   2.491
 2582SOL    HW2 8646   6.779   4.722   2.581
 2583SOL     OW 8647   3.188   0.460   6.969
 2583SOL    HW1 8648   3.153   0.546   6.933
 2583SOL    HW2 8649   3.122   0.420   0.010
 2584SOL     OW 8650   3.666   1.244   4.332
 2584SOL    HW1 8651   3.578   1.211   4.300
 2584SOL    HW2 8652   3.671   1.235   4.431
 2585SOL     OW 8653   3.540   0.675   3.004
 2585SOL    HW1 8654   3.491   0.588   2.990
 2585SOL    HW2 8655   3.517   0.738   2.930
 2586SOL     OW 8656   2.027   1.736   4.561
 2586SOL    HW1 8657   2.097   1.807   4.546
 2586SOL    HW2 8658   1.945   1.779   4.598
 2587SOL     OW 8659   6.446   4.572   3.373
 2587SOL    HW1 8660   6.395   4.564   3.288
 2587SOL    HW2 8661   6.497   4.487   3.389
 2588SOL     OW 8662   2.564   0.074   2.535
 2588SOL    HW1 8663   2.642   0.027   2.577
 2588SOL    HW2 8664   2.530   0.020   2.459
 2589SOL     OW 8665   5.068   6.654   1.910
 2589SOL    HW1 8666   4.972   6.631   1.893
 2589SOL    HW2 8667   5.083   6.667   2.008
 2590SOL     OW 8668   4.380   6.292   3.840
 2590SOL    HW1 8669   4.346   6.220   3.778
 2590SOL    HW2 8670   4.331   6.377   3.821
 2591SOL     OW 8671   5.239   0.648   0.600
 2591SOL    HW1 8672   5.156   0.610   0.642
 2591SOL    HW2 8673   5.242   0.746   0.616
 2592SOL     OW 8674   2.776   6.045   1.797
 2592SOL    HW1 8675   2.821   6.041   1.885
 2592SOL    HW2 8676   2.745   6.139   1.779
 2593SOL     OW 8677   2.971   0.192   4.428
 2593SOL    HW1 8678   2.987   0.224   4.334
 2593SOL    HW2 8679   3.023   0.108   4.444
 2594SOL     OW 8680   1.557   5.716   6.652
 2594SOL    HW1 8681   1.610   5.706   6.737
 2594SOL    HW2 8682   1.459   5.712   6.674
 2595SOL     OW 8683   6.884   3.206   5.445
 2595SOL    HW1 8684   6.967   3.261   5.456
 2595SOL    HW2 8685   6.841   3.226   5.358
 2596SOL     OW 8686   4.202   1.522   0.889
 2596SOL    HW1 8687   4.229   1.454   0.820
 2596SOL    HW2 8688   4.283   1.573   0.918
 2597SOL     OW 8689   2.907   2.146   5.912
 2597SOL    HW1 8690   2.989   2.108   5.955
 2597SOL    HW2 8691   2.934   2.211   5.841
 2598SOL     OW 8692   6.723   1.282   3.492
 2598SOL    HW1 8693   6.653   1.257   3.559
 2598SOL    HW2 8694   6.683   1.344   3.425
 2599SOL     OW 8695   4.944   5.838   5.986
 2599SOL    HW1 8696   5.012   5.795   6.045
 2599SOL    HW2 8697   4.986   5.863   5.899
 2600SOL     OW 8698   6.918   3.569   5.209
 2600SOL    HW1 8699   7.015   3.568   5.188
 2600SOL    HW2 8700   6.903   3.528   5.300
 2601SOL     OW 8701   4.058   4.325   5.299
 2601SOL    HW1 8702   4.112   4.387   5.242
 2601SOL    HW2 8703   4.010   4.259   5.240
 2602SOL     OW 8704   5.882   0.367   0.216
 2602SOL    HW1 8705   5.856   0.271   0.221
 2602SOL    HW2 8706   5.896   0.403   0.308
 2603SOL     OW 8707   1.902   1.601   6.842
 2603SOL    HW1 8708   1.910   1.633   6.748
 2603SOL    HW2 8709   1.806   1.585   6.864
 2604SOL     OW 8710   5.857   1.345   0.326
 2604SOL    HW1 8711   5.928   1.278   0.346
 2604SOL    HW2 8712   5.779   1.300   0.283
 2605SOL     OW 8713   5.591   1.580   5.408
 2605SOL    HW1 8714   5.505   1.626   5.384
 2605SOL    HW2 8715   5.649   1.573   5.327
 2606SOL     OW 8716   6.143   4.566   1.181
 2606SOL    HW1 8717   6.202   4.491   1.154
 2606SOL    HW2 8718   6.131   4.629   1.104
 2607SOL     OW 8719   0.569   0.193   2.847
 2607SOL    HW1 8720   0.515   0.119   2.807
 2607SOL    HW2 8721   0.592   0.171   2.941
 2608SOL     OW 8722   4.699   0.877   0.112
 2608SOL    HW1 8723   4.616   0.844   0.066
 2608SOL    HW2 8724   4.722   0.816   0.187
 2609SOL     OW 8725   0.828   4.264   3.628
 2609SOL    HW1 8726   0.864   4.357   3.631
 2609SOL    HW2 8727   0.851   4.216   3.712
 2610SOL     OW 8728   5.561   4.650   5.043
 2610SOL    HW1 8729   5.636   4.592   5.074
 2610SOL    HW2 8730   5.512   4.604   4.969
 2611SOL     OW 8731   2.928   6.543   1.362
 2611SOL    HW1 8732   2.944   6.489   1.280
 2611SOL    HW2 8733   2.972   6.498   1.440
 2612SOL     OW 8734   0.421   0.086   3.891
 2612SOL    HW1 8735   0.488   0.051   3.957
 2612SOL    HW2 8736   0.329   0.070   3.927
 2613SOL     OW 8737   4.082   1.558   0.095
 2613SOL    HW1 8738   4.124   1.601   0.015
 2613SOL    HW2 8739   4.053   1.465   0.071
 2614SOL     OW 8740   5.995   6.632   0.205
 2614SOL    HW1 8741   6.027   6.551   0.254
 2614SOL    HW2 8742   6.030   6.630   0.111
 2615SOL     OW 8743   0.073   4.882   1.312
 2615SOL    HW1 8744   0.027   4.962   1.273
 2615SOL    HW2 8745   0.007   4.828   1.363
 2616SOL     OW 8746   3.894   3.735   1.669
 2616SOL    HW1 8747   3.823   3.666   1.683
 2616SOL    HW2 8748   3.942   3.717   1.583
 2617SOL     OW 8749   3.168   6.831   0.419
 2617SOL    HW1 8750   3.116   6.812   0.336
 2617SOL    HW2 8751   3.137   6.917   0.459
 2618SOL     OW 8752   1.329   5.844   0.132
 2618SOL    HW1 8753   1.295   5.893   0.052
 2618SOL    HW2 8754   1.254   5.793   0.174
 2619SOL     OW 8755   6.025   0.569   2.602
 2619SOL    HW1 8756   6.060   0.551   2.510
 2619SOL    HW2 8757   5.994   0.664   2.607
 2620SOL     OW 8758   2.001   6.093   4.053
 2620SOL    HW1 8759   1.912   6.089   4.008
 2620SOL    HW2 8760   2.060   6.157   4.005
 2621SOL     OW 8761   1.413   5.866   4.563
 2621SOL    HW1 8762   1.374   5.822   4.482
 2621SOL    HW2 8763   1.418   5.965   4.549
 2622SOL     OW 8764   2.398   2.664   4.244
 2622SOL    HW1 8765   2.437   2.684   4.154
 2622SOL    HW2 8766   2.409   2.566   4.264
 2623SOL     OW 8767   3.105   0.196   5.389
 2623SOL    HW1 8768   3.191   0.166   5.431
 2623SOL    HW2 8769   3.040   0.121   5.390
 2624SOL     OW 8770   4.765   1.660   4.379
 2624SOL    HW1 8771   4.764   1.562   4.401
 2624SOL    HW2 8772   4.712   1.676   4.296
 2625SOL     OW 8773   1.493   0.434   5.504
 2625SOL    HW1 8774   1.447   0.345   5.506
 2625SOL    HW2 8775   1.536   0.447   5.414
 2626SOL     OW 8776   2.872   6.987   3.191
 2626SOL    HW1 8777   2.830   0.052   3.165
 2626SOL    HW2 8778   2.911   6.995   3.283
 2627SOL     OW 8779   1.511   0.060   4.017
 2627SOL    HW1 8780   1.496   6.983   4.014
 2627SOL    HW2 8781   1.543   0.091   3.927
 2628SOL     OW 8782   4.635   5.027   6.614
 2628SOL    HW1 8783   4.570   5.097   6.641
 2628SOL    HW2 8784   4.595   4.970   6.542
 2629SOL     OW 8785   3.055   4.102   1.642
 2629SOL    HW1 8786   2.976   4.065   1.591
 2629SOL    HW2 8787   3.023   4.171   1.706
 2630SOL     OW 8788   3.449   1.598   2.338
 2630SOL    HW1 8789   3.411   1.602   2.245
 2630SOL    HW2 8790   3.380   1.630   2.403
 2631SOL     OW 8791   3.264   6.573   3.441
 2631SOL    HW1 8792   3.186   6.634   3.451
 2631SOL    HW2 8793   3.238   6.480   3.469
 2632SOL     OW 8794   5.212   1.696   0.522
 2632SOL    HW1 8795   5.198   1.759   0.598
 2632SOL    HW2 8796   5.307   1.663   0.522
 2633SOL     OW 8797   0.143   2.441   0.365
 2633SOL    HW1 8798   0.199   2.508   0.413
 2633SOL    HW2 8799   0.196   2.399   0.291
 2634SOL     OW 8800   2.477   5.063   6.924
 2634SOL    HW1 8801   2.445   5.018   7.007
 2634SOL    HW2 8802   2.532   5.143   6.949
 2635SOL     OW 8803   6.057   4.078   3.594
 2635SOL    HW1 8804   6.063   4.055   3.497
 2635SOL    HW2 8805   6.015   4.168   3.605
 2636SOL     OW 8806   5.165   4.745   5.982
 2636SOL    HW1 8807   5.141   4.711   5.891
 2636SOL    HW2 8808   5.087   4.733   6.044
 2637SOL     OW 8809   5.357   5.194   1.934
 2637SOL    HW1 8810   5.420   5.127   1.972
 2637SOL    HW2 8811   5.372   5.283   1.977
 2638SOL     OW 8812   4.666   5.395   0.310
 2638SOL    HW1 8813   4.727   5.365   0.237
 2638SOL    HW2 8814   4.720   5.433   0.385
 2639SOL     OW 8815   6.118   0.691   0.252
 2639SOL    HW1 8816   6.177   0.727   0.323
 2639SOL    HW2 8817   6.060   0.619   0.290
 2640SOL     OW 8818   6.633   6.539   1.229
 2640SOL    HW1 8819   6.629   6.605   1.305
 2640SOL    HW2 8820   6.542   6.499   1.216
 2641SOL     OW 8821   6.394   5.686   1.443
 2641SOL    HW1 8822   6.452   5.667   1.522
 2641SOL    HW2 8823   6.301   5.704   1.474
 2642SOL     OW 8824   6.932   6.615   4.079
 2642SOL    HW1 8825   7.008   6.565   4.120
 2642SOL    HW2 8826   6.849   6.601   4.133
 2643SOL     OW 8827   1.245   0.836   2.064
 2643SOL    HW1 8828   1.329   0.834   2.118
 2643SOL    HW2 8829   1.175   0.889   2.113
 2644SOL     OW 8830   6.046   6.327   4.548
 2644SOL    HW1 8831   5.969   6.380   4.585
 2644SOL    HW2 8832   6.045   6.235   4.587
 2645SOL     OW 8833   5.998   6.143   6.522
 2645SOL    HW1 8834   6.074   6.081   6.543
 2645SOL    HW2 8835   6.004   6.223   6.581
 2646SOL     OW 8836   5.719   4.952   5.646
 2646SOL    HW1 8837   5.679   4.870   5.688
 2646SOL    HW2 8838   5.751   4.930   5.554
 2647SOL     OW 8839   3.053   4.000   0.868
 2647SOL    HW1 8840   3.153   3.997   0.868
 2647SOL    HW2 8841   3.017   3.907   0.879
 2648SOL     OW 8842   4.571   1.129   3.222
 2648SOL    HW1 8843   4.601   1.194   3.291
 2648SOL    HW2 8844   4.651   1.081   3.185
 2649SOL     OW 8845   2.869   3.730   5.098
 2649SOL    HW1 8846   2.809   3.733   5.178
 2649SOL    HW2 8847   2.932   3.653   5.106
 2650SOL     OW 8848   6.880   6.575   2.660
 2650SOL    HW1 8849   6.851   6.668   2.682
 2650SOL    HW2 8850   6.966   6.555   2.706
 2651SOL     OW 8851   1.600   0.620   2.768
 2651SOL    HW1 8852   1.618   0.635   2.865
 2651SOL    HW2 8853   1.502   0.631   2.751
 2652SOL     OW 8854   3.024   1.993   1.655
 2652SOL    HW1 8855   3.057   2.058   1.723
 2652SOL    HW2 8856   2.994   2.043   1.573
 2653SOL     OW 8857   5.544   0.353   0.560
 2653SOL    HW1 8858   5.498   0.314   0.479
 2653SOL    HW2 8859   5.603   0.284   0.601
 2654SOL     OW 8860   0.596   3.709   5.847
 2654SOL    HW1 8861   0.559   3.627   5.890
 2654SOL    HW2 8862   0.690   3.690   5.816
 2655SOL     OW 8863   5.382   4.824   3.835
 2655SOL    HW1 8864   5.332   4.738   3.822
 2655SOL    HW2 8865   5.438   4.842   3.754
 2656SOL     OW 8866   5.614   3.562   5.033
 2656SOL    HW1 8867   5.534   3.518   5.075
 2656SOL    HW2 8868   5.673   3.493   4.992
 2657SOL     OW 8869   4.300   1.945   5.749
 2657SOL    HW1 8870   4.332   1.877   5.684
 2657SOL    HW2 8871   4.272   2.028   5.701
 2658SOL     OW 8872   0.302   4.143   5.934
 2658SOL    HW1 8873   0.336   4.060   5.891
 2658SOL    HW2 8874   0.377   4.208   5.946
 2659SOL     OW 8875   6.037   0.519   3.444
 2659SOL    HW1 8876   5.997   0.431   3.417
 2659SOL    HW2 8877   6.057   0.572   3.362
 2660SOL     OW 8878   1.203   1.594   3.845
 2660SOL    HW1 8879   1.155   1.679   3.825
 2660SOL    HW2 8880   1.175   1.560   3.935
 2661SOL     OW 8881   3.560   6.795   3.450
 2661SOL    HW1 8882   3.488   6.864   3.439
 2661SOL    HW2 8883   3.545   6.746   3.536
 2662SOL     OW 8884   4.237   1.395   4.963
 2662SOL    HW1 8885   4.202   1.389   4.870
 2662SOL    HW2 8886   4.167   1.365   5.028
 2663SOL     OW 8887   1.174   4.346   3.331
 2663SOL    HW1 8888   1.218   4.272   3.383
 2663SOL    HW2 8889   1.206   4.434   3.365
 2664SOL     OW 8890   4.980   4.072   1.899
 2664SOL    HW1 8891   4.944   4.163   1.916
 2664SOL    HW2 8892   4.909   4.004   1.917
 2665SOL     OW 8893   3.715   0.548   5.482
 2665SOL    HW1 8894   3.798   0.558   5.536
 2665SOL    HW2 8895   3.726   0.474   5.416
 2666SOL     OW 8896   4.655   6.124   1.606
 2666SOL    HW1 8897   4.622   6.209   1.566
 2666SOL    HW2 8898   4.670   6.136   1.704
 2667SOL     OW 8899   1.821   5.248   2.726
 2667SOL    HW1 8900   1.836   5.297   2.640
 2667SOL    HW2 8901   1.815   5.314   2.801
 2668SOL     OW 8902   0.470   2.657   5.265
 2668SOL    HW1 8903   0.466   2.624   5.170
 2668SOL    HW2 8904   0.473   2.579   5.327
 2669SOL     OW 8905   3.899   5.213   4.654
 2669SOL    HW1 8906   3.895   5.114   4.651
 2669SOL    HW2 8907   3.828   5.251   4.595
 2670SOL     OW 8908   1.953   0.020   4.488
 2670SOL    HW1 8909   1.918   0.103   4.444
 2670SOL    HW2 8910   2.006   6.989   4.421
 2671SOL     OW 8911   2.725   3.652   6.640
 2671SOL    HW1 8912   2.737   3.568   6.695
 2671SOL    HW2 8913   2.710   3.627   6.545
 2672SOL     OW 8914   1.177   4.556   0.866
 2672SOL    HW1 8915   1.232   4.554   0.949
 2672SOL    HW2 8916   1.090   4.509   0.882
 2673SOL     OW 8917   4.222   2.098   3.257
 2673SOL    HW1 8918   4.157   2.136   3.322
 2673SOL    HW2 8919   4.220   1.998   3.264
 2674SOL     OW 8920   5.063   5.499   5.417
 2674SOL    HW1 8921   5.123   5.503   5.497
 2674SOL    HW2 8922   4.979   5.451   5.441
 2675SOL     OW 8923   0.267   5.292   5.552
 2675SOL    HW1 8924   0.347   5.280   5.611
 2675SOL    HW2 8925   0.248   5.390   5.543
 2676SOL     OW 8926   4.459   0.225   1.788
 2676SOL    HW1 8927   4.477   0.173   1.705
 2676SOL    HW2 8928   4.364   0.256   1.789
 2677SOL     OW 8929   2.374   4.546   2.415
 2677SOL    HW1 8930   2.458   4.493   2.404
 2677SOL    HW2 8931   2.396   4.644   2.416
 2678SOL     OW 8932   0.994   6.280   6.948
 2678SOL    HW1 8933   0.940   6.338   7.008
 2678SOL    HW2 8934   1.089   6.279   6.979
 2679SOL     OW 8935   2.744   4.848   1.118
 2679SOL    HW1 8936   2.664   4.788   1.127
 2679SOL    HW2 8937   2.736   4.924   1.182
 2680SOL     OW 8938   6.706   1.967   1.026
 2680SOL    HW1 8939   6.611   1.937   1.020
 2680SOL    HW2 8940   6.711   2.065   1.010
 2681SOL     OW 8941   1.369   1.777   1.433
 2681SOL    HW1 8942   1.396   1.681   1.424
 2681SOL    HW2 8943   1.450   1.833   1.446
 2682SOL     OW 8944   0.776   3.028   3.484
 2682SOL    HW1 8945   0.812   2.958   3.423
 2682SOL    HW2 8946   0.680   3.046   3.461
 2683SOL     OW 8947   1.708   0.170   0.919
 2683SOL    HW1 8948   1.727   0.225   0.838
 2683SOL    HW2 8949   1.750   0.212   1.000
 2684SOL     OW 8950   3.606   4.985   3.350
 2684SOL    HW1 8951   3.668   4.906   3.358
 2684SOL    HW2 8952   3.656   5.069   3.370
 2685SOL     OW 8953   5.307   4.867   5.581
 2685SOL    HW1 8954   5.362   4.939   5.539
 2685SOL    HW2 8955   5.231   4.909   5.632
 2686SOL     OW 8956   1.414   3.465   3.989
 2686SOL    HW1 8957   1.410   3.371   4.024
 2686SOL    HW2 8958   1.321   3.503   3.987
 2687SOL     OW 8959   4.848   5.328   2.746
 2687SOL    HW1 8960   4.928   5.383   2.721
 2687SOL    HW2 8961   4.843   5.248   2.686
 2688SOL     OW 8962   3.275   4.443   5.356
 2688SOL    HW1 8963   3.202   4.390   5.313
 2688SOL    HW2 8964   3.338   4.476   5.286
 2689SOL     OW 8965   6.215   0.882   4.307
 2689SOL    HW1 8966   6.269   0.954   4.264
 2689SOL    HW2 8967   6.213   0.897   4.406
 2690SOL     OW 8968   3.553   4.126   3.386
 2690SOL    HW1 8969   3.468   4.116   3.334
 2690SOL    HW2 8970   3.534   4.111   3.483
 2691SOL     OW 8971   1.057   6.248   1.436
 2691SOL    HW1 8972   1.073   6.185   1.512
 2691SOL    HW2 8973   1.076   6.341   1.466
 2692SOL     OW 8974   0.216   3.905   4.118
 2692SOL    HW1 8975   0.249   3.825   4.167
 2692SOL    HW2 8976   0.169   3.876   4.034
 2693SOL     OW 8977   2.013   3.342   2.664
 2693SOL    HW1 8978   2.009   3.351   2.565
 2693SOL    HW2 8979   2.057   3.423   2.704
 2694SOL     OW 8980   2.195   1.933   2.812
 2694SOL    HW1 8981   2.220   1.973   2.900
 2694SOL    HW2 8982   2.278   1.915   2.759
 2695SOL     OW 8983   3.806   2.372   1.641
 2695SOL    HW1 8984   3.742   2.383   1.718
 2695SOL    HW2 8985   3.864   2.293   1.658
 2696SOL     OW 8986   3.040   3.297   6.760
 2696SOL    HW1 8987   3.135   3.327   6.755
 2696SOL    HW2 8988   3.012   3.261   6.670
 2697SOL     OW 8989   2.112   1.161   5.250
 2697SOL    HW1 8990   2.164   1.117   5.176
 2697SOL    HW2 8991   2.020   1.121   5.254
 2698SOL     OW 8992   2.009   2.131   0.203
 2698SOL    HW1 8993   1.976   2.224   0.218
 2698SOL    HW2 8994   2.094   2.134   0.150
 2699SOL     OW 8995   1.623   4.156   3.767
 2699SOL    HW1 8996   1.640   4.059   3.787
 2699SOL    HW2 8997   1.595   4.203   3.851
 2700SOL     OW 8998   1.948   4.696   3.352
 2700SOL    HW1 8999   1.875   4.668   3.290
 2700SOL    HW2 9000   1.936   4.652   3.441
 2701SOL     OW 9001   1.099   0.750   4.546
 2701SOL    HW1 9002   1.153   0.777   4.626
 2701SOL    HW2 9003   1.153   0.690   4.487
 2702SOL     OW 9004   5.986   5.622   2.137
 2702SOL    HW1 9005   5.966   5.692   2.068
 2702SOL    HW2 9006   5.911   5.618   2.203
 2703SOL     OW 9007   2.162   3.082   2.421
 2703SOL    HW1 9008   2.177   3.095   2.519
 2703SOL    HW2 9009   2.196   2.991   2.394
 2704SOL     OW 9010   0.588   5.764   0.657
 2704SOL    HW1 9011   0.657   5.828   0.691
 2704SOL    HW2 9012   0.520   5.815   0.604
 2705SOL     OW 9013   0.224   2.782   3.033
 2705SOL    HW1 9014   0.308   2.737   3.004
 2705SOL    HW2 9015   0.222   2.789   3.133
 2706SOL     OW 9016   6.894   1.961   3.375
 2706SOL    HW1 9017   6.810   1.931   3.329
 2706SOL    HW2 9018   6.925   2.047   3.336
 2707SOL     OW 9019   3.403   0.756   0.383
 2707SOL    HW1 9020   3.498   0.725   0.390
 2707SOL    HW2 9021   3.396   0.849   0.419
 2708SOL     OW 9022   1.140   4.585   6.631
 2708SOL    HW1 9023   1.047   4.614   6.608
 2708SOL    HW2 9024   1.189   4.661   6.675
 2709SOL     OW 9025   3.798   0.379   1.963
 2709SOL    HW1 9026   3.826   0.475   1.973
 2709SOL    HW2 9027   3.807   0.333   2.051
 2710SOL     OW 9028   5.851   4.020   3.068
 2710SOL    HW1 9029   5.758   4.054   3.057
 2710SOL    HW2 9030   5.905   4.088   3.118
 2711SOL     OW 9031   0.078   6.609   2.136
 2711SOL    HW1 9032   0.177   6.603   2.142
 2711SOL    HW2 9033   0.049   6.595   2.041
 2712SOL     OW 9034   3.997   5.622   2.966
 2712SOL    HW1 9035   4.035   5.541   3.010
 2712SOL    HW2 9036   4.071   5.681   2.934
 2713SOL     OW 9037   2.726   2.816   5.615
 2713SOL    HW1 9038   2.708   2.723   5.582
 2713SOL    HW2 9039   2.687   2.882   5.551
 2714SOL     OW 9040   5.905   0.372   6.555
 2714SOL    HW1 9041   5.980   0.306   6.561
 2714SOL    HW2 9042   5.820   0.325   6.532
 2715SOL     OW 9043   5.852   6.681   6.262
 2715SOL    HW1 9044   5.852   6.586   6.232
 2715SOL    HW2 9045   5.786   6.693   6.336
 2716SOL     OW 9046   6.101   6.694   2.287
 2716SOL    HW1 9047   6.133   6.660   2.199
 2716SOL    HW2 9048   6.148   6.781   2.308
 2717SOL     OW 9049   6.853   0.036   3.021
 2717SOL    HW1 9050   6.895   6.972   3.052
 2717SOL    HW2 9051   6.918   0.111   3.032
 2718SOL     OW 9052   6.747   3.877   3.280
 2718SOL    HW1 9053   6.811   3.803   3.259
 2718SOL    HW2 9054   6.785   3.963   3.247
 2719SOL     OW 9055   4.706   4.176   3.245
 2719SOL    HW1 9056   4.717   4.096   3.186
 2719SOL    HW2 9057   4.668   4.252   3.192
 2720SOL     OW 9058   0.265   0.179   4.086
 2720SOL    HW1 9059   0.200   0.184   4.162
 2720SOL    HW2 9060   0.216   0.159   4.001
 2721SOL     OW 9061   4.674   6.134   2.229
 2721SOL    HW1 9062   4.596   6.072   2.240
 2721SOL    HW2 9063   4.641   6.227   2.213
 2722SOL     OW 9064   0.367   6.014   2.539
 2722SOL    HW1 9065   0.356   5.916   2.551
 2722SOL    HW2 9066   0.458   6.041   2.571
 2723SOL     OW 9067   2.741   1.876   4.895
 2723SOL    HW1 9068   2.676   1.907   4.965
 2723SOL    HW2 9069   2.834   1.895   4.924
 2724SOL     OW 9070   4.645   5.784   5.737
 2724SOL    HW1 9071   4.596   5.712   5.787
 2724SOL    HW2 9072   4.734   5.749   5.706
 2725SOL     OW 9073   1.676   5.754   2.288
 2725SOL    HW1 9074   1.671   5.655   2.297
 2725SOL    HW2 9075   1.729   5.792   2.364
 2726SOL     OW 9076   4.180   6.226   2.447
 2726SOL    HW1 9077   4.208   6.216   2.543
 2726SOL    HW2 9078   4.105   6.164   2.427
 2727SOL     OW 9079   2.486   5.232   3.859
 2727SOL    HW1 9080   2.482   5.216   3.957
 2727SOL    HW2 9081   2.571   5.193   3.822
 2728SOL     OW 9082   2.195   6.462   5.092
 2728SOL    HW1 9083   2.252   6.531   5.137
 2728SOL    HW2 9084   2.248   6.379   5.077
 2729SOL     OW 9085   6.949   3.685   2.517
 2729SOL    HW1 9086   6.995   3.602   2.484
 2729SOL    HW2 9087   6.903   3.730   2.440
 2730SOL     OW 9088   1.831   2.822   1.448
 2730SOL    HW1 9089   1.743   2.807   1.494
 2730SOL    HW2 9090   1.878   2.900   1.490
 2731SOL     OW 9091   1.526   3.754   6.055
 2731SOL    HW1 9092   1.556   3.824   5.990
 2731SOL    HW2 9093   1.601   3.734   6.119
 2732SOL     OW 9094   5.331   2.911   4.363
 2732SOL    HW1 9095   5.241   2.868   4.352
 2732SOL    HW2 9096   5.389   2.885   4.286
 2733SOL     OW 9097   2.217   0.314   6.535
 2733SOL    HW1 9098   2.165   0.229   6.527
 2733SOL    HW2 9099   2.191   0.361   6.619
 2734SOL     OW 9100   2.406   6.926   3.979
 2734SOL    HW1 9101   2.467   7.000   3.949
 2734SOL    HW2 9102   2.338   6.908   3.908
 2735SOL     OW 9103   1.267   6.235   1.031
 2735SOL    HW1 9104   1.291   6.267   1.123
 2735SOL    HW2 9105   1.349   6.201   0.985
 2736SOL     OW 9106   4.274   0.515   6.814
 2736SOL    HW1 9107   4.277   0.420   6.785
 2736SOL    HW2 9108   4.267   0.575   6.734
 2737SOL     OW 9109   4.220   3.885   5.349
 2737SOL    HW1 9110   4.176   3.853   5.265
 2737SOL    HW2 9111   4.298   3.826   5.369
 2738SOL     OW 9112   0.689   3.847   5.513
 2738SOL    HW1 9113   0.786   3.829   5.496
 2738SOL    HW2 9114   0.679   3.883   5.606
 2739SOL     OW 9115   3.631   4.123   6.874
 2739SOL    HW1 9116   3.614   4.163   6.784
 2739SOL    HW2 9117   3.681   4.189   6.931
 2740SOL     OW 9118   6.276   2.786   4.874
 2740SOL    HW1 9119   6.207   2.835   4.928
 2740SOL    HW2 9120   6.236   2.703   4.836
 2741SOL     OW 9121   2.450   3.093   6.218
 2741SOL    HW1 9122   2.468   2.998   6.243
 2741SOL    HW2 9123   2.411   3.096   6.126
 2742SOL     OW 9124   2.499   5.984   4.626
 2742SOL    HW1 9125   2.479   5.914   4.696
 2742SOL    HW2 9126   2.562   6.051   4.664
 2743SOL     OW 9127   5.513   3.723   6.672
 2743SOL    HW1 9128   5.466   3.650   6.622
 2743SOL    HW2 9129   5.590   3.756   6.617
 2744SOL     OW 9130   4.871   6.562   1.118
 2744SOL    HW1 9131   4.959   6.553   1.165
 2744SOL    HW2 9132   4.842   6.658   1.120
 2745SOL     OW 9133   3.484   5.303   3.121
 2745SOL    HW1 9134   3.397   5.318   3.168
 2745SOL    HW2 9135   3.494   5.205   3.101
 2746SOL     OW 9136   1.291   2.469   0.064
 2746SOL    HW1 9137   1.221   2.511   0.007
 2746SOL    HW2 9138   1.334   2.393   0.014
 2747SOL     OW 9139   4.609   6.533   3.553
 2747SOL    HW1 9140   4.587   6.504   3.646
 2747SOL    HW2 9141   4.557   6.615   3.531
 2748SOL     OW 9142   5.844   0.554   4.930
 2748SOL    HW1 9143   5.900   0.474   4.953
 2748SOL    HW2 9144   5.839   0.614   5.010
 2749SOL     OW 9145   6.583   5.513   2.612
 2749SOL    HW1 9146   6.647   5.499   2.688
 2749SOL    HW2 9147   6.612   5.458   2.534
 2750SOL     OW 9148   0.663   0.959   0.534
 2750SOL    HW1 9149   0.752   1.003   0.545
 2750SOL    HW2 9150   0.662   0.874   0.587
 2751SOL     OW 9151   0.887   0.330   6.992
 2751SOL    HW1 9152   0.900   0.412   0.026
 2751SOL    HW2 9153   0.963   0.267   7.007
 2752SOL     OW 9154   0.657   6.747   5.923
 2752SOL    HW1 9155   0.755   6.735   5.905
 2752SOL    HW2 9156   0.614   6.657   5.933
 2753SOL     OW 9157   3.175   5.718   4.464
 2753SOL    HW1 9158   3.077   5.702   4.475
 2753SOL    HW2 9159   3.191   5.778   4.386
 2754SOL     OW 9160   0.833   5.313   4.052
 2754SOL    HW1 9161   0.778   5.299   4.135
 2754SOL    HW2 9162   0.779   5.285   3.972
 2755SOL     OW 9163   4.211   6.934   2.635
 2755SOL    HW1 9164   4.224   0.003   2.595
 2755SOL    HW2 9165   4.215   6.865   2.563
 2756SOL     OW 9166   0.165   2.810   4.960
 2756SOL    HW1 9167   0.070   2.782   4.955
 2756SOL    HW2 9168   0.198   2.837   4.869
 2757SOL     OW 9169   5.477   3.964   5.215
 2757SOL    HW1 9170   5.499   4.043   5.272
 2757SOL    HW2 9171   5.516   3.881   5.256
 2758SOL     OW 9172   6.937   6.572   1.276
 2758SOL    HW1 9173   6.869   6.521   1.223
 2758SOL    HW2 9174   6.905   6.581   1.370
 2759SOL     OW 9175   3.937   3.957   4.159
 2759SOL    HW1 9176   3.982   4.033   4.112
 2759SOL    HW2 9177   3.945   3.968   4.258
 2760SOL     OW 9178   5.098   5.930   3.097
 2760SOL    HW1 9179   5.067   5.936   3.002
 2760SOL    HW2 9180   5.071   6.013   3.146
 2761SOL     OW 9181   2.122   3.390   4.191
 2761SOL    HW1 9182   2.148   3.336   4.111
 2761SOL    HW2 9183   2.188   3.465   4.203
 2762SOL     OW 9184   4.449   1.910   2.647
 2762SOL    HW1 9185   4.362   1.931   2.602
 2762SOL    HW2 9186   4.431   1.859   2.731
 2763SOL     OW 9187   5.088   0.476   3.153
 2763SOL    HW1 9188   5.108   0.561   3.201
 2763SOL    HW2 9189   5.144   0.402   3.193
 2764SOL     OW 9190   0.256   1.749   2.695
 2764SOL    HW1 9191   0.253   1.730   2.793
 2764SOL    HW2 9192   0.296   1.840   2.680
 2765SOL     OW 9193   6.683   6.848   6.602
 2765SOL    HW1 9194   6.760   6.809   6.652
 2765SOL    HW2 9195   6.693   6.831   6.504
 2766SOL     OW 9196   5.142   0.170   0.018
 2766SOL    HW1 9197   5.205   0.246   0.035
 2766SOL    HW2 9198   5.097   0.183   6.951
 2767SOL     OW 9199   6.877   6.695   6.739
 2767SOL    HW1 9200   6.838   6.742   6.819
 2767SOL    HW2 9201   6.920   6.610   6.768
 2768SOL     OW 9202   4.349   0.545   1.711
 2768SOL    HW1 9203   4.442   0.529   1.679
 2768SOL    HW2 9204   4.284   0.505   1.646
 2769SOL     OW 9205   0.840   5.304   5.888
 2769SOL    HW1 9206   0.843   5.350   5.799
 2769SOL    HW2 9207   0.810   5.209   5.875
 2770SOL     OW 9208   1.635   6.804   0.070
 2770SOL    HW1 9209   1.616   6.866   7.015
 2770SOL    HW2 9210   1.575   6.724   0.064
 2771SOL     OW 9211   4.141   6.534   5.708
 2771SOL    HW1 9212   4.180   6.616   5.667
 2771SOL    HW2 9213   4.213   6.467   5.723
 2772SOL     OW 9214   6.431   2.033   3.224
 2772SOL    HW1 9215   6.498   1.979   3.173
 2772SOL    HW2 9216   6.465   2.050   3.316
 2773SOL     OW 9217   4.390   0.516   6.065
 2773SOL    HW1 9218   4.347   0.429   6.041
 2773SOL    HW2 9219   4.450   0.503   6.144
 2774SOL     OW 9220   6.131   6.869   3.617
 2774SOL    HW1 9221   6.175   6.954   3.645
 2774SOL    HW2 9222   6.191   6.792   3.638
 2775SOL     OW 9223   0.048   2.336   4.305
 2775SOL    HW1 9224   0.080   2.429   4.321
 2775SOL    HW2 9225   0.061   2.281   4.387
 2776SOL     OW 9226   5.186   4.014   6.058
 2776SOL    HW1 9227   5.263   3.951   6.060
 2776SOL    HW2 9228   5.111   3.974   6.005
 2777SOL     OW 9229   1.615   1.959   0.944
 2777SOL    HW1 9230   1.652   1.867   0.958
 2777SOL    HW2 9231   1.682   2.015   0.895
 2778SOL     OW 9232   2.496   6.298   5.247
 2778SOL    HW1 9233   2.530   6.357   5.174
 2778SOL    HW2 9234   2.543   6.210   5.243
 2779SOL     OW 9235   5.182   1.360   3.570
 2779SOL    HW1 9236   5.260   1.340   3.511
 2779SOL    HW2 9237   5.215   1.396   3.657
 2780SOL     OW 9238   0.679   6.767   5.425
 2780SOL    HW1 9239   0.689   6.855   5.472
 2780SOL    HW2 9240   0.648   6.783   5.331
 2781SOL     OW 9241   6.838   6.841   2.786
 2781SOL    HW1 9242   6.824   6.831   2.884
 2781SOL    HW2 9243   6.897   6.920   2.770
 2782SOL     OW 9244   5.661   6.423   4.828
 2782SOL    HW1 9245   5.621   6.335   4.803
 2782SOL    HW2 9246   5.619   6.495   4.772
 2783SOL     OW 9247   0.280   1.975   1.978
 2783SOL    HW1 9248   0.327   2.019   2.054
 2783SOL    HW2 9249   0.339   1.906   1.937
 2784SOL     OW 9250   1.111   1.832   2.572
 2784SOL    HW1 9251   1.099   1.913   2.514
 2784SOL    HW2 9252   1.071   1.753   2.527
 2785SOL     OW 9253   5.565   3.310   3.800
 2785SOL    HW1 9254   5.543   3.385   3.739
 2785SOL    HW2 9255   5.529   3.329   3.891
 2786SOL     OW 9256   0.577   6.252   1.474
 2786SOL    HW1 9257   0.500   6.190   1.485
 2786SOL    HW2 9258   0.581   6.315   1.552
 2787SOL     OW 9259   0.021   6.750   5.380
 2787SOL    HW1 9260   0.107   6.736   5.430
 2787SOL    HW2 9261   7.012   6.663   5.342
 2788SOL     OW 9262   2.948   6.708   5.994
 2788SOL    HW1 9263   2.878   6.649   6.037
 2788SOL    HW2 9264   2.913   6.743   5.908
 2789SOL     OW 9265   2.303   2.188   4.476
 2789SOL    HW1 9266   2.220   2.185   4.422
 2789SOL    HW2 9267   2.280   2.205   4.572
 2790SOL     OW 9268   1.204   4.842   0.754
 2790SOL    HW1 9269   1.175   4.766   0.812
 2790SOL    HW2 9270   1.124   4.887   0.716
 2791SOL     OW 9271   0.928   4.476   5.748
 2791SOL    HW1 9272   0.947   4.570   5.721
 2791SOL    HW2 9273   0.829   4.462   5.755
 2792SOL     OW 9274   2.544   2.643   0.033
 2792SOL    HW1 9275   2.644   2.639   0.037
 2792SOL    HW2 9276   2.507   2.664   0.123
 2793SOL     OW 9277   3.853   3.860   6.013
 2793SOL    HW1 9278   3.881   3.777   6.062
 2793SOL    HW2 9279   3.790   3.836   5.940
 2794SOL     OW 9280   1.731   1.589   0.346
 2794SOL    HW1 9281   1.744   1.542   0.260
 2794SOL    HW2 9282   1.654   1.652   0.339
 2795SOL     OW 9283   0.739   0.679   0.384
 2795SOL    HW1 9284   0.832   0.712   0.404
 2795SOL    HW2 9285   0.678   0.703   0.459
 2796SOL     OW 9286   2.811   5.991   6.719
 2796SOL    HW1 9287   2.882   5.936   6.675
 2796SOL    HW2 9288   2.721   5.966   6.681
 2797SOL     OW 9289   5.099   3.850   5.266
 2797SOL    HW1 9290   5.164   3.849   5.190
 2797SOL    HW2 9291   5.136   3.906   5.341
 2798SOL     OW 9292   5.845   2.402   2.278
 2798SOL    HW1 9293   5.890   2.336   2.339
 2798SOL    HW2 9294   5.862   2.495   2.312
 2799SOL     OW 9295   3.412   0.296   4.049
 2799SOL    HW1 9296   3.373   0.222   3.994
 2799SOL    HW2 9297   3.431   0.263   4.141
 2800SOL     OW 9298   4.789   1.726   0.764
 2800SOL    HW1 9299   4.864   1.725   0.830
 2800SOL    HW2 9300   4.815   1.674   0.683
 2801SOL     OW 9301   0.240   4.335   3.196
 2801SOL    HW1 9302   0.155   4.348   3.248
 2801SOL    HW2 9303   0.291   4.258   3.234
 2802SOL     OW 9304   2.237   4.058   4.640
 2802SOL    HW1 9305   2.161   4.095   4.693
 2802SOL    HW2 9306   2.310   4.030   4.701
 2803SOL     OW 9307   2.839   2.641   6.982
 2803SOL    HW1 9308   2.809   2.699   6.906
 2803SOL    HW2 9309   2.934   2.614   6.968
 2804SOL     OW 9310   5.561   2.470   3.737
 2804SOL    HW1 9311   5.654   2.455   3.704
 2804SOL    HW2 9312   5.516   2.538   3.679
 2805SOL     OW 9313   3.518   5.550   0.012
 2805SOL    HW1 9314   3.606   5.503   0.016
 2805SOL    HW2 9315   3.501   5.581   6.940
 2806SOL     OW 9316   1.311   3.220   5.030
 2806SOL    HW1 9317   1.271   3.259   4.947
 2806SOL    HW2 9318   1.387   3.277   5.060
 2807SOL     OW 9319   5.267   1.050   3.762
 2807SOL    HW1 9320   5.169   1.051   3.782
 2807SOL    HW2 9321   5.315   0.998   3.832
 2808SOL     OW 9322   0.409   6.727   6.770
 2808SOL    HW1 9323   0.400   6.734   6.870
 2808SOL    HW2 9324   0.325   6.688   6.732
 2809SOL     OW 9325   0.662   6.128   0.801
 2809SOL    HW1 9326   0.588   6.180   0.758
 2809SOL    HW2 9327   0.699   6.181   0.878
 2810SOL     OW 9328   6.829   6.132   2.524
 2810SOL    HW1 9329   6.878   6.220   2.518
 2810SOL    HW2 9330   6.791   6.121   2.615
 2811SOL     OW 9331   0.444   0.019   0.293
 2811SOL    HW1 9332   0.466   6.946   0.268
 2811SOL    HW2 9333   0.379   0.057   0.227
 2812SOL     OW 9334   1.996   0.395   0.585
 2812SOL    HW1 9335   2.013   0.444   0.499
 2812SOL    HW2 9336   2.017   0.298   0.573
 2813SOL     OW 9337   5.300   2.204   2.213
 2813SOL    HW1 9338   5.216   2.190   2.160
 2813SOL    HW2 9339   5.372   2.144   2.178
 2814SOL     OW 9340   2.272   4.334   6.825
 2814SOL    HW1 9341   2.207   4.314   6.899
 2814SOL    HW2 9342   2.365   4.336   6.862
 2815SOL     OW 9343   6.217   6.028   5.045
 2815SOL    HW1 9344   6.248   6.018   5.140
 2815SOL    HW2 9345   6.248   5.950   4.991
 2816SOL     OW 9346   1.059   5.356   5.302
 2816SOL    HW1 9347   0.964   5.347   5.273
 2816SOL    HW2 9348   1.109   5.272   5.281
 2817SOL     OW 9349   2.704   0.524   0.923
 2817SOL    HW1 9350   2.673   0.512   1.017
 2817SOL    HW2 9351   2.803   0.538   0.921
 2818SOL     OW 9352   1.882   0.088   0.334
 2818SOL    HW1 9353   1.873   7.015   0.305
 2818SOL    HW2 9354   1.939   0.093   0.416
 2819SOL     OW 9355   6.474   0.855   6.899
 2819SOL    HW1 9356   6.400   0.903   6.851
 2819SOL    HW2 9357   6.525   0.921   6.955
 2820SOL     OW 9358   1.608   1.839   0.094
 2820SOL    HW1 9359   1.689   1.884   0.056
 2820SOL    HW2 9360   1.526   1.879   0.054
 2821SOL     OW 9361   4.162   2.676   6.043
 2821SOL    HW1 9362   4.228   2.732   6.093
 2821SOL    HW2 9363   4.192   2.581   6.044
 2822SOL     OW 9364   4.096   4.167   1.194
 2822SOL    HW1 9365   4.076   4.145   1.290
 2822SOL    HW2 9366   4.012   4.157   1.140
 2823SOL     OW 9367   5.252   4.346   3.927
 2823SOL    HW1 9368   5.307   4.338   4.010
 2823SOL    HW2 9369   5.301   4.305   3.851
 2824SOL     OW 9370   0.658   5.013   5.699
 2824SOL    HW1 9371   0.692   5.036   5.608
 2824SOL    HW2 9372   0.735   5.000   5.761
 2825SOL     OW 9373   4.697   2.363   5.614
 2825SOL    HW1 9374   4.619   2.334   5.670
 2825SOL    HW2 9375   4.664   2.402   5.528
 2826SOL     OW 9376   2.952   2.457   6.190
 2826SOL    HW1 9377   3.026   2.491   6.132
 2826SOL    HW2 9378   2.990   2.400   6.263
 2827SOL     OW 9379   6.907   2.053   0.539
 2827SOL    HW1 9380   6.959   2.138   0.549
 2827SOL    HW2 9381   6.923   2.015   0.447
 2828SOL     OW 9382   2.226   3.799   6.897
 2828SOL    HW1 9383   2.253   3.873   6.958
 2828SOL    HW2 9384   2.175   3.730   6.950
 2829SOL     OW 9385   3.465   4.509   0.849
 2829SOL    HW1 9386   3.503   4.510   0.757
 2829SOL    HW2 9387   3.365   4.509   0.845
 2830SOL     OW 9388   2.725   5.260   4.595
 2830SOL    HW1 9389   2.729   5.160   4.599
 2830SOL    HW2 9390   2.681   5.295   4.678
 2831SOL     OW 9391   5.510   2.079   2.095
 2831SOL    HW1 9392   5.448   2.088   2.018
 2831SOL    HW2 9393   5.588   2.139   2.083
 2832SOL     OW 9394   1.793   2.999   1.097
 2832SOL    HW1 9395   1.701   3.031   1.075
 2832SOL    HW2 9396   1.845   3.073   1.140
 2833SOL     OW 9397   6.614   2.228   2.910
 2833SOL    HW1 9398   6.588   2.321   2.886
 2833SOL    HW2 9399   6.602   2.214   3.008
 2834SOL     OW 9400   2.908   0.089   4.121
 2834SOL    HW1 9401   2.878   0.019   4.185
 2834SOL    HW2 9402   2.830   0.120   4.066
 2835SOL     OW 9403   6.310   1.358   0.246
 2835SOL    HW1 9404   6.388   1.416   0.272
 2835SOL    HW2 9405   6.259   1.332   0.327
 2836SOL     OW 9406   2.701   6.458   2.062
 2836SOL    HW1 9407   2.705   6.550   2.101
 2836SOL    HW2 9408   2.737   6.392   2.127
 2837SOL     OW 9409   4.735   4.887   3.628
 2837SOL    HW1 9410   4.817   4.914   3.577
 2837SOL    HW2 9411   4.746   4.794   3.662
 2838SOL     OW 9412   0.142   5.735   6.119
 2838SOL    HW1 9413   0.169   5.828   6.093
 2838SOL    HW2 9414   0.070   5.703   6.056
 2839SOL     OW 9415   5.619   2.448   6.705
 2839SOL    HW1 9416   5.613   2.451   6.804
 2839SOL    HW2 9417   5.700   2.398   6.678
 2840SOL     OW 9418   6.313   5.839   4.915
 2840SOL    HW1 9419   6.317   5.828   4.816
 2840SOL    HW2 9420   6.348   5.756   4.959
 2841SOL     OW 9421   5.468   3.362   2.834
 2841SOL    HW1 9422   5.498   3.456   2.844
 2841SOL    HW2 9423   5.435   3.327   2.922
 2842SOL     OW 9424   1.364   5.863   3.880
 2842SOL    HW1 9425   1.423   5.893   3.804
 2842SOL    HW2 9426   1.373   5.764   3.892
 2843SOL     OW 9427   1.131   2.646   3.803
 2843SOL    HW1 9428   1.043   2.692   3.804
 2843SOL    HW2 9429   1.134   2.580   3.727
 2844SOL     OW 9430   5.448   3.989   0.874
 2844SOL    HW1 9431   5.539   4.004   0.914
 2844SOL    HW2 9432   5.451   3.910   0.813
 2845SOL     OW 9433   3.294   1.442   1.218
 2845SOL    HW1 9434   3.213   1.433   1.161
 2845SOL    HW2 9435   3.268   1.476   1.309
 2846SOL     OW 9436   5.847   0.813   6.050
 2846SOL    HW1 9437   5.799   0.856   6.126
 2846SOL    HW2 9438   5.781   0.768   5.990
 2847SOL     OW 9439   6.386   4.819   2.528
 2847SOL    HW1 9440   6.435   4.764   2.596
 2847SOL    HW2 9441   6.392   4.915   2.553
 2848SOL     OW 9442   6.789   3.944   0.045
 2848SOL    HW1 9443   6.837   4.010   0.103
 2848SOL    HW2 9444   6.838   3.857   0.046
 2849SOL     OW 9445   5.264   1.166   0.689
 2849SOL    HW1 9446   5.347   1.129   0.729
 2849SOL    HW2 9447   5.277   1.264   0.670
 2850SOL     OW 9448   6.604   0.907   0.917
 2850SOL    HW1 9449   6.632   0.970   0.990
 2850SOL    HW2 9450   6.508   0.922   0.894
 2851SOL     OW 9451   3.493   2.938   2.386
 2851SOL    HW1 9452   3.438   2.948   2.303
 2851SOL    HW2 9453   3.433   2.913   2.462
 2852SOL     OW 9454   1.523   4.740   4.851
 2852SOL    HW1 9455   1.579   4.663   4.822
 2852SOL    HW2 9456   1.578   4.824   4.849
 2853SOL     OW 9457   6.652   5.175   5.460
 2853SOL    HW1 9458   6.662   5.226   5.546
 2853SOL    HW2 9459   6.732   5.194   5.402
 2854SOL     OW 9460   3.117   0.826   0.233
 2854SOL    HW1 9461   3.170   0.908   0.209
 2854SOL    HW2 9462   3.170   0.744   0.212
 2855SOL     OW 9463   2.939   2.070   4.307
 2855SOL    HW1 9464   3.009   2.077   4.379
 2855SOL    HW2 9465   2.974   2.012   4.234
 2856SOL     OW 9466   1.265   5.293   4.647
 2856SOL    HW1 9467   1.275   5.209   4.701
 2856SOL    HW2 9468   1.322   5.286   4.565
 2857SOL     OW 9469   0.942   4.318   0.188
 2857SOL    HW1 9470   0.913   4.411   0.163
 2857SOL    HW2 9471   1.008   4.285   0.121
 2858SOL     OW 9472   5.272   4.731   4.276
 2858SOL    HW1 9473   5.187   4.687   4.305
 2858SOL    HW2 9474   5.293   4.806   4.339
 2859SOL     OW 9475   0.423   4.821   1.961
 2859SOL    HW1 9476   0.469   4.831   1.873
 2859SOL    HW2 9477   0.431   4.907   2.013
 2860SOL     OW 9478   1.178   6.389   2.199
 2860SOL    HW1 9479   1.239   6.454   2.245
 2860SOL    HW2 9480   1.110   6.440   2.145
 2861SOL     OW 9481   6.034   2.935   5.283
 2861SOL    HW1 9482   5.950   2.908   5.235
 2861SOL    HW2 9483   6.010   2.993   5.361
 2862SOL     OW 9484   4.158   1.110   1.093
 2862SOL    HW1 9485   4.150   1.115   0.993
 2862SOL    HW2 9486   4.071   1.136   1.135
 2863SOL     OW 9487   5.307   1.663   6.115
 2863SOL    HW1 9488   5.407   1.664   6.104
 2863SOL    HW2 9489   5.273   1.757   6.119
 2864SOL     OW 9490   4.651   4.349   0.208
 2864SOL    HW1 9491   4.612   4.322   0.296
 2864SOL    HW2 9492   4.718   4.421   0.221
 2865SOL     OW 9493   5.285   4.430   6.669
 2865SOL    HW1 9494   5.350   4.498   6.702
 2865SOL    HW2 9495   5.239   4.466   6.588
 2866SOL     OW 9496   5.177   6.152   0.591
 2866SOL    HW1 9497   5.133   6.239   0.568
 2866SOL    HW2 9498   5.276   6.161   0.580
 2867SOL     OW 9499   0.700   6.100   3.584
 2867SOL    HW1 9500   0.734   6.140   3.499
 2867SOL    HW2 9501   0.601   6.111   3.589
 2868SOL     OW 9502   6.111   6.634   5.268
 2868SOL    HW1 9503   6.144   6.619   5.361
 2868SOL    HW2 9504   6.011   6.628   5.267
 2869SOL     OW 9505   6.011   4.389   5.584
 2869SOL    HW1 9506   6.039   4.476   5.626
 2869SOL    HW2 9507   6.042   4.313   5.641
 2870SOL     OW 9508   0.332   1.459   1.656
 2870SOL    HW1 9509   0.346   1.438   1.560
 2870SOL    HW2 9510   0.318   1.374   1.708
 2871SOL     OW 9511   5.068   1.709   3.365
 2871SOL    HW1 9512   5.051   1.797   3.321
 2871SOL    HW2 9513   4.987   1.680   3.415
 2872SOL     OW 9514   3.290   1.289   2.338
 2872SOL    HW1 9515   3.207   1.345   2.336
 2872SOL    HW2 9516   3.355   1.324   2.270
 2873SOL     OW 9517   0.257   0.434   2.326
 2873SOL    HW1 9518   0.243   0.388   2.238
 2873SOL    HW2 9519   0.351   0.421   2.356
 2874SOL     OW 9520   0.796   0.233   2.062
 2874SOL    HW1 9521   0.731   0.309   2.062
 2874SOL    HW2 9522   0.887   0.267   2.040
 2875SOL     OW 9523   3.294   1.033   2.334
 2875SOL    HW1 9524   3.291   1.132   2.349
 2875SOL    HW2 9525   3.226   0.988   2.392
 2876SOL     OW 9526   0.970   0.283   0.322
 2876SOL    HW1 9527   0.891   0.339   0.296
 2876SOL    HW2 9528   1.049   0.343   0.338
 2877SOL     OW 9529   1.428   2.994   6.170
 2877SOL    HW1 9530   1.338   2.953   6.189
 2877SOL    HW2 9531   1.472   2.944   6.096
 2878SOL     OW 9532   3.906   3.982   4.415
 2878SOL    HW1 9533   3.845   4.059   4.433
 2878SOL    HW2 9534   3.915   3.925   4.497
 2879SOL     OW 9535   0.002   6.917   0.542
 2879SOL    HW1 9536   0.060   6.911   0.460
 2879SOL    HW2 9537   0.057   6.951   0.618
 2880SOL     OW 9538   1.639   1.068   2.143
 2880SOL    HW1 9539   1.678   1.119   2.067
 2880SOL    HW2 9540   1.673   1.104   2.229
 2881SOL     OW 9541   5.241   5.727   0.118
 2881SOL    HW1 9542   5.230   5.825   0.134
 2881SOL    HW2 9543   5.316   5.692   0.174
 2882SOL     OW 9544   4.530   6.458   0.430
 2882SOL    HW1 9545   4.481   6.476   0.345
 2882SOL    HW2 9546   4.472   6.405   0.492
 2883SOL     OW 9547   5.366   5.780   2.871
 2883SOL    HW1 9548   5.360   5.687   2.906
 2883SOL    HW2 9549   5.332   5.782   2.777
 2884SOL     OW 9550   5.670   4.974   3.284
 2884SOL    HW1 9551   5.746   4.910   3.281
 2884SOL    HW2 9552   5.695   5.058   3.235
 2885SOL     OW 9553   0.270   4.821   3.942
 2885SOL    HW1 9554   0.200   4.892   3.950
 2885SOL    HW2 9555   0.311   4.825   3.851
 2886SOL     OW 9556   2.034   4.566   5.198
 2886SOL    HW1 9557   2.041   4.664   5.218
 2886SOL    HW2 9558   1.991   4.553   5.109
 2887SOL     OW 9559   0.365   4.779   2.408
 2887SOL    HW1 9560   0.440   4.828   2.365
 2887SOL    HW2 9561   0.398   4.693   2.446
 2888SOL     OW 9562   4.435   5.903   6.772
 2888SOL    HW1 9563   4.383   5.845   6.709
 2888SOL    HW2 9564   4.533   5.894   6.753
 2889SOL     OW 9565   4.418   5.167   3.590
 2889SOL    HW1 9566   4.413   5.070   3.613
 2889SOL    HW2 9567   4.491   5.182   3.523
 2890SOL     OW 9568   1.615   1.675   0.995
 2890SOL    HW1 9569   1.669   1.594   1.019
 2890SOL    HW2 9570   1.576   1.664   0.904
 2891SOL     OW 9571   1.723   1.565   5.228
 2891SOL    HW1 9572   1.641   1.587   5.175
 2891SOL    HW2 9573   1.797   1.628   5.202
 2892SOL     OW 9574   5.856   4.587   2.158
 2892SOL    HW1 9575   5.823   4.678   2.184
 2892SOL    HW2 9576   5.869   4.532   2.240
 2893SOL     OW 9577   6.600   5.983   4.892
 2893SOL    HW1 9578   6.500   5.982   4.890
 2893SOL    HW2 9579   6.631   6.008   4.983
 2894SOL     OW 9580   1.656   5.774   1.281
 2894SOL    HW1 9581   1.562   5.743   1.272
 2894SOL    HW2 9582   1.709   5.741   1.203
 2895SOL     OW 9583   4.856   6.238   6.044
 2895SOL    HW1 9584   4.797   6.258   5.966
 2895SOL    HW2 9585   4.858   6.139   6.059
 2896SOL     OW 9586   6.529   0.635   6.724
 2896SOL    HW1 9587   6.514   0.718   6.778
 2896SOL    HW2 9588   6.615   0.593   6.750
 2897SOL     OW 9589   3.058   5.891   3.615
 2897SOL    HW1 9590   3.064   5.953   3.536
 2897SOL    HW2 9591   2.965   5.857   3.623
 2898SOL     OW 9592   5.197   2.963   2.801
 2898SOL    HW1 9593   5.230   2.999   2.714
 2898SOL    HW2 9594   5.269   2.973   2.870
 2899SOL     OW 9595   5.840   3.023   1.475
 2899SOL    HW1 9596   5.913   3.079   1.513
 2899SOL    HW2 9597   5.820   2.946   1.536
 2900SOL     OW 9598   3.270   2.985   4.788
 2900SOL    HW1 9599   3.239   3.024   4.701
 2900SOL    HW2 9600   3.367   2.964   4.782
 2901SOL     OW 9601   1.579   2.165   1.701
 2901SOL    HW1 9602   1.647   2.227   1.740
 2901SOL    HW2 9603   1.565   2.087   1.763
 2902SOL     OW 9604   5.200   6.389   3.394
 2902SOL    HW1 9605   5.158   6.479   3.381
 2902SOL    HW2 9606   5.234   6.355   3.306
 2903SOL     OW 9607   0.685   4.866   2.211
 2903SOL    HW1 9608   0.725   4.853   2.302
 2903SOL    HW2 9609   0.622   4.943   2.212
 2904SOL     OW 9610   3.632   4.943   4.418
 2904SOL    HW1 9611   3.701   4.900   4.359
 2904SOL    HW2 9612   3.675   4.971   4.504
 2905SOL     OW 9613   2.117   3.757   1.281
 2905SOL    HW1 9614   2.143   3.814   1.204
 2905SOL    HW2 9615   2.177   3.775   1.359
 2906SOL     OW 9616   6.338   6.693   6.453
 2906SOL    HW1 9617   6.249   6.647   6.460
 2906SOL    HW2 9618   6.351   6.726   6.360
 2907SOL     OW 9619   0.459   1.725   6.624
 2907SOL    HW1 9620   0.547   1.679   6.614
 2907SOL    HW2 9621   0.387   1.658   6.641
 2908SOL     OW 9622   3.379   5.876   3.911
 2908SOL    HW1 9623   3.282   5.891   3.893
 2908SOL    HW2 9624   3.428   5.873   3.824
 2909SOL     OW 9625   6.920   6.359   0.818
 2909SOL    HW1 9626   6.864   6.329   0.895
 2909SOL    HW2 9627   6.957   6.450   0.838
 2910SOL     OW 9628   1.617   0.000   3.736
 2910SOL    HW1 9629   1.646   0.010   3.641
 2910SOL    HW2 9630   1.552   6.946   3.744
 2911SOL     OW 9631   6.260   3.508   3.662
 2911SOL    HW1 9632   6.258   3.541   3.568
 2911SOL    HW2 9633   6.349   3.467   3.681
 2912SOL     OW 9634   0.093   1.358   2.995
 2912SOL    HW1 9635   0.087   1.265   3.031
 2912SOL    HW2 9636   0.050   1.361   2.905
 2913SOL     OW 9637   0.900   6.629   4.280
 2913SOL    HW1 9638   0.862   6.719   4.261
 2913SOL    HW2 9639   0.898   6.612   4.379
 2914SOL     OW 9640   3.659   4.600   0.661
 2914SOL    HW1 9641   3.740   4.542   0.660
 2914SOL    HW2 9642   3.648   4.644   0.572
 2915SOL     OW 9643   1.995   6.596   3.269
 2915SOL    HW1 9644   2.058   6.674   3.279
 2915SOL    HW2 9645   1.904   6.630   3.247
 2916SOL     OW 9646   0.048   6.118   6.826
 2916SOL    HW1 9647   0.114   6.186   6.855
 2916SOL    HW2 9648   0.091   6.056   6.759
 2917SOL     OW 9649   2.259   1.930   4.206
 2917SOL    HW1 9650   2.345   1.897   4.169
 2917SOL    HW2 9651   2.225   2.005   4.150
 2918SOL     OW 9652   5.073   0.933   1.327
 2918SOL    HW1 9653   5.124   0.850   1.350
 2918SOL    HW2 9654   5.111   0.974   1.243
 2919SOL     OW 9655   0.999   5.069   5.674
 2919SOL    HW1 9656   1.067   5.131   5.715
 2919SOL    HW2 9657   0.933   5.042   5.743
 2920SOL     OW 9658   2.672   2.618   1.550
 2920SOL    HW1 9659   2.769   2.606   1.525
 2920SOL    HW2 9660   2.650   2.556   1.626
 2921SOL     OW 9661   6.845   4.609   3.250
 2921SOL    HW1 9662   6.932   4.624   3.204
 2921SOL    HW2 9663   6.770   4.635   3.189
 2922SOL     OW 9664   3.942   5.421   3.962
 2922SOL    HW1 9665   3.977   5.389   3.874
 2922SOL    HW2 9666   4.003   5.491   3.999
 2923SOL     OW 9667   1.691   4.545   3.864
 2923SOL    HW1 9668   1.660   4.634   3.831
 2923SOL    HW2 9669   1.716   4.488   3.785
 2924SOL     OW 9670   4.242   1.995   0.072
 2924SOL    HW1 9671   4.305   2.056   0.024
 2924SOL    HW2 9672   4.275   1.901   0.066
 2925SOL     OW 9673   5.681   6.553   4.468
 2925SOL    HW1 9674   5.703   6.626   4.404
 2925SOL    HW2 9675   5.690   6.464   4.423
 2926SOL     OW 9676   6.947   2.654   5.179
 2926SOL    HW1 9677   6.903   2.690   5.262
 2926SOL    HW2 9678   6.925   2.713   5.101
 2927SOL     OW 9679   1.669   1.986   2.979
 2927SOL    HW1 9680   1.756   1.977   2.932
 2927SOL    HW2 9681   1.616   2.060   2.939
 2928SOL     OW 9682   5.125   4.797   0.148
 2928SOL    HW1 9683   5.088   4.711   0.112
 2928SOL    HW2 9684   5.094   4.873   0.090
 2929SOL     OW 9685   1.801   1.194   2.342
 2929SOL    HW1 9686   1.749   1.278   2.325
 2929SOL    HW2 9687   1.806   1.177   2.440
 2930SOL     OW 9688   0.894   3.143   3.703
 2930SOL    HW1 9689   0.929   3.069   3.759
 2930SOL    HW2 9690   0.845   3.105   3.624
 2931SOL     OW 9691   5.468   4.404   5.786
 2931SOL    HW1 9692   5.548   4.454   5.754
 2931SOL    HW2 9693   5.479   4.307   5.766
 2932SOL     OW 9694   6.302   6.961   0.385
 2932SOL    HW1 9695   6.219   7.016   0.395
 2932SOL    HW2 9696   6.356   6.967   0.468
 2933SOL     OW 9697   0.493   1.034   6.511
 2933SOL    HW1 9698   0.525   1.064   6.601
 2933SOL    HW2 9699   0.450   0.944   6.520
 2934SOL     OW 9700   4.941   5.639   2.650
 2934SOL    HW1 9701   4.965   5.720   2.703
 2934SOL    HW2 9702   5.013   5.571   2.658
 2935SOL     OW 9703   0.172   4.807   6.120
 2935SOL    HW1 9704   0.177   4.774   6.214
 2935SOL    HW2 9705   0.084   4.780   6.080
 2936SOL     OW 9706   4.865   6.441   2.585
 2936SOL    HW1 9707   4.780   6.471   2.628
 2936SOL    HW2 9708   4.865   6.468   2.488
 2937SOL     OW 9709   6.138   3.259   3.808
 2937SOL    HW1 9710   6.182   3.343   3.776
 2937SOL    HW2 9711   6.206   3.186   3.812
 2938SOL     OW 9712   6.944   5.678   1.245
 2938SOL    HW1 9713   6.951   5.733   1.163
 2938SOL    HW2 9714   6.892   5.595   1.226
 2939SOL     OW 9715   6.711   5.806   1.951
 2939SOL    HW1 9716   6.762   5.759   1.878
 2939SOL    HW2 9717   6.776   5.856   2.009
 2940SOL     OW 9718   5.027   6.165   3.213
 2940SOL    HW1 9719   5.100   6.217   3.169
 2940SOL    HW2 9720   4.949   6.226   3.229
 2941SOL     OW 9721   2.994   5.053   1.625
 2941SOL    HW1 9722   2.958   4.973   1.673
 2941SOL    HW2 9723   3.060   5.100   1.684
 2942SOL     OW 9724   2.635   1.628   0.210
 2942SOL    HW1 9725   2.612   1.537   0.245
 2942SOL    HW2 9726   2.634   1.694   0.284
 2943SOL     OW 9727   0.412   4.908   3.714
 2943SOL    HW1 9728   0.478   4.913   3.639
 2943SOL    HW2 9729   0.357   4.992   3.715
 2944SOL     OW 9730   0.381   5.179   3.805
 2944SOL    HW1 9731   0.345   5.150   3.716
 2944SOL    HW2 9732   0.316   5.239   3.850
 2945SOL     OW 9733   5.860   3.337   0.240
 2945SOL    HW1 9734   5.785   3.379   0.291
 2945SOL    HW2 9735   5.823   3.281   0.167
 2946SOL     OW 9736   3.247   3.802   4.371
 2946SOL    HW1 9737   3.258   3.812   4.470
 2946SOL    HW2 9738   3.150   3.787   4.350
 2947SOL     OW 9739   6.936   6.681   0.608
 2947SOL    HW1 9740   6.994   6.599   0.607
 2947SOL    HW2 9741   6.977   6.752   0.550
 2948SOL     OW 9742   6.344   5.181   0.797
 2948SOL    HW1 9743   6.335   5.124   0.879
 2948SOL    HW2 9744   6.269   5.247   0.795
 2949SOL     OW 9745   1.235   5.843   0.683
 2949SOL    HW1 9746   1.200   5.808   0.770
 2949SOL    HW2 9747   1.166   5.902   0.641
 2950SOL     OW 9748   5.270   4.899   2.686
 2950SOL    HW1 9749   5.197   4.967   2.682
 2950SOL    HW2 9750   5.317   4.905   2.774
 2951SOL     OW 9751   1.306   3.831   0.727
 2951SOL    HW1 9752   1.267   3.851   0.637
 2951SOL    HW2 9753   1.300   3.732   0.745
 2952SOL     OW 9754   1.403   1.376   4.110
 2952SOL    HW1 9755   1.348   1.294   4.095
 2952SOL    HW2 9756   1.344   1.452   4.138
 2953SOL     OW 9757   1.108   5.449   3.107
 2953SOL    HW1 9758   1.159   5.536   3.107
 2953SOL    HW2 9759   1.163   5.378   3.152
 2954SOL     OW 9760   0.073   4.722   5.440
 2954SOL    HW1 9761   0.034   4.652   5.381
 2954SOL    HW2 9762   0.109   4.680   5.523
 2955SOL     OW 9763   0.851   4.996   5.891
 2955SOL    HW1 9764   0.781   4.964   5.956
 2955SOL    HW2 9765   0.941   4.987   5.932
 2956SOL     OW 9766   6.339   3.766   5.114
 2956SOL    HW1 9767   6.299   3.695   5.171
 2956SOL    HW2 9768   6.320   3.747   5.018
 2957SOL     OW 9769   1.357   4.818   1.730
 2957SOL    HW1 9770   1.425   4.884   1.761
 2957SOL    HW2 9771   1.282   4.815   1.795
 2958SOL     OW 9772   2.088   3.128   1.360
 2958SOL    HW1 9773   2.079   3.164   1.453
 2958SOL    HW2 9774   2.146   3.047   1.362
 2959SOL     OW 9775   1.207   3.928   4.137
 2959SOL    HW1 9776   1.258   3.965   4.059
 2959SOL    HW2 9777   1.250   3.958   4.222
 2960SOL     OW 9778   5.350   5.523   0.324
 2960SOL    HW1 9779   5.257   5.486   0.316
 2960SOL    HW2 9780   5.360   5.567   0.414
 2961SOL     OW 9781   5.728   2.041   1.039
 2961SOL    HW1 9782   5.635   2.036   1.077
 2961SOL    HW2 9783   5.758   1.950   1.012
 2962SOL     OW 9784   6.584   0.613   4.350
 2962SOL    HW1 9785   6.684   0.622   4.344
 2962SOL    HW2 9786   6.553   0.650   4.437
 2963SOL     OW 9787   2.043   0.990   6.202
 2963SOL    HW1 9788   2.068   0.992   6.299
 2963SOL    HW2 9789   2.056   1.081   6.162
 2964SOL     OW 9790   0.906   0.816   5.858
 2964SOL    HW1 9791   0.987   0.774   5.819
 2964SOL    HW2 9792   0.873   0.760   5.934
 2965SOL     OW 9793   6.537   1.342   6.421
 2965SOL    HW1 9794   6.597   1.396   6.362
 2965SOL    HW2 9795   6.517   1.255   6.377
 2966SOL     OW 9796   3.954   0.370   2.499
 2966SOL    HW1 9797   3.941   0.298   2.567
 2966SOL    HW2 9798   3.903   0.452   2.527
 2967SOL     OW 9799   5.105   6.434   5.357
 2967SOL    HW1 9800   5.054   6.516   5.330
 2967SOL    HW2 9801   5.164   6.456   5.435
 2968SOL     OW 9802   1.948   3.933   1.984
 2968SOL    HW1 9803   1.979   3.840   1.963
 2968SOL    HW2 9804   1.916   3.937   2.078
 2969SOL     OW 9805   4.066   1.835   4.960
 2969SOL    HW1 9806   4.160   1.808   4.942
 2969SOL    HW2 9807   4.047   1.923   4.916
 2970SOL     OW 9808   2.491   2.879   6.455
 2970SOL    HW1 9809   2.458   2.862   6.362
 2970SOL    HW2 9810   2.471   2.799   6.512
 2971SOL     OW 9811   4.160   4.141   5.649
 2971SOL    HW1 9812   4.160   4.237   5.620
 2971SOL    HW2 9813   4.128   4.136   5.744
 2972SOL     OW 9814   0.307   6.098   0.772
 2972SOL    HW1 9815   0.297   6.003   0.741
 2972SOL    HW2 9816   0.254   6.158   0.713
 2973SOL     OW 9817   4.831   0.397   5.057
 2973SOL    HW1 9818   4.793   0.358   4.973
 2973SOL    HW2 9819   4.783   0.481   5.080
 2974SOL     OW 9820   5.191   5.163   2.582
 2974SOL    HW1 9821   5.183   5.169   2.483
 2974SOL    HW2 9822   5.286   5.146   2.607
 2975SOL     OW 9823   0.721   4.032   4.999
 2975SOL    HW1 9824   0.799   4.075   4.953
 2975SOL    HW2 9825   0.711   3.938   4.967
 2976SOL     OW 9826   4.130   6.985   1.606
 2976SOL    HW1 9827   4.125   6.930   1.523
 2976SOL    HW2 9828   4.089   0.053   1.589
 2977SOL     OW 9829   1.106   1.594   2.310
 2977SOL    HW1 9830   1.197   1.635   2.301
 2977SOL    HW2 9831   1.040   1.665   2.334
 2978SOL     OW 9832   3.477   5.697   0.456
 2978SOL    HW1 9833   3.458   5.623   0.521
 2978SOL    HW2 9834   3.575   5.712   0.450
 2979SOL     OW 9835   2.206   1.383   5.804
 2979SOL    HW1 9836   2.187   1.363   5.708
 2979SOL    HW2 9837   2.254   1.471   5.811
 2980SOL     OW 9838   3.538   3.273   2.875
 2980SOL    HW1 9839   3.627   3.318   2.865
 2980SOL    HW2 9840   3.519   3.218   2.794
 2981SOL     OW 9841   2.210   1.186   1.144
 2981SOL    HW1 9842   2.234   1.092   1.122
 2981SOL    HW2 9843   2.235   1.206   1.239
 2982SOL     OW 9844   0.155   0.694   2.219
 2982SOL    HW1 9845   0.176   0.599   2.241
 2982SOL    HW2 9846   0.213   0.755   2.273
 2983SOL     OW 9847   6.765   2.434   6.147
 2983SOL    HW1 9848   6.731   2.436   6.241
 2983SOL    HW2 9849   6.766   2.527   6.110
 2984SOL     OW 9850   0.900   5.981   0.960
 2984SOL    HW1 9851   0.910   5.962   0.862
 2984SOL    HW2 9852   0.957   6.059   0.984
 2985SOL     OW 9853   0.539   6.979   5.810
 2985SOL    HW1 9854   0.556   6.994   5.712
 2985SOL    HW2 9855   0.545   6.881   5.829
 2986SOL     OW 9856   3.798   3.945   2.351
 2986SOL    HW1 9857   3.742   4.012   2.398
 2986SOL    HW2 9858   3.793   3.960   2.252
 2987SOL     OW 9859   2.590   6.751   5.730
 2987SOL    HW1 9860   2.502   6.770   5.687
 2987SOL    HW2 9861   2.584   6.669   5.786
 2988SOL     OW 9862   0.972   1.438   6.477
 2988SOL    HW1 9863   1.042   1.508   6.489
 2988SOL    HW2 9864   0.986   1.366   6.545
 2989SOL     OW 9865   5.446   3.538   5.878
 2989SOL    HW1 9866   5.519   3.568   5.939
 2989SOL    HW2 9867   5.371   3.501   5.933
 2990SOL     OW 9868   5.135   1.739   4.638
 2990SOL    HW1 9869   5.132   1.650   4.593
 2990SOL    HW2 9870   5.208   1.740   4.706
 2991SOL     OW 9871   6.209   3.138   0.522
 2991SOL    HW1 9872   6.307   3.143   0.542
 2991SOL    HW2 9873   6.164   3.080   0.590
 2992SOL     OW 9874   1.948   4.327   5.014
 2992SOL    HW1 9875   1.967   4.333   5.112
 2992SOL    HW2 9876   1.850   4.313   5.000
 2993SOL     OW 9877   3.847   5.624   6.825
 2993SOL    HW1 9878   3.914   5.678   6.875
 2993SOL    HW2 9879   3.819   5.546   6.880
 2994SOL     OW 9880   3.025   5.358   5.151
 2994SOL    HW1 9881   3.110   5.365   5.099
 2994SOL    HW2 9882   2.956   5.310   5.097
 2995SOL     OW 9883   5.744   0.216   2.634
 2995SOL    HW1 9884   5.828   0.171   2.663
 2995SOL    HW2 9885   5.665   0.166   2.670
 2996SOL     OW 9886   6.674   7.016   4.518
 2996SOL    HW1 9887   6.758   0.038   4.486
 2996SOL    HW2 9888   6.696   6.945   4.584
 2997SOL     OW 9889   5.298   6.517   4.005
 2997SOL    HW1 9890   5.338   6.563   4.084
 2997SOL    HW2 9891   5.231   6.450   4.037
 2998SOL     OW 9892   2.669   0.408   1.196
 2998SOL    HW1 9893   2.711   0.319   1.181
 2998SOL    HW2 9894   2.579   0.410   1.152
 2999SOL     OW 9895   2.253   5.550   7.002
 2999SOL    HW1 9896   2.293   5.497   0.055
 2999SOL    HW2 9897   2.257   5.496   6.918
 3000SOL     OW 9898   2.164   4.361   6.343
 3000SOL    HW1 9899   2.219   4.288   6.302
 3000SOL    HW2 9900   2.212   4.400   6.421
 3001SOL     OW 9901   2.552   0.246   5.898
 3001SOL    HW1 9902   2.491   0.246   5.819
 3001SOL    HW2 9903   2.571   0.151   5.925
 3002SOL     OW 9904   2.015   1.708   1.569
 3002SOL    HW1 9905   1.968   1.649   1.634
 3002SOL    HW2 9906   1.950   1.775   1.532
 3003SOL     OW 9907   0.947   5.933   0.117
 3003SOL    HW1 9908   0.916   5.899   0.205
 3003SOL    HW2 9909   0.927   5.866   0.046
 3004SOL     OW 9910   2.766   1.478   4.644
 3004SOL    HW1 9911   2.752   1.528   4.729
 3004SOL    HW2 9912   2.679   1.437   4.615
 3005SOL     OW 9913   2.793   1.670   6.685
 3005SOL    HW1 9914   2.860   1.622   6.628
 3005SOL    HW2 9915   2.808   1.769   6.678
 3006SOL     OW 9916   5.327   1.261   6.062
 3006SOL    HW1 9917   5.343   1.287   5.967
 3006SOL    HW2 9918   5.404   1.207   6.095
 3007SOL     OW 9919   6.574   5.624   6.197
 3007SOL    HW1 9920   6.497   5.630   6.261
 3007SOL    HW2 9921   6.652   5.581   6.244
 3008SOL     OW 9922   5.569   3.494   5.550
 3008SOL    HW1 9923   5.616   3.456   5.630
 3008SOL    HW2 9924   5.515   3.423   5.506
 3009SOL     OW 9925   5.843   4.144   1.376
 3009SOL    HW1 9926   5.775   4.176   1.443
 3009SOL    HW2 9927   5.933   4.180   1.400
 3010SOL     OW 9928   4.656   4.040   1.632
 3010SOL    HW1 9929   4.557   4.042   1.619
 3010SOL    HW2 9930   4.701   4.027   1.544
 3011SOL     OW 9931   5.159   0.692   1.407
 3011SOL    HW1 9932   5.235   0.717   1.466
 3011SOL    HW2 9933   5.151   0.592   1.404
 3012SOL     OW 9934   1.977   2.838   4.602
 3012SOL    HW1 9935   2.013   2.765   4.660
 3012SOL    HW2 9936   2.048   2.867   4.537
 3013SOL     OW 9937   0.604   5.941   5.896
 3013SOL    HW1 9938   0.677   5.943   5.965
 3013SOL    HW2 9939   0.643   5.955   5.805
 3014SOL     OW 9940   3.839   6.941   1.095
 3014SOL    HW1 9941   3.929   6.934   1.137
 3014SOL    HW2 9942   3.797   6.851   1.090
 3015SOL     OW 9943   2.255   6.568   5.905
 3015SOL    HW1 9944   2.317   6.491   5.918
 3015SOL    HW2 9945   2.286   6.625   5.829
 3016SOL     OW 9946   3.549   1.382   4.915
 3016SOL    HW1 9947   3.493   1.444   4.971
 3016SOL    HW2 9948   3.639   1.423   4.902
 3017SOL     OW 9949   1.534   6.402   6.497
 3017SOL    HW1 9950   1.477   6.480   6.473
 3017SOL    HW2 9951   1.613   6.433   6.550
 3018SOL     OW 9952   2.109   2.905   1.888
 3018SOL    HW1 9953   2.124   2.962   1.969
 3018SOL    HW2 9954   2.161   2.820   1.898
 3019SOL     OW 9955   0.707   1.211   5.255
 3019SOL    HW1 9956   0.746   1.298   5.283
 3019SOL    HW2 9957   0.769   1.137   5.282
 3020SOL     OW 9958   5.233   4.154   6.723
 3020SOL    HW1 9959   5.296   4.132   6.797
 3020SOL    HW2 9960   5.236   4.252   6.703
 3021SOL     OW 9961   3.723   6.028   4.290
 3021SOL    HW1 9962   3.718   6.121   4.327
 3021SOL    HW2 9963   3.785   5.974   4.347
 3022SOL     OW 9964   3.863   6.370   1.981
 3022SOL    HW1 9965   3.835   6.325   1.896
 3022SOL    HW2 9966   3.793   6.436   2.008
 3023SOL     OW 9967   6.398   4.352   5.580
 3023SOL    HW1 9968   6.420   4.429   5.639
 3023SOL    HW2 9969   6.431   4.267   5.622
 3024SOL     OW 9970   6.008   2.128   6.045
 3024SOL    HW1 9971   6.097   2.139   5.999
 3024SOL    HW2 9972   6.022   2.127   6.144
 3025SOL     OW 9973   3.766   5.131   1.079
 3025SOL    HW1 9974   3.744   5.037   1.104
 3025SOL    HW2 9975   3.860   5.137   1.047
 3026SOL     OW 9976   0.105   5.386   2.662
 3026SOL    HW1 9977   0.058   5.464   2.703
 3026SOL    HW2 9978   0.038   5.328   2.615
 3027SOL     OW 9979   4.112   0.273   1.087
 3027SOL    HW1 9980   4.081   0.301   0.996
 3027SOL    HW2 9981   4.103   0.350   1.150
 3028SOL     OW 9982   3.480   3.537   3.548
 3028SOL    HW1 9983   3.478   3.464   3.480
 3028SOL    HW2 9984   3.549   3.604   3.522
 3029SOL     OW 9985   0.170   2.575   5.255
 3029SOL    HW1 9986   0.224   2.595   5.174
 3029SOL    HW2 9987   0.073   2.591   5.236
 3030SOL     OW 9988   0.706   4.021   6.118
 3030SOL    HW1 9989   0.697   3.995   6.214
 3030SOL    HW2 9990   0.783   3.971   6.077
 3031SOL     OW 9991   0.400   4.083   0.260
 3031SOL    HW1 9992   0.490   4.082   0.304
 3031SOL    HW2 9993   0.406   4.130   0.172
 3032SOL     OW 9994   3.174   0.239   3.488
 3032SOL    HW1 9995   3.270   0.228   3.463
 3032SOL    HW2 9996   3.139   0.326   3.453
 3033SOL     OW 9997   1.878   0.511   6.031
 3033SOL    HW1 9998   1.881   0.606   6.000
 3033SOL    HW2 9999   1.927   0.453   5.966
 3034SOL     OW10000   4.837   3.773   3.276
 3034SOL    HW110001   4.866   3.683   3.244
 3034SOL    HW210002   4.826   3.834   3.198
 3035SOL     OW10003   5.556   4.579   0.075
 3035SOL    HW110004   5.475   4.523   0.058
 3035SOL    HW210005   5.582   4.572   0.171
 3036SOL     OW10006   2.417   2.651   6.615
 3036SOL    HW110007   2.401   2.631   6.712
 3036SOL    HW210008   2.495   2.598   6.583
 3037SOL     OW10009   0.758   5.484   6.572
 3037SOL    HW110010   0.680   5.495   6.510
 3037SOL    HW210011   0.836   5.447   6.522
 3038SOL     OW10012   6.288   5.344   6.005
 3038SOL    HW110013   6.219   5.318   5.938
 3038SOL    HW210014   6.314   5.439   5.992
 3039SOL     OW10015   6.339   3.289   6.300
 3039SOL    HW110016   6.324   3.383   6.270
 3039SOL    HW210017   6.434   3.278   6.329
 3040SOL     OW10018   3.571   6.646   6.453
 3040SOL    HW110019   3.508   6.639   6.530
 3040SOL    HW210020   3.648   6.705   6.478
 3041SOL     OW10021   1.838   5.842   5.734
 3041SOL    HW110022   1.848   5.754   5.687
 3041SOL    HW210023   1.814   5.826   5.830
 3042SOL     OW10024   6.658   5.787   4.687
 3042SOL    HW110025   6.632   5.862   4.748
 3042SOL    HW210026   6.576   5.735   4.662
 3043SOL     OW10027   2.476   3.551   1.645
 3043SOL    HW110028   2.424   3.498   1.713
 3043SOL    HW210029   2.545   3.605   1.692
 3044SOL     OW10030   3.804   3.771   3.702
 3044SOL    HW110031   3.889   3.754   3.651
 3044SOL    HW210032   3.770   3.685   3.739
 3045SOL     OW10033   5.873   6.806   3.674
 3045SOL    HW110034   5.844   6.759   3.590
 3045SOL    HW210035   5.967   6.839   3.664
 3046SOL     OW10036   6.332   6.290   1.797
 3046SOL    HW110037   6.333   6.226   1.874
 3046SOL    HW210038   6.425   6.302   1.763
 3047SOL     OW10039   4.435   1.176   3.689
 3047SOL    HW110040   4.429   1.240   3.612
 3047SOL    HW210041   4.427   1.082   3.655
 3048SOL     OW10042   4.524   4.627   0.410
 3048SOL    HW110043   4.587   4.566   0.459
 3048SOL    HW210044   4.431   4.608   0.440
 3049SOL     OW10045   6.905   0.281   1.101
 3049SOL    HW110046   6.879   0.369   1.062
 3049SOL    HW210047   6.937   0.294   1.195
 3050SOL     OW10048   4.156   3.304   5.862
 3050SOL    HW110049   4.119   3.227   5.913
 3050SOL    HW210050   4.195   3.272   5.776
 3051SOL     OW10051   2.673   4.637   5.839
 3051SOL    HW110052   2.647   4.557   5.892
 3051SOL    HW210053   2.737   4.693   5.891
 3052SOL     OW10054   6.314   0.062   4.229
 3052SOL    HW110055   6.336   0.158   4.210
 3052SOL    HW210056   6.351   0.037   4.318
 3053SOL     OW10057   0.541   5.542   5.808
 3053SOL    HW110058   0.580   5.611   5.747
 3053SOL    HW210059   0.538   5.453   5.762
 3054SOL     OW10060   6.372   6.033   3.469
 3054SOL    HW110061   6.378   5.933   3.458
 3054SOL    HW210062   6.351   6.054   3.564
 3055SOL     OW10063   5.650   5.728   0.862
 3055SOL    HW110064   5.745   5.733   0.892
 3055SOL    HW210065   5.618   5.819   0.836
 3056SOL     OW10066   4.678   2.786   1.470
 3056SOL    HW110067   4.648   2.691   1.477
 3056SOL    HW210068   4.773   2.794   1.501
 3057SOL     OW10069   0.358   2.002   2.593
 3057SOL    HW110070   0.304   2.086   2.600
 3057SOL    HW210071   0.330   1.952   2.511
 3058SOL     OW10072   5.169   4.492   6.418
 3058SOL    HW110073   5.184   4.578   6.368
 3058SOL    HW210074   5.125   4.426   6.357
 3059SOL     OW10075   1.525   2.668   3.086
 3059SOL    HW110076   1.482   2.671   3.177
 3059SOL    HW210077   1.495   2.747   3.033
 3060SOL     OW10078   6.564   2.617   3.765
 3060SOL    HW110079   6.484   2.563   3.791
 3060SOL    HW210080   6.554   2.650   3.671
 3061SOL     OW10081   5.318   5.940   2.021
 3061SOL    HW110082   5.316   5.955   1.922
 3061SOL    HW210083   5.341   5.844   2.039
 3062SOL     OW10084   3.986   5.129   6.661
 3062SOL    HW110085   3.915   5.095   6.598
 3062SOL    HW210086   3.990   5.071   6.742
 3063SOL     OW10087   5.976   6.149   1.207
 3063SOL    HW110088   5.935   6.059   1.214
 3063SOL    HW210089   6.049   6.158   1.275
 3064SOL     OW10090   4.817   0.646   6.093
 3064SOL    HW110091   4.866   0.640   6.006
 3064SOL    HW210092   4.775   0.737   6.101
 3065SOL     OW10093   4.802   1.858   6.440
 3065SOL    HW110094   4.824   1.940   6.492
 3065SOL    HW210095   4.721   1.815   6.480
 3066SOL     OW10096   5.014   0.247   6.812
 3066SOL    HW110097   5.019   0.211   6.719
 3066SOL    HW210098   5.037   0.345   6.812
 3067SOL     OW10099   1.490   1.945   4.749
 3067SOL    HW110100   1.438   1.931   4.665
 3067SOL    HW210101   1.573   1.998   4.728
 3068SOL     OW10102   6.773   0.248   0.573
 3068SOL    HW110103   6.857   0.292   0.604
 3068SOL    HW210104   6.716   0.227   0.653
 3069SOL     OW10105   4.846   5.860   4.231
 3069SOL    HW110106   4.868   5.939   4.288
 3069SOL    HW210107   4.921   5.842   4.168
 3070SOL     OW10108   2.382   1.543   0.357
 3070SOL    HW110109   2.441   1.466   0.333
 3070SOL    HW210110   2.369   1.546   0.456
 3071SOL     OW10111   6.055   4.203   4.728
 3071SOL    HW110112   6.084   4.298   4.735
 3071SOL    HW210113   6.135   4.143   4.729
 3072SOL     OW10114   1.862   6.417   4.147
 3072SOL    HW110115   1.898   6.421   4.054
 3072SOL    HW210116   1.874   6.506   4.191
 3073SOL     OW10117   0.886   5.006   3.341
 3073SOL    HW110118   0.974   4.961   3.330
 3073SOL    HW210119   0.853   5.039   3.253
 3074SOL     OW10120   2.912   3.611   1.507
 3074SOL    HW110121   2.977   3.559   1.563
 3074SOL    HW210122   2.825   3.618   1.555
 3075SOL     OW10123   3.966   4.638   0.885
 3075SOL    HW110124   4.003   4.591   0.965
 3075SOL    HW210125   3.898   4.705   0.914
 3076SOL     OW10126   2.592   1.327   4.463
 3076SOL    HW110127   2.550   1.289   4.546
 3076SOL    HW210128   2.525   1.330   4.390
 3077SOL     OW10129   0.109   3.271   2.641
 3077SOL    HW110130   0.064   3.182   2.636
 3077SOL    HW210131   0.202   3.260   2.676
 3078SOL     OW10132   6.149   4.969   1.414
 3078SOL    HW110133   6.244   4.998   1.430
 3078SOL    HW210134   6.087   5.045   1.434
 3079SOL     OW10135   0.104   4.047   2.485
 3079SOL    HW110136   0.177   4.080   2.424
 3079SOL    HW210137   0.031   4.115   2.490
 3080SOL     OW10138   3.289   4.972   1.512
 3080SOL    HW110139   3.335   5.011   1.592
 3080SOL    HW210140   3.245   4.886   1.538
 3081SOL     OW10141   2.627   2.183   5.931
 3081SOL    HW110142   2.630   2.234   5.845
 3081SOL    HW210143   2.720   2.171   5.967
 3082SOL     OW10144   5.854   2.870   4.268
 3082SOL    HW110145   5.894   2.916   4.347
 3082SOL    HW210146   5.906   2.787   4.248
 3083SOL     OW10147   4.616   5.503   2.099
 3083SOL    HW110148   4.587   5.598   2.100
 3083SOL    HW210149   4.546   5.446   2.142
 3084SOL     OW10150   7.011   5.434   4.336
 3084SOL    HW110151   6.916   5.439   4.365
 3084SOL    HW210152   0.037   5.364   4.389
 3085SOL     OW10153   6.625   5.862   5.844
 3085SOL    HW110154   6.536   5.818   5.855
 3085SOL    HW210155   6.691   5.795   5.808
 3086SOL     OW10156   5.952   5.973   6.042
 3086SOL    HW110157   5.987   5.974   5.949
 3086SOL    HW210158   6.023   5.940   6.104
 3087SOL     OW10159   2.381   0.062   1.260
 3087SOL    HW110160   2.362   7.015   1.190
 3087SOL    HW210161   2.402   0.149   1.217
 3088SOL     OW10162   2.131   3.140   5.221
 3088SOL    HW110163   2.198   3.084   5.270
 3088SOL    HW210164   2.131   3.115   5.124
 3089SOL     OW10165   4.187   0.191   0.695
 3089SOL    HW110166   4.167   0.101   0.656
 3089SOL    HW210167   4.118   0.215   0.763
 3090SOL     OW10168   0.429   1.913   3.167
 3090SOL    HW110169   0.457   1.924   3.262
 3090SOL    HW210170   0.400   1.819   3.151
 3091SOL     OW10171   1.654   1.744   5.874
 3091SOL    HW110172   1.615   1.673   5.815
 3091SOL    HW210173   1.737   1.780   5.831
 3092SOL     OW10174   4.849   1.823   4.096
 3092SOL    HW110175   4.881   1.802   4.004
 3092SOL    HW210176   4.755   1.792   4.107
 3093SOL     OW10177   6.567   6.406   0.494
 3093SOL    HW110178   6.510   6.481   0.460
 3093SOL    HW210179   6.517   6.356   0.565
 3094SOL     OW10180   1.320   0.653   6.029
 3094SOL    HW110181   1.360   0.701   5.951
 3094SOL    HW210182   1.365   0.564   6.040
 3095SOL     OW10183   2.246   3.848   6.066
 3095SOL    HW110184   2.167   3.907   6.084
 3095SOL    HW210185   2.318   3.867   6.133
 3096SOL     OW10186   1.878   3.570   4.092
 3096SOL    HW110187   1.809   3.551   4.022
 3096SOL    HW210188   1.888   3.490   4.151
 3097SOL     OW10189   5.056   2.297   6.235
 3097SOL    HW110190   5.147   2.257   6.221
 3097SOL    HW210191   5.059   2.362   6.310
 3098SOL     OW10192   2.050   4.384   2.855
 3098SOL    HW110193   2.038   4.300   2.908
 3098SOL    HW210194   2.137   4.427   2.879
 3099SOL     OW10195   0.742   1.434   5.690
 3099SOL    HW110196   0.700   1.419   5.780
 3099SOL    HW210197   0.671   1.436   5.620
 3100SOL     OW10198   6.175   4.341   3.072
 3100SOL    HW110199   6.246   4.288   3.025
 3100SOL    HW210200   6.089   4.333   3.021
 3101SOL     OW10201   4.541   0.364   5.349
 3101SOL    HW110202   4.475   0.316   5.291
 3101SOL    HW210203   4.508   0.367   5.443
 3102SOL     OW10204   5.369   2.963   3.004
 3102SOL    HW110205   5.311   2.888   3.037
 3102SOL    HW210206   5.462   2.950   3.037
 3103SOL     OW10207   1.123   0.832   2.564
 3103SOL    HW110208   1.075   0.748   2.538
 3103SOL    HW210209   1.062   0.910   2.552
 3104SOL     OW10210   5.831   2.193   6.330
 3104SOL    HW110211   5.898   2.121   6.347
 3104SOL    HW210212   5.782   2.173   6.245
 3105SOL     OW10213   5.539   4.673   0.762
 3105SOL    HW110214   5.595   4.720   0.694
 3105SOL    HW210215   5.540   4.726   0.847
 3106SOL     OW10216   5.175   1.686   4.972
 3106SOL    HW110217   5.101   1.753   4.981
 3106SOL    HW210218   5.242   1.700   5.044
 3107SOL     OW10219   4.955   1.405   4.741
 3107SOL    HW110220   4.911   1.455   4.816
 3107SOL    HW210221   4.911   1.316   4.730
 3108SOL     OW10222   3.061   5.278   4.735
 3108SOL    HW110223   3.153   5.316   4.742
 3108SOL    HW210224   3.054   5.221   4.653
 3109SOL     OW10225   6.925   4.769   3.902
 3109SOL    HW110226   6.985   4.696   3.871
 3109SOL    HW210227   6.979   4.850   3.923
 3110SOL     OW10228   2.240   4.824   3.833
 3110SOL    HW110229   2.316   4.774   3.792
 3110SOL    HW210230   2.186   4.761   3.889
 3111SOL     OW10231   0.361   3.504   4.507
 3111SOL    HW110232   0.432   3.441   4.476
 3111SOL    HW210233   0.357   3.502   4.607
 3112SOL     OW10234   4.497   0.786   0.821
 3112SOL    HW110235   4.542   0.756   0.737
 3112SOL    HW210236   4.524   0.880   0.842
 3113SOL     OW10237   1.328   6.447   3.907
 3113SOL    HW110238   1.418   6.490   3.921
 3113SOL    HW210239   1.327   6.404   3.817
 3114SOL     OW10240   5.335   5.075   4.933
 3114SOL    HW110241   5.247   5.067   4.979
 3114SOL    HW210242   5.338   5.159   4.879
 3115SOL     OW10243   5.714   4.949   4.335
 3115SOL    HW110244   5.761   5.036   4.318
 3115SOL    HW210245   5.648   4.932   4.262
 3116SOL     OW10246   0.938   2.633   6.041
 3116SOL    HW110247   0.918   2.720   5.995
 3116SOL    HW210248   0.853   2.583   6.055
 3117SOL     OW10249   4.172   0.385   2.346
 3117SOL    HW110250   4.100   0.385   2.416
 3117SOL    HW210251   4.153   0.456   2.278
 3118SOL     OW10252   1.059   1.812   3.541
 3118SOL    HW110253   1.114   1.890   3.509
 3118SOL    HW210254   1.075   1.799   3.638
 3119SOL     OW10255   4.426   6.757   3.069
 3119SOL    HW110256   4.440   6.852   3.098
 3119SOL    HW210257   4.497   6.699   3.109
 3120SOL     OW10258   3.839   6.582   6.216
 3120SOL    HW110259   3.832   6.672   6.173
 3120SOL    HW210260   3.867   6.593   6.312
 3121SOL     OW10261   3.972   1.303   3.106
 3121SOL    HW110262   3.921   1.263   3.030
 3121SOL    HW210263   4.017   1.230   3.157
 3122SOL     OW10264   5.174   3.334   6.402
 3122SOL    HW110265   5.075   3.349   6.396
 3122SOL    HW210266   5.198   3.252   6.351
 3123SOL     OW10267   2.184   3.111   2.685
 3123SOL    HW110268   2.155   3.046   2.755
 3123SOL    HW210269   2.126   3.192   2.688
 3124SOL     OW10270   5.063   5.857   5.742
 3124SOL    HW110271   5.020   5.941   5.710
 3124SOL    HW210272   5.152   5.878   5.782
 3125SOL     OW10273   2.459   1.494   4.798
 3125SOL    HW110274   2.386   1.545   4.846
 3125SOL    HW210275   2.548   1.532   4.823
 3126SOL     OW10276   5.253   3.812   5.017
 3126SOL    HW110277   5.301   3.812   4.929
 3126SOL    HW210278   5.159   3.782   5.003
 3127SOL     OW10279   0.170   2.196   6.470
 3127SOL    HW110280   0.104   2.208   6.396
 3127SOL    HW210281   0.133   2.232   6.555
 3128SOL     OW10282   3.884   1.866   1.584
 3128SOL    HW110283   3.899   1.779   1.537
 3128SOL    HW210284   3.934   1.865   1.670
 3129SOL     OW10285   3.848   4.895   0.190
 3129SOL    HW110286   3.915   4.826   0.163
 3129SOL    HW210287   3.891   4.986   0.190
 3130SOL     OW10288   6.367   5.691   3.036
 3130SOL    HW110289   6.354   5.707   2.939
 3130SOL    HW210290   6.392   5.777   3.081
 3131SOL     OW10291   0.735   1.555   3.391
 3131SOL    HW110292   0.688   1.555   3.302
 3131SOL    HW210293   0.676   1.595   3.460
 3132SOL     OW10294   4.099   3.969   6.139
 3132SOL    HW110295   4.171   3.921   6.190
 3132SOL    HW210296   4.010   3.939   6.172
 3133SOL     OW10297   5.315   6.328   4.612
 3133SOL    HW110298   5.223   6.289   4.604
 3133SOL    HW210299   5.309   6.428   4.616
 3134SOL     OW10300   3.993   5.391   3.116
 3134SOL    HW110301   4.029   5.313   3.065
 3134SOL    HW210302   3.981   5.366   3.212
 3135SOL     OW10303   3.904   0.868   6.137
 3135SOL    HW110304   3.806   0.873   6.117
 3135SOL    HW210305   3.923   0.784   6.187
 3136SOL     OW10306   6.054   6.125   1.832
 3136SOL    HW110307   6.071   6.220   1.805
 3136SOL    HW210308   5.989   6.123   1.908
 3137SOL     OW10309   5.079   3.929   7.016
 3137SOL    HW110310   5.170   3.911   6.977
 3137SOL    HW210311   5.009   3.896   6.953
 3138SOL     OW10312   6.594   6.400   5.608
 3138SOL    HW110313   6.647   6.371   5.527
 3138SOL    HW210314   6.530   6.327   5.633
 3139SOL     OW10315   1.486   4.867   1.963
 3139SOL    HW110316   1.563   4.805   1.949
 3139SOL    HW210317   1.517   4.950   2.009
 3140SOL     OW10318   4.139   5.551   6.770
 3140SOL    HW110319   4.081   5.510   6.699
 3140SOL    HW210320   4.106   5.643   6.791
 3141SOL     OW10321   6.225   2.674   0.941
 3141SOL    HW110322   6.193   2.668   0.847
 3141SOL    HW210323   6.289   2.600   0.959
 3142SOL     OW10324   4.205   0.574   3.766
 3142SOL    HW110325   4.210   0.526   3.854
 3142SOL    HW210326   4.188   0.508   3.693
 3143SOL     OW10327   5.648   1.549   6.942
 3143SOL    HW110328   5.732   1.563   6.891
 3143SOL    HW210329   5.640   1.617   7.014
 3144SOL     OW10330   3.609   5.074   6.608
 3144SOL    HW110331   3.647   4.991   6.648
 3144SOL    HW210332   3.617   5.149   6.673
 3145SOL     OW10333   1.270   6.305   5.089
 3145SOL    HW110334   1.180   6.315   5.132
 3145SOL    HW210335   1.318   6.228   5.131
 3146SOL     OW10336   6.506   1.278   5.048
 3146SOL    HW110337   6.433   1.222   5.009
 3146SOL    HW210338   6.547   1.335   4.977
 3147SOL     OW10339   4.808   0.631   0.882
 3147SOL    HW110340   4.776   0.665   0.970
 3147SOL    HW210341   4.735   0.579   0.838
 3148SOL     OW10342   5.665   4.754   0.523
 3148SOL    HW110343   5.747   4.725   0.474
 3148SOL    HW210344   5.606   4.808   0.463
 3149SOL     OW10345   4.214   2.965   6.690
 3149SOL    HW110346   4.224   3.050   6.638
 3149SOL    HW210347   4.194   2.889   6.628
 3150SOL     OW10348   7.003   0.878   5.404
 3150SOL    HW110349   6.922   0.862   5.347
 3150SOL    HW210350   0.010   0.973   5.394
 3151SOL     OW10351   0.986   1.340   0.057
 3151SOL    HW110352   1.033   1.360   0.143
 3151SOL    HW210353   0.928   1.259   0.069
 3152SOL     OW10354   3.258   1.289   5.381
 3152SOL    HW110355   3.210   1.348   5.317
 3152SOL    HW210356   3.195   1.222   5.419
 3153SOL     OW10357   5.440   5.436   1.225
 3153SOL    HW110358   5.513   5.370   1.208
 3153SOL    HW210359   5.474   5.508   1.286
 3154SOL     OW10360   4.003   2.439   0.802
 3154SOL    HW110361   3.988   2.340   0.810
 3154SOL    HW210362   3.987   2.482   0.891
 3155SOL     OW10363   6.685   6.350   6.264
 3155SOL    HW110364   6.768   6.306   6.299
 3155SOL    HW210365   6.650   6.414   6.333
 3156SOL     OW10366   2.666   4.518   0.757
 3156SOL    HW110367   2.614   4.578   0.695
 3156SOL    HW210368   2.710   4.446   0.704
 3157SOL     OW10369   1.629   1.745   3.158
 3157SOL    HW110370   1.662   1.824   3.107
 3157SOL    HW210371   1.674   1.662   3.124
 3158SOL     OW10372   1.616   0.572   5.942
 3158SOL    HW110373   1.696   0.567   6.003
 3158SOL    HW210374   1.551   0.501   5.967
 3159SOL     OW10375   5.194   5.011   0.625
 3159SOL    HW110376   5.143   5.025   0.710
 3159SOL    HW210377   5.262   4.939   0.638
 3160SOL     OW10378   2.363   0.942   5.712
 3160SOL    HW110379   2.447   0.925   5.764
 3160SOL    HW210380   2.335   0.859   5.666
 3161SOL     OW10381   2.020   2.157   1.823
 3161SOL    HW110382   2.061   2.117   1.741
 3161SOL    HW210383   1.942   2.214   1.797
 3162SOL     OW10384   1.251   5.726   2.330
 3162SOL    HW110385   1.271   5.630   2.310
 3162SOL    HW210386   1.177   5.732   2.397
 3163SOL     OW10387   5.278   4.724   1.059
 3163SOL    HW110388   5.370   4.703   1.094
 3163SOL    HW210389   5.246   4.648   1.002
 3164SOL     OW10390   2.250   0.042   2.524
 3164SOL    HW110391   2.208   6.983   2.566
 3164SOL    HW210392   2.349   0.039   2.538
 3165SOL     OW10393   6.187   5.529   0.282
 3165SOL    HW110394   6.136   5.453   0.322
 3165SOL    HW210395   6.126   5.582   0.222
 3166SOL     OW10396   3.768   2.090   4.757
 3166SOL    HW110397   3.777   2.122   4.851
 3166SOL    HW210398   3.718   2.003   4.756
 3167SOL     OW10399   6.757   2.577   2.926
 3167SOL    HW110400   6.757   2.665   2.878
 3167SOL    HW210401   6.664   2.540   2.926
 3168SOL     OW10402   6.185   1.563   1.013
 3168SOL    HW110403   6.154   1.614   0.933
 3168SOL    HW210404   6.258   1.500   0.987
 3169SOL     OW10405   1.236   2.051   2.361
 3169SOL    HW110406   1.290   1.983   2.312
 3169SOL    HW210407   1.220   2.130   2.301
 3170SOL     OW10408   2.812   4.810   3.999
 3170SOL    HW110409   2.753   4.750   4.052
 3170SOL    HW210410   2.900   4.821   4.045
 3171SOL     OW10411   6.682   2.187   4.420
 3171SOL    HW110412   6.666   2.241   4.337
 3171SOL    HW210413   6.643   2.234   4.499
 3172SOL     OW10414   6.455   4.272   0.696
 3172SOL    HW110415   6.408   4.358   0.714
 3172SOL    HW210416   6.391   4.196   0.703
 3173SOL     OW10417   5.169   4.382   0.663
 3173SOL    HW110418   5.254   4.434   0.664
 3173SOL    HW210419   5.186   4.290   0.698
 3174SOL     OW10420   2.752   3.628   6.230
 3174SOL    HW110421   2.792   3.554   6.283
 3174SOL    HW210422   2.677   3.669   6.282
 3175SOL     OW10423   6.066   5.667   4.762
 3175SOL    HW110424   6.054   5.688   4.665
 3175SOL    HW210425   6.162   5.675   4.787
 3176SOL     OW10426   6.469   5.037   3.696
 3176SOL    HW110427   6.512   4.982   3.768
 3176SOL    HW210428   6.381   4.996   3.670
 3177SOL     OW10429   5.415   2.354   1.909
 3177SOL    HW110430   5.400   2.256   1.893
 3177SOL    HW210431   5.350   2.386   1.977
 3178SOL     OW10432   1.499   0.821   2.156
 3178SOL    HW110433   1.537   0.911   2.133
 3178SOL    HW210434   1.543   0.787   2.239
 3179SOL     OW10435   0.347   4.423   2.925
 3179SOL    HW110436   0.390   4.355   2.866
 3179SOL    HW210437   0.306   4.377   3.003
 3180SOL     OW10438   6.354   0.167   6.252
 3180SOL    HW110439   6.327   0.132   6.162
 3180SOL    HW210440   6.302   0.119   6.323
 3181SOL     OW10441   6.568   6.566   4.768
 3181SOL    HW110442   6.508   6.528   4.839
 3181SOL    HW210443   6.569   6.503   4.689
 3182SOL     OW10444   1.024   6.856   1.561
 3182SOL    HW110445   0.972   6.849   1.646
 3182SOL    HW210446   1.008   6.946   1.520
 3183SOL     OW10447   4.135   4.216   0.232
 3183SOL    HW110448   4.221   4.188   0.275
 3183SOL    HW210449   4.077   4.260   0.300
 3184SOL     OW10450   6.252   0.510   4.602
 3184SOL    HW110451   6.233   0.415   4.575
 3184SOL    HW210452   6.257   0.515   4.702
 3185SOL     OW10453   0.872   0.160   6.244
 3185SOL    HW110454   0.944   0.226   6.224
 3185SOL    HW210455   0.843   0.115   6.159
 3186SOL     OW10456   1.129   2.594   6.229
 3186SOL    HW110457   1.114   2.537   6.309
 3186SOL    HW210458   1.051   2.587   6.166
 3187SOL     OW10459   5.065   0.080   3.001
 3187SOL    HW110460   5.113   0.085   2.913
 3187SOL    HW210461   5.056   7.006   3.029
 3188SOL     OW10462   0.684   6.904   1.637
 3188SOL    HW110463   0.635   6.874   1.555
 3188SOL    HW210464   0.737   6.827   1.674
 3189SOL     OW10465   2.897   1.612   6.019
 3189SOL    HW110466   2.868   1.603   6.114
 3189SOL    HW210467   2.914   1.521   5.981
 3190SOL     OW10468   6.336   5.750   4.471
 3190SOL    HW110469   6.402   5.808   4.519
 3190SOL    HW210470   6.369   5.731   4.378
 3191SOL     OW10471   4.229   5.092   0.149
 3191SOL    HW110472   4.231   5.002   0.192
 3191SOL    HW210473   4.299   5.150   0.189
 3192SOL     OW10474   4.843   0.591   3.098
 3192SOL    HW110475   4.770   0.541   3.052
 3192SOL    HW210476   4.925   0.535   3.102
 3193SOL     OW10477   4.290   5.483   5.087
 3193SOL    HW110478   4.212   5.447   5.036
 3193SOL    HW210479   4.287   5.582   5.089
 3194SOL     OW10480   2.329   6.711   5.673
 3194SOL    HW110481   2.261   6.775   5.708
 3194SOL    HW210482   2.298   6.674   5.585
 3195SOL     OW10483   6.837   6.271   1.876
 3195SOL    HW110484   6.843   6.201   1.805
 3195SOL    HW210485   6.786   6.235   1.954
 3196SOL     OW10486   5.785   0.865   3.257
 3196SOL    HW110487   5.707   0.927   3.254
 3196SOL    HW210488   5.791   0.824   3.348
 3197SOL     OW10489   3.080   0.778   0.505
 3197SOL    HW110490   3.140   0.854   0.530
 3197SOL    HW210491   3.064   0.779   0.407
 3198SOL     OW10492   5.873   4.475   4.151
 3198SOL    HW110493   5.952   4.532   4.173
 3198SOL    HW210494   5.892   4.381   4.179
 3199SOL     OW10495   5.621   3.166   4.471
 3199SOL    HW110496   5.708   3.215   4.485
 3199SOL    HW210497   5.571   3.209   4.396
 3200SOL     OW10498   6.444   3.212   4.997
 3200SOL    HW110499   6.493   3.178   5.078
 3200SOL    HW210500   6.460   3.310   4.989
 3201SOL     OW10501   6.159   2.981   2.568
 3201SOL    HW110502   6.249   2.941   2.548
 3201SOL    HW210503   6.169   3.079   2.585
 3202SOL     OW10504   3.787   2.896   5.970
 3202SOL    HW110505   3.808   2.847   5.886
 3202SOL    HW210506   3.825   2.846   6.048
 3203SOL     OW10507   3.291   6.914   1.527
 3203SOL    HW110508   3.298   7.005   1.569
 3203SOL    HW210509   3.304   6.922   1.428
 3204SOL     OW10510   5.718   0.412   3.096
 3204SOL    HW110511   5.809   0.450   3.080
 3204SOL    HW210512   5.672   0.395   3.009
 3205SOL     OW10513   5.614   2.991   0.700
 3205SOL    HW110514   5.551   3.003   0.776
 3205SOL    HW210515   5.571   2.935   0.629
 3206SOL     OW10516   3.777   5.504   0.278
 3206SOL    HW110517   3.866   5.517   0.322
 3206SOL    HW210518   3.710   5.478   0.347
 3207SOL     OW10519   1.787   5.858   2.519
 3207SOL    HW110520   1.879   5.843   2.484
 3207SOL    HW210521   1.781   5.826   2.613
 3208SOL     OW10522   0.472   3.981   6.831
 3208SOL    HW110523   0.397   3.979   6.765
 3208SOL    HW210524   0.553   3.940   6.789
 3209SOL     OW10525   5.005   6.972   5.022
 3209SOL    HW110526   4.948   6.906   4.973
 3209SOL    HW210527   4.963   6.995   5.110
 3210SOL     OW10528   5.097   5.182   2.319
 3210SOL    HW110529   5.098   5.141   2.228
 3210SOL    HW210530   5.011   5.233   2.331
 3211SOL     OW10531   2.473   0.225   6.593
 3211SOL    HW110532   2.524   0.308   6.615
 3211SOL    HW210533   2.376   0.247   6.582
 3212SOL     OW10534   3.972   0.173   3.674
 3212SOL    HW110535   3.905   0.180   3.600
 3212SOL    HW210536   4.024   0.088   3.664
 3213SOL     OW10537   1.411   0.165   5.545
 3213SOL    HW110538   1.490   0.125   5.499
 3213SOL    HW210539   1.387   0.109   5.624
 3214SOL     OW10540   1.867   0.326   3.128
 3214SOL    HW110541   1.805   0.350   3.053
 3214SOL    HW210542   1.959   0.359   3.108
 3215SOL     OW10543   2.069   3.240   1.610
 3215SOL    HW110544   2.152   3.225   1.664
 3215SOL    HW210545   1.995   3.185   1.648
 3216SOL     OW10546   0.268   4.037   1.579
 3216SOL    HW110547   0.334   4.112   1.576
 3216SOL    HW210548   0.187   4.063   1.527
 3217SOL     OW10549   5.881   5.777   4.138
 3217SOL    HW110550   5.884   5.677   4.137
 3217SOL    HW210551   5.956   5.813   4.194
 3218SOL     OW10552   6.076   1.641   3.311
 3218SOL    HW110553   5.988   1.609   3.275
 3218SOL    HW210554   6.113   1.712   3.250
 3219SOL     OW10555   4.168   1.627   4.263
 3219SOL    HW110556   4.104   1.703   4.248
 3219SOL    HW210557   4.143   1.578   4.347
 3220SOL     OW10558   0.576   4.228   5.989
 3220SOL    HW110559   0.597   4.134   6.015
 3220SOL    HW210560   0.654   4.287   6.012
 3221SOL     OW10561   4.111   1.780   2.340
 3221SOL    HW110562   4.075   1.781   2.247
 3221SOL    HW210563   4.210   1.766   2.337
 3222SOL     OW10564   2.857   0.750   3.092
 3222SOL    HW110565   2.793   0.784   3.023
 3222SOL    HW210566   2.807   0.692   3.156
 3223SOL     OW10567   2.234   5.310   0.566
 3223SOL    HW110568   2.311   5.248   0.552
 3223SOL    HW210569   2.252   5.369   0.644
 3224SOL     OW10570   4.641   2.663   4.078
 3224SOL    HW110571   4.596   2.746   4.045
 3224SOL    HW210572   4.690   2.682   4.163
 3225SOL     OW10573   2.752   1.083   4.856
 3225SOL    HW110574   2.817   1.079   4.781
 3225SOL    HW210575   2.674   1.140   4.830
 3226SOL     OW10576   5.173   1.132   0.007
 3226SOL    HW110577   5.075   1.142   0.023
 3226SOL    HW210578   5.188   1.082   6.943
 3227SOL     OW10579   6.012   4.224   5.803
 3227SOL    HW110580   6.088   4.193   5.860
 3227SOL    HW210581   5.942   4.267   5.860
 3228SOL     OW10582   1.062   4.442   1.167
 3228SOL    HW110583   1.038   4.522   1.222
 3228SOL    HW210584   1.036   4.457   1.072
 3229SOL     OW10585   0.879   1.085   0.092
 3229SOL    HW110586   0.798   1.126   0.052
 3229SOL    HW210587   0.875   0.986   0.082
 3230SOL     OW10588   3.836   6.972   5.076
 3230SOL    HW110589   3.798   6.934   4.991
 3230SOL    HW210590   3.791   0.037   5.097
 3231SOL     OW10591   2.751   2.001   2.867
 3231SOL    HW110592   2.821   2.072   2.862
 3231SOL    HW210593   2.755   1.957   2.957
 3232SOL     OW10594   3.252   5.334   3.374
 3232SOL    HW110595   3.204   5.253   3.342
 3232SOL    HW210596   3.327   5.307   3.435
 3233SOL     OW10597   2.158   6.823   4.774
 3233SOL    HW110598   2.068   6.834   4.817
 3233SOL    HW210599   2.186   6.909   4.732
 3234SOL     OW10600   3.490   3.828   0.619
 3234SOL    HW110601   3.519   3.922   0.633
 3234SOL    HW210602   3.421   3.804   0.688
 3235SOL     OW10603   0.235   1.694   2.975
 3235SOL    HW110604   0.196   1.747   3.050
 3235SOL    HW210605   0.170   1.623   2.948
 3236SOL     OW10606   5.819   6.350   0.771
 3236SOL    HW110607   5.828   6.314   0.678
 3236SOL    HW210608   5.904   6.332   0.821
 3237SOL     OW10609   6.074   2.696   5.684
 3237SOL    HW110610   6.020   2.638   5.623
 3237SOL    HW210611   6.031   2.786   5.694
 3238SOL     OW10612   0.727   4.529   1.011
 3238SOL    HW110613   0.643   4.582   1.011
 3238SOL    HW210614   0.705   4.433   0.995
 3239SOL     OW10615   6.557   1.342   4.579
 3239SOL    HW110616   6.608   1.352   4.493
 3239SOL    HW210617   6.473   1.395   4.574
 3240SOL     OW10618   1.099   1.371   1.580
 3240SOL    HW110619   1.076   1.329   1.667
 3240SOL    HW210620   1.049   1.326   1.506
 3241SOL     OW10621   7.010   2.513   5.928
 3241SOL    HW110622   6.945   2.574   5.883
 3241SOL    HW210623   6.961   2.442   5.977
 3242SOL     OW10624   6.788   4.967   5.706
 3242SOL    HW110625   6.869   4.934   5.658
 3242SOL    HW210626   6.797   5.065   5.723
 3243SOL     OW10627   6.171   4.932   5.072
 3243SOL    HW110628   6.208   4.923   4.980
 3243SOL    HW210629   6.079   4.971   5.068
 3244SOL     OW10630   5.006   0.065   0.262
 3244SOL    HW110631   5.002   0.146   0.322
 3244SOL    HW210632   5.071   0.082   0.188
 3245SOL     OW10633   1.683   6.334   4.467
 3245SOL    HW110634   1.669   6.316   4.369
 3245SOL    HW210635   1.778   6.315   4.491
 3246SOL     OW10636   6.435   4.786   2.050
 3246SOL    HW110637   6.399   4.877   2.073
 3246SOL    HW210638   6.467   4.741   2.133
 3247SOL     OW10639   1.990   3.902   5.056
 3247SOL    HW110640   1.973   3.844   4.977
 3247SOL    HW210641   2.087   3.925   5.060
 3248SOL     OW10642   5.938   2.338   4.317
 3248SOL    HW110643   5.872   2.379   4.379
 3248SOL    HW210644   6.003   2.282   4.370
 3249SOL     OW10645   3.759   3.946   3.931
 3249SOL    HW110646   3.827   3.925   4.000
 3249SOL    HW210647   3.757   3.874   3.862
 3250SOL     OW10648   4.599   5.235   3.396
 3250SOL    HW110649   4.657   5.159   3.366
 3250SOL    HW210650   4.554   5.275   3.316
 3251SOL     OW10651   2.515   2.460   2.151
 3251SOL    HW110652   2.512   2.475   2.052
 3251SOL    HW210653   2.443   2.514   2.195
 3252SOL     OW10654   1.553   1.723   2.865
 3252SOL    HW110655   1.455   1.710   2.875
 3252SOL    HW210656   1.573   1.820   2.850
 3253SOL     OW10657   6.782   3.308   1.282
 3253SOL    HW110658   6.711   3.254   1.328
 3253SOL    HW210659   6.821   3.373   1.347
 3254SOL     OW10660   5.685   0.118   0.628
 3254SOL    HW110661   5.742   0.163   0.697
 3254SOL    HW210662   5.647   0.034   0.666
 3255SOL     OW10663   3.499   4.988   2.129
 3255SOL    HW110664   3.502   4.912   2.064
 3255SOL    HW210665   3.436   4.966   2.203
 3256SOL     OW10666   5.235   2.559   2.540
 3256SOL    HW110667   5.164   2.622   2.571
 3256SOL    HW210668   5.194   2.486   2.486
 3257SOL     OW10669   3.015   1.401   2.381
 3257SOL    HW110670   2.959   1.470   2.336
 3257SOL    HW210671   2.994   1.311   2.343
 3258SOL     OW10672   0.075   5.722   4.324
 3258SOL    HW110673   0.086   5.623   4.332
 3258SOL    HW210674   6.999   5.745   4.321
 3259SOL     OW10675   6.404   5.457   2.246
 3259SOL    HW110676   6.307   5.445   2.226
 3259SOL    HW210677   6.449   5.501   2.167
 3260SOL     OW10678   3.018   4.852   3.541
 3260SOL    HW110679   3.111   4.821   3.563
 3260SOL    HW210680   2.965   4.861   3.626
 3261SOL     OW10681   5.968   0.723   4.256
 3261SOL    HW110682   5.886   0.668   4.271
 3261SOL    HW210683   6.028   0.717   4.336
 3262SOL     OW10684   3.261   2.127   2.558
 3262SOL    HW110685   3.306   2.112   2.469
 3262SOL    HW210686   3.163   2.107   2.549
 3263SOL     OW10687   5.588   0.589   0.917
 3263SOL    HW110688   5.580   0.685   0.891
 3263SOL    HW210689   5.545   0.532   0.847
 3264SOL     OW10690   1.535   5.384   6.966
 3264SOL    HW110691   1.455   5.361   6.911
 3264SOL    HW210692   1.508   5.400   0.039
 3265SOL     OW10693   6.785   5.854   5.389
 3265SOL    HW110694   6.743   5.942   5.413
 3265SOL    HW210695   6.753   5.825   5.300
 3266SOL     OW10696   2.960   4.560   6.734
 3266SOL    HW110697   3.058   4.575   6.743
 3266SOL    HW210698   2.943   4.493   6.661
 3267SOL     OW10699   2.761   0.403   0.270
 3267SOL    HW110700   2.780   0.495   0.234
 3267SOL    HW210701   2.827   0.381   0.342
 3268SOL     OW10702   5.254   3.741   2.728
 3268SOL    HW110703   5.318   3.730   2.652
 3268SOL    HW210704   5.186   3.810   2.705
 3269SOL     OW10705   2.422   5.487   0.406
 3269SOL    HW110706   2.470   5.406   0.439
 3269SOL    HW210707   2.344   5.506   0.466
 3270SOL     OW10708   1.719   3.696   6.221
 3270SOL    HW110709   1.757   3.738   6.303
 3270SOL    HW210710   1.779   3.622   6.190
 3271SOL     OW10711   1.297   3.968   2.066
 3271SOL    HW110712   1.385   4.015   2.063
 3271SOL    HW210713   1.257   3.978   2.158
 3272SOL     OW10714   3.801   0.176   0.543
 3272SOL    HW110715   3.882   0.234   0.557
 3272SOL    HW210716   3.816   0.087   0.587
 3273SOL     OW10717   4.440   3.853   6.543
 3273SOL    HW110718   4.466   3.758   6.562
 3273SOL    HW210719   4.350   3.871   6.584
 3274SOL     OW10720   4.916   0.376   1.864
 3274SOL    HW110721   4.881   0.317   1.791
 3274SOL    HW210722   4.947   0.463   1.825
 3275SOL     OW10723   4.773   0.495   1.360
 3275SOL    HW110724   4.739   0.526   1.449
 3275SOL    HW210725   4.869   0.469   1.369
 3276SOL     OW10726   6.626   5.895   1.099
 3276SOL    HW110727   6.688   5.967   1.067
 3276SOL    HW210728   6.670   5.806   1.090
 3277SOL     OW10729   5.404   0.950   2.293
 3277SOL    HW110730   5.461   0.871   2.273
 3277SOL    HW210731   5.324   0.949   2.232
 3278SOL     OW10732   4.974   1.110   6.795
 3278SOL    HW110733   4.996   1.206   6.810
 3278SOL    HW210734   4.926   1.075   6.876
 3279SOL     OW10735   3.928   0.160   2.326
 3279SOL    HW110736   4.015   0.140   2.372
 3279SOL    HW210737   3.888   0.243   2.365
 3280SOL     OW10738   0.422   2.029   4.277
 3280SOL    HW110739   0.496   2.083   4.316
 3280SOL    HW210740   0.455   1.979   4.197
 3281SOL     OW10741   5.592   2.706   2.124
 3281SOL    HW110742   5.599   2.624   2.181
 3281SOL    HW210743   5.582   2.679   2.028
 3282SOL     OW10744   6.644   5.172   5.988
 3282SOL    HW110745   6.609   5.117   5.913
 3282SOL    HW210746   6.615   5.132   6.075
 3283SOL     OW10747   3.475   1.445   0.358
 3283SOL    HW110748   3.515   1.354   0.364
 3283SOL    HW210749   3.537   1.512   0.401
 3284SOL     OW10750   2.258   0.846   5.392
 3284SOL    HW110751   2.189   0.900   5.438
 3284SOL    HW210752   2.349   0.882   5.414
 3285SOL     OW10753   4.329   1.582   4.628
 3285SOL    HW110754   4.402   1.534   4.676
 3285SOL    HW210755   4.241   1.543   4.655
 3286SOL     OW10756   1.841   3.945   3.418
 3286SOL    HW110757   1.752   3.972   3.454
 3286SOL    HW210758   1.849   3.845   3.420
 3287SOL     OW10759   3.264   1.544   0.678
 3287SOL    HW110760   3.231   1.456   0.711
 3287SOL    HW210761   3.364   1.541   0.671
 3288SOL     OW10762   3.215   5.482   1.084
 3288SOL    HW110763   3.244   5.399   1.037
 3288SOL    HW210764   3.196   5.461   1.180
 3289SOL     OW10765   5.555   6.820   0.208
 3289SOL    HW110766   5.654   6.803   0.210
 3289SOL    HW210767   5.538   6.918   0.222
 3290SOL     OW10768   0.895   4.035   0.045
 3290SOL    HW110769   0.995   4.046   0.043
 3290SOL    HW210770   0.871   3.958   0.103
 3291SOL     OW10771   5.283   6.823   5.880
 3291SOL    HW110772   5.264   6.918   5.858
 3291SOL    HW210773   5.243   6.800   5.969
 3292SOL     OW10774   0.424   2.834   0.526
 3292SOL    HW110775   0.361   2.908   0.499
 3292SOL    HW210776   0.511   2.873   0.554
 3293SOL     OW10777   0.103   4.774   1.619
 3293SOL    HW110778   0.131   4.870   1.624
 3293SOL    HW210779   0.184   4.716   1.607
 3294SOL     OW10780   3.793   2.798   5.531
 3294SOL    HW110781   3.693   2.797   5.522
 3294SOL    HW210782   3.833   2.760   5.448
 3295SOL     OW10783   1.875   3.442   3.292
 3295SOL    HW110784   1.781   3.442   3.258
 3295SOL    HW210785   1.890   3.524   3.347
 3296SOL     OW10786   2.302   0.689   7.007
 3296SOL    HW110787   2.377   0.737   0.029
 3296SOL    HW210788   2.283   0.730   6.917
 3297SOL     OW10789   2.846   1.243   6.217
 3297SOL    HW110790   2.795   1.161   6.241
 3297SOL    HW210791   2.792   1.324   6.237
 3298SOL     OW10792   3.823   3.891   6.376
 3298SOL    HW110793   3.859   3.811   6.424
 3298SOL    HW210794   3.773   3.949   6.441
 3299SOL     OW10795   2.603   6.754   4.043
 3299SOL    HW110796   2.539   6.819   4.002
 3299SOL    HW210797   2.681   6.742   3.982
 3300SOL     OW10798   2.207   1.472   2.648
 3300SOL    HW110799   2.155   1.441   2.568
 3300SOL    HW210800   2.154   1.540   2.698
 3301SOL     OW10801   0.994   0.365   1.959
 3301SOL    HW110802   0.994   0.460   1.929
 3301SOL    HW210803   1.088   0.332   1.967
 3302SOL     OW10804   1.968   5.406   4.698
 3302SOL    HW110805   1.888   5.391   4.757
 3302SOL    HW210806   1.948   5.477   4.631
 3303SOL     OW10807   4.396   4.022   0.154
 3303SOL    HW110808   4.376   4.060   0.245
 3303SOL    HW210809   4.369   4.088   0.084
 3304SOL     OW10810   2.455   3.734   0.696
 3304SOL    HW110811   2.526   3.793   0.659
 3304SOL    HW210812   2.479   3.638   0.679
 3305SOL     OW10813   3.259   2.587   6.812
 3305SOL    HW110814   3.216   2.515   6.867
 3305SOL    HW210815   3.220   2.676   6.837
 3306SOL     OW10816   2.822   0.512   0.587
 3306SOL    HW110817   2.907   0.526   0.637
 3306SOL    HW210818   2.794   0.416   0.593
 3307SOL     OW10819   2.004   5.853   5.404
 3307SOL    HW110820   2.064   5.778   5.432
 3307SOL    HW210821   2.059   5.934   5.385
 3308SOL     OW10822   5.407   5.010   1.669
 3308SOL    HW110823   5.389   5.108   1.659
 3308SOL    HW210824   5.406   4.967   1.578
 3309SOL     OW10825   5.523   2.850   4.188
 3309SOL    HW110826   5.471   2.895   4.115
 3309SOL    HW210827   5.614   2.892   4.194
 3310SOL     OW10828   5.968   4.067   0.064
 3310SOL    HW110829   6.055   4.027   0.093
 3310SOL    HW210830   5.893   4.005   0.087
 3311SOL     OW10831   0.875   3.107   1.137
 3311SOL    HW110832   0.953   3.071   1.085
 3311SOL    HW210833   0.803   3.133   1.074
 3312SOL     OW10834   5.309   3.894   0.272
 3312SOL    HW110835   5.216   3.858   0.279
 3312SOL    HW210836   5.365   3.832   0.217
 3313SOL     OW10837   0.680   6.171   4.208
 3313SOL    HW110838   0.616   6.108   4.252
 3313SOL    HW210839   0.749   6.200   4.274
 3314SOL     OW10840   3.568   6.071   3.490
 3314SOL    HW110841   3.493   6.006   3.495
 3314SOL    HW210842   3.638   6.047   3.558
 3315SOL     OW10843   0.788   6.551   3.878
 3315SOL    HW110844   0.806   6.516   3.969
 3315SOL    HW210845   0.690   6.571   3.868
 3316SOL     OW10846   3.915   2.095   0.807
 3316SOL    HW110847   3.940   2.101   0.903
 3316SOL    HW210848   3.982   2.039   0.759
 3317SOL     OW10849   5.638   2.543   1.444
 3317SOL    HW110850   5.665   2.636   1.420
 3317SOL    HW210851   5.706   2.478   1.410
 3318SOL     OW10852   3.924   2.895   0.492
 3318SOL    HW110853   3.849   2.934   0.438
 3318SOL    HW210854   3.901   2.900   0.589
 3319SOL     OW10855   6.645   6.477   3.716
 3319SOL    HW110856   6.549   6.481   3.743
 3319SOL    HW210857   6.652   6.448   3.621
 3320SOL     OW10858   5.937   0.549   3.041
 3320SOL    HW110859   5.916   0.644   3.019
 3320SOL    HW210860   6.034   0.531   3.023
 3321SOL     OW10861   4.632   1.600   6.460
 3321SOL    HW110862   4.536   1.591   6.435
 3321SOL    HW210863   4.689   1.580   6.380
 3322SOL     OW10864   5.890   3.441   2.096
 3322SOL    HW110865   5.790   3.444   2.088
 3322SOL    HW210866   5.921   3.513   2.158
 3323SOL     OW10867   6.943   0.648   2.388
 3323SOL    HW110868   6.899   0.732   2.422
 3323SOL    HW210869   7.016   0.673   2.325
 3324SOL     OW10870   6.198   5.783   6.413
 3324SOL    HW110871   6.219   5.687   6.435
 3324SOL    HW210872   6.192   5.836   6.497
 3325SOL     OW10873   2.503   5.328   6.600
 3325SOL    HW110874   2.561   5.400   6.639
 3325SOL    HW210875   2.520   5.242   6.648
 3326SOL     OW10876   3.903   1.329   1.679
 3326SOL    HW110877   3.977   1.394   1.694
 3326SOL    HW210878   3.860   1.346   1.590
 3327SOL     OW10879   1.628   6.211   5.933
 3327SOL    HW110880   1.639   6.293   5.876
 3327SOL    HW210881   1.596   6.238   6.024
 3328SOL     OW10882   3.924   2.394   5.424
 3328SOL    HW110883   3.933   2.492   5.406
 3328SOL    HW210884   3.975   2.371   5.507
 3329SOL     OW10885   0.078   6.326   5.111
 3329SOL    HW110886   0.131   6.374   5.042
 3329SOL    HW210887   0.002   6.278   5.068
 3330SOL     OW10888   6.669   3.209   3.412
 3330SOL    HW110889   6.691   3.111   3.405
 3330SOL    HW210890   6.575   3.219   3.445
 3331SOL     OW10891   1.626   3.701   0.587
 3331SOL    HW110892   1.606   3.674   0.682
 3331SOL    HW210893   1.707   3.759   0.586
 3332SOL     OW10894   6.620   3.949   1.517
 3332SOL    HW110895   6.604   4.006   1.598
 3332SOL    HW210896   6.545   3.963   1.452
 3333SOL     OW10897   2.872   6.387   5.202
 3333SOL    HW110898   2.952   6.330   5.224
 3333SOL    HW210899   2.809   6.387   5.279
 3334SOL     OW10900   1.678   2.547   1.115
 3334SOL    HW110901   1.583   2.577   1.121
 3334SOL    HW210902   1.736   2.611   1.165
 3335SOL     OW10903   5.578   4.164   5.339
 3335SOL    HW110904   5.671   4.132   5.358
 3335SOL    HW210905   5.547   4.223   5.414
 3336SOL     OW10906   3.430   5.973   5.435
 3336SOL    HW110907   3.441   5.887   5.485
 3336SOL    HW210908   3.484   6.044   5.479
 3337SOL     OW10909   3.834   0.902   1.089
 3337SOL    HW110910   3.814   0.994   1.056
 3337SOL    HW210911   3.834   0.838   1.012
 3338SOL     OW10912   6.382   5.818   0.403
 3338SOL    HW110913   6.359   5.724   0.381
 3338SOL    HW210914   6.397   5.869   0.318
 3339SOL     OW10915   0.312   5.012   0.242
 3339SOL    HW110916   0.372   5.015   0.162
 3339SOL    HW210917   0.340   4.937   0.302
 3340SOL     OW10918   4.371   0.821   1.822
 3340SOL    HW110919   4.358   0.737   1.770
 3340SOL    HW210920   4.311   0.821   1.902
 3341SOL     OW10921   1.137   0.240   6.628
 3341SOL    HW110922   1.134   0.313   6.560
 3341SOL    HW210923   1.046   0.198   6.636
 3342SOL     OW10924   1.427   6.958   4.999
 3342SOL    HW110925   1.455   6.898   5.074
 3342SOL    HW210926   1.332   6.938   4.974
 3343SOL     OW10927   0.073   2.009   1.085
 3343SOL    HW110928   0.173   2.006   1.081
 3343SOL    HW210929   0.044   2.105   1.091
 3344SOL     OW10930   1.160   2.032   6.751
 3344SOL    HW110931   1.154   2.110   6.689
 3344SOL    HW210932   1.086   2.038   6.819
 3345SOL     OW10933   2.809   3.186   6.995
 3345SOL    HW110934   2.749   3.187   6.914
 3345SOL    HW210935   2.887   3.126   6.978
 3346SOL     OW10936   3.040   5.517   2.828
 3346SOL    HW110937   2.955   5.476   2.797
 3346SOL    HW210938   3.112   5.447   2.830
 3347SOL     OW10939   5.815   3.943   4.021
 3347SOL    HW110940   5.759   4.018   3.986
 3347SOL    HW210941   5.772   3.905   4.103
 3348SOL     OW10942   3.889   3.797   3.256
 3348SOL    HW110943   3.863   3.892   3.243
 3348SOL    HW210944   3.880   3.748   3.169
 3349SOL     OW10945   5.151   2.516   0.640
 3349SOL    HW110946   5.072   2.569   0.669
 3349SOL    HW210947   5.132   2.418   0.654
 3350SOL     OW10948   2.261   2.485   1.586
 3350SOL    HW110949   2.266   2.584   1.601
 3350SOL    HW210950   2.264   2.466   1.488
 3351SOL     OW10951   6.181   3.063   1.290
 3351SOL    HW110952   6.134   2.987   1.334
 3351SOL    HW210953   6.217   3.034   1.202
 3352SOL     OW10954   0.405   4.039   0.767
 3352SOL    HW110955   0.392   4.030   0.865
 3352SOL    HW210956   0.319   4.019   0.719
 3353SOL     OW10957   1.153   6.347   6.202
 3353SOL    HW110958   1.202   6.319   6.119
 3353SOL    HW210959   1.061   6.375   6.178
 3354SOL     OW10960   0.049   6.252   2.423
 3354SOL    HW110961   0.052   6.269   2.522
 3354SOL    HW210962   0.097   6.167   2.403
 3355SOL     OW10963   5.718   1.106   3.043
 3355SOL    HW110964   5.808   1.091   3.084
 3355SOL    HW210965   5.685   1.020   3.003
 3356SOL     OW10966   1.623   3.769   6.652
 3356SOL    HW110967   1.696   3.751   6.586
 3356SOL    HW210968   1.547   3.707   6.635
 3357SOL     OW10969   2.654   6.098   2.669
 3357SOL    HW110970   2.681   6.009   2.705
 3357SOL    HW210971   2.581   6.087   2.601
 3358SOL     OW10972   0.336   3.608   3.294
 3358SOL    HW110973   0.411   3.559   3.338
 3358SOL    HW210974   0.370   3.657   3.214
 3359SOL     OW10975   2.850   1.893   1.848
 3359SOL    HW110976   2.833   1.962   1.918
 3359SOL    HW210977   2.905   1.932   1.775
 3360SOL     OW10978   2.222   0.769   6.020
 3360SOL    HW110979   2.221   0.757   6.119
 3360SOL    HW210980   2.237   0.865   5.998
 3361SOL     OW10981   2.369   1.250   2.670
 3361SOL    HW110982   2.367   1.185   2.746
 3361SOL    HW210983   2.279   1.291   2.659
 3362SOL     OW10984   3.215   2.142   4.161
 3362SOL    HW110985   3.172   2.132   4.072
 3362SOL    HW210986   3.146   2.166   4.230
 3363SOL     OW10987   6.898   0.629   0.193
 3363SOL    HW110988   6.801   0.612   0.214
 3363SOL    HW210989   6.950   0.633   0.279
 3364SOL     OW10990   1.702   5.462   5.094
 3364SOL    HW110991   1.787   5.423   5.131
 3364SOL    HW210992   1.654   5.510   5.167
 3365SOL     OW10993   6.412   2.222   5.240
 3365SOL    HW110994   6.416   2.150   5.309
 3365SOL    HW210995   6.402   2.311   5.285
 3366SOL     OW10996   4.774   1.509   0.584
 3366SOL    HW110997   4.701   1.483   0.521
 3366SOL    HW210998   4.822   1.428   0.616
 3367SOL     OW10999   1.581   6.938   2.265
 3367SOL    HW111000   1.659   6.925   2.326
 3367SOL    HW211001   1.573   6.860   2.204
 3368SOL     OW11002   6.175   1.070   4.518
 3368SOL    HW111003   6.105   1.022   4.572
 3368SOL    HW211004   6.130   1.122   4.445
 3369SOL     OW11005   3.759   5.356   6.434
 3369SOL    HW111006   3.729   5.377   6.341
 3369SOL    HW211007   3.794   5.263   6.438
 3370SOL     OW11008   5.623   1.113   5.945
 3370SOL    HW111009   5.636   1.092   6.042
 3370SOL    HW211010   5.540   1.068   5.912
 3371SOL     OW11011   6.434   5.088   1.380
 3371SOL    HW111012   6.516   5.058   1.331
 3371SOL    HW211013   6.389   5.160   1.328
 3372SOL     OW11014   1.816   2.956   2.460
 3372SOL    HW111015   1.779   3.033   2.512
 3372SOL    HW211016   1.880   2.905   2.518
 3373SOL     OW11017   1.498   2.767   5.932
 3373SOL    HW111018   1.466   2.712   6.009
 3373SOL    HW211019   1.468   2.726   5.846
 3374SOL     OW11020   3.250   6.067   5.220
 3374SOL    HW111021   3.302   6.021   5.292
 3374SOL    HW211022   3.290   6.157   5.203
 3375SOL     OW11023   2.993   4.048   5.134
 3375SOL    HW111024   2.929   3.974   5.113
 3375SOL    HW211025   3.055   4.062   5.057
 3376SOL     OW11026   3.725   3.149   1.392
 3376SOL    HW111027   3.648   3.094   1.427
 3376SOL    HW211028   3.691   3.238   1.362
 3377SOL     OW11029   2.896   5.027   5.669
 3377SOL    HW111030   2.803   4.990   5.664
 3377SOL    HW211031   2.909   5.073   5.757
 3378SOL     OW11032   6.702   1.445   0.578
 3378SOL    HW111033   6.697   1.521   0.643
 3378SOL    HW211034   6.773   1.381   0.607
 3379SOL     OW11035   6.181   5.490   5.747
 3379SOL    HW111036   6.132   5.443   5.820
 3379SOL    HW211037   6.123   5.497   5.666
 3380SOL     OW11038   0.428   3.994   4.918
 3380SOL    HW111039   0.507   4.056   4.921
 3380SOL    HW211040   0.345   4.046   4.902
 3381SOL     OW11041   3.253   2.259   1.013
 3381SOL    HW111042   3.303   2.244   1.098
 3381SOL    HW211043   3.235   2.357   1.002
 3382SOL     OW11044   0.135   6.002   0.120
 3382SOL    HW111045   0.076   5.985   0.198
 3382SOL    HW211046   0.182   6.090   0.131
 3383SOL     OW11047   0.612   3.895   1.908
 3383SOL    HW111048   0.544   3.897   1.835
 3383SOL    HW211049   0.567   3.900   1.997
 3384SOL     OW11050   2.903   3.688   3.275
 3384SOL    HW111051   2.982   3.720   3.222
 3384SOL    HW211052   2.901   3.735   3.363
 3385SOL     OW11053   6.936   4.144   3.524
 3385SOL    HW111054   6.922   4.223   3.584
 3385SOL    HW211055   6.847   4.110   3.494
 3386SOL     OW11056   5.660   4.207   3.777
 3386SOL    HW111057   5.696   4.192   3.685
 3386SOL    HW211058   5.560   4.209   3.774
 3387SOL     OW11059   3.761   1.662   2.148
 3387SOL    HW111060   3.763   1.562   2.152
 3387SOL    HW211061   3.749   1.691   2.053
 3388SOL     OW11062   6.086   1.456   1.306
 3388SOL    HW111063   6.101   1.500   1.218
 3388SOL    HW211064   6.033   1.372   1.294
 3389SOL     OW11065   3.898   5.488   2.026
 3389SOL    HW111066   3.931   5.565   1.971
 3389SOL    HW211067   3.850   5.423   1.967
 3390SOL     OW11068   4.071   1.987   5.901
 3390SOL    HW111069   4.105   2.007   5.993
 3390SOL    HW211070   4.146   1.955   5.843
 3391SOL     OW11071   3.258   1.389   4.285
 3391SOL    HW111072   3.348   1.422   4.257
 3391SOL    HW211073   3.247   1.403   4.384
 3392SOL     OW11074   5.806   6.147   4.410
 3392SOL    HW111075   5.717   6.105   4.426
 3392SOL    HW211076   5.865   6.132   4.489
 3393SOL     OW11077   0.296   0.671   5.922
 3393SOL    HW111078   0.259   0.667   6.015
 3393SOL    HW211079   0.390   0.706   5.925
 3394SOL     OW11080   5.062   1.331   2.182
 3394SOL    HW111081   5.029   1.424   2.170
 3394SOL    HW211082   4.996   1.279   2.237
 3395SOL     OW11083   2.001   3.792   5.302
 3395SOL    HW111084   1.978   3.863   5.236
 3395SOL    HW211085   2.093   3.758   5.283
 3396SOL     OW11086   6.151   3.726   4.198
 3396SOL    HW111087   6.099   3.808   4.224
 3396SOL    HW211088   6.189   3.684   4.280
 3397SOL     OW11089   3.104   5.302   6.290
 3397SOL    HW111090   3.138   5.331   6.200
 3397SOL    HW211091   3.060   5.212   6.281
 3398SOL     OW11092   0.535   1.880   4.073
 3398SOL    HW111093   0.497   1.789   4.091
 3398SOL    HW211094   0.494   1.918   3.990
 3399SOL     OW11095   3.958   5.619   4.399
 3399SOL    HW111096   3.899   5.662   4.330
 3399SOL    HW211097   4.002   5.689   4.454
 3400SOL     OW11098   5.766   2.013   0.627
 3400SOL    HW111099   5.747   2.094   0.683
 3400SOL    HW211100   5.701   2.009   0.552
 3401SOL     OW11101   6.810   4.884   6.860
 3401SOL    HW111102   6.882   4.931   6.910
 3401SOL    HW211103   6.850   4.826   6.790
 3402SOL     OW11104   4.212   4.736   1.740
 3402SOL    HW111105   4.236   4.721   1.644
 3402SOL    HW211106   4.114   4.757   1.746
 3403SOL     OW11107   3.962   1.526   6.343
 3403SOL    HW111108   3.958   1.513   6.442
 3403SOL    HW211109   3.994   1.442   6.299
 3404SOL     OW11110   3.776   5.807   2.306
 3404SOL    HW111111   3.720   5.879   2.348
 3404SOL    HW211112   3.782   5.824   2.207
 3405SOL     OW11113   6.177   4.075   0.564
 3405SOL    HW111114   6.152   4.151   0.624
 3405SOL    HW211115   6.104   4.059   0.498
 3406SOL     OW11116   0.724   2.564   1.620
 3406SOL    HW111117   0.773   2.544   1.704
 3406SOL    HW211118   0.657   2.491   1.603
 3407SOL     OW11119   1.321   5.475   2.278
 3407SOL    HW111120   1.412   5.449   2.248
 3407SOL    HW211121   1.253   5.411   2.241
 3408SOL     OW11122   5.240   3.670   2.193
 3408SOL    HW111123   5.336   3.653   2.168
 3408SOL    HW211124   5.202   3.589   2.236
 3409SOL     OW11125   3.121   1.687   6.993
 3409SOL    HW111126   3.147   1.677   0.068
 3409SOL    HW211127   3.095   1.597   6.957
 3410SOL     OW11128   0.438   1.601   0.517
 3410SOL    HW111129   0.524   1.638   0.483
 3410SOL    HW211130   0.362   1.646   0.471
 3411SOL     OW11131   5.085   1.963   2.708
 3411SOL    HW111132   5.033   1.877   2.716
 3411SOL    HW211133   5.051   2.014   2.629
 3412SOL     OW11134   4.475   5.249   6.688
 3412SOL    HW111135   4.469   5.346   6.664
 3412SOL    HW211136   4.503   5.240   6.783
 3413SOL     OW11137   5.053   0.933   2.613
 3413SOL    HW111138   4.977   0.873   2.638
 3413SOL    HW211139   5.023   1.028   2.613
 3414SOL     OW11140   4.271   0.683   5.776
 3414SOL    HW111141   4.283   0.730   5.688
 3414SOL    HW211142   4.350   0.702   5.834
 3415SOL     OW11143   1.580   6.419   5.745
 3415SOL    HW111144   1.644   6.445   5.673
 3415SOL    HW211145   1.530   6.500   5.776
 3416SOL     OW11146   1.253   4.809   5.375
 3416SOL    HW111147   1.289   4.834   5.285
 3416SOL    HW211148   1.308   4.734   5.413
 3417SOL     OW11149   5.958   1.220   1.179
 3417SOL    HW111150   5.866   1.231   1.217
 3417SOL    HW211151   5.989   1.126   1.194
 3418SOL     OW11152   2.297   2.257   5.000
 3418SOL    HW111153   2.372   2.293   5.056
 3418SOL    HW211154   2.312   2.282   4.904
 3419SOL     OW11155   4.563   3.551   6.046
 3419SOL    HW111156   4.475   3.504   6.036
 3419SOL    HW211157   4.565   3.601   6.132
 3420SOL     OW11158   3.265   0.739   4.983
 3420SOL    HW111159   3.173   0.774   4.968
 3420SOL    HW211160   3.331   0.814   4.980
 3421SOL     OW11161   1.152   6.330   2.967
 3421SOL    HW111162   1.247   6.304   2.951
 3421SOL    HW211163   1.109   6.263   3.027
 3422SOL     OW11164   3.330   1.968   2.928
 3422SOL    HW111165   3.344   1.925   2.839
 3422SOL    HW211166   3.260   2.039   2.920
 3423SOL     OW11167   3.642   0.680   1.641
 3423SOL    HW111168   3.562   0.625   1.668
 3423SOL    HW211169   3.636   0.770   1.684
 3424SOL     OW11170   4.764   2.173   0.664
 3424SOL    HW111171   4.719   2.108   0.725
 3424SOL    HW211172   4.790   2.126   0.580
 3425SOL     OW11173   3.993   3.669   1.419
 3425SOL    HW111174   4.005   3.570   1.431
 3425SOL    HW211175   4.069   3.704   1.364
 3426SOL     OW11176   4.919   4.020   0.993
 3426SOL    HW111177   4.931   4.091   1.061
 3426SOL    HW211178   4.878   4.059   0.911
 3427SOL     OW11179   0.782   2.141   0.561
 3427SOL    HW111180   0.778   2.126   0.462
 3427SOL    HW211181   0.740   2.064   0.608
 3428SOL     OW11182   4.293   4.952   3.146
 3428SOL    HW111183   4.377   4.918   3.188
 3428SOL    HW211184   4.244   4.875   3.105
 3429SOL     OW11185   0.511   3.035   0.225
 3429SOL    HW111186   0.427   3.046   0.277
 3429SOL    HW211187   0.497   2.968   0.152
 3430SOL     OW11188   0.693   5.368   0.309
 3430SOL    HW111189   0.604   5.404   0.334
 3430SOL    HW211190   0.751   5.361   0.390
 3431SOL     OW11191   1.047   6.150   6.339
 3431SOL    HW111192   1.095   6.218   6.282
 3431SOL    HW211193   1.082   6.156   6.433
 3432SOL     OW11194   3.899   2.167   6.263
 3432SOL    HW111195   3.848   2.233   6.318
 3432SOL    HW211196   3.844   2.085   6.250
 3433SOL     OW11197   4.084   1.496   4.694
 3433SOL    HW111198   4.018   1.533   4.760
 3433SOL    HW211199   4.040   1.425   4.640
 3434SOL     OW11200   4.256   1.158   3.408
 3434SOL    HW111201   4.256   1.134   3.311
 3434SOL    HW211202   4.304   1.088   3.460
 3435SOL     OW11203   0.051   1.120   6.304
 3435SOL    HW111204   0.060   1.044   6.368
 3435SOL    HW211205   0.139   1.166   6.294
 3436SOL     OW11206   4.143   6.634   1.749
 3436SOL    HW111207   4.079   6.678   1.686
 3436SOL    HW211208   4.159   6.540   1.720
 3437SOL     OW11209   4.261   0.465   0.235
 3437SOL    HW111210   4.221   0.505   0.318
 3437SOL    HW211211   4.250   0.366   0.237
 3438SOL     OW11212   0.564   5.508   6.296
 3438SOL    HW111213   0.478   5.457   6.289
 3438SOL    HW211214   0.623   5.482   6.220
 3439SOL     OW11215   2.701   0.843   3.859
 3439SOL    HW111216   2.684   0.803   3.949
 3439SOL    HW211217   2.703   0.943   3.867
 3440SOL     OW11218   3.859   2.371   0.573
 3440SOL    HW111219   3.883   2.401   0.481
 3440SOL    HW211220   3.908   2.428   0.640
 3441SOL     OW11221   4.415   0.206   4.433
 3441SOL    HW111222   4.363   0.142   4.377
 3441SOL    HW211223   4.499   0.231   4.384
 3442SOL     OW11224   0.450   5.571   3.086
 3442SOL    HW111225   0.531   5.527   3.047
 3442SOL    HW211226   0.458   5.573   3.185
 3443SOL     OW11227   6.489   6.677   3.897
 3443SOL    HW111228   6.491   6.589   3.943
 3443SOL    HW211229   6.414   6.680   3.831
 3444SOL     OW11230   3.216   5.581   6.864
 3444SOL    HW111231   3.154   5.627   6.800
 3444SOL    HW211232   3.238   5.644   6.939
 3445SOL     OW11233   6.146   4.994   5.799
 3445SOL    HW111234   6.174   4.904   5.765
 3445SOL    HW211235   6.143   5.059   5.723
 3446SOL     OW11236   2.262   5.696   1.730
 3446SOL    HW111237   2.221   5.734   1.646
 3446SOL    HW211238   2.334   5.757   1.762
 3447SOL     OW11239   5.901   4.294   5.350
 3447SOL    HW111240   5.978   4.284   5.287
 3447SOL    HW211241   5.936   4.302   5.444
 3448SOL     OW11242   3.894   3.135   0.054
 3448SOL    HW111243   3.798   3.161   0.042
 3448SOL    HW211244   3.906   3.093   0.144
 3449SOL     OW11245   6.281   5.716   2.776
 3449SOL    HW111246   6.304   5.723   2.679
 3449SOL    HW211247   6.219   5.639   2.790
 3450SOL     OW11248   0.554   1.459   1.069
 3450SOL    HW111249   0.606   1.374   1.058
 3450SOL    HW211250   0.597   1.515   1.140
 3451SOL     OW11251   2.078   5.536   4.002
 3451SOL    HW111252   2.152   5.595   4.034
 3451SOL    HW211253   2.020   5.510   4.080
 3452SOL     OW11254   6.509   2.198   0.189
 3452SOL    HW111255   6.529   2.292   0.217
 3452SOL    HW211256   6.591   2.142   0.200
 3453SOL     OW11257   6.024   4.997   4.814
 3453SOL    HW111258   6.012   5.059   4.892
 3453SOL    HW211259   5.985   5.038   4.732
 3454SOL     OW11260   0.037   1.309   0.183
 3454SOL    HW111261   0.107   1.374   0.212
 3454SOL    HW211262   0.047   1.224   0.235
 3455SOL     OW11263   1.239   2.685   3.388
 3455SOL    HW111264   1.251   2.783   3.398
 3455SOL    HW211265   1.168   2.666   3.320
 3456SOL     OW11266   6.346   0.019   0.133
 3456SOL    HW111267   6.349   7.005   0.226
 3456SOL    HW211268   6.432   0.065   0.112
 3457SOL     OW11269   2.175   6.258   3.916
 3457SOL    HW111270   2.173   6.317   3.835
 3457SOL    HW211271   2.267   6.221   3.928
 3458SOL     OW11272   4.466   4.893   6.897
 3458SOL    HW111273   4.385   4.859   6.945
 3458SOL    HW211274   4.506   4.818   6.844
 3459SOL     OW11275   6.412   0.019   3.215
 3459SOL    HW111276   6.448   0.089   3.277
 3459SOL    HW211277   6.386   6.959   3.268
 3460SOL     OW11278   5.161   2.808   0.575
 3460SOL    HW111279   5.114   2.862   0.645
 3460SOL    HW211280   5.207   2.730   0.618
 3461SOL     OW11281   2.529   5.654   2.742
 3461SOL    HW111282   2.495   5.670   2.649
 3461SOL    HW211283   2.522   5.557   2.764
 3462SOL     OW11284   5.113   1.950   3.224
 3462SOL    HW111285   5.114   1.875   3.158
 3462SOL    HW211286   5.201   1.952   3.272
 3463SOL     OW11287   1.103   2.888   1.199
 3463SOL    HW111288   1.089   2.911   1.103
 3463SOL    HW211289   1.039   2.815   1.225
 3464SOL     OW11290   5.136   1.375   6.503
 3464SOL    HW111291   5.219   1.365   6.448
 3464SOL    HW211292   5.160   1.364   6.600
 3465SOL     OW11293   2.225   4.714   1.647
 3465SOL    HW111294   2.162   4.710   1.569
 3465SOL    HW211295   2.173   4.712   1.732
 3466SOL     OW11296   6.535   3.519   4.482
 3466SOL    HW111297   6.561   3.611   4.452
 3466SOL    HW211298   6.574   3.501   4.572
 3467SOL     OW11299   3.469   3.958   0.274
 3467SOL    HW111300   3.493   3.960   0.371
 3467SOL    HW211301   3.445   4.050   0.244
 3468SOL     OW11302   4.462   1.482   1.361
 3468SOL    HW111303   4.503   1.395   1.389
 3468SOL    HW211304   4.492   1.505   1.269
 3469SOL     OW11305   3.593   5.877   5.005
 3469SOL    HW111306   3.656   5.903   5.078
 3469SOL    HW211307   3.516   5.942   5.003
 3470SOL     OW11308   1.125   2.625   0.677
 3470SOL    HW111309   1.135   2.599   0.773
 3470SOL    HW211310   1.068   2.706   0.670
 3471SOL     OW11311   5.114   2.959   5.026
 3471SOL    HW111312   5.208   2.973   5.056
 3471SOL    HW211313   5.107   2.872   4.977
 3472SOL     OW11314   4.561   1.941   1.911
 3472SOL    HW111315   4.630   2.013   1.917
 3472SOL    HW211316   4.576   1.873   1.983
 3473SOL     OW11317   6.216   4.283   1.775
 3473SOL    HW111318   6.247   4.359   1.833
 3473SOL    HW211319   6.158   4.221   1.829
 3474SOL     OW11320   4.747   4.234   3.500
 3474SOL    HW111321   4.822   4.300   3.492
 3474SOL    HW211322   4.714   4.211   3.408
 3475SOL     OW11323   6.682   3.662   4.038
 3475SOL    HW111324   6.733   3.609   4.107
 3475SOL    HW211325   6.632   3.736   4.082
 3476SOL     OW11326   1.439   2.939   3.349
 3476SOL    HW111327   1.464   3.024   3.303
 3476SOL    HW211328   1.522   2.886   3.369
 3477SOL     OW11329   1.750   3.894   2.419
 3477SOL    HW111330   1.731   3.974   2.477
 3477SOL    HW211331   1.700   3.815   2.454
 3478SOL     OW11332   2.654   0.938   0.924
 3478SOL    HW111333   2.695   0.936   0.833
 3478SOL    HW211334   2.706   0.999   0.983
 3479SOL     OW11335   0.968   3.761   5.544
 3479SOL    HW111336   1.028   3.746   5.465
 3479SOL    HW211337   0.994   3.846   5.590
 3480SOL     OW11338   1.017   5.502   6.836
 3480SOL    HW111339   0.975   5.438   6.901
 3480SOL    HW211340   0.964   5.587   6.835
 3481SOL     OW11341   5.786   1.222   4.733
 3481SOL    HW111342   5.740   1.146   4.777
 3481SOL    HW211343   5.729   1.304   4.741
 3482SOL     OW11344   6.473   2.824   6.528
 3482SOL    HW111345   6.396   2.886   6.515
 3482SOL    HW211346   6.460   2.742   6.472
 3483SOL     OW11347   5.392   2.148   4.480
 3483SOL    HW111348   5.484   2.129   4.516
 3483SOL    HW211349   5.325   2.100   4.537
 3484SOL     OW11350   1.286   2.851   4.630
 3484SOL    HW111351   1.268   2.920   4.700
 3484SOL    HW211352   1.370   2.873   4.582
 3485SOL     OW11353   6.797   4.362   6.248
 3485SOL    HW111354   6.710   4.320   6.222
 3485SOL    HW211355   6.850   4.380   6.165
 3486SOL     OW11356   1.303   6.364   4.795
 3486SOL    HW111357   1.397   6.339   4.770
 3486SOL    HW211358   1.256   6.284   4.831
 3487SOL     OW11359   4.387   1.489   6.687
 3487SOL    HW111360   4.458   1.560   6.683
 3487SOL    HW211361   4.381   1.454   6.781
 3488SOL     OW11362   4.896   6.044   5.664
 3488SOL    HW111363   4.848   6.081   5.585
 3488SOL    HW211364   4.830   6.023   5.736
 3489SOL     OW11365   3.288   6.293   1.062
 3489SOL    HW111366   3.256   6.379   1.103
 3489SOL    HW211367   3.311   6.228   1.134
 3490SOL     OW11368   4.779   0.166   0.694
 3490SOL    HW111369   4.707   0.100   0.673
 3490SOL    HW211370   4.738   0.256   0.709
 3491SOL     OW11371   4.908   4.445   5.323
 3491SOL    HW111372   4.818   4.416   5.291
 3491SOL    HW211373   4.903   4.467   5.421
 3492SOL     OW11374   5.276   3.879   3.233
 3492SOL    HW111375   5.210   3.954   3.225
 3492SOL    HW211376   5.238   3.807   3.291
 3493SOL     OW11377   0.607   4.232   6.304
 3493SOL    HW111378   0.648   4.179   6.230
 3493SOL    HW211379   0.678   4.265   6.366
 3494SOL     OW11380   4.564   1.056   2.443
 3494SOL    HW111381   4.489   1.039   2.507
 3494SOL    HW211382   4.593   1.152   2.451
 3495SOL     OW11383   2.160   3.840   3.493
 3495SOL    HW111384   2.149   3.753   3.445
 3495SOL    HW211385   2.156   3.915   3.427
 3496SOL     OW11386   6.063   5.453   1.302
 3496SOL    HW111387   5.977   5.424   1.258
 3496SOL    HW211388   6.125   5.488   1.232
 3497SOL     OW11389   3.081   0.201   1.395
 3497SOL    HW111390   3.180   0.198   1.384
 3497SOL    HW211391   3.052   0.296   1.412
 3498SOL     OW11392   2.862   2.116   1.462
 3498SOL    HW111393   2.815   2.101   1.374
 3498SOL    HW211394   2.794   2.127   1.534
 3499SOL     OW11395   5.844   0.080   4.936
 3499SOL    HW111396   5.865   0.020   4.860
 3499SOL    HW211397   5.878   0.040   5.021
 3500SOL     OW11398   3.037   2.105   3.511
 3500SOL    HW111399   3.118   2.143   3.556
 3500SOL    HW211400   3.045   2.006   3.506
 3501SOL     OW11401   1.511   6.918   6.063
 3501SOL    HW111402   1.548   6.995   6.010
 3501SOL    HW211403   1.411   6.921   6.060
 3502SOL     OW11404   5.143   2.290   2.420
 3502SOL    HW111405   5.075   2.220   2.442
 3502SOL    HW211406   5.202   2.257   2.347
 3503SOL     OW11407   0.458   5.940   6.765
 3503SOL    HW111408   0.401   6.001   6.711
 3503SOL    HW211409   0.548   5.932   6.722
 3504SOL     OW11410   1.954   1.057   6.755
 3504SOL    HW111411   1.976   1.071   6.851
 3504SOL    HW211412   1.865   1.098   6.735
 3505SOL     OW11413   5.183   2.670   4.920
 3505SOL    HW111414   5.107   2.606   4.936
 3505SOL    HW211415   5.261   2.643   4.977
 3506SOL     OW11416   4.129   5.034   4.992
 3506SOL    HW111417   4.194   4.972   5.036
 3506SOL    HW211418   4.179   5.100   4.936
 3507SOL     OW11419   2.911   1.841   1.272
 3507SOL    HW111420   2.822   1.816   1.310
 3507SOL    HW211421   2.984   1.810   1.333
 3508SOL     OW11422   3.582   1.208   6.849
 3508SOL    HW111423   3.607   1.294   6.893
 3508SOL    HW211424   3.591   1.218   6.750
 3509SOL     OW11425   4.531   6.105   0.027
 3509SOL    HW111426   4.560   6.199   0.013
 3509SOL    HW211427   4.502   6.066   6.961
 3510SOL     OW11428   2.130   0.810   1.466
 3510SOL    HW111429   2.053   0.778   1.411
 3510SOL    HW211430   2.212   0.814   1.409
 3511SOL     OW11431   3.006   5.043   1.907
 3511SOL    HW111432   3.017   4.945   1.925
 3511SOL    HW211433   2.910   5.067   1.915
 3512SOL     OW11434   0.212   5.810   6.435
 3512SOL    HW111435   0.308   5.796   6.412
 3512SOL    HW211436   0.157   5.740   6.390
 3513SOL     OW11437   5.161   1.874   0.272
 3513SOL    HW111438   5.112   1.845   0.190
 3513SOL    HW211439   5.201   1.795   0.317
 3514SOL     OW11440   3.463   2.085   2.046
 3514SOL    HW111441   3.530   2.146   2.004
 3514SOL    HW211442   3.509   2.002   2.078
 3515SOL     OW11443   0.717   4.430   4.110
 3515SOL    HW111444   0.778   4.461   4.037
 3515SOL    HW211445   0.692   4.508   4.168
 3516SOL     OW11446   4.348   0.686   1.302
 3516SOL    HW111447   4.341   0.785   1.302
 3516SOL    HW211448   4.352   0.653   1.208
 3517SOL     OW11449   5.371   1.770   2.607
 3517SOL    HW111450   5.422   1.726   2.681
 3517SOL    HW211451   5.274   1.747   2.615
 3518SOL     OW11452   6.261   1.376   5.613
 3518SOL    HW111453   6.214   1.376   5.525
 3518SOL    HW211454   6.241   1.292   5.662
 3519SOL     OW11455   3.308   1.176   1.349
 3519SOL    HW111456   3.344   1.169   1.442
 3519SOL    HW211457   3.342   1.259   1.306
 3520SOL     OW11458   2.820   5.785   3.697
 3520SOL    HW111459   2.769   5.870   3.711
 3520SOL    HW211460   2.830   5.738   3.784
 3521SOL     OW11461   2.355   2.512   5.616
 3521SOL    HW111462   2.367   2.555   5.705
 3521SOL    HW211463   2.286   2.563   5.564
 3522SOL     OW11464   0.906   6.037   6.849
 3522SOL    HW111465   0.905   6.125   6.895
 3522SOL    HW211466   0.999   6.016   6.819
 3523SOL     OW11467   3.662   5.402   6.727
 3523SOL    HW111468   3.722   5.440   6.657
 3523SOL    HW211469   3.711   5.332   6.779
 3524SOL     OW11470   4.531   1.295   4.466
 3524SOL    HW111471   4.609   1.343   4.425
 3524SOL    HW211472   4.458   1.285   4.398
 3525SOL     OW11473   0.578   2.941   3.685
 3525SOL    HW111474   0.667   2.969   3.649
 3525SOL    HW211475   0.555   2.850   3.650
 3526SOL     OW11476   6.437   6.915   1.700
 3526SOL    HW111477   6.520   6.861   1.715
 3526SOL    HW211478   6.429   6.984   1.773
 3527SOL     OW11479   6.472   3.003   0.118
 3527SOL    HW111480   6.489   3.016   0.216
 3527SOL    HW211481   6.496   2.909   0.092
 3528SOL     OW11482   2.006   5.681   5.115
 3528SOL    HW111483   2.064   5.756   5.083
 3528SOL    HW211484   1.920   5.719   5.151
 3529SOL     OW11485   4.713   4.071   6.906
 3529SOL    HW111486   4.705   3.980   6.867
 3529SOL    HW211487   4.755   4.133   6.840
 3530SOL     OW11488   6.448   0.380   0.239
 3530SOL    HW111489   6.492   0.296   0.270
 3530SOL    HW211490   6.456   0.386   0.139
 3531SOL     OW11491   4.468   2.333   0.653
 3531SOL    HW111492   4.566   2.317   0.666
 3531SOL    HW211493   4.449   2.431   0.662
 3532SOL     OW11494   2.222   0.483   1.773
 3532SOL    HW111495   2.275   0.515   1.695
 3532SOL    HW211496   2.124   0.481   1.749
 3533SOL     OW11497   2.106   2.900   2.844
 3533SOL    HW111498   2.025   2.859   2.885
 3533SOL    HW211499   2.125   2.855   2.757
 3534SOL     OW11500   0.516   1.394   0.781
 3534SOL    HW111501   0.451   1.369   0.852
 3534SOL    HW211502   0.565   1.477   0.808
 3535SOL     OW11503   4.077   6.943   3.640
 3535SOL    HW111504   4.019   6.867   3.669
 3535SOL    HW211505   4.091   6.939   3.541
 3536SOL     OW11506   3.986   1.809   4.143
 3536SOL    HW111507   4.023   1.832   4.053
 3536SOL    HW211508   3.986   1.890   4.201
 3537SOL     OW11509   1.450   6.065   2.470
 3537SOL    HW111510   1.543   6.078   2.504
 3537SOL    HW211511   1.444   6.101   2.377
 3538SOL     OW11512   3.307   5.916   1.078
 3538SOL    HW111513   3.388   5.930   1.135
 3538SOL    HW211514   3.228   5.957   1.122
 3539SOL     OW11515   3.405   4.190   4.511
 3539SOL    HW111516   3.382   4.179   4.608
 3539SOL    HW211517   3.321   4.208   4.459
 3540SOL     OW11518   1.840   2.805   3.085
 3540SOL    HW111519   1.810   2.736   3.020
 3540SOL    HW211520   1.817   2.776   3.178
 3541SOL     OW11521   3.732   4.134   4.745
 3541SOL    HW111522   3.759   4.227   4.771
 3541SOL    HW211523   3.721   4.130   4.646
 3542SOL     OW11524   6.653   5.599   1.245
 3542SOL    HW111525   6.573   5.585   1.303
 3542SOL    HW211526   6.736   5.579   1.297
 3543SOL     OW11527   4.839   1.716   4.628
 3543SOL    HW111528   4.793   1.708   4.540
 3543SOL    HW211529   4.933   1.747   4.613
 3544SOL     OW11530   3.429   0.103   6.770
 3544SOL    HW111531   3.473   0.066   6.688
 3544SOL    HW211532   3.384   0.190   6.747
 3545SOL     OW11533   2.736   5.098   0.410
 3545SOL    HW111534   2.707   5.008   0.381
 3545SOL    HW211535   2.776   5.148   0.333
 3546SOL     OW11536   0.947   4.470   2.725
 3546SOL    HW111537   0.948   4.504   2.631
 3546SOL    HW211538   0.946   4.370   2.724
 3547SOL     OW11539   4.839   4.749   4.530
 3547SOL    HW111540   4.821   4.704   4.442
 3547SOL    HW211541   4.881   4.839   4.512
 3548SOL     OW11542   6.005   3.349   5.836
 3548SOL    HW111543   6.102   3.363   5.856
 3548SOL    HW211544   5.989   3.366   5.739
 3549SOL     OW11545   5.152   3.608   1.923
 3549SOL    HW111546   5.190   3.691   1.962
 3549SOL    HW211547   5.090   3.632   1.848
 3550SOL     OW11548   4.989   1.780   3.847
 3550SOL    HW111549   4.945   1.699   3.809
 3550SOL    HW211550   5.039   1.828   3.774
 3551SOL     OW11551   1.551   0.286   2.614
 3551SOL    HW111552   1.611   0.353   2.659
 3551SOL    HW211553   1.603   0.203   2.594
 3552SOL     OW11554   6.634   4.216   3.135
 3552SOL    HW111555   6.697   4.230   3.058
 3552SOL    HW211556   6.671   4.145   3.195
 3553SOL     OW11557   6.029   1.700   3.600
 3553SOL    HW111558   6.053   1.673   3.507
 3553SOL    HW211559   6.040   1.798   3.610
 3554SOL     OW11560   3.752   5.680   6.570
 3554SOL    HW111561   3.764   5.779   6.559
 3554SOL    HW211562   3.783   5.652   6.660
 3555SOL     OW11563   0.816   2.608   3.948
 3555SOL    HW111564   0.747   2.681   3.952
 3555SOL    HW211565   0.819   2.570   3.856
 3556SOL     OW11566   4.028   1.182   6.491
 3556SOL    HW111567   4.046   1.191   6.393
 3556SOL    HW211568   4.054   1.266   6.537
 3557SOL     OW11569   1.589   1.310   3.895
 3557SOL    HW111570   1.526   1.344   3.965
 3557SOL    HW211571   1.580   1.367   3.813
 3558SOL     OW11572   0.461   0.269   1.349
 3558SOL    HW111573   0.508   0.265   1.261
 3558SOL    HW211574   0.406   0.186   1.361
 3559SOL     OW11575   0.807   0.542   6.054
 3559SOL    HW111576   0.864   0.460   6.056
 3559SOL    HW211577   0.711   0.516   6.057
 3560SOL     OW11578   6.737   0.464   1.329
 3560SOL    HW111579   6.779   0.554   1.315
 3560SOL    HW211580   6.669   0.448   1.257
 3561SOL     OW11581   5.638   5.092   3.508
 3561SOL    HW111582   5.673   5.182   3.481
 3561SOL    HW211583   5.625   5.035   3.427
 3562SOL     OW11584   4.103   2.246   2.530
 3562SOL    HW111585   4.020   2.216   2.482
 3562SOL    HW211586   4.079   2.278   2.621
 3563SOL     OW11587   3.618   6.317   1.792
 3563SOL    HW111588   3.520   6.303   1.782
 3563SOL    HW211589   3.652   6.372   1.716
 3564SOL     OW11590   6.588   4.369   1.877
 3564SOL    HW111591   6.622   4.330   1.963
 3564SOL    HW211592   6.660   4.424   1.834
 3565SOL     OW11593   0.629   0.782   5.256
 3565SOL    HW111594   0.601   0.876   5.238
 3565SOL    HW211595   0.578   0.747   5.334
 3566SOL     OW11596   0.375   4.856   5.960
 3566SOL    HW111597   0.303   4.826   6.023
 3566SOL    HW211598   0.411   4.777   5.910
 3567SOL     OW11599   6.083   2.211   1.272
 3567SOL    HW111600   6.145   2.133   1.267
 3567SOL    HW211601   5.997   2.182   1.313
 3568SOL     OW11602   5.008   4.275   3.747
 3568SOL    HW111603   4.919   4.259   3.789
 3568SOL    HW211604   5.078   4.287   3.817
 3569SOL     OW11605   4.087   3.432   3.201
 3569SOL    HW111606   4.068   3.335   3.213
 3569SOL    HW211607   4.108   3.473   3.290
 3570SOL     OW11608   0.570   2.606   5.832
 3570SOL    HW111609   0.572   2.545   5.753
 3570SOL    HW211610   0.628   2.686   5.814
 3571SOL     OW11611   3.310   0.192   4.309
 3571SOL    HW111612   3.262   0.280   4.308
 3571SOL    HW211613   3.401   0.204   4.349
 3572SOL     OW11614   4.432   4.547   2.695
 3572SOL    HW111615   4.466   4.544   2.789
 3572SOL    HW211616   4.338   4.582   2.695
 3573SOL     OW11617   0.580   4.982   3.494
 3573SOL    HW111618   0.592   4.962   3.397
 3573SOL    HW211619   0.605   5.077   3.512
 3574SOL     OW11620   2.252   1.564   6.340
 3574SOL    HW111621   2.160   1.530   6.325
 3574SOL    HW211622   2.295   1.585   6.251
 3575SOL     OW11623   4.739   7.009   6.430
 3575SOL    HW111624   4.661   7.012   6.367
 3575SOL    HW211625   4.733   0.063   6.495
 3576SOL     OW11626   1.072   2.652   0.385
 3576SOL    HW111627   1.098   2.650   0.481
 3576SOL    HW211628   1.085   2.561   0.345
 3577SOL     OW11629   1.943   3.823   4.200
 3577SOL    HW111630   1.875   3.891   4.173
 3577SOL    HW211631   1.917   3.733   4.164
 3578SOL     OW11632   5.046   2.266   0.668
 3578SOL    HW111633   5.060   2.264   0.569
 3578SOL    HW211634   4.960   2.219   0.690
 3579SOL     OW11635   0.465   3.415   2.418
 3579SOL    HW111636   0.395   3.486   2.426
 3579SOL    HW211637   0.554   3.453   2.442
 3580SOL     OW11638   6.853   4.042   2.028
 3580SOL    HW111639   6.780   3.993   1.981
 3580SOL    HW211640   6.931   4.054   1.966
 3581SOL     OW11641   1.441   0.853   2.759
 3581SOL    HW111642   1.401   0.942   2.739
 3581SOL    HW211643   1.386   0.781   2.717
 3582SOL     OW11644   4.544   6.551   0.125
 3582SOL    HW111645   4.595   6.622   0.175
 3582SOL    HW211646   4.606   6.477   0.100
 3583SOL     OW11647   1.970   6.439   0.418
 3583SOL    HW111648   1.884   6.402   0.453
 3583SOL    HW211649   2.026   6.365   0.380
 3584SOL     OW11650   5.676   5.240   4.851
 3584SOL    HW111651   5.675   5.219   4.949
 3584SOL    HW211652   5.770   5.254   4.821
 3585SOL     OW11653   4.468   1.740   3.586
 3585SOL    HW111654   4.512   1.807   3.646
 3585SOL    HW211655   4.511   1.742   3.496
 3586SOL     OW11656   0.399   2.901   5.109
 3586SOL    HW111657   0.421   2.831   5.177
 3586SOL    HW211658   0.315   2.876   5.061
 3587SOL     OW11659   2.188   0.599   5.284
 3587SOL    HW111660   2.153   0.606   5.190
 3587SOL    HW211661   2.225   0.687   5.312
 3588SOL     OW11662   6.045   4.029   4.104
 3588SOL    HW111663   6.016   4.109   4.156
 3588SOL    HW211664   5.965   3.972   4.084
 3589SOL     OW11665   0.357   1.478   5.972
 3589SOL    HW111666   0.455   1.458   5.971
 3589SOL    HW211667   0.339   1.560   5.916
 3590SOL     OW11668   6.341   5.194   6.203
 3590SOL    HW111669   6.333   5.250   6.121
 3590SOL    HW211670   6.413   5.230   6.262
 3591SOL     OW11671   4.911   1.246   1.061
 3591SOL    HW111672   4.939   1.291   1.145
 3591SOL    HW211673   4.983   1.185   1.030
 3592SOL     OW11674   0.785   6.216   1.318
 3592SOL    HW111675   0.710   6.234   1.382
 3592SOL    HW211676   0.872   6.237   1.363
 3593SOL     OW11677   4.328   3.405   6.062
 3593SOL    HW111678   4.320   3.363   6.152
 3593SOL    HW211679   4.256   3.370   6.002
 3594SOL     OW11680   4.371   4.369   5.366
 3594SOL    HW111681   4.359   4.269   5.363
 3594SOL    HW211682   4.348   4.408   5.277
 3595SOL     OW11683   4.961   6.637   5.262
 3595SOL    HW111684   4.891   6.680   5.319
 3595SOL    HW211685   4.966   6.685   5.174
 3596SOL     OW11686   3.514   1.489   1.747
 3596SOL    HW111687   3.570   1.442   1.814
 3596SOL    HW211688   3.472   1.570   1.789
 3597SOL     OW11689   4.184   4.716   5.196
 3597SOL    HW111690   4.187   4.760   5.107
 3597SOL    HW211691   4.205   4.619   5.187
 3598SOL     OW11692   6.083   5.047   3.995
 3598SOL    HW111693   5.987   5.070   3.985
 3598SOL    HW211694   6.093   4.975   4.064
 3599SOL     OW11695   2.305   1.414   5.525
 3599SOL    HW111696   2.304   1.314   5.517
 3599SOL    HW211697   2.314   1.455   5.435
 3600SOL     OW11698   2.052   3.996   0.965
 3600SOL    HW111699   1.967   4.004   1.017
 3600SOL    HW211700   2.036   4.024   0.871
 3601SOL     OW11701   3.050   0.468   5.477
 3601SOL    HW111702   3.029   0.521   5.395
 3601SOL    HW211703   3.090   0.380   5.451
 3602SOL     OW11704   1.306   2.203   1.003
 3602SOL    HW111705   1.357   2.145   1.066
 3602SOL    HW211706   1.371   2.259   0.951
 3603SOL     OW11707   1.746   6.767   5.771
 3603SOL    HW111708   1.664   6.724   5.807
 3603SOL    HW211709   1.730   6.796   5.677
 3604SOL     OW11710   6.778   1.150   4.624
 3604SOL    HW111711   6.773   1.162   4.723
 3604SOL    HW211712   6.831   1.068   4.603
 3605SOL     OW11713   0.801   0.009   4.855
 3605SOL    HW111714   0.751   6.989   4.780
 3605SOL    HW211715   0.821   0.104   4.834
 3606SOL     OW11716   1.657   0.927   2.880
 3606SOL    HW111717   1.744   0.925   2.830
 3606SOL    HW211718   1.587   0.880   2.826
 3607SOL     OW11719   5.622   1.585   4.554
 3607SOL    HW111720   5.638   1.487   4.564
 3607SOL    HW211721   5.652   1.614   4.463
 3608SOL     OW11722   4.454   1.760   5.633
 3608SOL    HW111723   4.471   1.753   5.535
 3608SOL    HW211724   4.541   1.755   5.682
 3609SOL     OW11725   3.113   6.904   4.548
 3609SOL    HW111726   3.188   6.968   4.565
 3609SOL    HW211727   3.129   6.819   4.599
 3610SOL     OW11728   1.091   0.149   5.744
 3610SOL    HW111729   1.111   0.133   5.647
 3610SOL    HW211730   1.042   0.070   5.781
 3611SOL     OW11731   5.637   2.624   2.903
 3611SOL    HW111732   5.573   2.628   2.826
 3611SOL    HW211733   5.623   2.539   2.954
 3612SOL     OW11734   5.722   1.347   1.281
 3612SOL    HW111735   5.703   1.428   1.338
 3612SOL    HW211736   5.651   1.278   1.297
 3613SOL     OW11737   4.587   1.262   2.727
 3613SOL    HW111738   4.528   1.281   2.805
 3613SOL    HW211739   4.557   1.178   2.682
 3614SOL     OW11740   3.174   6.033   0.265
 3614SOL    HW111741   3.167   5.943   0.222
 3614SOL    HW211742   3.229   6.026   0.348
 3615SOL     OW11743   5.363   2.717   5.344
 3615SOL    HW111744   5.280   2.661   5.355
 3615SOL    HW211745   5.443   2.661   5.365
 3616SOL     OW11746   2.035   0.769   0.721
 3616SOL    HW111747   2.001   0.850   0.769
 3616SOL    HW211748   1.959   0.719   0.680
 3617SOL     OW11749   3.960   5.300   5.326
 3617SOL    HW111750   3.931   5.395   5.329
 3617SOL    HW211751   3.892   5.242   5.370
 3618SOL     OW11752   1.135   5.483   4.208
 3618SOL    HW111753   1.141   5.537   4.292
 3618SOL    HW211754   1.054   5.424   4.211
 3619SOL     OW11755   0.033   1.520   2.079
 3619SOL    HW111756   0.022   1.462   2.160
 3619SOL    HW211757   0.103   1.480   2.019
 3620SOL     OW11758   4.831   6.353   5.348
 3620SOL    HW111759   4.756   6.405   5.308
 3620SOL    HW211760   4.917   6.400   5.330
 3621SOL     OW11761   3.268   3.332   2.919
 3621SOL    HW111762   3.233   3.299   3.006
 3621SOL    HW211763   3.367   3.316   2.914
 3622SOL     OW11764   1.864   6.236   6.342
 3622SOL    HW111765   1.854   6.196   6.433
 3622SOL    HW211766   1.827   6.329   6.343
 3623SOL     OW11767   2.258   6.096   5.611
 3623SOL    HW111768   2.172   6.146   5.598
 3623SOL    HW211769   2.279   6.091   5.708
 3624SOL     OW11770   2.824   1.579   2.204
 3624SOL    HW111771   2.816   1.612   2.110
 3624SOL    HW211772   2.859   1.653   2.262
 3625SOL     OW11773   6.430   2.395   2.019
 3625SOL    HW111774   6.458   2.363   2.110
 3625SOL    HW211775   6.335   2.371   2.003
 3626SOL     OW11776   0.630   3.339   5.769
 3626SOL    HW111777   0.650   3.266   5.704
 3626SOL    HW211778   0.571   3.407   5.725
 3627SOL     OW11779   3.218   1.501   2.575
 3627SOL    HW111780   3.138   1.457   2.536
 3627SOL    HW211781   3.289   1.433   2.593
 3628SOL     OW11782   6.688   1.183   1.291
 3628SOL    HW111783   6.683   1.181   1.391
 3628SOL    HW211784   6.719   1.094   1.258
 3629SOL     OW11785   1.768   0.607   4.215
 3629SOL    HW111786   1.707   0.528   4.221
 3629SOL    HW211787   1.731   0.672   4.148
 3630SOL     OW11788   6.773   1.625   2.839
 3630SOL    HW111789   6.806   1.643   2.931
 3630SOL    HW211790   6.843   1.575   2.787
 3631SOL     OW11791   2.229   5.259   2.731
 3631SOL    HW111792   2.243   5.254   2.632
 3631SOL    HW211793   2.315   5.284   2.776
 3632SOL     OW11794   4.872   3.117   2.873
 3632SOL    HW111795   4.857   3.129   2.775
 3632SOL    HW211796   4.907   3.025   2.890
 3633SOL     OW11797   4.847   4.798   5.707
 3633SOL    HW111798   4.825   4.700   5.714
 3633SOL    HW211799   4.828   4.843   5.795
 3634SOL     OW11800   2.589   5.081   6.272
 3634SOL    HW111801   2.524   5.023   6.321
 3634SOL    HW211802   2.667   5.101   6.332
 3635SOL     OW11803   1.412   6.209   3.030
 3635SOL    HW111804   1.396   6.280   3.098
 3635SOL    HW211805   1.495   6.159   3.052
 3636SOL     OW11806   6.854   5.998   3.771
 3636SOL    HW111807   6.917   6.061   3.816
 3636SOL    HW211808   6.855   6.014   3.672
 3637SOL     OW11809   5.020   1.797   0.020
 3637SOL    HW111810   4.935   1.843   7.015
 3637SOL    HW211811   5.055   1.744   6.965
 3638SOL     OW11812   0.677   2.940   4.187
 3638SOL    HW111813   0.762   2.988   4.168
 3638SOL    HW211814   0.616   2.947   4.108
 3639SOL     OW11815   3.986   3.095   3.626
 3639SOL    HW111816   3.998   3.018   3.563
 3639SOL    HW211817   3.900   3.084   3.675
 3640SOL     OW11818   4.664   1.758   2.616
 3640SOL    HW111819   4.574   1.801   2.616
 3640SOL    HW211820   4.661   1.674   2.562
 3641SOL     OW11821   7.019   3.155   1.260
 3641SOL    HW111822   0.003   3.141   1.359
 3641SOL    HW211823   6.925   3.179   1.235
 3642SOL     OW11824   3.844   4.305   6.925
 3642SOL    HW111825   3.889   4.236   6.982
 3642SOL    HW211826   3.914   4.363   6.883
 3643SOL     OW11827   4.437   5.005   5.047
 3643SOL    HW111828   4.479   5.096   5.045
 3643SOL    HW211829   4.470   4.951   4.970
 3644SOL     OW11830   2.907   1.216   1.655
 3644SOL    HW111831   2.932   1.208   1.558
 3644SOL    HW211832   2.976   1.170   1.711
 3645SOL     OW11833   1.342   3.988   3.886
 3645SOL    HW111834   1.306   4.078   3.862
 3645SOL    HW211835   1.302   3.919   3.824
 3646SOL     OW11836   2.597   5.865   5.045
 3646SOL    HW111837   2.682   5.812   5.047
 3646SOL    HW211838   2.553   5.855   4.956
 3647SOL     OW11839   3.424   0.760   0.929
 3647SOL    HW111840   3.498   0.694   0.916
 3647SOL    HW211841   3.420   0.788   1.025
 3648SOL     OW11842   5.707   5.921   4.002
 3648SOL    HW111843   5.731   5.909   3.906
 3648SOL    HW211844   5.778   5.879   4.060
 3649SOL     OW11845   5.287   3.128   6.992
 3649SOL    HW111846   5.269   3.090   6.901
 3649SOL    HW211847   5.272   3.058   0.040
 3650SOL     OW11848   5.385   6.221   0.034
 3650SOL    HW111849   5.397   6.270   0.120
 3650SOL    HW211850   5.367   6.125   0.053
 3651SOL     OW11851   0.884   1.667   5.950
 3651SOL    HW111852   0.949   1.697   6.019
 3651SOL    HW211853   0.794   1.706   5.969
 3652SOL     OW11854   5.863   2.263   2.860
 3652SOL    HW111855   5.860   2.198   2.784
 3652SOL    HW211856   5.936   2.329   2.845
 3653SOL     OW11857   2.413   1.352   0.975
 3653SOL    HW111858   2.443   1.318   1.064
 3653SOL    HW211859   2.493   1.366   0.916
 3654SOL     OW11860   4.815   5.620   1.177
 3654SOL    HW111861   4.871   5.633   1.096
 3654SOL    HW211862   4.735   5.681   1.172
 3655SOL     OW11863   1.807   6.919   3.899
 3655SOL    HW111864   1.730   6.963   3.852
 3655SOL    HW211865   1.891   6.970   3.880
 3656SOL     OW11866   1.063   0.770   1.085
 3656SOL    HW111867   1.121   0.777   1.166
 3656SOL    HW211868   1.017   0.857   1.069
 3657SOL     OW11869   0.279   4.503   6.727
 3657SOL    HW111870   0.303   4.457   6.813
 3657SOL    HW211871   0.186   4.540   6.734
 3658SOL     OW11872   2.331   4.496   5.902
 3658SOL    HW111873   2.421   4.465   5.935
 3658SOL    HW211874   2.304   4.441   5.823
 3659SOL     OW11875   0.665   2.577   0.443
 3659SOL    HW111876   0.697   2.641   0.513
 3659SOL    HW211877   0.569   2.554   0.460
 3660SOL     OW11878   4.465   4.906   4.107
 3660SOL    HW111879   4.549   4.879   4.059
 3660SOL    HW211880   4.484   4.912   4.206
 3661SOL     OW11881   0.495   0.938   5.004
 3661SOL    HW111882   0.453   1.012   5.057
 3661SOL    HW211883   0.424   0.884   4.960
 3662SOL     OW11884   3.449   3.106   5.243
 3662SOL    HW111885   3.364   3.106   5.295
 3662SOL    HW211886   3.526   3.091   5.305
 3663SOL     OW11887   1.746   2.556   6.294
 3663SOL    HW111888   1.735   2.487   6.222
 3663SOL    HW211889   1.822   2.616   6.271
 3664SOL     OW11890   2.306   2.768   1.051
 3664SOL    HW111891   2.232   2.701   1.056
 3664SOL    HW211892   2.304   2.814   0.963
 3665SOL     OW11893   6.793   6.137   5.228
 3665SOL    HW111894   6.860   6.104   5.295
 3665SOL    HW211895   6.840   6.190   5.157
 3666SOL     OW11896   1.846   3.656   4.513
 3666SOL    HW111897   1.865   3.708   4.430
 3666SOL    HW211898   1.932   3.635   4.560
 3667SOL     OW11899   1.704   6.358   1.682
 3667SOL    HW111900   1.792   6.395   1.710
 3667SOL    HW211901   1.703   6.344   1.583
 3668SOL     OW11902   5.092   1.121   0.889
 3668SOL    HW111903   5.147   1.181   0.831
 3668SOL    HW211904   5.058   1.043   0.836
 3669SOL     OW11905   6.780   1.259   2.642
 3669SOL    HW111906   6.788   1.229   2.737
 3669SOL    HW211907   6.822   1.349   2.632
 3670SOL     OW11908   1.863   5.965   1.724
 3670SOL    HW111909   1.878   5.870   1.752
 3670SOL    HW211910   1.765   5.986   1.733
 3671SOL     OW11911   0.667   0.648   5.006
 3671SOL    HW111912   0.726   0.585   5.057
 3671SOL    HW211913   0.624   0.712   5.069
 3672SOL     OW11914   2.717   6.768   3.102
 3672SOL    HW111915   2.691   6.782   3.007
 3672SOL    HW211916   2.780   6.839   3.131
 3673SOL     OW11917   3.943   1.568   1.938
 3673SOL    HW111918   3.983   1.561   1.847
 3673SOL    HW211919   3.843   1.564   1.930
 3674SOL     OW11920   6.974   6.119   6.192
 3674SOL    HW111921   0.049   6.093   6.192
 3674SOL    HW211922   6.940   6.121   6.098
 3675SOL     OW11923   6.028   0.463   5.997
 3675SOL    HW111924   5.934   0.463   6.029
 3675SOL    HW211925   6.086   0.509   6.065
 3676SOL     OW11926   2.361   0.483   6.345
 3676SOL    HW111927   2.340   0.499   6.248
 3676SOL    HW211928   2.285   0.436   6.388
 3677SOL     OW11929   0.732   6.743   5.133
 3677SOL    HW111930   0.818   6.700   5.159
 3677SOL    HW211931   0.749   6.834   5.096
 3678SOL     OW11932   2.336   0.590   3.608
 3678SOL    HW111933   2.241   0.615   3.587
 3678SOL    HW211934   2.396   0.666   3.584
 3679SOL     OW11935   3.135   1.049   1.172
 3679SOL    HW111936   3.089   0.982   1.231
 3679SOL    HW211937   3.216   1.084   1.219
 3680SOL     OW11938   4.924   0.909   4.039
 3680SOL    HW111939   4.826   0.894   4.041
 3680SOL    HW211940   4.967   0.841   3.979
 3681SOL     OW11941   1.176   5.392   3.646
 3681SOL    HW111942   1.139   5.374   3.737
 3681SOL    HW211943   1.118   5.349   3.578
 3682SOL     OW11944   5.517   0.941   1.942
 3682SOL    HW111945   5.602   0.910   1.900
 3682SOL    HW211946   5.533   1.025   1.994
 3683SOL     OW11947   5.753   2.321   1.779
 3683SOL    HW111948   5.664   2.321   1.733
 3683SOL    HW211949   5.742   2.288   1.872
 3684SOL     OW11950   2.367   6.490   5.419
 3684SOL    HW111951   2.408   6.436   5.346
 3684SOL    HW211952   2.268   6.474   5.421
 3685SOL     OW11953   1.483   6.387   2.806
 3685SOL    HW111954   1.433   6.378   2.720
 3685SOL    HW211955   1.466   6.307   2.863
 3686SOL     OW11956   1.540   5.392   0.939
 3686SOL    HW111957   1.493   5.362   0.856
 3686SOL    HW211958   1.492   5.356   1.019
 3687SOL     OW11959   6.726   4.685   4.078
 3687SOL    HW111960   6.662   4.742   4.130
 3687SOL    HW211961   6.770   4.740   4.007
 3688SOL     OW11962   0.372   2.096   1.430
 3688SOL    HW111963   0.469   2.075   1.418
 3688SOL    HW211964   0.330   2.109   1.340
 3689SOL     OW11965   3.232   2.415   5.556
 3689SOL    HW111966   3.289   2.457   5.626
 3689SOL    HW211967   3.227   2.475   5.476
 3690SOL     OW11968   6.959   5.531   2.448
 3690SOL    HW111969   0.029   5.555   2.416
 3690SOL    HW211970   6.950   5.555   2.545
 3691SOL     OW11971   3.166   1.764   6.691
 3691SOL    HW111972   3.193   1.700   6.619
 3691SOL    HW211973   3.121   1.715   6.765
 3692SOL     OW11974   1.249   2.816   5.622
 3692SOL    HW111975   1.257   2.757   5.703
 3692SOL    HW211976   1.167   2.791   5.570
 3693SOL     OW11977   1.213   1.186   3.105
 3693SOL    HW111978   1.196   1.114   3.173
 3693SOL    HW211979   1.311   1.194   3.088
 3694SOL     OW11980   6.909   5.530   2.029
 3694SOL    HW111981   6.859   5.568   2.107
 3694SOL    HW211982   6.945   5.440   2.054
 3695SOL     OW11983   5.941   3.556   4.586
 3695SOL    HW111984   5.885   3.572   4.505
 3695SOL    HW211985   5.909   3.615   4.660
 3696SOL     OW11986   4.116   6.854   4.343
 3696SOL    HW111987   4.094   6.920   4.414
 3696SOL    HW211988   4.137   6.902   4.258
 3697SOL     OW11989   0.042   5.073   2.721
 3697SOL    HW111990   7.019   5.161   2.705
 3697SOL    HW211991   0.101   5.050   2.643
 3698SOL     OW11992   1.215   0.207   3.247
 3698SOL    HW111993   1.242   0.246   3.336
 3698SOL    HW211994   1.148   0.266   3.204
 3699SOL     OW11995   2.975   1.301   2.968
 3699SOL    HW111996   2.987   1.246   2.885
 3699SOL    HW211997   3.064   1.319   3.009
 3700SOL     OW11998   1.308   5.070   4.771
 3700SOL    HW111999   1.245   5.032   4.839
 3700SOL    HW212000   1.340   4.998   4.710
 3701SOL     OW12001   6.911   0.424   2.203
 3701SOL    HW112002   6.916   0.504   2.264
 3701SOL    HW212003   6.927   0.341   2.255
 3702SOL     OW12004   6.811   4.662   3.525
 3702SOL    HW112005   6.825   4.759   3.507
 3702SOL    HW212006   6.828   4.610   3.442
 3703SOL     OW12007   1.723   1.859   3.584
 3703SOL    HW112008   1.624   1.874   3.582
 3703SOL    HW212009   1.754   1.861   3.679
 3704SOL     OW12010   6.291   6.779   0.736
 3704SOL    HW112011   6.248   6.727   0.663
 3704SOL    HW212012   6.222   6.806   0.803
 3705SOL     OW12013   0.012   4.039   3.881
 3705SOL    HW112014   0.081   3.971   3.855
 3705SOL    HW212015   6.945   4.012   3.844
 3706SOL     OW12016   0.303   6.711   6.143
 3706SOL    HW112017   0.227   6.649   6.166
 3706SOL    HW212018   0.266   6.801   6.122
 3707SOL     OW12019   5.931   4.345   3.646
 3707SOL    HW112020   5.904   4.394   3.729
 3707SOL    HW212021   6.013   4.387   3.608
 3708SOL     OW12022   0.990   5.624   0.569
 3708SOL    HW112023   1.056   5.667   0.631
 3708SOL    HW212024   0.906   5.679   0.566
 3709SOL     OW12025   0.566   1.416   1.434
 3709SOL    HW112026   0.469   1.407   1.411
 3709SOL    HW212027   0.612   1.469   1.362
 3710SOL     OW12028   1.850   3.565   5.226
 3710SOL    HW112029   1.911   3.641   5.248
 3710SOL    HW212030   1.896   3.478   5.245
 3711SOL     OW12031   0.919   4.743   5.773
 3711SOL    HW112032   0.830   4.778   5.802
 3711SOL    HW212033   0.991   4.794   5.820
 3712SOL     OW12034   4.163   4.756   3.385
 3712SOL    HW112035   4.223   4.832   3.362
 3712SOL    HW212036   4.205   4.701   3.457
 3713SOL     OW12037   5.784   1.290   6.443
 3713SOL    HW112038   5.878   1.308   6.413
 3713SOL    HW212039   5.783   1.210   6.503
 3714SOL     OW12040   0.405   4.837   0.558
 3714SOL    HW112041   0.314   4.837   0.517
 3714SOL    HW212042   0.429   4.931   0.585
 3715SOL     OW12043   5.420   4.564   2.009
 3715SOL    HW112044   5.386   4.590   2.100
 3715SOL    HW212045   5.386   4.629   1.941
 3716SOL     OW12046   5.407   5.398   5.159
 3716SOL    HW112047   5.350   5.345   5.222
 3716SOL    HW212048   5.389   5.369   5.065
 3717SOL     OW12049   4.092   6.918   1.256
 3717SOL    HW112050   4.161   6.930   1.184
 3717SOL    HW212051   4.128   6.856   1.326
 3718SOL     OW12052   4.906   6.107   6.334
 3718SOL    HW112053   4.899   6.024   6.388
 3718SOL    HW212054   4.979   6.097   6.266
 3719SOL     OW12055   2.762   3.698   0.453
 3719SOL    HW112056   2.855   3.717   0.422
 3719SOL    HW212057   2.721   3.781   0.491
 3720SOL     OW12058   0.511   1.942   0.376
 3720SOL    HW112059   0.580   1.986   0.319
 3720SOL    HW212060   0.553   1.865   0.425
 3721SOL     OW12061   6.740   0.101   5.681
 3721SOL    HW112062   6.654   0.137   5.717
 3721SOL    HW212063   6.770   0.025   5.738
 3722SOL     OW12064   4.506   6.365   1.567
 3722SOL    HW112065   4.518   6.441   1.503
 3722SOL    HW212066   4.454   6.397   1.646
 3723SOL     OW12067   4.021   4.098   6.500
 3723SOL    HW112068   3.949   4.056   6.445
 3723SOL    HW212069   4.085   4.028   6.530
 3724SOL     OW12070   5.807   4.065   4.675
 3724SOL    HW112071   5.734   4.085   4.740
 3724SOL    HW212072   5.889   4.115   4.702
 3725SOL     OW12073   0.104   6.114   1.470
 3725SOL    HW112074   0.196   6.119   1.508
 3725SOL    HW212075   0.089   6.023   1.431
 3726SOL     OW12076   6.213   3.575   5.263
 3726SOL    HW112077   6.187   3.483   5.234
 3726SOL    HW212078   6.247   3.572   5.357
 3727SOL     OW12079   6.102   1.662   4.236
 3727SOL    HW112080   6.018   1.681   4.186
 3727SOL    HW212081   6.173   1.631   4.172
 3728SOL     OW12082   1.790   4.256   0.301
 3728SOL    HW112083   1.825   4.170   0.262
 3728SOL    HW212084   1.698   4.241   0.338
 3729SOL     OW12085   0.009   6.903   5.907
 3729SOL    HW112086   6.934   6.922   5.886
 3729SOL    HW212087   0.066   6.972   5.863
 3730SOL     OW12088   5.898   4.230   5.012
 3730SOL    HW112089   5.936   4.206   4.923
 3730SOL    HW212090   5.871   4.147   5.061
 3731SOL     OW12091   5.924   1.555   2.384
 3731SOL    HW112092   5.875   1.557   2.297
 3731SOL    HW212093   5.862   1.577   2.458
 3732SOL     OW12094   4.387   2.184   6.956
 3732SOL    HW112095   4.366   2.196   6.859
 3732SOL    HW212096   4.484   2.161   6.966
 3733SOL     OW12097   2.266   1.473   3.276
 3733SOL    HW112098   2.267   1.540   3.350
 3733SOL    HW212099   2.274   1.521   3.188
 3734SOL     OW12100   4.897   1.574   2.111
 3734SOL    HW112101   4.804   1.540   2.093
 3734SOL    HW212102   4.893   1.653   2.172
 3735SOL     OW12103   3.605   1.142   2.652
 3735SOL    HW112104   3.547   1.221   2.669
 3735SOL    HW212105   3.679   1.167   2.590
 3736SOL     OW12106   0.929   1.092   6.422
 3736SOL    HW112107   0.982   1.018   6.381
 3736SOL    HW212108   0.961   1.107   6.516
 3737SOL     OW12109   5.254   1.766   4.308
 3737SOL    HW112110   5.182   1.801   4.367
 3737SOL    HW212111   5.224   1.680   4.267
 3738SOL     OW12112   0.286   0.979   0.873
 3738SOL    HW112113   0.195   0.950   0.843
 3738SOL    HW212114   0.343   0.998   0.793
 3739SOL     OW12115   3.322   6.290   0.084
 3739SOL    HW112116   3.265   6.233   0.143
 3739SOL    HW212117   3.279   6.300   7.016
 3740SOL     OW12118   6.947   0.153   6.559
 3740SOL    HW112119   0.001   0.218   6.551
 3740SOL    HW212120   6.945   0.094   6.478
 3741SOL     OW12121   5.436   4.476   0.592
 3741SOL    HW112122   5.457   4.394   0.644
 3741SOL    HW212123   5.499   4.550   0.619
 3742SOL     OW12124   4.793   5.206   1.388
 3742SOL    HW112125   4.713   5.247   1.431
 3742SOL    HW212126   4.786   5.215   1.289
 3743SOL     OW12127   2.604   3.975   1.651
 3743SOL    HW112128   2.574   4.068   1.673
 3743SOL    HW212129   2.675   3.978   1.581
 3744SOL     OW12130   6.619   5.340   2.377
 3744SOL    HW112131   6.556   5.390   2.319
 3744SOL    HW212132   6.670   5.273   2.322
 3745SOL     OW12133   6.272   1.002   3.163
 3745SOL    HW112134   6.363   1.029   3.194
 3745SOL    HW212135   6.222   0.961   3.239
 3746SOL     OW12136   5.414   6.960   5.472
 3746SOL    HW112137   5.482   6.892   5.447
 3746SOL    HW212138   5.431   6.990   5.566
 3747SOL     OW12139   2.104   4.599   5.546
 3747SOL    HW112140   2.153   4.640   5.623
 3747SOL    HW212141   2.169   4.555   5.484
 3748SOL     OW12142   5.096   1.300   2.987
 3748SOL    HW112143   5.155   1.318   2.909
 3748SOL    HW212144   5.101   1.376   3.052
 3749SOL     OW12145   5.859   5.427   1.085
 3749SOL    HW112146   5.833   5.510   1.135
 3749SOL    HW212147   5.829   5.433   0.990
 3750SOL     OW12148   7.002   4.611   1.428
 3750SOL    HW112149   6.998   4.515   1.457
 3750SOL    HW212150   0.024   4.665   1.499
 3751SOL     OW12151   1.940   4.328   0.997
 3751SOL    HW112152   1.909   4.308   0.904
 3751SOL    HW212153   1.879   4.395   1.039
 3752SOL     OW12154   1.204   6.912   6.495
 3752SOL    HW112155   1.257   6.994   6.516
 3752SOL    HW212156   1.112   6.939   6.466
 3753SOL     OW12157   0.659   1.807   5.231
 3753SOL    HW112158   0.632   1.721   5.187
 3753SOL    HW212159   0.755   1.804   5.256
 3754SOL     OW12160   6.912   6.916   1.152
 3754SOL    HW112161   6.882   6.839   1.096
 3754SOL    HW212162   6.873   6.908   1.244
 3755SOL     OW12163   4.669   2.437   3.103
 3755SOL    HW112164   4.658   2.403   3.009
 3755SOL    HW212165   4.657   2.362   3.168
 3756SOL     OW12166   3.409   0.120   0.590
 3756SOL    HW112167   3.394   0.101   0.686
 3756SOL    HW212168   3.401   0.036   0.537
 3757SOL     OW12169   2.894   3.727   6.027
 3757SOL    HW112170   2.853   3.691   5.943
 3757SOL    HW212171   2.839   3.698   6.106
 3758SOL     OW12172   0.724   1.200   1.290
 3758SOL    HW112173   0.664   1.209   1.212
 3758SOL    HW212174   0.673   1.218   1.374
 3759SOL     OW12175   5.727   4.310   1.056
 3759SOL    HW112176   5.732   4.350   0.964
 3759SOL    HW212177   5.685   4.375   1.119
 3760SOL     OW12178   2.026   1.458   6.286
 3760SOL    HW112179   1.995   1.417   6.201
 3760SOL    HW212180   1.963   1.435   6.360
 3761SOL     OW12181   6.683   6.611   4.231
 3761SOL    HW112182   6.682   6.710   4.243
 3761SOL    HW212183   6.614   6.569   4.291
 3762SOL     OW12184   0.373   3.965   1.319
 3762SOL    HW112185   0.374   3.865   1.315
 3762SOL    HW212186   0.337   3.994   1.408
 3763SOL     OW12187   0.729   2.344   5.139
 3763SOL    HW112188   0.709   2.433   5.096
 3763SOL    HW212189   0.665   2.276   5.104
 3764SOL     OW12190   1.954   0.981   2.834
 3764SOL    HW112191   1.959   1.021   2.925
 3764SOL    HW212192   2.046   0.966   2.799
 3765SOL     OW12193   6.332   1.508   3.534
 3765SOL    HW112194   6.396   1.431   3.531
 3765SOL    HW212195   6.351   1.570   3.458
 3766SOL     OW12196   2.200   0.827   4.601
 3766SOL    HW112197   2.120   0.869   4.642
 3766SOL    HW212198   2.200   0.729   4.621
 3767SOL     OW12199   6.281   4.559   1.492
 3767SOL    HW112200   6.304   4.653   1.466
 3767SOL    HW212201   6.350   4.497   1.457
 3768SOL     OW12202   4.171   6.345   1.150
 3768SOL    HW112203   4.191   6.272   1.085
 3768SOL    HW212204   4.155   6.304   1.241
 3769SOL     OW12205   3.951   6.397   4.509
 3769SOL    HW112206   3.872   6.444   4.548
 3769SOL    HW212207   4.035   6.441   4.538
 3770SOL     OW12208   1.120   3.236   0.815
 3770SOL    HW112209   1.062   3.310   0.849
 3770SOL    HW212210   1.200   3.275   0.770
 3771SOL     OW12211   5.099   1.708   5.244
 3771SOL    HW112212   5.097   1.737   5.340
 3771SOL    HW212213   5.006   1.686   5.214
 3772SOL     OW12214   4.862   1.545   2.441
 3772SOL    HW112215   4.847   1.452   2.405
 3772SOL    HW212216   4.827   1.550   2.535
 3773SOL     OW12217   6.037   2.818   1.481
 3773SOL    HW112218   6.029   2.758   1.561
 3773SOL    HW212219   6.085   2.769   1.408
 3774SOL     OW12220   1.991   0.718   1.681
 3774SOL    HW112221   1.971   0.809   1.718
 3774SOL    HW212222   2.037   0.727   1.592
 3775SOL     OW12223   5.305   3.022   3.618
 3775SOL    HW112224   5.291   3.120   3.607
 3775SOL    HW212225   5.375   2.991   3.552
 3776SOL     OW12226   3.110   2.349   0.308
 3776SOL    HW112227   3.117   2.281   0.235
 3776SOL    HW212228   3.156   2.315   0.390
 3777SOL     OW12229   1.599   4.059   3.516
 3777SOL    HW112230   1.537   3.983   3.533
 3777SOL    HW212231   1.635   4.094   3.603
 3778SOL     OW12232   1.873   0.277   1.121
 3778SOL    HW112233   1.969   0.298   1.104
 3778SOL    HW212234   1.842   0.329   1.201
 3779SOL     OW12235   1.923   3.765   0.120
 3779SOL    HW112236   1.887   3.738   0.031
 3779SOL    HW212237   1.867   3.725   0.192
 3780SOL     OW12238   2.511   0.307   4.225
 3780SOL    HW112239   2.536   0.348   4.313
 3780SOL    HW212240   2.553   0.217   4.218
 3781SOL     OW12241   3.609   4.912   4.937
 3781SOL    HW112242   3.555   4.854   4.998
 3781SOL    HW212243   3.689   4.946   4.986
 3782SOL     OW12244   2.835   0.495   2.371
 3782SOL    HW112245   2.756   0.486   2.432
 3782SOL    HW212246   2.820   0.571   2.308
 3783SOL     OW12247   5.203   4.447   5.685
 3783SOL    HW112248   5.212   4.508   5.607
 3783SOL    HW212249   5.293   4.431   5.726
 3784SOL     OW12250   5.354   2.841   4.690
 3784SOL    HW112251   5.336   2.743   4.680
 3784SOL    HW212252   5.364   2.882   4.599
 3785SOL     OW12253   0.038   0.248   1.395
 3785SOL    HW112254   0.060   0.181   1.324
 3785SOL    HW212255   0.121   0.297   1.421
 3786SOL     OW12256   2.649   5.973   1.573
 3786SOL    HW112257   2.575   6.031   1.606
 3786SOL    HW212258   2.722   5.970   1.641
 3787SOL     OW12259   3.676   1.478   3.496
 3787SOL    HW112260   3.746   1.433   3.552
 3787SOL    HW212261   3.697   1.466   3.399
 3788SOL     OW12262   6.918   3.129   2.945
 3788SOL    HW112263   6.978   3.209   2.955
 3788SOL    HW212264   6.911   3.082   3.033
 3789SOL     OW12265   1.845   4.927   2.184
 3789SOL    HW112266   1.896   4.902   2.266
 3789SOL    HW212267   1.902   4.910   2.103
 3790SOL     OW12268   2.168   3.549   2.738
 3790SOL    HW112269   2.155   3.632   2.792
 3790SOL    HW212270   2.196   3.573   2.645
 3791SOL     OW12271   6.538   0.649   1.916
 3791SOL    HW112272   6.619   0.591   1.912
 3791SOL    HW212273   6.557   0.730   1.970
 3792SOL     OW12274   1.178   5.661   6.028
 3792SOL    HW112275   1.097   5.658   5.969
 3792SOL    HW212276   1.173   5.742   6.087
 3793SOL     OW12277   6.311   6.080   2.542
 3793SOL    HW112278   6.295   5.988   2.505
 3793SOL    HW212279   6.344   6.140   2.469
 3794SOL     OW12280   4.414   0.368   4.877
 3794SOL    HW112281   4.458   0.435   4.936
 3794SOL    HW212282   4.341   0.413   4.825
 3795SOL     OW12283   5.506   0.774   0.477
 3795SOL    HW112284   5.534   0.722   0.396
 3795SOL    HW212285   5.421   0.736   0.513
 3796SOL     OW12286   0.328   1.847   1.588
 3796SOL    HW112287   0.407   1.798   1.625
 3796SOL    HW212288   0.354   1.892   1.502
 3797SOL     OW12289   6.436   6.204   2.312
 3797SOL    HW112290   6.398   6.211   2.220
 3797SOL    HW212291   6.519   6.148   2.309
 3798SOL     OW12292   1.584   4.737   6.778
 3798SOL    HW112293   1.652   4.708   6.845
 3798SOL    HW212294   1.622   4.810   6.721
 3799SOL     OW12295   0.840   0.566   5.497
 3799SOL    HW112296   0.818   0.530   5.407
 3799SOL    HW212297   0.782   0.645   5.517
 3800SOL     OW12298   4.580   2.660   5.148
 3800SOL    HW112299   4.490   2.639   5.186
 3800SOL    HW212300   4.596   2.759   5.153
 3801SOL     OW12301   0.009   0.754   5.681
 3801SOL    HW112302   6.933   0.737   5.695
 3801SOL    HW212303   0.022   0.804   5.595
 3802SOL     OW12304   1.824   2.381   4.798
 3802SOL    HW112305   1.837   2.374   4.699
 3802SOL    HW212306   1.912   2.381   4.844
 3803SOL     OW12307   5.026   1.413   1.251
 3803SOL    HW112308   4.952   1.479   1.260
 3803SOL    HW212309   5.036   1.361   1.335
 3804SOL     OW12310   4.769   4.071   5.100
 3804SOL    HW112311   4.845   4.020   5.060
 3804SOL    HW212312   4.805   4.145   5.157
 3805SOL     OW12313   2.300   2.768   1.578
 3805SOL    HW112314   2.392   2.802   1.597
 3805SOL    HW212315   2.264   2.813   1.496
 3806SOL     OW12316   4.448   0.369   1.073
 3806SOL    HW112317   4.454   0.318   1.158
 3806SOL    HW212318   4.455   0.306   0.996
 3807SOL     OW12319   1.279   0.029   3.056
 3807SOL    HW112320   1.233   0.099   3.111
 3807SOL    HW212321   1.371   0.060   3.033
 3808SOL     OW12322   3.750   0.773   0.817
 3808SOL    HW112323   3.771   0.844   0.750
 3808SOL    HW212324   3.757   0.683   0.775
 3809SOL     OW12325   3.662   0.680   0.448
 3809SOL    HW112326   3.680   0.651   0.542
 3809SOL    HW212327   3.715   0.763   0.429
 3810SOL     OW12328   0.968   3.459   6.680
 3810SOL    HW112329   1.041   3.395   6.657
 3810SOL    HW212330   0.956   3.525   6.606
 3811SOL     OW12331   6.743   0.832   5.297
 3811SOL    HW112332   6.754   0.750   5.241
 3811SOL    HW212333   6.679   0.895   5.252
 3812SOL     OW12334   4.126   0.029   5.962
 3812SOL    HW112335   4.127   7.002   5.875
 3812SOL    HW212336   4.032   0.054   5.985
 3813SOL     OW12337   3.627   4.974   1.768
 3813SOL    HW112338   3.637   4.954   1.866
 3813SOL    HW212339   3.611   4.888   1.719
 3814SOL     OW12340   1.255   0.129   1.136
 3814SOL    HW112341   1.311   0.056   1.174
 3814SOL    HW212342   1.313   0.189   1.080
 3815SOL     OW12343   4.855   2.229   2.146
 3815SOL    HW112344   4.798   2.216   2.227
 3815SOL    HW212345   4.801   2.214   2.064
 3816SOL     OW12346   7.007   6.046   0.810
 3816SOL    HW112347   0.072   5.997   0.816
 3816SOL    HW212348   0.003   6.143   0.796
 3817SOL     OW12349   5.482   1.844   5.139
 3817SOL    HW112350   5.567   1.845   5.087
 3817SOL    HW212351   5.418   1.909   5.098
 3818SOL     OW12352   3.624   0.442   2.787
 3818SOL    HW112353   3.539   0.455   2.837
 3818SOL    HW212354   3.686   0.385   2.841
 3819SOL     OW12355   5.690   3.434   6.305
 3819SOL    HW112356   5.601   3.389   6.315
 3819SOL    HW212357   5.757   3.389   6.364
 3820SOL     OW12358   4.177   6.597   3.541
 3820SOL    HW112359   4.178   6.557   3.632
 3820SOL    HW212360   4.258   6.656   3.530
 3821SOL     OW12361   1.515   4.203   1.746
 3821SOL    HW112362   1.421   4.208   1.712
 3821SOL    HW212363   1.569   4.144   1.687
 3822SOL     OW12364   0.514   3.284   1.583
 3822SOL    HW112365   0.497   3.186   1.589
 3822SOL    HW212366   0.428   3.333   1.566
 3823SOL     OW12367   1.811   3.577   4.945
 3823SOL    HW112368   1.825   3.579   5.044
 3823SOL    HW212369   1.880   3.519   4.903
 3824SOL     OW12370   0.300   3.168   6.102
 3824SOL    HW112371   0.215   3.188   6.052
 3824SOL    HW212372   0.333   3.077   6.078
 3825SOL     OW12373   0.715   5.946   6.643
 3825SOL    HW112374   0.755   5.946   6.552
 3825SOL    HW212375   0.780   5.987   6.708
 3826SOL     OW12376   0.029   1.082   1.366
 3826SOL    HW112377   7.003   1.153   1.419
 3826SOL    HW212378   7.019   1.085   1.272
 3827SOL     OW12379   4.613   1.465   1.791
 3827SOL    HW112380   4.703   1.474   1.748
 3827SOL    HW212381   4.552   1.536   1.755
 3828SOL     OW12382   3.795   1.554   0.754
 3828SOL    HW112383   3.734   1.570   0.833
 3828SOL    HW212384   3.862   1.628   0.749
 3829SOL     OW12385   0.628   5.251   3.578
 3829SOL    HW112386   0.639   5.234   3.676
 3829SOL    HW212387   0.671   5.339   3.555
 3830SOL     OW12388   1.849   7.017   5.881
 3830SOL    HW112389   1.849   0.082   5.830
 3830SOL    HW212390   1.812   6.944   5.823
 3831SOL     OW12391   4.677   2.408   2.503
 3831SOL    HW112392   4.754   2.446   2.451
 3831SOL    HW212393   4.710   2.337   2.565
 3832SOL     OW12394   6.162   6.824   2.598
 3832SOL    HW112395   6.208   6.856   2.680
 3832SOL    HW212396   6.118   6.901   2.551
 3833SOL     OW12397   1.058   6.273   1.873
 3833SOL    HW112398   1.036   6.369   1.894
 3833SOL    HW212399   1.153   6.255   1.900
 3834SOL     OW12400   2.927   2.051   0.148
 3834SOL    HW112401   2.843   2.084   0.106
 3834SOL    HW212402   2.913   2.044   0.247
 3835SOL     OW12403   4.098   4.759   3.032
 3835SOL    HW112404   4.127   4.732   2.941
 3835SOL    HW212405   3.998   4.764   3.036
 3836SOL     OW12406   2.166   2.757   6.556
 3836SOL    HW112407   2.246   2.717   6.602
 3836SOL    HW212408   2.085   2.745   6.614
 3837SOL     OW12409   3.702   4.501   6.715
 3837SOL    HW112410   3.714   4.455   6.627
 3837SOL    HW212411   3.752   4.450   6.786
 3838SOL     OW12412   0.466   3.849   5.337
 3838SOL    HW112413   0.377   3.875   5.374
 3838SOL    HW212414   0.538   3.882   5.397
 3839SOL     OW12415   0.159   6.591   6.682
 3839SOL    HW112416   0.134   6.687   6.677
 3839SOL    HW212417   0.086   6.535   6.643
 3840SOL     OW12418   3.814   1.699   3.262
 3840SOL    HW112419   3.793   1.795   3.281
 3840SOL    HW212420   3.729   1.650   3.243
 3841SOL     OW12421   1.450   3.076   3.834
 3841SOL    HW112422   1.365   3.122   3.809
 3841SOL    HW212423   1.431   2.979   3.854
 3842SOL     OW12424   1.306   5.382   0.167
 3842SOL    HW112425   1.371   5.417   0.234
 3842SOL    HW212426   1.312   5.282   0.163
 3843SOL     OW12427   6.835   4.843   0.278
 3843SOL    HW112428   6.809   4.933   0.242
 3843SOL    HW212429   6.803   4.772   0.215
 3844SOL     OW12430   2.521   4.160   5.929
 3844SOL    HW112431   2.547   4.087   5.991
 3844SOL    HW212432   2.452   4.127   5.864
 3845SOL     OW12433   3.356   3.929   5.056
 3845SOL    HW112434   3.440   3.976   5.083
 3845SOL    HW212435   3.367   3.830   5.069
 3846SOL     OW12436   0.039   4.336   3.890
 3846SOL    HW112437   0.042   4.237   3.871
 3846SOL    HW212438   0.106   4.358   3.960
 3847SOL     OW12439   1.078   6.606   1.222
 3847SOL    HW112440   1.038   6.536   1.163
 3847SOL    HW212441   1.019   6.687   1.223
 3848SOL     OW12442   2.304   5.839   2.073
 3848SOL    HW112443   2.265   5.747   2.068
 3848SOL    HW212444   2.340   5.865   1.984
 3849SOL     OW12445   2.450   0.985   4.548
 3849SOL    HW112446   2.476   1.054   4.615
 3849SOL    HW212447   2.360   0.947   4.572
 3850SOL     OW12448   1.858   2.518   1.947
 3850SOL    HW112449   1.807   2.566   2.018
 3850SOL    HW212450   1.956   2.536   1.957
 3851SOL     OW12451   2.320   2.845   0.128
 3851SOL    HW112452   2.375   2.859   0.046
 3851SOL    HW212453   2.250   2.776   0.109
 3852SOL     OW12454   4.517   1.005   5.739
 3852SOL    HW112455   4.454   1.059   5.684
 3852SOL    HW212456   4.538   0.920   5.692
 3853SOL     OW12457   0.161   3.191   1.831
 3853SOL    HW112458   0.121   3.263   1.774
 3853SOL    HW212459   0.090   3.126   1.858
 3854SOL     OW12460   1.466   4.094   4.245
 3854SOL    HW112461   1.430   4.034   4.317
 3854SOL    HW212462   1.498   4.039   4.168
 3855SOL     OW12463   6.664   2.391   5.299
 3855SOL    HW112464   6.567   2.412   5.316
 3855SOL    HW212465   6.719   2.426   5.374
 3856SOL     OW12466   1.049   6.503   5.620
 3856SOL    HW112467   1.018   6.567   5.550
 3856SOL    HW212468   1.054   6.411   5.581
 3857SOL     OW12469   6.972   0.518   6.392
 3857SOL    HW112470   6.905   0.464   6.342
 3857SOL    HW212471   0.010   0.458   6.445
 3858SOL     OW12472   3.395   5.375   6.765
 3858SOL    HW112473   3.352   5.452   6.813
 3858SOL    HW212474   3.494   5.392   6.756
 3859SOL     OW12475   0.906   2.310   2.820
 3859SOL    HW112476   0.970   2.234   2.829
 3859SOL    HW212477   0.921   2.357   2.734
 3860SOL     OW12478   2.564   6.014   4.173
 3860SOL    HW112479   2.466   6.013   4.150
 3860SOL    HW212480   2.608   5.933   4.134
 3861SOL     OW12481   3.733   3.990   0.246
 3861SOL    HW112482   3.648   3.954   0.209
 3861SOL    HW212483   3.736   3.977   0.345
 3862SOL     OW12484   0.339   6.508   5.364
 3862SOL    HW112485   0.273   6.433   5.374
 3862SOL    HW212486   0.360   6.522   5.267
 3863SOL     OW12487   2.255   3.135   0.724
 3863SOL    HW112488   2.304   3.197   0.662
 3863SOL    HW212489   2.202   3.189   0.789
 3864SOL     OW12490   3.694   1.754   1.890
 3864SOL    HW112491   3.598   1.759   1.920
 3864SOL    HW212492   3.707   1.813   1.811
 3865SOL     OW12493   4.865   1.095   1.926
 3865SOL    HW112494   4.770   1.121   1.944
 3865SOL    HW212495   4.898   1.143   1.845
 3866SOL     OW12496   4.600   6.670   5.956
 3866SOL    HW112497   4.501   6.678   5.967
 3866SOL    HW212498   4.635   6.602   6.019
 3867SOL     OW12499   2.563   5.407   2.869
 3867SOL    HW112500   2.543   5.310   2.858
 3867SOL    HW212501   2.553   5.433   2.966
 3868SOL     OW12502   2.686   5.085   2.268
 3868SOL    HW112503   2.737   5.008   2.231
 3868SOL    HW212504   2.749   5.158   2.294
 3869SOL     OW12505   1.948   1.735   3.100
 3869SOL    HW112506   2.011   1.656   3.096
 3869SOL    HW212507   1.922   1.752   3.195
 3870SOL     OW12508   3.823   3.494   0.490
 3870SOL    HW112509   3.900   3.557   0.498
 3870SOL    HW212510   3.857   3.401   0.478
 3871SOL     OW12511   2.250   0.348   4.823
 3871SOL    HW112512   2.222   0.255   4.847
 3871SOL    HW212513   2.185   0.414   4.861
 3872SOL     OW12514   4.439   4.115   6.611
 3872SOL    HW112515   4.478   4.052   6.544
 3872SOL    HW212516   4.402   4.063   6.688
 3873SOL     OW12517   6.286   5.236   2.043
 3873SOL    HW112518   6.343   5.190   1.974
 3873SOL    HW212519   6.257   5.170   2.112
 3874SOL     OW12520   5.791   6.149   5.213
 3874SOL    HW112521   5.778   6.232   5.268
 3874SOL    HW212522   5.706   6.127   5.165
 3875SOL     OW12523   3.244   3.274   0.574
 3875SOL    HW112524   3.234   3.189   0.625
 3875SOL    HW212525   3.340   3.289   0.553
 3876SOL     OW12526   5.084   4.719   3.024
 3876SOL    HW112527   5.003   4.705   3.082
 3876SOL    HW212528   5.074   4.666   2.940
 3877SOL     OW12529   4.840   2.562   2.343
 3877SOL    HW112530   4.926   2.531   2.303
 3877SOL    HW212531   4.811   2.646   2.297
 3878SOL     OW12532   6.262   4.900   4.734
 3878SOL    HW112533   6.195   4.962   4.776
 3878SOL    HW212534   6.219   4.811   4.717
 3879SOL     OW12535   2.091   6.808   0.763
 3879SOL    HW112536   2.053   6.799   0.855
 3879SOL    HW212537   2.041   6.749   0.700
 3880SOL     OW12538   5.758   1.873   4.313
 3880SOL    HW112539   5.667   1.835   4.298
 3880SOL    HW212540   5.752   1.971   4.330
 3881SOL     OW12541   0.249   6.713   5.545
 3881SOL    HW112542   0.292   6.634   5.502
 3881SOL    HW212543   0.186   6.683   5.616
 3882SOL     OW12544   0.151   5.354   0.761
 3882SOL    HW112545   0.080   5.287   0.783
 3882SOL    HW212546   0.153   5.424   0.832
 3883SOL     OW12547   4.076   2.108   1.062
 3883SOL    HW112548   4.139   2.180   1.090
 3883SOL    HW212549   4.017   2.083   1.138
 3884SOL     OW12550   3.028   6.390   6.209
 3884SOL    HW112551   3.122   6.356   6.203
 3884SOL    HW212552   3.026   6.473   6.266
 3885SOL     OW12553   1.130   1.489   4.107
 3885SOL    HW112554   1.072   1.415   4.142
 3885SOL    HW212555   1.098   1.576   4.144
 3886SOL     OW12556   6.473   5.662   4.256
 3886SOL    HW112557   6.503   5.744   4.207
 3886SOL    HW212558   6.541   5.589   4.243
 3887SOL     OW12559   0.521   2.653   4.811
 3887SOL    HW112560   0.474   2.739   4.791
 3887SOL    HW212561   0.532   2.600   4.726
 3888SOL     OW12562   4.661   2.007   3.088
 3888SOL    HW112563   4.592   2.043   3.026
 3888SOL    HW212564   4.645   1.909   3.102
 3889SOL     OW12565   6.050   5.277   0.316
 3889SOL    HW112566   5.952   5.289   0.332
 3889SOL    HW212567   6.076   5.182   0.337
 3890SOL     OW12568   5.578   2.938   3.814
 3890SOL    HW112569   5.641   2.872   3.854
 3890SOL    HW212570   5.512   2.967   3.884
 3891SOL     OW12571   3.223   4.660   6.402
 3891SOL    HW112572   3.268   4.667   6.491
 3891SOL    HW212573   3.222   4.750   6.358
 3892SOL     OW12574   5.193   5.777   4.376
 3892SOL    HW112575   5.116   5.749   4.319
 3892SOL    HW212576   5.245   5.849   4.330
 3893SOL     OW12577   3.024   6.381   4.948
 3893SOL    HW112578   2.968   6.394   5.030
 3893SOL    HW212579   2.978   6.319   4.885
 3894SOL     OW12580   5.791   4.824   6.485
 3894SOL    HW112581   5.695   4.805   6.504
 3894SOL    HW212582   5.828   4.752   6.426
 3895SOL     OW12583   1.654   1.772   4.902
 3895SOL    HW112584   1.596   1.725   4.967
 3895SOL    HW212585   1.598   1.806   4.826
 3896SOL     OW12586   6.244   3.357   1.638
 3896SOL    HW112587   6.204   3.270   1.664
 3896SOL    HW212588   6.301   3.392   1.713
 3897SOL     OW12589   2.602   0.385   3.007
 3897SOL    HW112590   2.699   0.389   2.984
 3897SOL    HW212591   2.551   0.451   2.953
 3898SOL     OW12592   3.585   4.062   2.488
 3898SOL    HW112593   3.491   4.068   2.523
 3898SOL    HW212594   3.649   4.063   2.565
 3899SOL     OW12595   3.833   0.961   6.591
 3899SOL    HW112596   3.843   0.862   6.581
 3899SOL    HW212597   3.876   1.007   6.513
 3900SOL     OW12598   1.434   1.557   3.725
 3900SOL    HW112599   1.451   1.643   3.678
 3900SOL    HW212600   1.349   1.564   3.778
 3901SOL     OW12601   4.007   6.587   4.272
 3901SOL    HW112602   4.005   6.518   4.344
 3901SOL    HW212603   4.037   6.675   4.310
 3902SOL     OW12604   3.346   4.888   3.312
 3902SOL    HW112605   3.440   4.916   3.333
 3902SOL    HW212606   3.346   4.829   3.231
 3903SOL     OW12607   2.807   3.968   5.856
 3903SOL    HW112608   2.717   3.939   5.823
 3903SOL    HW212609   2.852   3.891   5.901
 3904SOL     OW12610   1.928   5.825   0.519
 3904SOL    HW112611   2.011   5.858   0.474
 3904SOL    HW212612   1.923   5.862   0.612
 3905SOL     OW12613   4.719   6.612   4.969
 3905SOL    HW112614   4.777   6.544   4.924
 3905SOL    HW212615   4.627   6.575   4.981
 3906SOL     OW12616   6.622   5.401   4.168
 3906SOL    HW112617   6.571   5.315   4.178
 3906SOL    HW212618   6.700   5.401   4.230
 3907SOL     OW12619   1.795   0.616   4.598
 3907SOL    HW112620   1.869   0.630   4.532
 3907SOL    HW212621   1.761   0.522   4.590
 3908SOL     OW12622   2.597   1.923   4.657
 3908SOL    HW112623   2.561   1.832   4.636
 3908SOL    HW212624   2.624   1.927   4.753
 3909SOL     OW12625   6.612   3.181   2.955
 3909SOL    HW112626   6.709   3.179   2.931
 3909SOL    HW212627   6.558   3.197   2.873
 3910SOL     OW12628   1.730   2.168   6.857
 3910SOL    HW112629   1.736   2.091   6.921
 3910SOL    HW212630   1.813   2.223   6.863
 3911SOL     OW12631   6.257   0.921   1.980
 3911SOL    HW112632   6.227   0.906   2.074
 3911SOL    HW212633   6.214   1.003   1.944
 3912SOL     OW12634   4.918   4.345   0.553
 3912SOL    HW112635   4.926   4.323   0.456
 3912SOL    HW212636   5.005   4.381   0.587
 3913SOL     OW12637   3.952   4.278   0.478
 3913SOL    HW112638   3.943   4.354   0.542
 3913SOL    HW212639   3.880   4.285   0.408
 3914SOL     OW12640   0.418   1.013   0.618
 3914SOL    HW112641   0.419   1.113   0.610
 3914SOL    HW212642   0.498   0.976   0.571
 3915SOL     OW12643   5.146   0.175   4.077
 3915SOL    HW112644   5.049   0.165   4.099
 3915SOL    HW212645   5.200   0.126   4.146
 3916SOL     OW12646   1.543   2.713   2.101
 3916SOL    HW112647   1.553   2.779   2.175
 3916SOL    HW212648   1.590   2.628   2.126
 3917SOL     OW12649   2.692   5.565   1.598
 3917SOL    HW112650   2.709   5.621   1.679
 3917SOL    HW212651   2.606   5.516   1.609
 3918SOL     OW12652   3.961   6.762   6.443
 3918SOL    HW112653   4.048   6.781   6.489
 3918SOL    HW212654   3.916   6.848   6.420
 3919SOL     OW12655   4.486   4.866   3.476
 3919SOL    HW112656   4.425   4.804   3.524
 3919SOL    HW212657   4.573   4.871   3.526
 3920SOL     OW12658   4.706   6.866   5.613
 3920SOL    HW112659   4.694   6.767   5.618
 3920SOL    HW212660   4.804   6.887   5.613
 3921SOL     OW12661   1.494   4.316   5.601
 3921SOL    HW112662   1.402   4.279   5.609
 3921SOL    HW212663   1.518   4.366   5.684
 3922SOL     OW12664   5.448   1.311   3.445
 3922SOL    HW112665   5.494   1.313   3.356
 3922SOL    HW212666   5.470   1.225   3.492
 3923SOL     OW12667   5.588   1.511   1.473
 3923SOL    HW112668   5.654   1.580   1.446
 3923SOL    HW212669   5.503   1.525   1.422
 3924SOL     OW12670   5.674   4.833   3.931
 3924SOL    HW112671   5.635   4.820   3.839
 3924SOL    HW212672   5.758   4.779   3.939
 3925SOL     OW12673   3.580   4.781   1.595
 3925SOL    HW112674   3.539   4.713   1.656
 3925SOL    HW212675   3.552   4.762   1.501
 3926SOL     OW12676   0.964   6.060   5.066
 3926SOL    HW112677   0.989   5.985   5.127
 3926SOL    HW212678   0.894   6.029   5.002
 3927SOL     OW12679   6.616   6.038   5.516
 3927SOL    HW112680   6.656   5.993   5.596
 3927SOL    HW212681   6.537   6.093   5.545
 3928SOL     OW12682   4.292   5.447   1.897
 3928SOL    HW112683   4.303   5.359   1.944
 3928SOL    HW212684   4.208   5.491   1.929
 3929SOL     OW12685   1.898   0.705   5.099
 3929SOL    HW112686   1.904   0.742   5.192
 3929SOL    HW212687   1.804   0.677   5.080
 3930SOL     OW12688   1.721   5.329   4.820
 3930SOL    HW112689   1.773   5.373   4.894
 3930SOL    HW212690   1.683   5.243   4.853
 3931SOL     OW12691   7.004   2.300   0.565
 3931SOL    HW112692   0.048   2.341   0.502
 3931SOL    HW212693   0.019   2.302   0.658
 3932SOL     OW12694   1.878   4.595   2.934
 3932SOL    HW112695   1.914   4.684   2.906
 3932SOL    HW212696   1.950   4.527   2.929
 3933SOL     OW12697   0.724   7.019   1.318
 3933SOL    HW112698   0.701   0.082   1.269
 3933SOL    HW212699   0.643   6.984   1.365
 3934SOL     OW12700   0.534   6.806   1.865
 3934SOL    HW112701   0.535   6.817   1.766
 3934SOL    HW212702   0.557   6.893   1.909
 3935SOL     OW12703   6.928   1.397   5.076
 3935SOL    HW112704   6.946   1.412   5.173
 3935SOL    HW212705   6.886   1.478   5.037
 3936SOL     OW12706   6.126   4.462   4.419
 3936SOL    HW112707   6.030   4.441   4.441
 3936SOL    HW212708   6.177   4.376   4.409
 3937SOL     OW12709   1.687   5.848   6.870
 3937SOL    HW112710   1.706   5.939   6.833
 3937SOL    HW212711   1.648   5.856   6.961
 3938SOL     OW12712   0.956   4.260   6.720
 3938SOL    HW112713   0.902   4.296   6.644
 3938SOL    HW212714   1.049   4.297   6.716
 3939SOL     OW12715   1.635   5.544   4.352
 3939SOL    HW112716   1.601   5.604   4.280
 3939SOL    HW212717   1.640   5.450   4.317
 3940SOL     OW12718   2.538   6.487   6.798
 3940SOL    HW112719   2.460   6.487   6.736
 3940SOL    HW212720   2.531   6.565   6.860
 3941SOL     OW12721   6.047   4.813   3.030
 3941SOL    HW112722   5.973   4.873   3.061
 3941SOL    HW212723   6.087   4.765   3.108
 3942SOL     OW12724   0.606   0.233   0.246
 3942SOL    HW112725   0.649   0.217   0.157
 3942SOL    HW212726   0.544   0.158   0.268
 3943SOL     OW12727   0.883   4.681   1.187
 3943SOL    HW112728   0.862   4.622   1.110
 3943SOL    HW212729   0.949   4.751   1.158
 3944SOL     OW12730   6.134   2.975   0.716
 3944SOL    HW112731   6.152   3.033   0.796
 3944SOL    HW212732   6.035   2.969   0.700
 3945SOL     OW12733   0.799   0.529   3.093
 3945SOL    HW112734   0.838   0.512   3.002
 3945SOL    HW212735   0.702   0.505   3.093
 3946SOL     OW12736   4.491   1.543   1.070
 3946SOL    HW112737   4.520   1.559   0.976
 3946SOL    HW212738   4.455   1.450   1.078
 3947SOL     OW12739   5.446   0.840   1.020
 3947SOL    HW112740   5.457   0.749   1.060
 3947SOL    HW212741   5.457   0.834   0.921
 3948SOL     OW12742   2.008   1.380   3.332
 3948SOL    HW112743   1.956   1.357   3.250
 3948SOL    HW212744   2.103   1.401   3.306
 3949SOL     OW12745   5.809   6.759   2.160
 3949SOL    HW112746   5.816   6.858   2.145
 3949SOL    HW212747   5.897   6.724   2.191
 3950SOL     OW12748   2.637   4.806   1.569
 3950SOL    HW112749   2.615   4.835   1.662
 3950SOL    HW212750   2.674   4.713   1.571
 3951SOL     OW12751   0.107   3.625   2.971
 3951SOL    HW112752   0.085   3.673   3.055
 3951SOL    HW212753   0.205   3.607   2.968
 3952SOL     OW12754   5.778   5.556   6.828
 3952SOL    HW112755   5.724   5.534   6.747
 3952SOL    HW212756   5.872   5.524   6.814
 3953SOL     OW12757   3.551   3.250   4.821
 3953SOL    HW112758   3.554   3.167   4.765
 3953SOL    HW212759   3.498   3.233   4.904
 3954SOL     OW12760   0.831   5.706   6.741
 3954SOL    HW112761   0.787   5.789   6.707
 3954SOL    HW212762   0.806   5.629   6.683
 3955SOL     OW12763   6.163   3.407   0.477
 3955SOL    HW112764   6.221   3.452   0.546
 3955SOL    HW212765   6.186   3.310   0.473
 3956SOL     OW12766   6.971   3.675   4.419
 3956SOL    HW112767   6.970   3.775   4.419
 3956SOL    HW212768   6.924   3.642   4.501
 3957SOL     OW12769   1.696   2.410   1.477
 3957SOL    HW112770   1.643   2.468   1.539
 3957SOL    HW212771   1.755   2.468   1.421
 3958SOL     OW12772   4.672   4.678   0.938
 3958SOL    HW112773   4.657   4.726   0.851
 3958SOL    HW212774   4.770   4.671   0.957
 3959SOL     OW12775   1.948   5.357   6.810
 3959SOL    HW112776   2.006   5.425   6.765
 3959SOL    HW212777   2.006   5.294   6.863
 3960SOL     OW12778   5.647   3.455   1.779
 3960SOL    HW112779   5.657   3.364   1.738
 3960SOL    HW212780   5.590   3.449   1.861
 3961SOL     OW12781   0.567   1.696   2.357
 3961SOL    HW112782   0.527   1.766   2.416
 3961SOL    HW212783   0.665   1.711   2.349
 3962SOL     OW12784   0.166   0.096   0.147
 3962SOL    HW112785   0.223   0.173   0.176
 3962SOL    HW212786   0.085   0.131   0.098
 3963SOL     OW12787   5.954   2.955   4.506
 3963SOL    HW112788   5.920   3.049   4.500
 3963SOL    HW212789   5.925   2.915   4.593
 3964SOL     OW12790   6.264   4.579   6.593
 3964SOL    HW112791   6.286   4.559   6.498
 3964SOL    HW212792   6.190   4.646   6.597
 3965SOL     OW12793   2.630   4.822   1.868
 3965SOL    HW112794   2.664   4.915   1.883
 3965SOL    HW212795   2.665   4.761   1.940
 3966SOL     OW12796   0.131   4.540   5.626
 3966SOL    HW112797   0.053   4.535   5.689
 3966SOL    HW212798   0.118   4.474   5.552
 3967SOL     OW12799   2.968   0.535   0.965
 3967SOL    HW112800   2.981   0.596   0.887
 3967SOL    HW212801   3.048   0.540   1.025
 3968SOL     OW12802   5.153   2.261   0.413
 3968SOL    HW112803   5.082   2.235   0.348
 3968SOL    HW212804   5.196   2.346   0.383
 3969SOL     OW12805   6.342   6.913   1.432
 3969SOL    HW112806   6.248   6.942   1.446
 3969SOL    HW212807   6.393   6.922   1.518
 3970SOL     OW12808   5.595   3.668   3.396
 3970SOL    HW112809   5.670   3.732   3.412
 3970SOL    HW212810   5.542   3.698   3.316
 3971SOL     OW12811   6.882   5.485   3.658
 3971SOL    HW112812   6.894   5.570   3.710
 3971SOL    HW212813   6.786   5.460   3.657
 3972SOL     OW12814   0.679   1.573   6.614
 3972SOL    HW112815   0.687   1.482   6.575
 3972SOL    HW212816   0.748   1.633   6.573
 3973SOL     OW12817   3.881   2.926   1.134
 3973SOL    HW112818   3.865   3.019   1.167
 3973SOL    HW212819   3.805   2.898   1.076
 3974SOL     OW12820   5.865   0.517   6.296
 3974SOL    HW112821   5.910   0.469   6.372
 3974SOL    HW212822   5.826   0.603   6.329
 3975SOL     OW12823   0.318   6.297   3.266
 3975SOL    HW112824   0.289   6.216   3.215
 3975SOL    HW212825   0.412   6.321   3.240
 3976SOL     OW12826   0.778   2.845   5.127
 3976SOL    HW112827   0.781   2.846   5.227
 3976SOL    HW212828   0.731   2.927   5.095
 3977SOL     OW12829   2.416   4.861   5.572
 3977SOL    HW112830   2.453   4.922   5.643
 3977SOL    HW212831   2.437   4.766   5.596
 3978SOL     OW12832   4.401   3.264   6.538
 3978SOL    HW112833   4.336   3.268   6.614
 3978SOL    HW212834   4.352   3.276   6.452
 3979SOL     OW12835   0.342   5.825   3.023
 3979SOL    HW112836   0.249   5.826   2.987
 3979SOL    HW212837   0.355   5.742   3.078
 3980SOL     OW12838   5.616   4.139   4.023
 3980SOL    HW112839   5.624   4.151   3.924
 3980SOL    HW212840   5.528   4.174   4.054
 3981SOL     OW12841   6.118   1.283   6.731
 3981SOL    HW112842   6.046   1.232   6.685
 3981SOL    HW212843   6.173   1.333   6.664
 3982SOL     OW12844   1.605   2.639   3.846
 3982SOL    HW112845   1.703   2.643   3.830
 3982SOL    HW212846   1.587   2.638   3.945
 3983SOL     OW12847   2.376   1.379   3.617
 3983SOL    HW112848   2.360   1.468   3.575
 3983SOL    HW212849   2.289   1.330   3.624
 3984SOL     OW12850   1.158   6.039   2.491
 3984SOL    HW112851   1.252   6.070   2.479
 3984SOL    HW212852   1.100   6.084   2.423
 3985SOL     OW12853   1.059   2.128   1.505
 3985SOL    HW112854   1.154   2.103   1.521
 3985SOL    HW212855   1.050   2.169   1.414
 3986SOL     OW12856   0.932   0.131   3.133
 3986SOL    HW112857   0.945   0.043   3.177
 3986SOL    HW212858   0.834   0.145   3.114
 3987SOL     OW12859   1.789   4.488   5.395
 3987SOL    HW112860   1.864   4.426   5.376
 3987SOL    HW212861   1.792   4.565   5.331
 3988SOL     OW12862   4.774   5.256   2.316
 3988SOL    HW112863   4.716   5.204   2.378
 3988SOL    HW212864   4.767   5.219   2.223
 3989SOL     OW12865   4.378   1.232   6.559
 3989SOL    HW112866   4.426   1.315   6.586
 3989SOL    HW212867   4.343   1.185   6.640
 3990SOL     OW12868   6.057   5.678   3.375
 3990SOL    HW112869   6.082   5.617   3.301
 3990SOL    HW212870   6.080   5.772   3.350
 3991SOL     OW12871   0.453   1.929   5.062
 3991SOL    HW112872   0.463   2.027   5.082
 3991SOL    HW212873   0.480   1.875   5.141
 3992SOL     OW12874   6.052   3.665   5.694
 3992SOL    HW112875   6.028   3.708   5.607
 3992SOL    HW212876   6.096   3.577   5.676
 3993SOL     OW12877   1.262   1.108   4.084
 3993SOL    HW112878   1.230   1.051   4.008
 3993SOL    HW212879   1.307   1.050   4.152
 3994SOL     OW12880   3.055   1.837   2.875
 3994SOL    HW112881   3.076   1.935   2.872
 3994SOL    HW212882   2.966   1.823   2.917
 3995SOL     OW12883   2.115   4.302   1.700
 3995SOL    HW112884   2.206   4.266   1.723
 3995SOL    HW212885   2.099   4.290   1.602
 3996SOL     OW12886   0.450   5.669   5.404
 3996SOL    HW112887   0.463   5.609   5.324
 3996SOL    HW212888   0.380   5.629   5.463
 3997SOL     OW12889   5.918   3.372   5.573
 3997SOL    HW112890   5.950   3.286   5.535
 3997SOL    HW212891   5.899   3.437   5.499
 3998SOL     OW12892   4.464   2.111   2.935
 3998SOL    HW112893   4.410   2.195   2.933
 3998SOL    HW212894   4.403   2.033   2.948
 3999SOL     OW12895   4.595   3.767   1.228
 3999SOL    HW112896   4.518   3.717   1.188
 3999SOL    HW212897   4.666   3.780   1.159
 4000SOL     OW12898   2.968   4.776   2.796
 4000SOL    HW112899   2.964   4.806   2.701
 4000SOL    HW212900   2.992   4.679   2.800
 4001SOL     OW12901   0.474   5.577   4.472
 4001SOL    HW112902   0.494   5.675   4.473
 4001SOL    HW212903   0.534   5.529   4.535
 4002SOL     OW12904   3.424   3.774   4.825
 4002SOL    HW112905   3.398   3.857   4.874
 4002SOL    HW212906   3.418   3.695   4.885
 4003SOL     OW12907   3.481   1.523   4.458
 4003SOL    HW112908   3.547   1.593   4.430
 4003SOL    HW212909   3.391   1.564   4.467
 4004SOL     OW12910   1.621   3.794   4.909
 4004SOL    HW112911   1.678   3.718   4.941
 4004SOL    HW212912   1.620   3.796   4.809
 4005SOL     OW12913   6.192   2.242   2.014
 4005SOL    HW112914   6.169   2.245   2.112
 4005SOL    HW212915   6.210   2.147   1.988
 4006SOL     OW12916   6.762   5.516   1.674
 4006SOL    HW112917   6.684   5.458   1.699
 4006SOL    HW212918   6.812   5.474   1.599
 4007SOL     OW12919   0.683   1.356   1.668
 4007SOL    HW112920   0.639   1.348   1.579
 4007SOL    HW212921   0.746   1.433   1.668
 4008SOL     OW12922   4.156   0.340   1.922
 4008SOL    HW112923   4.133   0.433   1.895
 4008SOL    HW212924   4.195   0.341   2.015
 4009SOL     OW12925   3.594   2.467   1.449
 4009SOL    HW112926   3.525   2.539   1.439
 4009SOL    HW212927   3.641   2.479   1.536
 4010SOL     OW12928   1.396   5.665   1.279
 4010SOL    HW112929   1.379   5.683   1.182
 4010SOL    HW212930   1.326   5.603   1.314
 4011SOL     OW12931   6.047   6.733   5.963
 4011SOL    HW112932   5.988   6.735   6.043
 4011SOL    HW212933   6.009   6.792   5.891
 4012SOL     OW12934   6.138   4.357   2.271
 4012SOL    HW112935   6.220   4.393   2.316
 4012SOL    HW212936   6.057   4.405   2.305
 4013SOL     OW12937   0.351   2.112   6.918
 4013SOL    HW112938   0.378   2.072   6.831
 4013SOL    HW212939   0.424   2.099   6.985
 4014SOL     OW12940   4.535   6.979   2.543
 4014SOL    HW112941   4.533   6.926   2.459
 4014SOL    HW212942   4.508   0.052   2.524
 4015SOL     OW12943   3.369   6.340   5.224
 4015SOL    HW112944   3.382   6.425   5.274
 4015SOL    HW212945   3.381   6.356   5.126
 4016SOL     OW12946   4.243   5.093   4.044
 4016SOL    HW112947   4.225   5.098   3.946
 4016SOL    HW212948   4.339   5.068   4.059
 4017SOL     OW12949   1.609   5.984   6.289
 4017SOL    HW112950   1.612   5.894   6.333
 4017SOL    HW212951   1.702   6.016   6.271
 4018SOL     OW12952   5.508   5.287   0.367
 4018SOL    HW112953   5.477   5.371   0.321
 4018SOL    HW212954   5.509   5.302   0.466
 4019SOL     OW12955   0.715   2.174   3.249
 4019SOL    HW112956   0.621   2.201   3.229
 4019SOL    HW212957   0.715   2.095   3.310
 4020SOL     OW12958   6.454   6.000   4.616
 4020SOL    HW112959   6.441   6.068   4.688
 4020SOL    HW212960   6.414   6.033   4.531
 4021SOL     OW12961   4.972   5.450   5.892
 4021SOL    HW112962   5.022   5.498   5.964
 4021SOL    HW212963   4.987   5.496   5.805
 4022SOL     OW12964   3.960   0.702   1.506
 4022SOL    HW112965   3.913   0.618   1.479
 4022SOL    HW212966   3.987   0.753   1.424
 4023SOL     OW12967   2.008   1.642   3.879
 4023SOL    HW112968   1.945   1.568   3.854
 4023SOL    HW212969   2.063   1.614   3.958
 4024SOL     OW12970   1.364   0.125   6.454
 4024SOL    HW112971   1.441   0.106   6.515
 4024SOL    HW212972   1.307   0.197   6.495
 4025SOL     OW12973   1.008   4.700   4.670
 4025SOL    HW112974   1.047   4.748   4.592
 4025SOL    HW212975   1.080   4.684   4.738
 4026SOL     OW12976   0.331   6.345   4.208
 4026SOL    HW112977   0.407   6.410   4.216
 4026SOL    HW212978   0.284   6.360   4.122
 4027SOL     OW12979   3.209   5.631   4.713
 4027SOL    HW112980   3.272   5.555   4.728
 4027SOL    HW212981   3.201   5.648   4.615
 4028SOL     OW12982   4.788   1.607   4.900
 4028SOL    HW112983   4.699   1.594   4.856
 4028SOL    HW212984   4.843   1.670   4.846
 4029SOL     OW12985   1.981   6.749   1.015
 4029SOL    HW112986   1.907   6.815   1.028
 4029SOL    HW212987   2.027   6.733   1.103
 4030SOL     OW12988   6.774   1.285   1.707
 4030SOL    HW112989   6.786   1.201   1.654
 4030SOL    HW212990   6.736   1.263   1.797
 4031SOL     OW12991   6.180   5.963   1.081
 4031SOL    HW112992   6.265   5.910   1.086
 4031SOL    HW212993   6.171   6.019   1.164
 4032SOL     OW12994   4.685   2.187   1.899
 4032SOL    HW112995   4.616   2.258   1.917
 4032SOL    HW212996   4.746   2.218   1.827
 4033SOL     OW12997   1.515   4.283   3.342
 4033SOL    HW112998   1.543   4.205   3.399
 4033SOL    HW212999   1.541   4.368   3.386
 4034SOL     OW13000   3.205   1.632   4.411
 4034SOL    HW113001   3.238   1.723   4.438
 4034SOL    HW213002   3.119   1.613   4.458
 4035SOL     OW13003   3.199   2.008   0.925
 4035SOL    HW113004   3.222   1.978   0.832
 4035SOL    HW213005   3.230   2.102   0.938
 4036SOL     OW13006   3.804   0.275   2.912
 4036SOL    HW113007   3.883   0.268   2.851
 4036SOL    HW213008   3.835   0.267   3.007
 4037SOL     OW13009   1.630   0.890   5.646
 4037SOL    HW113010   1.644   0.792   5.659
 4037SOL    HW213011   1.604   0.907   5.551
 4038SOL     OW13012   3.975   5.616   5.850
 4038SOL    HW113013   4.056   5.659   5.810
 4038SOL    HW213014   3.912   5.589   5.778
 4039SOL     OW13015   6.367   4.407   2.450
 4039SOL    HW113016   6.377   4.502   2.419
 4039SOL    HW213017   6.433   4.349   2.403
 4040SOL     OW13018   1.909   6.671   5.357
 4040SOL    HW113019   1.961   6.586   5.351
 4040SOL    HW213020   1.952   6.740   5.299
 4041SOL     OW13021   1.170   6.510   1.509
 4041SOL    HW113022   1.172   6.518   1.409
 4041SOL    HW213023   1.249   6.458   1.540
 4042SOL     OW13024   1.659   1.139   4.573
 4042SOL    HW113025   1.621   1.164   4.484
 4042SOL    HW213026   1.712   1.215   4.609
 4043SOL     OW13027   4.068   3.042   5.371
 4043SOL    HW113028   3.989   3.002   5.324
 4043SOL    HW213029   4.132   2.969   5.395
 4044SOL     OW13030   4.596   4.344   3.702
 4044SOL    HW113031   4.643   4.286   3.636
 4044SOL    HW213032   4.615   4.311   3.795
 4045SOL     OW13033   4.587   1.449   4.714
 4045SOL    HW113034   4.585   1.404   4.625
 4045SOL    HW213035   4.615   1.383   4.784
 4046SOL     OW13036   5.262   0.713   4.534
 4046SOL    HW113037   5.195   0.700   4.607
 4046SOL    HW213038   5.260   0.809   4.505
 4047SOL     OW13039   2.548   3.134   6.549
 4047SOL    HW113040   2.513   3.050   6.507
 4047SOL    HW213041   2.490   3.211   6.522
 4048SOL     OW13042   5.048   2.341   3.444
 4048SOL    HW113043   5.103   2.383   3.372
 4048SOL    HW213044   5.107   2.286   3.503
 4049SOL     OW13045   4.159   3.641   2.446
 4049SOL    HW113046   4.250   3.601   2.451
 4049SOL    HW213047   4.092   3.569   2.429
 4050SOL     OW13048   0.025   4.767   3.131
 4050SOL    HW113049   6.990   4.847   3.113
 4050SOL    HW213050   0.054   4.727   3.045
 4051SOL     OW13051   5.646   0.364   3.412
 4051SOL    HW113052   5.608   0.442   3.363
 4051SOL    HW213053   5.733   0.337   3.370
 4052SOL     OW13054   4.215   0.836   5.309
 4052SOL    HW113055   4.270   0.885   5.242
 4052SOL    HW213056   4.118   0.847   5.287
 4053SOL     OW13057   0.586   4.874   2.800
 4053SOL    HW113058   0.647   4.800   2.827
 4053SOL    HW213059   0.492   4.852   2.825
 4054SOL     OW13060   5.001   3.676   1.263
 4054SOL    HW113061   4.933   3.645   1.328
 4054SOL    HW213062   4.958   3.732   1.192
 4055SOL     OW13063   6.796   4.008   6.765
 4055SOL    HW113064   6.703   4.037   6.741
 4055SOL    HW213065   6.793   3.954   6.849
 4056SOL     OW13066   5.051   4.411   6.852
 4056SOL    HW113067   5.084   4.338   6.911
 4056SOL    HW213068   5.128   4.453   6.805
 4057SOL     OW13069   6.856   5.444   5.203
 4057SOL    HW113070   6.822   5.538   5.192
 4057SOL    HW213071   6.890   5.411   5.115
 4058SOL     OW13072   3.215   0.929   3.844
 4058SOL    HW113073   3.267   0.903   3.763
 4058SOL    HW213074   3.117   0.919   3.826
 4059SOL     OW13075   2.048   0.679   3.627
 4059SOL    HW113076   1.961   0.671   3.578
 4059SOL    HW213077   2.071   0.776   3.638
 4060SOL     OW13078   6.972   6.338   3.532
 4060SOL    HW113079   6.956   6.369   3.626
 4060SOL    HW213080   7.012   6.412   3.479
 4061SOL     OW13081   1.421   3.895   2.591
 4061SOL    HW113082   1.365   3.934   2.518
 4061SOL    HW213083   1.391   3.931   2.679
 4062SOL     OW13084   2.510   3.557   0.471
 4062SOL    HW113085   2.600   3.597   0.491
 4062SOL    HW213086   2.514   3.507   0.385
 4063SOL     OW13087   3.867   1.067   1.503
 4063SOL    HW113088   3.834   1.156   1.469
 4063SOL    HW213089   3.967   1.065   1.500
 4064SOL     OW13090   2.634   6.872   4.532
 4064SOL    HW113091   2.663   6.817   4.453
 4064SOL    HW213092   2.557   6.827   4.577
 4065SOL     OW13093   2.297   0.891   1.656
 4065SOL    HW113094   2.226   0.872   1.588
 4065SOL    HW213095   2.257   0.891   1.748
 4066SOL     OW13096   0.336   4.284   5.044
 4066SOL    HW113097   0.284   4.370   5.046
 4066SOL    HW213098   0.430   4.303   5.018
 4067SOL     OW13099   5.644   4.042   1.785
 4067SOL    HW113100   5.564   4.099   1.772
 4067SOL    HW213101   5.717   4.096   1.828
 4068SOL     OW13102   2.391   2.645   5.851
 4068SOL    HW113103   2.481   2.683   5.872
 4068SOL    HW213104   2.354   2.601   5.932
 4069SOL     OW13105   4.368   0.736   6.256
 4069SOL    HW113106   4.384   0.645   6.217
 4069SOL    HW213107   4.317   0.792   6.191
 4070SOL     OW13108   1.898   4.212   4.377
 4070SOL    HW113109   1.923   4.200   4.473
 4070SOL    HW213110   1.980   4.215   4.321
 4071SOL     OW13111   1.117   0.330   4.942
 4071SOL    HW113112   1.169   0.346   5.025
 4071SOL    HW213113   1.123   0.233   4.916
 4072SOL     OW13114   2.907   6.036   2.017
 4072SOL    HW113115   2.940   6.130   2.020
 4072SOL    HW213116   2.964   5.979   2.076
 4073SOL     OW13117   4.883   5.185   6.621
 4073SOL    HW113118   4.863   5.275   6.581
 4073SOL    HW213119   4.803   5.126   6.610
 4074SOL     OW13120   1.599   5.502   1.949
 4074SOL    HW113121   1.521   5.530   1.893
 4074SOL    HW213122   1.666   5.576   1.952
 4075SOL     OW13123   5.691   0.203   6.495
 4075SOL    HW113124   5.721   0.149   6.416
 4075SOL    HW213125   5.642   0.144   6.559
 4076SOL     OW13126   2.412   5.333   3.430
 4076SOL    HW113127   2.347   5.365   3.360
 4076SOL    HW213128   2.420   5.402   3.501
 4077SOL     OW13129   2.923   2.022   1.016
 4077SOL    HW113130   3.010   2.011   0.968
 4077SOL    HW213131   2.920   1.959   1.094
 4078SOL     OW13132   4.356   4.552   1.960
 4078SOL    HW113133   4.312   4.579   2.045
 4078SOL    HW213134   4.407   4.467   1.973
 4079SOL     OW13135   0.884   3.178   4.184
 4079SOL    HW113136   0.881   3.132   4.272
 4079SOL    HW213137   0.874   3.277   4.198
 4080SOL     OW13138   6.586   2.445   4.900
 4080SOL    HW113139   6.647   2.425   4.977
 4080SOL    HW213140   6.609   2.384   4.823
 4081SOL     OW13141   6.153   3.827   2.212
 4081SOL    HW113142   6.197   3.909   2.247
 4081SOL    HW213143   6.222   3.755   2.197
 4082SOL     OW13144   0.250   3.573   1.560
 4082SOL    HW113145   0.248   3.473   1.553
 4082SOL    HW213146   0.200   3.614   1.484
 4083SOL     OW13147   6.849   3.883   6.036
 4083SOL    HW113148   6.799   3.929   5.963
 4083SOL    HW213149   6.932   3.935   6.058
 4084SOL     OW13150   4.429   0.412   4.049
 4084SOL    HW113151   4.376   0.477   4.104
 4084SOL    HW213152   4.366   0.352   3.999
 4085SOL     OW13153   2.693   5.020   5.903
 4085SOL    HW113154   2.760   5.092   5.919
 4085SOL    HW213155   2.679   4.968   5.987
 4086SOL     OW13156   0.011   2.241   2.035
 4086SOL    HW113157   0.090   2.268   1.979
 4086SOL    HW213158   6.999   2.152   2.004
 4087SOL     OW13159   1.101   0.436   2.853
 4087SOL    HW113160   1.038   0.365   2.884
 4087SOL    HW213161   1.186   0.394   2.821
 4088SOL     OW13162   0.552   2.943   6.522
 4088SOL    HW113163   0.635   2.999   6.520
 4088SOL    HW213164   0.472   3.002   6.527
 4089SOL     OW13165   0.705   2.454   5.643
 4089SOL    HW113166   0.796   2.477   5.678
 4089SOL    HW213167   0.673   2.371   5.689
 4090SOL     OW13168   3.171   5.470   6.063
 4090SOL    HW113169   3.212   5.558   6.088
 4090SOL    HW213170   3.206   5.440   5.975
 4091SOL     OW13171   4.078   5.907   1.299
 4091SOL    HW113172   4.106   5.814   1.320
 4091SOL    HW213173   4.044   5.911   1.205
 4092SOL     OW13174   0.669   1.080   3.631
 4092SOL    HW113175   0.619   1.152   3.678
 4092SOL    HW213176   0.616   0.996   3.632
 4093SOL     OW13177   4.447   6.856   3.872
 4093SOL    HW113178   4.517   6.857   3.801
 4093SOL    HW213179   4.490   6.866   3.962
 4094SOL     OW13180   3.017   2.745   6.366
 4094SOL    HW113181   3.034   2.648   6.383
 4094SOL    HW213182   2.979   2.757   6.275
 4095SOL     OW13183   2.179   4.223   5.984
 4095SOL    HW113184   2.201   4.317   5.959
 4095SOL    HW213185   2.149   4.173   5.903
 4096SOL     OW13186   4.491   4.800   1.408
 4096SOL    HW113187   4.467   4.717   1.458
 4096SOL    HW213188   4.576   4.784   1.356
 4097SOL     OW13189   3.328   3.687   3.304
 4097SOL    HW113190   3.330   3.590   3.326
 4097SOL    HW213191   3.233   3.715   3.289
 4098SOL     OW13192   1.481   3.134   2.108
 4098SOL    HW113193   1.426   3.126   2.025
 4098SOL    HW213194   1.575   3.107   2.088
 4099SOL     OW13195   2.325   6.033   1.310
 4099SOL    HW113196   2.296   6.122   1.276
 4099SOL    HW213197   2.257   5.998   1.375
 4100SOL     OW13198   3.693   0.366   2.376
 4100SOL    HW113199   3.628   0.310   2.429
 4100SOL    HW213200   3.685   0.461   2.404
 4101SOL     OW13201   4.723   1.340   6.798
 4101SOL    HW113202   4.775   1.343   6.713
 4101SOL    HW213203   4.678   1.251   6.807
 4102SOL     OW13204   5.131   1.955   5.781
 4102SOL    HW113205   5.183   1.894   5.841
 4102SOL    HW213206   5.034   1.935   5.790
 4103SOL     OW13207   6.614   0.554   1.577
 4103SOL    HW113208   6.660   0.537   1.490
 4103SOL    HW213209   6.600   0.653   1.589
 4104SOL     OW13210   2.207   4.321   2.093
 4104SOL    HW113211   2.125   4.268   2.069
 4104SOL    HW213212   2.181   4.415   2.112
 4105SOL     OW13213   6.092   4.565   0.259
 4105SOL    HW113214   6.119   4.597   0.168
 4105SOL    HW213215   6.025   4.491   0.249
 4106SOL     OW13216   0.385   3.144   3.700
 4106SOL    HW113217   0.444   3.069   3.668
 4106SOL    HW213218   0.399   3.156   3.799
 4107SOL     OW13219   6.837   0.534   0.994
 4107SOL    HW113220   6.778   0.575   0.925
 4107SOL    HW213221   6.933   0.544   0.967
 4108SOL     OW13222   6.437   2.627   5.056
 4108SOL    HW113223   6.484   2.546   5.019
 4108SOL    HW213224   6.391   2.675   4.981
 4109SOL     OW13225   2.454   6.237   3.971
 4109SOL    HW113226   2.472   6.325   4.015
 4109SOL    HW213227   2.502   6.164   4.021
 4110SOL     OW13228   4.752   3.111   5.158
 4110SOL    HW113229   4.751   3.206   5.189
 4110SOL    HW213230   4.842   3.070   5.177
 4111SOL     OW13231   4.216   3.587   6.697
 4111SOL    HW113232   4.203   3.641   6.780
 4111SOL    HW213233   4.173   3.633   6.620
 4112SOL     OW13234   3.639   1.065   5.929
 4112SOL    HW113235   3.683   1.011   5.857
 4112SOL    HW213236   3.628   1.009   6.011
 4113SOL     OW13237   3.408   5.640   4.055
 4113SOL    HW113238   3.447   5.680   4.138
 4113SOL    HW213239   3.394   5.711   3.986
 4114SOL     OW13240   3.419   0.989   3.347
 4114SOL    HW113241   3.401   1.001   3.249
 4114SOL    HW213242   3.513   0.958   3.360
 4115SOL     OW13243   5.045   4.009   3.140
 4115SOL    HW113244   4.948   3.992   3.161
 4115SOL    HW213245   5.053   4.038   3.044
 4116SOL     OW13246   2.642   1.115   1.778
 4116SOL    HW113247   2.714   1.125   1.709
 4116SOL    HW213248   2.670   1.048   1.847
 4117SOL     OW13249   1.021   5.809   1.837
 4117SOL    HW113250   1.089   5.876   1.867
 4117SOL    HW213251   0.967   5.779   1.916
 4118SOL     OW13252   1.620   0.626   5.674
 4118SOL    HW113253   1.580   0.552   5.620
 4118SOL    HW213254   1.632   0.595   5.768
 4119SOL     OW13255   5.053   1.071   3.329
 4119SOL    HW113256   5.121   1.142   3.310
 4119SOL    HW213257   5.097   0.993   3.373
 4120SOL     OW13258   5.669   0.637   1.750
 4120SOL    HW113259   5.689   0.623   1.847
 4120SOL    HW213260   5.614   0.560   1.716
 4121SOL     OW13261   5.172   2.834   3.791
 4121SOL    HW113262   5.079   2.831   3.757
 4121SOL    HW213263   5.222   2.909   3.748
 4122SOL     OW13264   1.821   4.953   6.905
 4122SOL    HW113265   1.799   5.047   6.928
 4122SOL    HW213266   1.761   4.921   6.831
 4123SOL     OW13267   3.598   3.572   5.289
 4123SOL    HW113268   3.598   3.643   5.359
 4123SOL    HW213269   3.690   3.533   5.281
 4124SOL     OW13270   4.583   6.387   2.942
 4124SOL    HW113271   4.498   6.438   2.954
 4124SOL    HW213272   4.631   6.420   2.860
 4125SOL     OW13273   4.142   1.815   1.688
 4125SOL    HW113274   4.173   1.845   1.778
 4125SOL    HW213275   4.193   1.865   1.617
 4126SOL     OW13276   1.653   3.775   4.656
 4126SOL    HW113277   1.734   3.726   4.623
 4126SOL    HW213278   1.587   3.784   4.581
 4127SOL     OW13279   5.356   5.079   3.631
 4127SOL    HW113280   5.442   5.132   3.633
 4127SOL    HW213281   5.318   5.074   3.723
 4128SOL     OW13282   6.571   1.736   1.737
 4128SOL    HW113283   6.512   1.809   1.702
 4128SOL    HW213284   6.602   1.759   1.829
 4129SOL     OW13285   0.227   2.985   0.031
 4129SOL    HW113286   0.320   2.966   7.021
 4129SOL    HW213287   0.195   2.910   0.088
 4130SOL     OW13288   6.182   2.689   1.253
 4130SOL    HW113289   6.135   2.744   1.184
 4130SOL    HW213290   6.160   2.592   1.238
 4131SOL     OW13291   6.646   4.014   3.530
 4131SOL    HW113292   6.585   4.092   3.516
 4131SOL    HW213293   6.591   3.934   3.557
 4132SOL     OW13294   4.755   1.368   4.348
 4132SOL    HW113295   4.815   1.290   4.367
 4132SOL    HW213296   4.749   1.382   4.249
 4133SOL     OW13297   2.359   2.934   0.523
 4133SOL    HW113298   2.416   2.857   0.550
 4133SOL    HW213299   2.359   3.003   0.596
 4134SOL     OW13300   1.922   1.637   6.539
 4134SOL    HW113301   2.008   1.601   6.576
 4134SOL    HW213302   1.851   1.568   6.546
 4135SOL     OW13303   1.417   0.794   0.971
 4135SOL    HW113304   1.460   0.750   1.050
 4135SOL    HW213305   1.359   0.869   1.003
 4136SOL     OW13306   1.963   2.133   3.688
 4136SOL    HW113307   1.894   2.087   3.633
 4136SOL    HW213308   2.039   2.070   3.706
 4137SOL     OW13309   3.921   3.138   4.969
 4137SOL    HW113310   3.903   3.040   4.970
 4137SOL    HW213311   3.982   3.161   5.045
 4138SOL     OW13312   4.978   5.311   0.908
 4138SOL    HW113313   4.893   5.306   0.960
 4138SOL    HW213314   4.966   5.266   0.820
 4139SOL     OW13315   3.741   1.567   0.197
 4139SOL    HW113316   3.772   1.646   0.251
 4139SOL    HW213317   3.757   1.585   0.100
 4140SOL     OW13318   4.538   2.207   4.860
 4140SOL    HW113319   4.605   2.173   4.795
 4140SOL    HW213320   4.579   2.281   4.914
 4141SOL     OW13321   4.955   5.941   0.934
 4141SOL    HW113322   4.884   5.926   0.865
 4141SOL    HW213323   5.037   5.976   0.889
 4142SOL     OW13324   6.027   2.885   2.340
 4142SOL    HW113325   6.074   2.941   2.408
 4142SOL    HW213326   5.932   2.916   2.332
 4143SOL     OW13327   1.795   2.324   1.782
 4143SOL    HW113328   1.837   2.362   1.699
 4143SOL    HW213329   1.812   2.385   1.859
 4144SOL     OW13330   4.340   0.769   2.652
 4144SOL    HW113331   4.428   0.750   2.696
 4144SOL    HW213332   4.330   0.868   2.640
 4145SOL     OW13333   3.021   0.339   3.143
 4145SOL    HW113334   3.084   0.416   3.149
 4145SOL    HW213335   2.973   0.328   3.230
 4146SOL     OW13336   4.908   4.654   0.494
 4146SOL    HW113337   4.971   4.731   0.490
 4146SOL    HW213338   4.956   4.573   0.529
 4147SOL     OW13339   2.474   1.023   6.131
 4147SOL    HW113340   2.502   0.933   6.099
 4147SOL    HW213341   2.542   1.058   6.196
 4148SOL     OW13342   6.856   6.619   2.365
 4148SOL    HW113343   6.901   6.531   2.350
 4148SOL    HW213344   6.812   6.619   2.455
 4149SOL     OW13345   4.573   4.550   2.210
 4149SOL    HW113346   4.613   4.621   2.153
 4149SOL    HW213347   4.609   4.461   2.182
 4150SOL     OW13348   3.737   0.524   4.272
 4150SOL    HW113349   3.708   0.503   4.178
 4150SOL    HW213350   3.667   0.580   4.316
 4151SOL     OW13351   0.600   5.484   0.603
 4151SOL    HW113352   0.512   5.456   0.565
 4151SOL    HW213353   0.600   5.583   0.618
 4152SOL     OW13354   3.621   4.240   0.880
 4152SOL    HW113355   3.628   4.336   0.850
 4152SOL    HW213356   3.680   4.226   0.959
 4153SOL     OW13357   6.450   6.215   6.903
 4153SOL    HW113358   6.485   6.282   6.969
 4153SOL    HW213359   6.444   6.258   6.812
 4154SOL     OW13360   4.346   2.348   4.438
 4154SOL    HW113361   4.362   2.397   4.352
 4154SOL    HW213362   4.358   2.250   4.423
 4155SOL     OW13363   1.061   3.536   0.931
 4155SOL    HW113364   1.007   3.610   0.891
 4155SOL    HW213365   1.031   3.521   1.025
 4156SOL     OW13366   6.005   0.914   5.336
 4156SOL    HW113367   5.967   0.956   5.418
 4156SOL    HW213368   6.095   0.874   5.357
 4157SOL     OW13369   3.876   0.832   4.020
 4157SOL    HW113370   3.919   0.743   4.029
 4157SOL    HW213371   3.942   0.898   3.985
 4158SOL     OW13372   0.632   0.108   3.107
 4158SOL    HW113373   0.651   0.014   3.081
 4158SOL    HW213374   0.567   0.109   3.184
 4159SOL     OW13375   0.949   5.046   5.166
 4159SOL    HW113376   1.007   5.053   5.246
 4159SOL    HW213377   0.872   4.985   5.185
 4160SOL     OW13378   6.169   1.089   1.540
 4160SOL    HW113379   6.252   1.118   1.491
 4160SOL    HW213380   6.137   1.164   1.598
 4161SOL     OW13381   6.203   1.667   2.140
 4161SOL    HW113382   6.190   1.568   2.129
 4161SOL    HW213383   6.141   1.716   2.079
 4162SOL     OW13384   0.283   7.013   4.548
 4162SOL    HW113385   0.296   6.980   4.642
 4162SOL    HW213386   0.247   6.938   4.491
 4163SOL     OW13387   1.027   2.339   5.583
 4163SOL    HW113388   0.964   2.378   5.516
 4163SOL    HW213389   1.068   2.256   5.546
 4164SOL     OW13390   2.198   0.036   5.274
 4164SOL    HW113391   2.230   0.096   5.347
 4164SOL    HW213392   2.272   0.019   5.209
 4165SOL     OW13393   0.789   6.049   2.054
 4165SOL    HW113394   0.718   5.979   2.057
 4165SOL    HW213395   0.872   6.015   2.098
 4166SOL     OW13396   6.522   1.702   2.748
 4166SOL    HW113397   6.615   1.692   2.781
 4166SOL    HW213398   6.496   1.621   2.696
 4167SOL     OW13399   1.426   2.640   1.109
 4167SOL    HW113400   1.368   2.633   1.191
 4167SOL    HW213401   1.390   2.712   1.049
 4168SOL     OW13402   2.435   5.746   0.933
 4168SOL    HW113403   2.413   5.749   1.031
 4168SOL    HW213404   2.535   5.749   0.922
 4169SOL     OW13405   6.130   3.257   6.884
 4169SOL    HW113406   6.119   3.329   6.952
 4169SOL    HW213407   6.135   3.297   6.793
 4170SOL     OW13408   3.050   0.914   5.236
 4170SOL    HW113409   3.114   0.845   5.271
 4170SOL    HW213410   2.972   0.921   5.297
 4171SOL     OW13411   6.814   2.660   1.650
 4171SOL    HW113412   6.719   2.692   1.651
 4171SOL    HW213413   6.844   2.646   1.556
 4172SOL     OW13414   2.421   0.287   0.741
 4172SOL    HW113415   2.403   0.307   0.645
 4172SOL    HW213416   2.456   0.194   0.751
 4173SOL     OW13417   4.350   4.096   5.433
 4173SOL    HW113418   4.321   4.086   5.528
 4173SOL    HW213419   4.306   4.026   5.377
 4174SOL     OW13420   4.370   0.927   3.568
 4174SOL    HW113421   4.364   0.862   3.492
 4174SOL    HW213422   4.382   0.877   3.654
 4175SOL     OW13423   2.584   0.669   1.946
 4175SOL    HW113424   2.513   0.643   2.012
 4175SOL    HW213425   2.544   0.677   1.855
 4176SOL     OW13426   5.797   5.003   2.906
 4176SOL    HW113427   5.701   5.025   2.924
 4176SOL    HW213428   5.808   4.981   2.809
 4177SOL     OW13429   0.568   5.786   2.872
 4177SOL    HW113430   0.648   5.823   2.918
 4177SOL    HW213431   0.487   5.799   2.929
 4178SOL     OW13432   3.955   2.683   5.351
 4178SOL    HW113433   3.911   2.733   5.276
 4178SOL    HW213434   4.030   2.628   5.315
 4179SOL     OW13435   0.194   1.662   0.398
 4179SOL    HW113436   0.198   1.761   0.385
 4179SOL    HW213437   0.106   1.637   0.438
 4180SOL     OW13438   5.951   3.876   2.031
 4180SOL    HW113439   5.898   3.792   2.028
 4180SOL    HW213440   6.014   3.874   2.108
 4181SOL     OW13441   5.526   1.112   6.896
 4181SOL    HW113442   5.541   1.191   6.956
 4181SOL    HW213443   5.427   1.093   6.890
 4182SOL     OW13444   6.289   0.621   3.929
 4182SOL    HW113445   6.190   0.633   3.922
 4182SOL    HW213446   6.313   0.597   4.023
 4183SOL     OW13447   0.439   0.952   1.678
 4183SOL    HW113448   0.519   1.001   1.713
 4183SOL    HW213449   0.422   0.980   1.584
 4184SOL     OW13450   4.138   4.722   6.465
 4184SOL    HW113451   4.176   4.785   6.398
 4184SOL    HW213452   4.044   4.700   6.439
 4185SOL     OW13453   0.147   1.325   4.712
 4185SOL    HW113454   0.140   1.424   4.714
 4185SOL    HW213455   0.223   1.298   4.653
 4186SOL     OW13456   3.004   3.444   1.987
 4186SOL    HW113457   2.943   3.369   2.013
 4186SOL    HW213458   2.999   3.515   2.057
 4187SOL     OW13459   4.758   5.170   5.642
 4187SOL    HW113460   4.827   5.209   5.702
 4187SOL    HW213461   4.668   5.209   5.664
 4188SOL     OW13462   5.233   6.003   2.663
 4188SOL    HW113463   5.307   5.973   2.602
 4188SOL    HW213464   5.177   6.071   2.615
 4189SOL     OW13465   1.172   3.418   3.172
 4189SOL    HW113466   1.231   3.371   3.237
 4189SOL    HW213467   1.199   3.394   3.079
 4190SOL     OW13468   2.072   6.166   1.679
 4190SOL    HW113469   2.140   6.185   1.750
 4190SOL    HW213470   1.990   6.127   1.720
 4191SOL     OW13471   0.347   1.888   3.807
 4191SOL    HW113472   0.331   1.851   3.716
 4191SOL    HW213473   0.279   1.852   3.871
 4192SOL     OW13474   6.028   6.050   3.826
 4192SOL    HW113475   5.958   6.101   3.876
 4192SOL    HW213476   6.022   6.074   3.729
 4193SOL     OW13477   1.520   6.497   3.639
 4193SOL    HW113478   1.599   6.557   3.652
 4193SOL    HW213479   1.465   6.531   3.562
 4194SOL     OW13480   4.704   0.213   3.384
 4194SOL    HW113481   4.693   0.139   3.450
 4194SOL    HW213482   4.791   0.203   3.336
 4195SOL     OW13483   4.542   0.442   3.418
 4195SOL    HW113484   4.585   0.352   3.416
 4195SOL    HW213485   4.578   0.498   3.344
 4196SOL     OW13486   5.337   2.317   3.801
 4196SOL    HW113487   5.284   2.291   3.720
 4196SOL    HW213488   5.425   2.355   3.771
 4197SOL     OW13489   5.444   4.590   4.726
 4197SOL    HW113490   5.492   4.647   4.660
 4197SOL    HW213491   5.375   4.646   4.773
 4198SOL     OW13492   6.455   3.745   5.884
 4198SOL    HW113493   6.427   3.808   5.811
 4198SOL    HW213494   6.524   3.682   5.849
 4199SOL     OW13495   2.893   4.161   6.331
 4199SOL    HW113496   2.908   4.198   6.239
 4199SOL    HW213497   2.806   4.194   6.367
 4200SOL     OW13498   2.732   0.387   5.213
 4200SOL    HW113499   2.716   0.336   5.298
 4200SOL    HW213500   2.647   0.391   5.160
 4201SOL     OW13501   6.389   6.727   4.583
 4201SOL    HW113502   6.335   6.645   4.564
 4201SOL    HW213503   6.454   6.708   4.656
 4202SOL     OW13504   5.957   3.547   4.898
 4202SOL    HW113505   5.924   3.504   4.982
 4202SOL    HW213506   5.969   3.478   4.827
 4203SOL     OW13507   2.918   5.592   4.393
 4203SOL    HW113508   2.926   5.494   4.410
 4203SOL    HW213509   2.892   5.608   4.298
 4204SOL     OW13510   1.765   3.846   6.913
 4204SOL    HW113511   1.761   3.798   6.826
 4204SOL    HW213512   1.673   3.869   6.944
 4205SOL     OW13513   2.571   6.767   3.716
 4205SOL    HW113514   2.600   6.857   3.685
 4205SOL    HW213515   2.471   6.759   3.710
 4206SOL     OW13516   4.770   6.300   3.154
 4206SOL    HW113517   4.766   6.307   3.254
 4206SOL    HW213518   4.687   6.340   3.115
 4207SOL     OW13519   2.346   6.713   6.927
 4207SOL    HW113520   2.287   6.632   6.933
 4207SOL    HW213521   2.327   6.762   6.842
 4208SOL     OW13522   0.928   1.666   2.056
 4208SOL    HW113523   0.830   1.652   2.042
 4208SOL    HW213524   0.953   1.638   2.149
 4209SOL     OW13525   2.195   0.617   5.617
 4209SOL    HW113526   2.108   0.638   5.573
 4209SOL    HW213527   2.252   0.565   5.553
 4210SOL     OW13528   3.400   3.483   0.119
 4210SOL    HW113529   3.385   3.555   0.186
 4210SOL    HW213530   3.494   3.448   0.127
 4211SOL     OW13531   0.036   3.184   4.287
 4211SOL    HW113532   0.011   3.214   4.379
 4211SOL    HW213533   0.115   3.236   4.255
 4212SOL     OW13534   5.868   6.588   1.162
 4212SOL    HW113535   5.799   6.658   1.146
 4212SOL    HW213536   5.954   6.614   1.117
 4213SOL     OW13537   1.204   0.805   1.306
 4213SOL    HW113538   1.132   0.869   1.334
 4213SOL    HW213539   1.263   0.785   1.384
 4214SOL     OW13540   3.970   5.363   3.388
 4214SOL    HW113541   4.038   5.372   3.461
 4214SOL    HW213542   3.898   5.431   3.402
 4215SOL     OW13543   1.946   5.938   0.022
 4215SOL    HW113544   1.932   6.035   0.040
 4215SOL    HW213545   1.889   5.883   0.083
 4216SOL     OW13546   2.186   2.699   5.460
 4216SOL    HW113547   2.113   2.707   5.528
 4216SOL    HW213548   2.190   2.782   5.405
 4217SOL     OW13549   6.075   0.723   4.522
 4217SOL    HW113550   6.157   0.671   4.545
 4217SOL    HW213551   5.994   0.666   4.536
 4218SOL     OW13552   3.105   5.653   2.341
 4218SOL    HW113553   3.151   5.668   2.254
 4218SOL    HW213554   3.159   5.695   2.415
 4219SOL     OW13555   5.079   0.559   2.463
 4219SOL    HW113556   5.026   0.622   2.406
 4219SOL    HW213557   5.101   0.604   2.550
 4220SOL     OW13558   0.991   4.775   2.975
 4220SOL    HW113559   0.980   4.741   3.068
 4220SOL    HW213560   1.055   4.852   2.976
 4221SOL     OW13561   5.563   5.699   5.601
 4221SOL    HW113562   5.479   5.651   5.627
 4221SOL    HW213563   5.629   5.694   5.675
 4222SOL     OW13564   2.156   2.768   0.391
 4222SOL    HW113565   2.202   2.723   0.467
 4222SOL    HW213566   2.217   2.835   0.349
 4223SOL     OW13567   3.955   3.956   2.936
 4223SOL    HW113568   4.022   3.882   2.949
 4223SOL    HW213569   3.983   4.036   2.990
 4224SOL     OW13570   3.371   2.250   5.414
 4224SOL    HW113571   3.346   2.279   5.322
 4224SOL    HW213572   3.330   2.312   5.481
 4225SOL     OW13573   5.153   6.293   4.321
 4225SOL    HW113574   5.144   6.262   4.227
 4225SOL    HW213575   5.148   6.215   4.383
 4226SOL     OW13576   2.501   2.183   2.132
 4226SOL    HW113577   2.502   2.282   2.143
 4226SOL    HW213578   2.522   2.140   2.220
 4227SOL     OW13579   5.726   3.632   0.237
 4227SOL    HW113580   5.773   3.605   0.153
 4227SOL    HW213581   5.688   3.552   0.282
 4228SOL     OW13582   4.498   5.787   3.161
 4228SOL    HW113583   4.539   5.785   3.069
 4228SOL    HW213584   4.546   5.854   3.217
 4229SOL     OW13585   4.271   4.820   4.606
 4229SOL    HW113586   4.340   4.757   4.642
 4229SOL    HW213587   4.248   4.794   4.512
 4230SOL     OW13588   1.869   0.977   4.531
 4230SOL    HW113589   1.797   1.042   4.557
 4230SOL    HW213590   1.923   0.953   4.611
 4231SOL     OW13591   3.679   6.895   6.565
 4231SOL    HW113592   3.647   6.990   6.570
 4231SOL    HW213593   3.705   6.864   6.657
 4232SOL     OW13594   2.260   3.971   1.946
 4232SOL    HW113595   2.172   3.926   1.956
 4232SOL    HW213596   2.303   3.943   1.859
 4233SOL     OW13597   4.413   4.652   0.773
 4233SOL    HW113598   4.354   4.575   0.796
 4233SOL    HW213599   4.497   4.619   0.731
 4234SOL     OW13600   3.594   4.292   6.300
 4234SOL    HW113601   3.673   4.286   6.360
 4234SOL    HW213602   3.620   4.337   6.214
 4235SOL     OW13603   0.371   3.722   4.999
 4235SOL    HW113604   0.434   3.676   5.061
 4235SOL    HW213605   0.394   3.819   4.993
 4236SOL     OW13606   1.021   3.040   3.994
 4236SOL    HW113607   1.070   2.963   4.036
 4236SOL    HW213608   0.963   3.084   4.062
 4237SOL     OW13609   5.171   3.500   5.310
 4237SOL    HW113610   5.092   3.439   5.303
 4237SOL    HW213611   5.141   3.591   5.338
 4238SOL     OW13612   4.951   4.719   4.881
 4238SOL    HW113613   4.887   4.777   4.931
 4238SOL    HW213614   5.021   4.684   4.943
 4239SOL     OW13615   5.884   4.626   5.510
 4239SOL    HW113616   5.893   4.527   5.504
 4239SOL    HW213617   5.952   4.670   5.452
 4240SOL     OW13618   2.817   4.386   5.582
 4240SOL    HW113619   2.832   4.290   5.558
 4240SOL    HW213620   2.876   4.410   5.659
 4241SOL     OW13621   3.142   2.419   7.015
 4241SOL    HW113622   3.216   2.354   0.012
 4241SOL    HW213623   3.128   2.476   0.074
 4242SOL     OW13624   2.693   0.131   1.499
 4242SOL    HW113625   2.766   0.123   1.568
 4242SOL    HW213626   2.614   0.077   1.528
 4243SOL     OW13627   2.137   1.683   1.919
 4243SOL    HW113628   2.128   1.676   1.819
 4243SOL    HW213629   2.046   1.683   1.960
 4244SOL     OW13630   2.769   7.009   0.299
 4244SOL    HW113631   2.864   7.013   0.331
 4244SOL    HW213632   2.711   0.041   0.360
 4245SOL     OW13633   6.646   1.513   1.584
 4245SOL    HW113634   6.690   1.447   1.645
 4245SOL    HW213635   6.611   1.590   1.637
 4246SOL     OW13636   3.563   1.992   3.130
 4246SOL    HW113637   3.645   2.049   3.130
 4246SOL    HW213638   3.514   2.004   3.044
 4247SOL     OW13639   2.250   4.959   5.991
 4247SOL    HW113640   2.181   4.934   6.059
 4247SOL    HW213641   2.330   4.900   6.001
 4248SOL     OW13642   2.897   6.191   1.337
 4248SOL    HW113643   2.927   6.230   1.424
 4248SOL    HW213644   2.891   6.264   1.269
 4249SOL     OW13645   6.341   1.064   5.369
 4249SOL    HW113646   6.278   1.088   5.295
 4249SOL    HW213647   6.289   1.025   5.445
 4250SOL     OW13648   1.157   5.474   4.817
 4250SOL    HW113649   1.070   5.429   4.840
 4250SOL    HW213650   1.206   5.418   4.750
 4251SOL     OW13651   4.667   1.673   5.805
 4251SOL    HW113652   4.701   1.661   5.712
 4251SOL    HW213653   4.613   1.594   5.832
 4252SOL     OW13654   0.790   6.519   6.555
 4252SOL    HW113655   0.754   6.603   6.596
 4252SOL    HW213656   0.722   6.478   6.495
 4253SOL     OW13657   2.888   6.658   2.532
 4253SOL    HW113658   2.871   6.583   2.596
 4253SOL    HW213659   2.983   6.688   2.539
 4254SOL     OW13660   0.841   0.923   3.879
 4254SOL    HW113661   0.756   0.945   3.830
 4254SOL    HW213662   0.917   0.919   3.814
 4255SOL     OW13663   1.767   2.905   4.448
 4255SOL    HW113664   1.852   2.855   4.466
 4255SOL    HW213665   1.772   2.995   4.492
 4256SOL     OW13666   6.053   6.303   0.925
 4256SOL    HW113667   6.110   6.376   0.964
 4256SOL    HW213668   6.012   6.249   0.998
 4257SOL     OW13669   0.084   1.245   2.718
 4257SOL    HW113670   0.183   1.253   2.707
 4257SOL    HW213671   0.063   1.161   2.769
 4258SOL     OW13672   2.279   6.604   0.517
 4258SOL    HW113673   2.192   6.626   0.562
 4258SOL    HW213674   2.319   6.523   0.560
 4259SOL     OW13675   1.565   0.738   0.744
 4259SOL    HW113676   1.510   0.763   0.824
 4259SOL    HW213677   1.633   0.810   0.727
 4260SOL     OW13678   0.262   0.603   5.650
 4260SOL    HW113679   0.283   0.602   5.748
 4260SOL    HW213680   0.234   0.695   5.623
 4261SOL     OW13681   1.656   6.970   3.218
 4261SOL    HW113682   1.666   0.016   3.291
 4261SOL    HW213683   1.598   7.008   3.145
 4262SOL     OW13684   1.211   3.574   5.203
 4262SOL    HW113685   1.235   3.600   5.109
 4262SOL    HW213686   1.157   3.490   5.200
 4263SOL     OW13687   3.042   0.352   2.496
 4263SOL    HW113688   2.957   0.386   2.456
 4263SOL    HW213689   3.120   0.395   2.451
 4264SOL     OW13690   4.564   1.969   6.597
 4264SOL    HW113691   4.548   2.016   6.510
 4264SOL    HW213692   4.658   1.987   6.627
 4265SOL     OW13693   3.301   5.662   6.200
 4265SOL    HW113694   3.392   5.681   6.163
 4265SOL    HW213695   3.309   5.599   6.277
 4266SOL     OW13696   1.517   3.674   2.453
 4266SOL    HW113697   1.472   3.742   2.511
 4266SOL    HW213698   1.501   3.695   2.357
 4267SOL     OW13699   1.605   3.417   3.231
 4267SOL    HW113700   1.611   3.513   3.205
 4267SOL    HW213701   1.590   3.361   3.149
 4268SOL     OW13702   0.860   4.355   4.583
 4268SOL    HW113703   0.902   4.401   4.662
 4268SOL    HW213704   0.761   4.366   4.586
 4269SOL     OW13705   2.836   1.854   4.480
 4269SOL    HW113706   2.740   1.871   4.501
 4269SOL    HW213707   2.869   1.925   4.418
 4270SOL     OW13708   3.965   4.296   0.913
 4270SOL    HW113709   4.058   4.260   0.914
 4270SOL    HW213710   3.910   4.249   0.982
 4271SOL     OW13711   5.820   6.382   7.014
 4271SOL    HW113712   5.825   6.447   6.939
 4271SOL    HW213713   5.912   6.352   0.017
 4272SOL     OW13714   6.245   1.957   5.798
 4272SOL    HW113715   6.158   1.908   5.805
 4272SOL    HW213716   6.296   1.923   5.720
 4273SOL     OW13717   3.610   6.344   3.305
 4273SOL    HW113718   3.554   6.262   3.318
 4273SOL    HW213719   3.689   6.322   3.248
 4274SOL     OW13720   5.900   0.796   2.011
 4274SOL    HW113721   5.880   0.758   2.102
 4274SOL    HW213722   5.987   0.759   1.978
 4275SOL     OW13723   5.851   1.613   4.399
 4275SOL    HW113724   5.833   1.701   4.355
 4275SOL    HW213725   5.911   1.558   4.340
 4276SOL     OW13726   2.094   0.415   2.978
 4276SOL    HW113727   2.115   0.489   2.915
 4276SOL    HW213728   2.156   0.338   2.962
 4277SOL     OW13729   6.436   5.018   2.929
 4277SOL    HW113730   6.366   4.961   2.886
 4277SOL    HW213731   6.395   5.105   2.956
 4278SOL     OW13732   0.092   6.937   1.788
 4278SOL    HW113733   0.004   6.893   1.805
 4278SOL    HW213734   0.082   0.015   1.795
 4279SOL     OW13735   0.941   3.433   2.820
 4279SOL    HW113736   0.930   3.429   2.919
 4279SOL    HW213737   0.920   3.343   2.781
 4280SOL     OW13738   2.375   0.407   5.576
 4280SOL    HW113739   2.429   0.466   5.636
 4280SOL    HW213740   2.366   0.316   5.616
 4281SOL     OW13741   6.502   6.553   2.849
 4281SOL    HW113742   6.597   6.545   2.819
 4281SOL    HW213743   6.500   6.588   2.943
 4282SOL     OW13744   5.518   4.820   2.162
 4282SOL    HW113745   5.490   4.860   2.074
 4282SOL    HW213746   5.460   4.741   2.182
 4283SOL     OW13747   0.391   2.214   5.489
 4283SOL    HW113748   0.313   2.253   5.441
 4283SOL    HW213749   0.362   2.131   5.537
 4284SOL     OW13750   4.668   6.344   6.969
 4284SOL    HW113751   4.735   6.339   0.021
 4284SOL    HW213752   4.694   6.417   6.905
 4285SOL     OW13753   3.404   1.570   5.792
 4285SOL    HW113754   3.305   1.570   5.803
 4285SOL    HW213755   3.431   1.646   5.733
 4286SOL     OW13756   5.270   6.755   6.484
 4286SOL    HW113757   5.199   6.801   6.432
 4286SOL    HW213758   5.229   6.683   6.540
 4287SOL     OW13759   5.088   0.352   0.921
 4287SOL    HW113760   5.027   0.272   0.926
 4287SOL    HW213761   5.057   0.413   0.848
 4288SOL     OW13762   5.858   6.307   2.622
 4288SOL    HW113763   5.900   6.304   2.713
 4288SOL    HW213764   5.927   6.335   2.555
 4289SOL     OW13765   0.525   5.310   5.668
 4289SOL    HW113766   0.621   5.324   5.643
 4289SOL    HW213767   0.517   5.228   5.725
 4290SOL     OW13768   0.233   0.572   2.878
 4290SOL    HW113769   0.243   0.484   2.832
 4290SOL    HW213770   0.150   0.617   2.844
 4291SOL     OW13771   4.936   5.013   5.425
 4291SOL    HW113772   4.952   4.926   5.377
 4291SOL    HW213773   5.020   5.039   5.474
 4292SOL     OW13774   6.186   0.563   0.013
 4292SOL    HW113775   6.170   0.598   0.105
 4292SOL    HW213776   6.281   0.582   7.008
 4293SOL     OW13777   4.125   2.047   6.163
 4293SOL    HW113778   4.036   2.078   6.198
 4293SOL    HW213779   4.186   2.028   6.239
 4294SOL     OW13780   2.634   1.833   6.991
 4294SOL    HW113781   2.561   1.770   7.017
 4294SOL    HW213782   2.721   1.800   0.007
 4295SOL     OW13783   4.161   0.058   2.920
 4295SOL    HW113784   4.150   6.981   2.936
 4295SOL    HW213785   4.249   0.073   2.874
 4296SOL     OW13786   1.952   5.490   2.075
 4296SOL    HW113787   1.990   5.473   1.984
 4296SOL    HW213788   1.884   5.563   2.070
 4297SOL     OW13789   4.818   4.263   6.726
 4297SOL    HW113790   4.876   4.322   6.782
 4297SOL    HW213791   4.875   4.205   6.668
 4298SOL     OW13792   1.473   6.218   0.376
 4298SOL    HW113793   1.562   6.206   0.332
 4298SOL    HW213794   1.467   6.157   0.455
 4299SOL     OW13795   0.099   4.048   6.878
 4299SOL    HW113796   0.112   4.015   6.785
 4299SOL    HW213797   0.046   4.133   6.877
 4300SOL     OW13798   3.523   0.841   2.317
 4300SOL    HW113799   3.444   0.900   2.334
 4300SOL    HW213800   3.527   0.816   2.220
 4301SOL     OW13801   2.428   5.488   3.654
 4301SOL    HW113802   2.522   5.514   3.674
 4301SOL    HW213803   2.389   5.437   3.731
 4302SOL     OW13804   3.322   4.580   6.970
 4302SOL    HW113805   3.418   4.558   6.951
 4302SOL    HW213806   3.310   4.600   0.045
 4303SOL     OW13807   4.872   5.582   3.387
 4303SOL    HW113808   4.840   5.675   3.369
 4303SOL    HW213809   4.813   5.540   3.456
 4304SOL     OW13810   2.565   4.381   0.952
 4304SOL    HW113811   2.593   4.441   0.877
 4304SOL    HW213812   2.645   4.333   0.989
 4305SOL     OW13813   0.938   6.911   6.451
 4305SOL    HW113814   0.871   6.984   6.438
 4305SOL    HW213815   0.938   6.850   6.371
 4306SOL     OW13816   6.545   4.693   4.932
 4306SOL    HW113817   6.446   4.681   4.941
 4306SOL    HW213818   6.587   4.688   5.023
 4307SOL     OW13819   6.935   1.847   4.679
 4307SOL    HW113820   0.002   1.890   4.658
 4307SOL    HW213821   6.946   1.787   4.758
 4308SOL     OW13822   4.674   5.984   6.683
 4308SOL    HW113823   4.742   6.037   6.734
 4308SOL    HW213824   4.628   6.043   6.618
 4309SOL     OW13825   2.340   1.779   0.532
 4309SOL    HW113826   2.353   1.696   0.586
 4309SOL    HW213827   2.243   1.787   0.508
 4310SOL     OW13828   5.784   0.853   4.840
 4310SOL    HW113829   5.814   0.803   4.921
 4310SOL    HW213830   5.701   0.905   4.861
 4311SOL     OW13831   0.574   0.051   0.609
 4311SOL    HW113832   0.673   0.054   0.620
 4311SOL    HW213833   0.551   0.040   0.512
 4312SOL     OW13834   0.492   3.363   3.359
 4312SOL    HW113835   0.526   3.357   3.264
 4312SOL    HW213836   0.569   3.352   3.422
 4313SOL     OW13837   0.996   2.887   0.664
 4313SOL    HW113838   1.058   2.931   0.598
 4313SOL    HW213839   0.924   2.839   0.614
 4314SOL     OW13840   2.443   1.456   5.995
 4314SOL    HW113841   2.401   1.499   5.916
 4314SOL    HW213842   2.383   1.382   6.028
 4315SOL     OW13843   2.999   2.210   5.668
 4315SOL    HW113844   3.064   2.280   5.637
 4315SOL    HW213845   2.963   2.160   5.590
 4316SOL     OW13846   4.850   4.303   1.180
 4316SOL    HW113847   4.839   4.394   1.222
 4316SOL    HW213848   4.930   4.258   1.218
 4317SOL     OW13849   4.732   0.444   2.857
 4317SOL    HW113850   4.680   0.523   2.823
 4317SOL    HW213851   4.732   0.372   2.788
 4318SOL     OW13852   2.374   5.715   3.340
 4318SOL    HW113853   2.472   5.697   3.326
 4318SOL    HW213854   2.349   5.799   3.290
 4319SOL     OW13855   2.419   5.002   0.177
 4319SOL    HW113856   2.330   4.977   0.140
 4319SOL    HW213857   2.432   4.956   0.265
 4320SOL     OW13858   5.039   1.630   1.868
 4320SOL    HW113859   5.137   1.618   1.885
 4320SOL    HW213860   4.987   1.598   1.947
 4321SOL     OW13861   0.151   6.161   3.599
 4321SOL    HW113862   0.117   6.172   3.693
 4321SOL    HW213863   0.107   6.229   3.540
 4322SOL     OW13864   3.030   2.177   3.243
 4322SOL    HW113865   3.005   2.167   3.339
 4322SOL    HW213866   3.117   2.129   3.226
 4323SOL     OW13867   5.674   4.145   2.156
 4323SOL    HW113868   5.662   4.214   2.084
 4323SOL    HW213869   5.585   4.127   2.199
 4324SOL     OW13870   6.414   3.980   5.288
 4324SOL    HW113871   6.347   4.054   5.285
 4324SOL    HW213872   6.390   3.911   5.219
 4325SOL     OW13873   1.335   0.170   0.354
 4325SOL    HW113874   1.411   0.166   0.419
 4325SOL    HW213875   1.338   0.257   0.304
 4326SOL     OW13876   5.465   2.643   2.680
 4326SOL    HW113877   5.497   2.570   2.618
 4326SOL    HW213878   5.431   2.719   2.625
 4327SOL     OW13879   3.293   6.655   3.923
 4327SOL    HW113880   3.299   6.676   4.021
 4327SOL    HW213881   3.384   6.631   3.888
 4328SOL     OW13882   5.335   0.230   1.741
 4328SOL    HW113883   5.424   0.184   1.734
 4328SOL    HW213884   5.303   0.226   1.835
 4329SOL     OW13885   6.743   3.714   0.627
 4329SOL    HW113886   6.804   3.720   0.706
 4329SOL    HW213887   6.739   3.803   0.582
 4330SOL     OW13888   2.630   6.433   5.032
 4330SOL    HW113889   2.646   6.338   5.006
 4330SOL    HW213890   2.708   6.466   5.086
 4331SOL     OW13891   6.366   1.619   3.133
 4331SOL    HW113892   6.317   1.706   3.122
 4331SOL    HW213893   6.329   1.552   3.069
 4332SOL     OW13894   6.731   6.342   1.436
 4332SOL    HW113895   6.666   6.392   1.378
 4332SOL    HW213896   6.768   6.403   1.506
 4333SOL     OW13897   3.212   2.913   5.676
 4333SOL    HW113898   3.249   3.005   5.683
 4333SOL    HW213899   3.182   2.881   5.766
 4334SOL     OW13900   0.898   2.147   3.891
 4334SOL    HW113901   0.888   2.159   3.989
 4334SOL    HW213902   0.995   2.149   3.867
 4335SOL     OW13903   2.396   2.192   1.591
 4335SOL    HW113904   2.386   2.105   1.640
 4335SOL    HW213905   2.369   2.267   1.650
 4336SOL     OW13906   2.450   5.782   4.793
 4336SOL    HW113907   2.476   5.686   4.779
 4336SOL    HW213908   2.359   5.786   4.834
 4337SOL     OW13909   0.295   4.304   4.021
 4337SOL    HW113910   0.376   4.276   4.072
 4337SOL    HW213911   0.304   4.401   3.996
 4338SOL     OW13912   3.278   3.484   4.933
 4338SOL    HW113913   3.233   3.506   4.847
 4338SOL    HW213914   3.275   3.385   4.949
 4339SOL     OW13915   3.861   3.456   5.271
 4339SOL    HW113916   3.867   3.439   5.173
 4339SOL    HW213917   3.954   3.467   5.308
 4340SOL     OW13918   6.702   3.918   0.425
 4340SOL    HW113919   6.716   4.016   0.422
 4340SOL    HW213920   6.785   3.870   0.397
 4341SOL     OW13921   5.521   0.019   1.717
 4341SOL    HW113922   5.514   0.051   1.622
 4341SOL    HW213923   5.469   6.957   1.728
 4342SOL     OW13924   5.036   3.830   2.298
 4342SOL    HW113925   4.965   3.861   2.234
 4342SOL    HW213926   5.107   3.780   2.247
 4343SOL     OW13927   4.993   6.561   6.517
 4343SOL    HW113928   4.907   6.611   6.508
 4343SOL    HW213929   5.037   6.584   6.604
 4344SOL     OW13930   1.192   4.075   2.465
 4344SOL    HW113931   1.195   4.140   2.390
 4344SOL    HW213932   1.150   4.118   2.545
 4345SOL     OW13933   3.929   3.571   2.098
 4345SOL    HW113934   4.011   3.619   2.068
 4345SOL    HW213935   3.950   3.518   2.181
 4346SOL     OW13936   1.251   2.906   1.429
 4346SOL    HW113937   1.233   2.992   1.477
 4346SOL    HW213938   1.189   2.898   1.352
 4347SOL     OW13939   6.154   6.056   0.736
 4347SOL    HW113940   6.254   6.057   0.734
 4347SOL    HW213941   6.122   6.109   0.815
 4348SOL     OW13942   6.918   4.534   5.737
 4348SOL    HW113943   6.900   4.559   5.832
 4348SOL    HW213944   6.832   4.532   5.686
 4349SOL     OW13945   0.790   3.928   3.774
 4349SOL    HW113946   0.725   3.996   3.806
 4349SOL    HW213947   0.856   3.971   3.712
 4350SOL     OW13948   5.031   0.305   3.821
 4350SOL    HW113949   5.124   0.326   3.852
 4350SOL    HW213950   5.014   0.349   3.733
 4351SOL     OW13951   6.898   6.787   1.906
 4351SOL    HW113952   6.966   6.713   1.899
 4351SOL    HW213953   6.820   6.756   1.959
 4352SOL     OW13954   4.546   4.474   1.071
 4352SOL    HW113955   4.587   4.558   1.034
 4352SOL    HW213956   4.574   4.463   1.166
 4353SOL     OW13957   2.113   3.573   0.281
 4353SOL    HW113958   2.072   3.622   0.204
 4353SOL    HW213959   2.129   3.478   0.256
 4354SOL     OW13960   6.442   4.121   2.900
 4354SOL    HW113961   6.485   4.072   2.976
 4354SOL    HW213962   6.435   4.061   2.821
 4355SOL     OW13963   2.361   4.891   4.316
 4355SOL    HW113964   2.346   4.821   4.385
 4355SOL    HW213965   2.311   4.974   4.340
 4356SOL     OW13966   5.750   1.518   5.185
 4356SOL    HW113967   5.743   1.580   5.107
 4356SOL    HW213968   5.829   1.458   5.173
 4357SOL     OW13969   4.881   6.031   2.613
 4357SOL    HW113970   4.864   6.019   2.515
 4357SOL    HW213971   4.909   6.125   2.631
 4358SOL     OW13972   3.425   0.514   1.253
 4358SOL    HW113973   3.514   0.490   1.213
 4358SOL    HW213974   3.431   0.511   1.353
 4359SOL     OW13975   2.826   4.013   1.482
 4359SOL    HW113976   2.832   4.081   1.409
 4359SOL    HW213977   2.797   3.925   1.444
 4360SOL     OW13978   3.149   6.809   3.744
 4360SOL    HW113979   3.216   6.755   3.794
 4360SOL    HW213980   3.114   6.881   3.803
 4361SOL     OW13981   1.959   0.144   6.252
 4361SOL    HW113982   1.985   0.141   6.348
 4361SOL    HW213983   1.903   0.064   6.230
 4362SOL     OW13984   6.521   5.058   1.947
 4362SOL    HW113985   6.604   5.092   1.903
 4362SOL    HW213986   6.515   4.959   1.935
 4363SOL     OW13987   4.731   0.827   2.469
 4363SOL    HW113988   4.665   0.899   2.448
 4363SOL    HW213989   4.687   0.737   2.462
 4364SOL     OW13990   3.782   3.249   3.040
 4364SOL    HW113991   3.800   3.239   3.138
 4364SOL    HW213992   3.845   3.192   2.988
 4365SOL     OW13993   2.416   0.817   0.888
 4365SOL    HW113994   2.507   0.860   0.890
 4365SOL    HW213995   2.416   0.743   0.820
 4366SOL     OW13996   5.018   5.320   4.988
 4366SOL    HW113997   4.973   5.363   4.910
 4366SOL    HW213998   5.083   5.384   5.029
 4367SOL     OW13999   1.403   6.998   1.314
 4367SOL    HW114000   1.341   6.929   1.351
 4367SOL    HW214001   1.487   6.954   1.285
 4368SOL     OW14002   4.960   4.996   4.464
 4368SOL    HW114003   5.019   5.047   4.527
 4368SOL    HW214004   5.000   4.997   4.373
 4369SOL     OW14005   6.561   4.039   3.939
 4369SOL    HW114006   6.474   4.012   3.898
 4369SOL    HW214007   6.547   4.056   4.037
 4370SOL     OW14008   5.200   4.453   1.425
 4370SOL    HW114009   5.250   4.366   1.426
 4370SOL    HW214010   5.244   4.517   1.487
 4371SOL     OW14011   3.099   0.478   3.431
 4371SOL    HW114012   3.015   0.521   3.464
 4371SOL    HW214013   3.113   0.503   3.335
 4372SOL     OW14014   1.896   4.441   5.638
 4372SOL    HW114015   1.826   4.438   5.566
 4372SOL    HW214016   1.974   4.496   5.606
 4373SOL     OW14017   4.025   0.622   0.862
 4373SOL    HW114018   4.011   0.713   0.825
 4373SOL    HW214019   4.051   0.629   0.959
 4374SOL     OW14020   1.623   6.495   0.312
 4374SOL    HW114021   1.570   6.413   0.332
 4374SOL    HW214022   1.562   6.569   0.286
 4375SOL     OW14023   4.582   0.732   5.483
 4375SOL    HW114024   4.617   0.757   5.392
 4375SOL    HW214025   4.496   0.778   5.499
 4376SOL     OW14026   2.067   4.824   6.553
 4376SOL    HW114027   2.080   4.789   6.460
 4376SOL    HW214028   2.003   4.901   6.551
 4377SOL     OW14029   5.247   5.934   0.378
 4377SOL    HW114030   5.233   5.969   0.470
 4377SOL    HW214031   5.172   5.963   0.319
 4378SOL     OW14032   2.973   5.147   1.214
 4378SOL    HW114033   3.002   5.059   1.178
 4378SOL    HW214034   3.044   5.182   1.276
 4379SOL     OW14035   5.563   6.422   0.790
 4379SOL    HW114036   5.655   6.440   0.824
 4379SOL    HW214037   5.557   6.446   0.693
 4380SOL     OW14038   1.670   6.055   4.828
 4380SOL    HW114039   1.630   6.142   4.799
 4380SOL    HW214040   1.769   6.064   4.834
 4381SOL     OW14041   3.816   5.978   4.878
 4381SOL    HW114042   3.723   5.949   4.902
 4381SOL    HW214043   3.874   5.898   4.867
 4382SOL     OW14044   5.679   3.055   3.399
 4382SOL    HW114045   5.588   3.014   3.394
 4382SOL    HW214046   5.696   3.088   3.491
 4383SOL     OW14047   0.968   6.775   6.687
 4383SOL    HW114048   1.041   6.735   6.632
 4383SOL    HW214049   0.924   6.848   6.636
 4384SOL     OW14050   3.587   0.378   1.826
 4384SOL    HW114051   3.678   0.375   1.866
 4384SOL    HW214052   3.580   0.312   1.752
 4385SOL     OW14053   5.583   2.619   4.667
 4385SOL    HW114054   5.582   2.666   4.579
 4385SOL    HW214055   5.544   2.527   4.656
 4386SOL     OW14056   2.083   5.399   0.295
 4386SOL    HW114057   2.114   5.479   0.345
 4386SOL    HW214058   2.158   5.361   0.241
 4387SOL     OW14059   6.691   2.764   0.998
 4387SOL    HW114060   6.728   2.721   1.080
 4387SOL    HW214061   6.690   2.698   0.922
 4388SOL     OW14062   3.438   0.831   5.728
 4388SOL    HW114063   3.525   0.843   5.777
 4388SOL    HW214064   3.363   0.825   5.795
 4389SOL     OW14065   1.502   3.403   2.516
 4389SOL    HW114066   1.504   3.499   2.488
 4389SOL    HW214067   1.443   3.351   2.454
 4390SOL     OW14068   5.059   3.805   0.834
 4390SOL    HW114069   5.050   3.879   0.901
 4390SOL    HW214070   4.970   3.761   0.821
 4391SOL     OW14071   0.313   5.751   1.338
 4391SOL    HW114072   0.331   5.661   1.298
 4391SOL    HW214073   0.366   5.762   1.421
 4392SOL     OW14074   5.150   5.854   4.640
 4392SOL    HW114075   5.229   5.849   4.701
 4392SOL    HW214076   5.177   5.827   4.547
 4393SOL     OW14077   5.180   6.637   2.659
 4393SOL    HW114078   5.170   6.623   2.758
 4393SOL    HW214079   5.267   6.599   2.628
 4394SOL     OW14080   4.800   1.432   2.684
 4394SOL    HW114081   4.713   1.386   2.703
 4394SOL    HW214082   4.832   1.477   2.768
 4395SOL     OW14083   5.300   2.900   1.430
 4395SOL    HW114084   5.284   2.845   1.511
 4395SOL    HW214085   5.218   2.902   1.373
 4396SOL     OW14086   2.176   0.387   2.024
 4396SOL    HW114087   2.228   0.447   2.085
 4396SOL    HW214088   2.176   0.425   1.931
 4397SOL     OW14089   4.197   2.551   0.647
 4397SOL    HW114090   4.132   2.521   0.717
 4397SOL    HW214091   4.272   2.601   0.691
 4398SOL     OW14092   0.424   5.407   5.208
 4398SOL    HW114093   0.489   5.352   5.260
 4398SOL    HW214094   0.331   5.385   5.237
 4399SOL     OW14095   2.484   6.979   1.501
 4399SOL    HW114096   2.479   6.883   1.475
 4399SOL    HW214097   2.440   0.014   1.431
 4400SOL     OW14098   3.672   5.126   2.620
 4400SOL    HW114099   3.710   5.034   2.612
 4400SOL    HW214100   3.678   5.156   2.715
 4401SOL     OW14101   4.430   6.523   5.053
 4401SOL    HW114102   4.381   6.564   4.976
 4401SOL    HW214103   4.364   6.492   5.122
 4402SOL     OW14104   0.302   6.478   0.901
 4402SOL    HW114105   0.338   6.418   0.971
 4402SOL    HW214106   0.356   6.562   0.897
 4403SOL     OW14107   6.400   1.797   3.399
 4403SOL    HW114108   6.372   1.759   3.311
 4403SOL    HW214109   6.500   1.795   3.405
 4404SOL     OW14110   1.549   3.758   2.794
 4404SOL    HW114111   1.535   3.791   2.701
 4404SOL    HW214112   1.647   3.762   2.817
 4405SOL     OW14113   3.220   3.694   6.985
 4405SOL    HW114114   3.130   3.682   6.943
 4405SOL    HW214115   3.273   3.610   6.976
 4406SOL     OW14116   6.542   2.589   3.145
 4406SOL    HW114117   6.617   2.641   3.187
 4406SOL    HW214118   6.518   2.512   3.204
 4407SOL     OW14119   0.920   1.101   0.499
 4407SOL    HW114120   0.924   1.197   0.473
 4407SOL    HW214121   0.964   1.045   0.430
 4408SOL     OW14122   4.863   6.272   1.026
 4408SOL    HW114123   4.955   6.249   0.995
 4408SOL    HW214124   4.865   6.356   1.081
 4409SOL     OW14125   3.681   1.489   2.980
 4409SOL    HW114126   3.645   1.406   3.024
 4409SOL    HW214127   3.761   1.465   2.924
 4410SOL     OW14128   2.328   5.371   0.176
 4410SOL    HW114129   2.362   5.414   0.259
 4410SOL    HW214130   2.365   5.278   0.170
 4411SOL     OW14131   3.423   2.773   1.949
 4411SOL    HW114132   3.415   2.872   1.937
 4411SOL    HW214133   3.332   2.734   1.964
 4412SOL     OW14134   2.540   1.499   6.688
 4412SOL    HW114135   2.475   1.455   6.750
 4412SOL    HW214136   2.594   1.567   6.739
 4413SOL     OW14137   4.033   6.084   3.975
 4413SOL    HW114138   4.057   6.137   4.056
 4413SOL    HW214139   3.972   6.137   3.916
 4414SOL     OW14140   3.510   4.271   1.453
 4414SOL    HW114141   3.433   4.235   1.506
 4414SOL    HW214142   3.559   4.340   1.507
 4415SOL     OW14143   5.238   1.187   2.033
 4415SOL    HW114144   5.274   1.254   1.968
 4415SOL    HW214145   5.173   1.231   2.094
 4416SOL     OW14146   2.766   2.221   5.441
 4416SOL    HW114147   2.820   2.276   5.378
 4416SOL    HW214148   2.684   2.187   5.394
 4417SOL     OW14149   5.073   1.233   1.453
 4417SOL    HW114150   5.006   1.160   1.470
 4417SOL    HW214151   5.165   1.196   1.460
 4418SOL     OW14152   4.051   0.500   2.983
 4418SOL    HW114153   4.041   0.540   2.891
 4418SOL    HW214154   4.135   0.446   2.988
 4419SOL     OW14155   6.511   5.615   6.507
 4419SOL    HW114156   6.588   5.550   6.507
 4419SOL    HW214157   6.439   5.581   6.567
 4420SOL     OW14158   5.496   1.566   1.005
 4420SOL    HW114159   5.431   1.537   1.075
 4420SOL    HW214160   5.588   1.534   1.030
 4421SOL     OW14161   0.992   1.555   3.521
 4421SOL    HW114162   1.016   1.651   3.537
 4421SOL    HW214163   0.900   1.551   3.480
 4422SOL     OW14164   1.998   4.072   5.835
 4422SOL    HW114165   1.999   4.021   5.749
 4422SOL    HW214166   1.920   4.135   5.835
 4423SOL     OW14167   0.459   2.236   6.240
 4423SOL    HW114168   0.528   2.265   6.173
 4423SOL    HW214169   0.457   2.301   6.316
 4424SOL     OW14170   2.129   5.539   3.063
 4424SOL    HW114171   2.124   5.635   3.038
 4424SOL    HW214172   2.098   5.483   2.986
 4425SOL     OW14173   5.898   4.303   2.951
 4425SOL    HW114174   5.799   4.298   2.964
 4425SOL    HW214175   5.923   4.257   2.866
 4426SOL     OW14176   0.348   6.371   6.664
 4426SOL    HW114177   0.333   6.332   6.573
 4426SOL    HW214178   0.300   6.459   6.671
 4427SOL     OW14179   0.616   4.905   3.944
 4427SOL    HW114180   0.575   4.842   3.878
 4427SOL    HW214181   0.560   4.909   4.026
 4428SOL     OW14182   1.477   0.138   2.076
 4428SOL    HW114183   1.384   0.164   2.053
 4428SOL    HW214184   1.476   0.056   2.133
 4429SOL     OW14185   2.077   6.659   1.260
 4429SOL    HW114186   2.075   6.736   1.323
 4429SOL    HW214187   2.029   6.581   1.301
 4430SOL     OW14188   1.826   0.677   2.366
 4430SOL    HW114189   1.814   0.614   2.290
 4430SOL    HW214190   1.807   0.770   2.336
 4431SOL     OW14191   2.418   1.724   2.376
 4431SOL    HW114192   2.493   1.679   2.426
 4431SOL    HW214193   2.416   1.691   2.282
 4432SOL     OW14194   3.484   3.935   4.572
 4432SOL    HW114195   3.462   3.933   4.670
 4432SOL    HW214196   3.433   4.009   4.528
 4433SOL     OW14197   5.282   6.925   1.349
 4433SOL    HW114198   5.291   6.893   1.255
 4433SOL    HW214199   5.372   6.932   1.390
 4434SOL     OW14200   5.690   2.474   5.779
 4434SOL    HW114201   5.744   2.411   5.724
 4434SOL    HW214202   5.595   2.473   5.747
 4435SOL     OW14203   3.464   2.616   1.731
 4435SOL    HW114204   3.439   2.691   1.792
 4435SOL    HW214205   3.526   2.553   1.778
 4436SOL     OW14206   5.812   6.956   0.049
 4436SOL    HW114207   5.827   6.928   0.144
 4436SOL    HW214208   5.899   6.987   0.010
 4437SOL     OW14209   2.750   0.088   5.572
 4437SOL    HW114210   2.848   0.083   5.591
 4437SOL    HW214211   2.731   0.169   5.516
 4438SOL     OW14212   4.072   2.153   0.303
 4438SOL    HW114213   4.109   2.065   0.335
 4438SOL    HW214214   4.097   2.225   0.368
 4439SOL     OW14215   0.812   5.368   2.719
 4439SOL    HW114216   0.797   5.269   2.721
 4439SOL    HW214217   0.896   5.389   2.769
 4440SOL     OW14218   6.363   1.771   0.057
 4440SOL    HW114219   6.319   1.830   0.125
 4440SOL    HW214220   6.320   1.784   6.990
 4441SOL     OW14221   5.737   0.984   4.325
 4441SOL    HW114222   5.720   0.957   4.230
 4441SOL    HW214223   5.739   1.084   4.331
 4442SOL     OW14224   1.879   6.150   1.489
 4442SOL    HW114225   1.969   6.180   1.519
 4442SOL    HW214226   1.846   6.076   1.548
 4443SOL     OW14227   1.327   1.056   1.621
 4443SOL    HW114228   1.364   1.149   1.614
 4443SOL    HW214229   1.367   1.000   1.548
 4444SOL     OW14230   5.289   1.932   2.877
 4444SOL    HW114231   5.211   1.952   2.818
 4444SOL    HW214232   5.370   1.980   2.844
 4445SOL     OW14233   1.234   2.189   6.212
 4445SOL    HW114234   1.164   2.254   6.183
 4445SOL    HW214235   1.319   2.206   6.162
 4446SOL     OW14236   6.273   5.477   4.063
 4446SOL    HW114237   6.259   5.570   4.099
 4446SOL    HW214238   6.349   5.478   3.998
 4447SOL     OW14239   4.980   3.749   4.933
 4447SOL    HW114240   4.927   3.694   4.997
 4447SOL    HW214241   4.941   3.741   4.842
 4448SOL     OW14242   2.304   3.217   6.438
 4448SOL    HW114243   2.334   3.180   6.351
 4448SOL    HW214244   2.277   3.143   6.499
 4449SOL     OW14245   0.554   1.715   5.616
 4449SOL    HW114246   0.561   1.623   5.577
 4449SOL    HW214247   0.477   1.718   5.680
 4450SOL     OW14248   4.068   3.164   2.813
 4450SOL    HW114249   4.034   3.120   2.895
 4450SOL    HW214250   4.032   3.118   2.732
 4451SOL     OW14251   0.393   5.495   1.300
 4451SOL    HW114252   0.350   5.431   1.236
 4451SOL    HW214253   0.400   5.452   1.390
 4452SOL     OW14254   0.672   3.447   6.176
 4452SOL    HW114255   0.583   3.416   6.143
 4452SOL    HW214256   0.735   3.458   6.099
 4453SOL     OW14257   5.587   1.437   0.506
 4453SOL    HW114258   5.578   1.405   0.411
 4453SOL    HW214259   5.683   1.432   0.533
 4454SOL     OW14260   6.004   3.459   2.483
 4454SOL    HW114261   5.931   3.391   2.480
 4454SOL    HW214262   6.014   3.501   2.393
 4455SOL     OW14263   5.102   2.738   2.659
 4455SOL    HW114264   5.016   2.724   2.709
 4455SOL    HW214265   5.151   2.814   2.701
 4456SOL     OW14266   6.934   5.581   2.712
 4456SOL    HW114267   6.861   5.530   2.758
 4456SOL    HW214268   6.915   5.679   2.719
 4457SOL     OW14269   4.613   2.483   6.285
 4457SOL    HW114270   4.664   2.502   6.201
 4457SOL    HW214271   4.542   2.552   6.298
 4458SOL     OW14272   4.568   1.868   1.320
 4458SOL    HW114273   4.498   1.899   1.385
 4458SOL    HW214274   4.525   1.850   1.231
 4459SOL     OW14275   6.728   5.498   6.941
 4459SOL    HW114276   6.808   5.437   6.937
 4459SOL    HW214277   6.739   5.571   6.874
 4460SOL     OW14278   1.534   6.958   0.278
 4460SOL    HW114279   1.588   6.899   0.218
 4460SOL    HW214280   1.472   6.902   0.333
 4461SOL     OW14281   1.947   0.043   3.159
 4461SOL    HW114282   1.925   0.140   3.151
 4461SOL    HW214283   1.870   7.016   3.199
 4462SOL     OW14284   0.383   2.664   1.272
 4462SOL    HW114285   0.470   2.705   1.244
 4462SOL    HW214286   0.316   2.736   1.288
 4463SOL     OW14287   0.755   3.935   6.371
 4463SOL    HW114288   0.764   3.997   6.449
 4463SOL    HW214289   0.730   3.844   6.403
 4464SOL     OW14290   6.885   3.743   0.874
 4464SOL    HW114291   6.948   3.820   0.862
 4464SOL    HW214292   6.919   3.684   0.947
 4465SOL     OW14293   5.728   4.544   1.299
 4465SOL    HW114294   5.675   4.597   1.366
 4465SOL    HW214295   5.825   4.548   1.324
 4466SOL     OW14296   6.906   2.977   4.190
 4466SOL    HW114297   6.957   3.045   4.243
 4466SOL    HW214298   6.925   2.990   4.093
 4467SOL     OW14299   1.620   0.377   4.415
 4467SOL    HW114300   1.582   0.401   4.326
 4467SOL    HW214301   1.549   0.388   4.485
 4468SOL     OW14302   1.163   1.354   0.520
 4468SOL    HW114303   1.065   1.363   0.532
 4468SOL    HW214304   1.211   1.398   0.596
 4469SOL     OW14305   5.016   6.631   0.358
 4469SOL    HW114306   5.037   6.584   0.272
 4469SOL    HW214307   4.968   6.569   0.419
 4470SOL     OW14308   4.676   4.440   1.600
 4470SOL    HW114309   4.670   4.365   1.667
 4470SOL    HW214310   4.771   4.449   1.570
 4471SOL     OW14311   6.311   2.384   1.507
 4471SOL    HW114312   6.222   2.415   1.474
 4471SOL    HW214313   6.299   2.328   1.589
 4472SOL     OW14314   2.322   5.029   1.305
 4472SOL    HW114315   2.303   5.125   1.326
 4472SOL    HW214316   2.420   5.018   1.290
 4473SOL     OW14317   5.418   0.808   6.860
 4473SOL    HW114318   5.386   0.903   6.863
 4473SOL    HW214319   5.514   0.806   6.888
 4474SOL     OW14320   6.999   1.750   5.405
 4474SOL    HW114321   6.933   1.780   5.474
 4474SOL    HW214322   0.065   1.794   5.421
 4475SOL     OW14323   1.548   4.100   0.831
 4475SOL    HW114324   1.486   4.118   0.907
 4475SOL    HW214325   1.513   4.023   0.777
 4476SOL     OW14326   3.351   6.486   2.737
 4476SOL    HW114327   3.296   6.464   2.817
 4476SOL    HW214328   3.313   6.440   2.656
 4477SOL     OW14329   1.478   2.055   1.191
 4477SOL    HW114330   1.522   1.996   1.124
 4477SOL    HW214331   1.493   2.019   1.283
 4478SOL     OW14332   1.120   4.590   0.383
 4478SOL    HW114333   1.203   4.606   0.330
 4478SOL    HW214334   1.144   4.557   0.474
 4479SOL     OW14335   0.720   5.755   6.148
 4479SOL    HW114336   0.696   5.660   6.129
 4479SOL    HW214337   0.819   5.767   6.138
 4480SOL     OW14338   6.808   3.268   3.201
 4480SOL    HW114339   6.750   3.257   3.282
 4480SOL    HW214340   6.904   3.268   3.229
 4481SOL     OW14341   0.619   0.809   3.683
 4481SOL    HW114342   0.537   0.831   3.735
 4481SOL    HW214343   0.663   0.728   3.722
 4482SOL     OW14344   0.369   4.193   3.773
 4482SOL    HW114345   0.343   4.239   3.858
 4482SOL    HW214346   0.328   4.102   3.770
 4483SOL     OW14347   6.725   4.340   1.025
 4483SOL    HW114348   6.738   4.370   0.930
 4483SOL    HW214349   6.749   4.243   1.032
 4484SOL     OW14350   3.958   3.315   6.258
 4484SOL    HW114351   3.951   3.395   6.316
 4484SOL    HW214352   3.909   3.238   6.300
 4485SOL     OW14353   4.316   6.740   5.648
 4485SOL    HW114354   4.339   6.779   5.559
 4485SOL    HW214355   4.383   6.670   5.672
 4486SOL     OW14356   6.221   3.549   4.571
 4486SOL    HW114357   6.245   3.495   4.490
 4486SOL    HW214358   6.122   3.559   4.577
 4487SOL     OW14359   3.491   2.811   6.195
 4487SOL    HW114360   3.590   2.819   6.182
 4487SOL    HW214361   3.444   2.847   6.114
 4488SOL     OW14362   0.144   2.526   6.850
 4488SOL    HW114363   0.081   2.598   6.879
 4488SOL    HW214364   0.095   2.458   6.796
 4489SOL     OW14365   0.780   2.568   4.197
 4489SOL    HW114366   0.816   2.478   4.222
 4489SOL    HW214367   0.794   2.584   4.100
 4490SOL     OW14368   0.030   1.799   3.537
 4490SOL    HW114369   0.050   1.714   3.487
 4490SOL    HW214370   6.988   1.854   3.483
 4491SOL     OW14371   2.461   5.403   2.070
 4491SOL    HW114372   2.473   5.343   2.149
 4491SOL    HW214373   2.484   5.354   1.986
 4492SOL     OW14374   5.709   3.706   4.774
 4492SOL    HW114375   5.645   3.776   4.804
 4492SOL    HW214376   5.785   3.699   4.839
 4493SOL     OW14377   5.926   4.820   3.687
 4493SOL    HW114378   5.927   4.796   3.784
 4493SOL    HW214379   5.919   4.919   3.677
 4494SOL     OW14380   5.169   3.413   2.304
 4494SOL    HW114381   5.199   3.419   2.399
 4494SOL    HW214382   5.070   3.399   2.301
 4495SOL     OW14383   5.922   4.471   2.396
 4495SOL    HW114384   5.865   4.389   2.395
 4495SOL    HW214385   5.936   4.500   2.491
 4496SOL     OW14386   6.324   3.568   6.259
 4496SOL    HW114387   6.377   3.652   6.252
 4496SOL    HW214388   6.247   3.573   6.195
 4497SOL     OW14389   5.796   0.270   0.800
 4497SOL    HW114390   5.758   0.267   0.892
 4497SOL    HW214391   5.886   0.314   0.802
 4498SOL     OW14392   1.214   4.923   6.269
 4498SOL    HW114393   1.229   4.842   6.212
 4498SOL    HW214394   1.186   4.894   6.361
 4499SOL     OW14395   5.777   3.910   0.207
 4499SOL    HW114396   5.752   3.820   0.243
 4499SOL    HW214397   5.732   3.981   0.261
 4500SOL     OW14398   3.408   3.798   2.137
 4500SOL    HW114399   3.415   3.714   2.190
 4500SOL    HW214400   3.312   3.818   2.117
 4501SOL     OW14401   1.459   5.277   4.895
 4501SOL    HW114402   1.484   5.361   4.848
 4501SOL    HW214403   1.408   5.218   4.832
 4502SOL     OW14404   5.879   3.018   0.657
 4502SOL    HW114405   5.781   3.010   0.673
 4502SOL    HW214406   5.895   3.037   0.560
 4503SOL     OW14407   0.805   3.900   2.592
 4503SOL    HW114408   0.718   3.939   2.625
 4503SOL    HW214409   0.801   3.888   2.493
 4504SOL     OW14410   4.839   2.125   4.416
 4504SOL    HW114411   4.747   2.148   4.383
 4504SOL    HW214412   4.895   2.092   4.340
 4505SOL     OW14413   2.462   5.889   6.834
 4505SOL    HW114414   2.538   5.842   6.877
 4505SOL    HW214415   2.443   5.975   6.883
 4506SOL     OW14416   2.918   6.263   6.013
 4506SOL    HW114417   2.953   6.321   6.086
 4506SOL    HW214418   2.972   6.179   6.008
 4507SOL     OW14419   6.385   3.920   2.672
 4507SOL    HW114420   6.385   3.863   2.590
 4507SOL    HW214421   6.403   3.863   2.752
 4508SOL     OW14422   1.912   4.797   1.222
 4508SOL    HW114423   1.903   4.865   1.148
 4508SOL    HW214424   1.841   4.728   1.213
 4509SOL     OW14425   0.530   2.317   3.954
 4509SOL    HW114426   0.462   2.246   3.937
 4509SOL    HW214427   0.515   2.393   3.891
 4510SOL     OW14428   2.624   0.124   0.459
 4510SOL    HW114429   2.564   0.197   0.425
 4510SOL    HW214430   2.709   0.164   0.492
 4511SOL     OW14431   0.307   2.310   0.725
 4511SOL    HW114432   0.342   2.403   0.726
 4511SOL    HW214433   0.351   2.258   0.653
 4512SOL     OW14434   1.828   3.892   0.589
 4512SOL    HW114435   1.922   3.886   0.624
 4512SOL    HW214436   1.783   3.972   0.628
 4513SOL     OW14437   6.519   1.939   2.363
 4513SOL    HW114438   6.470   1.858   2.332
 4513SOL    HW214439   6.472   1.979   2.441
 4514SOL     OW14440   1.725   6.996   4.895
 4514SOL    HW114441   1.746   6.974   4.800
 4514SOL    HW214442   1.628   7.016   4.905
 4515SOL     OW14443   0.188   4.128   0.434
 4515SOL    HW114444   0.129   4.200   0.397
 4515SOL    HW214445   0.268   4.118   0.376
 4516SOL     OW14446   6.790   0.361   3.654
 4516SOL    HW114447   6.849   0.438   3.629
 4516SOL    HW214448   6.799   0.289   3.586
 4517SOL     OW14449   2.477   0.844   0.115
 4517SOL    HW114450   2.419   0.805   0.187
 4517SOL    HW214451   2.504   0.937   0.141
 4518SOL     OW14452   1.087   1.002   3.285
 4518SOL    HW114453   1.090   0.904   3.304
 4518SOL    HW214454   1.047   1.049   3.363
 4519SOL     OW14455   0.334   2.190   4.554
 4519SOL    HW114456   0.423   2.155   4.527
 4519SOL    HW214457   0.283   2.219   4.473
 4520SOL     OW14458   6.796   3.936   3.788
 4520SOL    HW114459   6.720   3.959   3.849
 4520SOL    HW214460   6.765   3.937   3.693
 4521SOL     OW14461   4.885   1.274   6.212
 4521SOL    HW114462   4.790   1.246   6.225
 4521SOL    HW214463   4.931   1.278   6.301
 4522SOL     OW14464   4.817   6.622   3.346
 4522SOL    HW114465   4.810   6.539   3.400
 4522SOL    HW214466   4.864   6.693   3.400
 4523SOL     OW14467   4.913   1.849   5.887
 4523SOL    HW114468   4.863   1.767   5.860
 4523SOL    HW214469   4.907   1.860   5.987
 4524SOL     OW14470   5.708   2.088   5.290
 4524SOL    HW114471   5.671   2.009   5.338
 4524SOL    HW214472   5.717   2.067   5.193
 4525SOL     OW14473   0.054   1.794   3.808
 4525SOL    HW114474   0.055   1.802   3.708
 4525SOL    HW214475   6.983   1.770   3.839
 4526SOL     OW14476   2.445   2.130   1.061
 4526SOL    HW114477   2.406   2.172   1.142
 4526SOL    HW214478   2.428   2.187   0.981
 4527SOL     OW14479   4.500   0.265   2.517
 4527SOL    HW114480   4.563   0.255   2.440
 4527SOL    HW214481   4.453   0.353   2.511
 4528SOL     OW14482   4.465   6.857   6.565
 4528SOL    HW114483   4.366   6.864   6.579
 4528SOL    HW214484   4.504   6.948   6.557
 4529SOL     OW14485   3.170   0.024   4.144
 4529SOL    HW114486   3.082   0.068   4.130
 4529SOL    HW214487   3.225   0.079   4.207
 4530SOL     OW14488   6.716   1.884   4.501
 4530SOL    HW114489   6.697   1.976   4.466
 4530SOL    HW214490   6.793   1.889   4.565
 4531SOL     OW14491   6.913   4.073   3.123
 4531SOL    HW114492   6.914   4.170   3.102
 4531SOL    HW214493   7.001   4.047   3.164
 4532SOL     OW14494   0.215   2.024   0.672
 4532SOL    HW114495   0.254   2.074   0.750
 4532SOL    HW214496   0.133   1.974   0.703
 4533SOL     OW14497   3.439   6.454   1.354
 4533SOL    HW114498   3.514   6.395   1.323
 4533SOL    HW214499   3.378   6.402   1.413
 4534SOL     OW14500   6.607   4.520   6.788
 4534SOL    HW114501   6.564   4.593   6.735
 4534SOL    HW214502   6.537   4.456   6.820
 4535SOL     OW14503   4.524   1.528   2.469
 4535SOL    HW114504   4.466   1.484   2.538
 4535SOL    HW214505   4.490   1.505   2.378
 4536SOL     OW14506   6.810   0.199   3.426
 4536SOL    HW114507   6.864   0.118   3.406
 4536SOL    HW214508   6.763   0.229   3.343
 4537SOL     OW14509   4.766   3.024   5.736
 4537SOL    HW114510   4.817   3.050   5.654
 4537SOL    HW214511   4.758   2.924   5.740
 4538SOL     OW14512   3.297   2.244   1.295
 4538SOL    HW114513   3.293   2.144   1.301
 4538SOL    HW214514   3.204   2.281   1.302
 4539SOL     OW14515   2.576   4.139   0.665
 4539SOL    HW114516   2.534   4.090   0.588
 4539SOL    HW214517   2.522   4.123   0.748
 4540SOL     OW14518   3.547   3.108   3.910
 4540SOL    HW114519   3.603   3.186   3.934
 4540SOL    HW214520   3.481   3.090   3.983
 4541SOL     OW14521   5.955   1.802   1.679
 4541SOL    HW114522   6.008   1.858   1.616
 4541SOL    HW214523   5.933   1.715   1.636
 4542SOL     OW14524   5.696   6.508   3.655
 4542SOL    HW114525   5.631   6.436   3.631
 4542SOL    HW214526   5.729   6.552   3.572
 4543SOL     OW14527   4.936   2.646   2.842
 4543SOL    HW114528   4.951   2.721   2.907
 4543SOL    HW214529   4.937   2.559   2.891
 4544SOL     OW14530   5.818   4.422   0.488
 4544SOL    HW114531   5.855   4.374   0.409
 4544SOL    HW214532   5.779   4.356   0.553
 4545SOL     OW14533   4.798   3.778   0.462
 4545SOL    HW114534   4.731   3.744   0.397
 4545SOL    HW214535   4.835   3.702   0.516
 4546SOL     OW14536   1.048   6.190   0.604
 4546SOL    HW114537   0.962   6.219   0.564
 4546SOL    HW214538   1.093   6.124   0.543
 4547SOL     OW14539   4.293   1.441   2.688
 4547SOL    HW114540   4.278   1.367   2.623
 4547SOL    HW214541   4.284   1.405   2.781
 4548SOL     OW14542   1.492   3.005   4.508
 4548SOL    HW114543   1.592   2.996   4.500
 4548SOL    HW214544   1.471   3.091   4.554
 4549SOL     OW14545   6.214   1.833   3.136
 4549SOL    HW114546   6.243   1.928   3.151
 4549SOL    HW214547   6.128   1.832   3.085
 4550SOL     OW14548   1.842   5.596   5.629
 4550SOL    HW114549   1.922   5.556   5.584
 4550SOL    HW214550   1.758   5.562   5.587
 4551SOL     OW14551   6.382   3.543   0.941
 4551SOL    HW114552   6.304   3.503   0.892
 4551SOL    HW214553   6.407   3.630   0.897
 4552SOL     OW14554   0.093   3.985   5.448
 4552SOL    HW114555   0.153   4.036   5.386
 4552SOL    HW214556   7.021   4.019   5.440
 4553SOL     OW14557   5.079   5.416   0.332
 4553SOL    HW114558   5.050   5.461   0.248
 4553SOL    HW214559   5.008   5.353   0.363
 4554SOL     OW14560   6.105   5.751   3.910
 4554SOL    HW114561   6.052   5.829   3.942
 4554SOL    HW214562   6.110   5.752   3.811
 4555SOL     OW14563   3.807   2.791   6.684
 4555SOL    HW114564   3.775   2.772   6.777
 4555SOL    HW214565   3.740   2.847   6.636
 4556SOL     OW14566   3.763   0.752   4.610
 4556SOL    HW114567   3.697   0.709   4.548
 4556SOL    HW214568   3.852   0.708   4.600
 4557SOL     OW14569   5.480   0.731   3.738
 4557SOL    HW114570   5.438   0.808   3.785
 4557SOL    HW214571   5.518   0.762   3.651
 4558SOL     OW14572   0.727   4.122   0.293
 4558SOL    HW114573   0.762   4.057   0.225
 4558SOL    HW214574   0.747   4.215   0.262
 4559SOL     OW14575   1.592   6.779   0.841
 4559SOL    HW114576   1.685   6.814   0.857
 4559SOL    HW214577   1.552   6.751   0.929
 4560SOL     OW14578   6.401   1.925   4.471
 4560SOL    HW114579   6.469   1.883   4.531
 4560SOL    HW214580   6.434   1.923   4.377
 4561SOL     OW14581   2.368   6.073   6.493
 4561SOL    HW114582   2.333   6.165   6.511
 4561SOL    HW214583   2.447   6.078   6.432
 4562SOL     OW14584   3.235   3.953   5.353
 4562SOL    HW114585   3.239   3.970   5.254
 4562SOL    HW214586   3.219   3.856   5.370
 4563SOL     OW14587   5.265   2.890   6.737
 4563SOL    HW114588   5.236   2.856   6.647
 4563SOL    HW214589   5.280   2.813   6.799
 4564SOL     OW14590   6.668   5.743   0.708
 4564SOL    HW114591   6.749   5.785   0.749
 4564SOL    HW214592   6.594   5.740   0.776
 4565SOL     OW14593   4.665   0.794   4.396
 4565SOL    HW114594   4.711   0.706   4.380
 4565SOL    HW214595   4.566   0.782   4.384
 4566SOL     OW14596   1.754   0.442   1.352
 4566SOL    HW114597   1.662   0.404   1.340
 4566SOL    HW214598   1.787   0.420   1.444
 4567SOL     OW14599   6.243   2.755   0.603
 4567SOL    HW114600   6.197   2.818   0.665
 4567SOL    HW214601   6.301   2.806   0.540
 4568SOL     OW14602   4.345   4.809   3.793
 4568SOL    HW114603   4.397   4.888   3.827
 4568SOL    HW214604   4.262   4.798   3.848
 4569SOL     OW14605   2.086   0.938   3.253
 4569SOL    HW114606   2.135   0.872   3.196
 4569SOL    HW214607   2.006   0.973   3.204
 4570SOL     OW14608   5.055   6.237   4.579
 4570SOL    HW114609   5.015   6.193   4.659
 4570SOL    HW214610   5.000   6.316   4.553
 4571SOL     OW14611   4.073   3.197   3.867
 4571SOL    HW114612   4.030   3.171   3.781
 4571SOL    HW214613   4.165   3.233   3.849
 4572SOL     OW14614   2.288   4.429   1.366
 4572SOL    HW114615   2.299   4.511   1.423
 4572SOL    HW214616   2.314   4.451   1.272
 4573SOL     OW14617   5.109   6.551   1.539
 4573SOL    HW114618   5.100   6.640   1.493
 4573SOL    HW214619   5.019   6.518   1.566
 4574SOL     OW14620   6.949   4.697   1.839
 4574SOL    HW114621   6.905   4.772   1.887
 4574SOL    HW214622   6.998   4.732   1.759
 4575SOL     OW14623   6.208   6.011   1.635
 4575SOL    HW114624   6.307   6.027   1.632
 4575SOL    HW214625   6.164   6.081   1.690
 4576SOL     OW14626   3.589   5.912   4.573
 4576SOL    HW114627   3.517   5.982   4.578
 4576SOL    HW214628   3.677   5.954   4.594
 4577SOL     OW14629   2.459   5.065   3.212
 4577SOL    HW114630   2.500   5.155   3.226
 4577SOL    HW214631   2.503   4.999   3.274
 4578SOL     OW14632   6.300   6.346   3.489
 4578SOL    HW114633   6.323   6.355   3.586
 4578SOL    HW214634   6.261   6.255   3.473
 4579SOL     OW14635   4.875   1.542   2.940
 4579SOL    HW114636   4.827   1.466   2.983
 4579SOL    HW214637   4.953   1.569   2.996
 4580SOL     OW14638   0.701   4.772   0.788
 4580SOL    HW114639   0.713   4.701   0.858
 4580SOL    HW214640   0.619   4.825   0.808
 4581SOL     OW14641   2.946   5.485   4.842
 4581SOL    HW114642   2.987   5.406   4.797
 4581SOL    HW214643   2.984   5.569   4.803
 4582SOL     OW14644   4.878   5.988   2.353
 4582SOL    HW114645   4.800   6.029   2.307
 4582SOL    HW214646   4.927   5.928   2.289
 4583SOL     OW14647   4.168   0.153   4.868
 4583SOL    HW114648   4.251   0.155   4.812
 4583SOL    HW214649   4.193   0.158   4.964
 4584SOL     OW14650   6.909   5.192   5.329
 4584SOL    HW114651   6.907   5.281   5.283
 4584SOL    HW214652   6.953   5.125   5.270
 4585SOL     OW14653   3.056   6.537   1.969
 4585SOL    HW114654   2.969   6.531   1.920
 4585SOL    HW214655   3.077   6.633   1.989
 4586SOL     OW14656   1.445   6.697   1.870
 4586SOL    HW114657   1.345   6.706   1.867
 4586SOL    HW214658   1.474   6.630   1.801
 4587SOL     OW14659   3.698   4.509   1.201
 4587SOL    HW114660   3.717   4.411   1.213
 4587SOL    HW214661   3.698   4.531   1.103
 4588SOL     OW14662   3.766   3.869   4.642
 4588SOL    HW114663   3.757   3.917   4.729
 4588SOL    HW214664   3.675   3.851   4.604
 4589SOL     OW14665   2.166   1.975   3.732
 4589SOL    HW114666   2.116   1.901   3.687
 4589SOL    HW214667   2.264   1.962   3.718
 4590SOL     OW14668   3.780   6.974   2.630
 4590SOL    HW114669   3.691   6.962   2.673
 4590SOL    HW214670   3.772   6.960   2.532
 4591SOL     OW14671   4.985   5.692   4.782
 4591SOL    HW114672   4.887   5.683   4.760
 4591SOL    HW214673   5.030   5.745   4.710
 4592SOL     OW14674   3.572   2.102   6.731
 4592SOL    HW114675   3.507   2.098   6.807
 4592SOL    HW214676   3.656   2.056   6.757
 4593SOL     OW14677   5.130   5.278   1.289
 4593SOL    HW114678   5.063   5.351   1.304
 4593SOL    HW214679   5.185   5.266   1.371
 4594SOL     OW14680   4.603   2.118   2.704
 4594SOL    HW114681   4.586   2.133   2.801
 4594SOL    HW214682   4.541   2.048   2.669
 4595SOL     OW14683   4.107   3.213   5.161
 4595SOL    HW114684   4.147   3.300   5.191
 4595SOL    HW214685   4.108   3.147   5.237
 4596SOL     OW14686   4.791   1.070   2.205
 4596SOL    HW114687   4.845   1.071   2.121
 4596SOL    HW214688   4.700   1.035   2.185
 4597SOL     OW14689   6.984   3.438   6.344
 4597SOL    HW114690   0.050   3.462   6.385
 4597SOL    HW214691   6.984   3.341   6.319
 4598SOL     OW14692   2.445   4.008   0.487
 4598SOL    HW114693   2.405   3.919   0.465
 4598SOL    HW214694   2.474   4.054   0.403
 4599SOL     OW14695   3.052   4.934   0.637
 4599SOL    HW114696   2.978   4.922   0.704
 4599SOL    HW214697   3.022   4.901   0.548
 4600SOL     OW14698   2.375   3.711   0.983
 4600SOL    HW114699   2.404   3.735   0.890
 4600SOL    HW214700   2.359   3.612   0.989
 4601SOL     OW14701   1.568   5.479   3.332
 4601SOL    HW114702   1.600   5.460   3.425
 4601SOL    HW214703   1.571   5.577   3.315
 4602SOL     OW14704   0.624   0.055   1.956
 4602SOL    HW114705   0.690   0.074   2.028
 4602SOL    HW214706   0.659   0.087   1.869
 4603SOL     OW14707   2.322   1.251   1.387
 4603SOL    HW114708   2.368   1.335   1.358
 4603SOL    HW214709   2.385   1.195   1.441
 4604SOL     OW14710   0.869   6.741   3.722
 4604SOL    HW114711   0.887   6.828   3.767
 4604SOL    HW214712   0.855   6.670   3.791
 4605SOL     OW14713   5.286   6.471   5.572
 4605SOL    HW114714   5.268   6.385   5.619
 4605SOL    HW214715   5.383   6.494   5.581
 4606SOL     OW14716   6.653   6.147   4.076
 4606SOL    HW114717   6.619   6.107   3.990
 4606SOL    HW214718   6.658   6.247   4.066
 4607SOL     OW14719   2.472   3.217   6.883
 4607SOL    HW114720   2.379   3.236   6.916
 4607SOL    HW214721   2.530   3.297   6.898
 4608SOL     OW14722   1.683   3.913   5.872
 4608SOL    HW114723   1.658   3.983   5.805
 4608SOL    HW214724   1.724   3.835   5.824
 4609SOL     OW14725   3.767   0.003   0.286
 4609SOL    HW114726   3.794   6.958   0.356
 4609SOL    HW214727   3.688   0.056   0.319
 4610SOL     OW14728   6.915   3.539   0.476
 4610SOL    HW114729   6.836   3.569   0.530
 4610SOL    HW214730   6.998   3.548   0.530
 4611SOL     OW14731   1.709   5.235   5.485
 4611SOL    HW114732   1.656   5.319   5.471
 4611SOL    HW214733   1.739   5.199   5.397
 4612SOL     OW14734   1.277   0.700   6.688
 4612SOL    HW114735   1.359   0.667   6.733
 4612SOL    HW214736   1.301   0.768   6.618
 4613SOL     OW14737   4.071   4.556   1.333
 4613SOL    HW114738   3.975   4.560   1.357
 4613SOL    HW214739   4.123   4.621   1.388
 4614SOL     OW14740   1.664   3.648   0.877
 4614SOL    HW114741   1.629   3.703   0.952
 4614SOL    HW214742   1.756   3.615   0.900
 4615SOL     OW14743   5.741   3.153   6.777
 4615SOL    HW114744   5.668   3.088   6.754
 4615SOL    HW214745   5.824   3.103   6.800
 4616SOL     OW14746   5.647   0.479   6.702
 4616SOL    HW114747   5.714   0.454   6.772
 4616SOL    HW214748   5.659   0.421   6.622
 4617SOL     OW14749   0.242   4.378   1.929
 4617SOL    HW114750   0.336   4.390   1.959
 4617SOL    HW214751   0.193   4.321   1.995
 4618SOL     OW14752   1.666   2.723   6.837
 4618SOL    HW114753   1.605   2.802   6.837
 4618SOL    HW214754   1.649   2.668   6.919
 4619SOL     OW14755   4.739   1.047   4.385
 4619SOL    HW114756   4.691   1.083   4.305
 4619SOL    HW214757   4.745   0.948   4.378
 4620SOL     OW14758   1.654   5.583   0.815
 4620SOL    HW114759   1.619   5.561   0.724
 4620SOL    HW214760   1.618   5.517   0.881
 4621SOL     OW14761   6.596   0.886   0.136
 4621SOL    HW114762   6.574   0.827   0.213
 4621SOL    HW214763   6.549   0.974   0.146
 4622SOL     OW14764   1.513   4.440   0.499
 4622SOL    HW114765   1.510   4.530   0.455
 4622SOL    HW214766   1.607   4.407   0.501
 4623SOL     OW14767   6.885   3.954   4.381
 4623SOL    HW114768   6.853   3.941   4.287
 4623SOL    HW214769   6.825   4.018   4.428
 4624SOL     OW14770   4.609   6.397   6.027
 4624SOL    HW114771   4.523   6.347   6.034
 4624SOL    HW214772   4.659   6.365   5.946
 4625SOL     OW14773   0.203   4.354   6.185
 4625SOL    HW114774   0.231   4.308   6.270
 4625SOL    HW214775   0.263   4.431   6.167
 4626SOL     OW14776   6.750   4.587   2.277
 4626SOL    HW114777   6.793   4.672   2.248
 4626SOL    HW214778   6.723   4.533   2.197
 4627SOL     OW14779   2.090   6.885   4.307
 4627SOL    HW114780   2.190   6.880   4.312
 4627SOL    HW214781   2.053   6.794   4.289
 4628SOL     OW14782   6.561   2.744   2.289
 4628SOL    HW114783   6.602   2.657   2.262
 4628SOL    HW214784   6.516   2.786   2.211
 4629SOL     OW14785   4.482   5.754   4.091
 4629SOL    HW114786   4.468   5.655   4.086
 4629SOL    HW214787   4.481   5.792   3.998
 4630SOL     OW14788   2.491   5.990   2.473
 4630SOL    HW114789   2.516   6.030   2.385
 4630SOL    HW214790   2.471   5.893   2.460
 4631SOL     OW14791   1.405   0.467   2.468
 4631SOL    HW114792   1.400   0.459   2.368
 4631SOL    HW214793   1.471   0.400   2.503
 4632SOL     OW14794   6.022   6.023   4.275
 4632SOL    HW114795   6.099   6.065   4.324
 4632SOL    HW214796   5.936   6.049   4.318
 4633SOL     OW14797   4.781   3.392   6.090
 4633SOL    HW114798   4.732   3.307   6.109
 4633SOL    HW214799   4.716   3.462   6.061
 4634SOL     OW14800   2.190   3.273   0.266
 4634SOL    HW114801   2.104   3.236   0.301
 4634SOL    HW214802   2.207   3.236   0.174
 4635SOL     OW14803   4.553   3.025   1.424
 4635SOL    HW114804   4.506   3.047   1.509
 4635SOL    HW214805   4.605   2.940   1.435
 4636SOL     OW14806   1.168   5.826   1.438
 4636SOL    HW114807   1.265   5.846   1.423
 4636SOL    HW214808   1.124   5.805   1.350
 4637SOL     OW14809   0.729   0.794   5.627
 4637SOL    HW114810   0.708   0.888   5.602
 4637SOL    HW214811   0.778   0.791   5.714
 4638SOL     OW14812   4.547   4.866   5.641
 4638SOL    HW114813   4.501   4.784   5.607
 4638SOL    HW214814   4.516   4.884   5.735
 4639SOL     OW14815   0.136   2.385   5.714
 4639SOL    HW114816   0.184   2.438   5.645
 4639SOL    HW214817   0.112   2.444   5.792
 4640SOL     OW14818   0.583   5.623   3.322
 4640SOL    HW114819   0.661   5.681   3.298
 4640SOL    HW214820   0.616   5.533   3.352
 4641SOL     OW14821   2.271   3.743   5.222
 4641SOL    HW114822   2.315   3.653   5.219
 4641SOL    HW214823   2.329   3.811   5.177
 4642SOL     OW14824   6.194   5.279   4.601
 4642SOL    HW114825   6.236   5.197   4.640
 4642SOL    HW214826   6.266   5.338   4.565
 4643SOL     OW14827   4.434   3.665   1.019
 4643SOL    HW114828   4.465   3.652   0.925
 4643SOL    HW214829   4.337   3.643   1.025
 4644SOL     OW14830   3.521   5.108   5.323
 4644SOL    HW114831   3.435   5.137   5.365
 4644SOL    HW214832   3.514   5.012   5.296
 4645SOL     OW14833   2.039   5.745   4.684
 4645SOL    HW114834   2.061   5.791   4.598
 4645SOL    HW214835   1.968   5.677   4.668
 4646SOL     OW14836   3.522   1.213   0.853
 4646SOL    HW114837   3.609   1.176   0.885
 4646SOL    HW214838   3.458   1.138   0.835
 4647SOL     OW14839   5.993   0.196   5.376
 4647SOL    HW114840   5.957   0.280   5.336
 4647SOL    HW214841   6.074   0.166   5.325
 4648SOL     OW14842   2.423   6.308   3.270
 4648SOL    HW114843   2.395   6.404   3.262
 4648SOL    HW214844   2.378   6.267   3.349
 4649SOL     OW14845   5.681   5.130   6.076
 4649SOL    HW114846   5.655   5.158   5.984
 4649SOL    HW214847   5.610   5.071   6.115
 4650SOL     OW14848   6.556   5.360   1.756
 4650SOL    HW114849   6.552   5.409   1.843
 4650SOL    HW214850   6.464   5.358   1.716
 4651SOL     OW14851   6.154   2.294   0.874
 4651SOL    HW114852   6.068   2.262   0.914
 4651SOL    HW214853   6.139   2.318   0.778
 4652SOL     OW14854   0.586   6.251   5.324
 4652SOL    HW114855   0.547   6.190   5.393
 4652SOL    HW214856   0.610   6.338   5.367
 4653SOL     OW14857   1.785   4.860   0.386
 4653SOL    HW114858   1.839   4.892   0.464
 4653SOL    HW214859   1.775   4.933   0.319
 4654SOL     OW14860   2.010   1.719   0.358
 4654SOL    HW114861   1.915   1.690   0.345
 4654SOL    HW214862   2.011   1.815   0.388
 4655SOL     OW14863   7.012   4.728   4.930
 4655SOL    HW114864   0.007   4.768   4.840
 4655SOL    HW214865   6.931   4.771   4.971
 4656SOL     OW14866   2.006   0.029   2.717
 4656SOL    HW114867   2.046   0.005   2.806
 4656SOL    HW214868   2.075   0.074   2.661
 4657SOL     OW14869   6.458   0.987   5.916
 4657SOL    HW114870   6.424   0.895   5.934
 4657SOL    HW214871   6.398   1.033   5.851
 4658SOL     OW14872   5.206   6.848   3.515
 4658SOL    HW114873   5.274   6.791   3.562
 4658SOL    HW214874   5.215   6.943   3.546
 4659SOL     OW14875   1.669   3.368   3.599
 4659SOL    HW114876   1.696   3.299   3.532
 4659SOL    HW214877   1.570   3.363   3.615
 4660SOL     OW14878   6.922   1.237   5.412
 4660SOL    HW114879   6.922   1.336   5.396
 4660SOL    HW214880   6.828   1.203   5.409
 4661SOL     OW14881   3.303   2.976   3.772
 4661SOL    HW114882   3.355   2.921   3.707
 4661SOL    HW214883   3.360   3.051   3.805
 4662SOL     OW14884   6.748   6.790   4.744
 4662SOL    HW114885   6.791   6.828   4.826
 4662SOL    HW214886   6.691   6.712   4.769
 4663SOL     OW14887   0.691   1.438   2.743
 4663SOL    HW114888   0.782   1.453   2.704
 4663SOL    HW214889   0.695   1.364   2.810
 4664SOL     OW14890   3.595   5.213   0.140
 4664SOL    HW114891   3.578   5.310   0.155
 4664SOL    HW214892   3.518   5.173   0.092
 4665SOL     OW14893   5.192   0.973   6.312
 4665SOL    HW114894   5.109   0.989   6.366
 4665SOL    HW214895   5.184   0.886   6.264
 4666SOL     OW14896   1.773   0.935   0.734
 4666SOL    HW114897   1.689   0.984   0.757
 4666SOL    HW214898   1.850   0.977   0.783
 4667SOL     OW14899   0.117   5.689   3.995
 4667SOL    HW114900   0.207   5.724   3.970
 4667SOL    HW214901   0.128   5.605   4.048
 4668SOL     OW14902   5.846   0.750   5.134
 4668SOL    HW114903   5.757   0.730   5.175
 4668SOL    HW214904   5.901   0.803   5.199
 4669SOL     OW14905   2.210   2.259   2.340
 4669SOL    HW114906   2.155   2.180   2.366
 4669SOL    HW214907   2.199   2.278   2.242
 4670SOL     OW14908   2.651   2.231   4.913
 4670SOL    HW114909   2.672   2.234   4.815
 4670SOL    HW214910   2.731   2.259   4.965
 4671SOL     OW14911   0.038   2.090   3.050
 4671SOL    HW114912   0.092   2.154   2.995
 4671SOL    HW214913   7.020   2.137   3.128
 4672SOL     OW14914   2.896   2.590   5.501
 4672SOL    HW114915   2.798   2.579   5.487
 4672SOL    HW214916   2.941   2.500   5.498
 4673SOL     OW14917   5.482   0.327   2.369
 4673SOL    HW114918   5.469   0.393   2.442
 4673SOL    HW214919   5.571   0.342   2.325
 4674SOL     OW14920   4.619   0.021   6.028
 4674SOL    HW114921   4.576   0.012   6.118
 4674SOL    HW214922   4.555   7.015   5.957
 4675SOL     OW14923   0.689   4.615   6.127
 4675SOL    HW114924   0.740   4.628   6.212
 4675SOL    HW214925   0.719   4.530   6.083
 4676SOL     OW14926   1.602   4.699   3.384
 4676SOL    HW114927   1.657   4.663   3.308
 4676SOL    HW214928   1.663   4.735   3.454
 4677SOL     OW14929   1.152   3.801   1.107
 4677SOL    HW114930   1.216   3.818   1.181
 4677SOL    HW214931   1.161   3.873   1.038
 4678SOL     OW14932   1.107   1.734   1.034
 4678SOL    HW114933   1.194   1.735   0.986
 4678SOL    HW214934   1.114   1.789   1.118
 4679SOL     OW14935   4.970   0.090   1.585
 4679SOL    HW114936   5.014   0.006   1.614
 4679SOL    HW214937   4.890   0.107   1.642
 4680SOL     OW14938   2.762   1.166   0.128
 4680SOL    HW114939   2.793   1.129   0.216
 4680SOL    HW214940   2.812   1.250   0.107
 4681SOL     OW14941   4.888   5.239   2.055
 4681SOL    HW114942   4.898   5.321   2.112
 4681SOL    HW214943   4.964   5.235   1.990
 4682SOL     OW14944   3.538   3.426   6.628
 4682SOL    HW114945   3.451   3.399   6.668
 4682SOL    HW214946   3.612   3.408   6.693
 4683SOL     OW14947   6.682   3.205   4.127
 4683SOL    HW114948   6.601   3.195   4.186
 4683SOL    HW214949   6.741   3.126   4.138
 4684SOL     OW14950   5.158   0.443   5.995
 4684SOL    HW114951   5.212   0.487   6.067
 4684SOL    HW214952   5.097   0.375   6.035
 4685SOL     OW14953   2.990   3.763   4.282
 4685SOL    HW114954   2.971   3.680   4.333
 4685SOL    HW214955   2.983   3.746   4.184
 4686SOL     OW14956   1.909   6.681   5.996
 4686SOL    HW114957   1.836   6.729   5.947
 4686SOL    HW214958   1.919   6.588   5.960
 4687SOL     OW14959   1.025   6.950   2.394
 4687SOL    HW114960   0.944   7.002   2.370
 4687SOL    HW214961   1.001   6.854   2.406
 4688SOL     OW14962   4.757   2.173   4.701
 4688SOL    HW114963   4.840   2.153   4.648
 4688SOL    HW214964   4.740   2.272   4.698
 4689SOL     OW14965   6.334   1.054   1.208
 4689SOL    HW114966   6.360   1.122   1.276
 4689SOL    HW214967   6.391   0.973   1.218
 4690SOL     OW14968   3.209   2.155   0.536
 4690SOL    HW114969   3.266   2.085   0.492
 4690SOL    HW214970   3.138   2.111   0.590
 4691SOL     OW14971   5.906   2.791   2.103
 4691SOL    HW114972   5.928   2.849   2.181
 4691SOL    HW214973   5.837   2.723   2.130
 4692SOL     OW14974   6.846   2.463   3.318
 4692SOL    HW114975   6.777   2.523   3.277
 4692SOL    HW214976   6.887   2.509   3.397
 4693SOL     OW14977   0.103   0.716   3.794
 4693SOL    HW114978   0.114   0.690   3.889
 4693SOL    HW214979   0.182   0.684   3.741
 4694SOL     OW14980   1.274   6.517   5.786
 4694SOL    HW114981   1.250   6.611   5.808
 4694SOL    HW214982   1.198   6.474   5.737
 4695SOL     OW14983   1.625   4.732   1.655
 4695SOL    HW114984   1.615   4.831   1.658
 4695SOL    HW214985   1.591   4.693   1.740
 4696SOL     OW14986   2.133   6.124   6.049
 4696SOL    HW114987   2.035   6.109   6.034
 4696SOL    HW214988   2.155   6.106   6.145
 4697SOL     OW14989   4.686   5.605   1.570
 4697SOL    HW114990   4.649   5.574   1.658
 4697SOL    HW214991   4.617   5.591   1.498
 4698SOL     OW14992   5.883   1.676   4.673
 4698SOL    HW114993   5.806   1.654   4.614
 4698SOL    HW214994   5.968   1.649   4.628
 4699SOL     OW14995   0.766   1.820   3.176
 4699SOL    HW114996   0.772   1.850   3.271
 4699SOL    HW214997   0.670   1.819   3.147
 4700SOL     OW14998   6.623   1.813   3.554
 4700SOL    HW114999   6.679   1.734   3.529
 4700SOL    HW215000   6.550   1.785   3.616
 4701SOL     OW15001   2.278   2.697   1.866
 4701SOL    HW115002   2.333   2.614   1.872
 4701SOL    HW215003   2.278   2.730   1.771
 4702SOL     OW15004   5.855   4.845   1.556
 4702SOL    HW115005   5.869   4.915   1.486
 4702SOL    HW215006   5.926   4.854   1.626
 4703SOL     OW15007   6.474   5.188   4.174
 4703SOL    HW115008   6.500   5.095   4.149
 4703SOL    HW215009   6.378   5.190   4.203
 4704SOL     OW15010   1.575   4.783   3.825
 4704SOL    HW115011   1.606   4.876   3.843
 4704SOL    HW215012   1.483   4.771   3.864
 4705SOL     OW15013   3.198   2.961   1.387
 4705SOL    HW115014   3.182   2.999   1.478
 4705SOL    HW215015   3.214   3.035   1.322
 4706SOL     OW15016   2.296   0.916   1.103
 4706SOL    HW115017   2.216   0.859   1.084
 4706SOL    HW215018   2.362   0.907   1.028
 4707SOL     OW15019   2.240   5.566   2.006
 4707SOL    HW115020   2.216   5.595   1.914
 4707SOL    HW215021   2.313   5.498   2.002
 4708SOL     OW15022   1.854   3.503   6.503
 4708SOL    HW115023   1.754   3.493   6.507
 4708SOL    HW215024   1.893   3.429   6.449
 4709SOL     OW15025   6.336   3.422   4.342
 4709SOL    HW115026   6.417   3.466   4.380
 4709SOL    HW215027   6.360   3.330   4.310
 4710SOL     OW15028   6.151   4.626   5.725
 4710SOL    HW115029   6.236   4.632   5.776
 4710SOL    HW215030   6.074   4.618   5.788
 4711SOL     OW15031   4.847   4.710   3.153
 4711SOL    HW115032   4.748   4.706   3.138
 4711SOL    HW215033   4.866   4.709   3.252
 4712SOL     OW15034   4.245   4.899   6.278
 4712SOL    HW115035   4.200   4.985   6.302
 4712SOL    HW215036   4.207   4.865   6.192
 4713SOL     OW15037   5.805   4.312   1.822
 4713SOL    HW115038   5.776   4.373   1.895
 4713SOL    HW215039   5.845   4.366   1.748
 4714SOL     OW15040   5.269   2.191   5.771
 4714SOL    HW115041   5.250   2.249   5.691
 4714SOL    HW215042   5.201   2.118   5.776
 4715SOL     OW15043   0.013   1.114   1.791
 4715SOL    HW115044   0.041   1.139   1.884
 4715SOL    HW215045   6.958   1.171   1.763
 4716SOL     OW15046   3.761   4.441   5.270
 4716SOL    HW115047   3.852   4.425   5.307
 4716SOL    HW215048   3.706   4.358   5.279
 4717SOL     OW15049   1.158   4.507   5.907
 4717SOL    HW115050   1.208   4.421   5.917
 4717SOL    HW215051   1.065   4.488   5.877
 4718SOL     OW15052   4.895   3.417   2.326
 4718SOL    HW115053   4.901   3.490   2.258
 4718SOL    HW215054   4.843   3.450   2.405
 4719SOL     OW15055   5.366   4.231   3.701
 4719SOL    HW115056   5.297   4.161   3.683
 4719SOL    HW215057   5.393   4.273   3.614
 4720SOL     OW15058   1.363   1.785   5.688
 4720SOL    HW115059   1.439   1.850   5.685
 4720SOL    HW215060   1.396   1.697   5.724
 4721SOL     OW15061   0.830   2.929   2.499
 4721SOL    HW115062   0.732   2.937   2.518
 4721SOL    HW215063   0.844   2.863   2.426
 4722SOL     OW15064   1.106   5.864   6.187
 4722SOL    HW115065   1.197   5.879   6.226
 4722SOL    HW215066   1.048   5.820   6.255
 4723SOL     OW15067   3.314   4.691   6.026
 4723SOL    HW115068   3.308   4.618   6.093
 4723SOL    HW215069   3.327   4.652   5.935
 4724SOL     OW15070   0.320   0.510   4.064
 4724SOL    HW115071   0.321   0.448   3.985
 4724SOL    HW215072   0.402   0.568   4.061
 4725SOL     OW15073   4.994   5.865   1.197
 4725SOL    HW115074   5.064   5.794   1.204
 4725SOL    HW215075   4.974   5.883   1.101
 4726SOL     OW15076   1.921   2.752   6.726
 4726SOL    HW115077   1.830   2.712   6.717
 4726SOL    HW215078   1.915   2.844   6.765
 4727SOL     OW15079   6.734   5.147   1.786
 4727SOL    HW115080   6.666   5.218   1.770
 4727SOL    HW215081   6.790   5.136   1.704
 4728SOL     OW15082   4.141   0.385   3.570
 4728SOL    HW115083   4.075   0.338   3.629
 4728SOL    HW215084   4.161   0.328   3.490
 4729SOL     OW15085   0.535   0.463   3.052
 4729SOL    HW115086   0.530   0.531   2.979
 4729SOL    HW215087   0.504   0.374   3.017
 4730SOL     OW15088   2.699   1.296   2.923
 4730SOL    HW115089   2.677   1.294   3.020
 4730SOL    HW215090   2.796   1.317   2.911
 4731SOL     OW15091   3.501   6.879   2.645
 4731SOL    HW115092   3.425   6.942   2.660
 4731SOL    HW215093   3.492   6.800   2.706
 4732SOL     OW15094   0.573   5.069   4.183
 4732SOL    HW115095   0.614   5.157   4.205
 4732SOL    HW215096   0.645   5.003   4.162
 4733SOL     OW15097   2.470   4.576   3.349
 4733SOL    HW115098   2.408   4.635   3.401
 4733SOL    HW215099   2.467   4.483   3.385
 4734SOL     OW15100   4.416   4.560   5.773
 4734SOL    HW115101   4.431   4.461   5.777
 4734SOL    HW215102   4.402   4.587   5.678
 4735SOL     OW15103   0.224   0.866   5.522
 4735SOL    HW115104   0.207   0.950   5.573
 4735SOL    HW215105   0.149   0.851   5.458
 4736SOL     OW15106   6.255   0.390   4.285
 4736SOL    HW115107   6.340   0.339   4.269
 4736SOL    HW215108   6.271   0.487   4.266
 4737SOL     OW15109   1.943   5.047   0.105
 4737SOL    HW115110   1.902   5.001   0.026
 4737SOL    HW215111   2.042   5.042   0.100
 4738SOL     OW15112   0.410   5.894   3.795
 4738SOL    HW115113   0.448   5.982   3.766
 4738SOL    HW215114   0.451   5.820   3.742
 4739SOL     OW15115   5.809   3.804   2.916
 4739SOL    HW115116   5.797   3.719   2.967
 4739SOL    HW215117   5.816   3.881   2.979
 4740SOL     OW15118   1.650   6.484   0.646
 4740SOL    HW115119   1.593   6.528   0.577
 4740SOL    HW215120   1.609   6.497   0.736
 4741SOL     OW15121   5.923   4.238   2.691
 4741SOL    HW115122   5.924   4.187   2.605
 4741SOL    HW215123   6.009   4.290   2.700
 4742SOL     OW15124   2.442   5.463   1.679
 4742SOL    HW115125   2.376   5.528   1.716
 4742SOL    HW215126   2.439   5.378   1.733
 4743SOL     OW15127   2.711   3.009   0.406
 4743SOL    HW115128   2.756   3.044   0.324
 4743SOL    HW215129   2.779   2.990   0.476
 4744SOL     OW15130   2.909   1.747   5.791
 4744SOL    HW115131   2.995   1.797   5.796
 4744SOL    HW215132   2.888   1.708   5.881
 4745SOL     OW15133   4.474   5.886   4.454
 4745SOL    HW115134   4.422   5.824   4.395
 4745SOL    HW215135   4.415   5.920   4.527
 4746SOL     OW15136   5.757   1.515   1.057
 4746SOL    HW115137   5.777   1.444   1.124
 4746SOL    HW215138   5.802   1.493   0.971
 4747SOL     OW15139   1.142   3.196   2.230
 4747SOL    HW115140   1.167   3.228   2.139
 4747SOL    HW215141   1.066   3.251   2.265
 4748SOL     OW15142   1.784   6.711   0.427
 4748SOL    HW115143   1.748   6.651   0.355
 4748SOL    HW215144   1.865   6.759   0.393
 4749SOL     OW15145   3.783   0.910   0.323
 4749SOL    HW115146   3.769   0.881   0.229
 4749SOL    HW215147   3.872   0.878   0.355
 4750SOL     OW15148   0.969   2.055   5.024
 4750SOL    HW115149   1.045   2.095   4.973
 4750SOL    HW215150   0.922   2.127   5.076
 4751SOL     OW15151   1.561   4.033   6.086
 4751SOL    HW115152   1.620   3.995   6.015
 4751SOL    HW215153   1.570   3.978   6.169
 4752SOL     OW15154   2.316   5.959   0.764
 4752SOL    HW115155   2.340   5.876   0.814
 4752SOL    HW215156   2.317   5.939   0.665
 4753SOL     OW15157   0.292   1.307   6.774
 4753SOL    HW115158   0.307   1.406   6.766
 4753SOL    HW215159   0.281   1.267   6.683
 4754SOL     OW15160   1.343   0.628   6.323
 4754SOL    HW115161   1.439   0.632   6.351
 4754SOL    HW215162   1.333   0.668   6.232
 4755SOL     OW15163   2.568   6.540   3.015
 4755SOL    HW115164   2.469   6.540   3.007
 4755SOL    HW215165   2.600   6.634   3.029
 4756SOL     OW15166   5.477   3.044   0.926
 4756SOL    HW115167   5.449   2.976   0.994
 4756SOL    HW215168   5.461   3.136   0.962
 4757SOL     OW15169   2.310   3.775   0.457
 4757SOL    HW115170   2.379   3.717   0.501
 4757SOL    HW215171   2.239   3.718   0.417
 4758SOL     OW15172   6.512   4.147   6.220
 4758SOL    HW115173   6.576   4.122   6.292
 4758SOL    HW215174   6.506   4.247   6.214
 4759SOL     OW15175   6.680   4.080   6.418
 4759SOL    HW115176   6.735   3.996   6.412
 4759SOL    HW215177   6.664   4.102   6.514
 4760SOL     OW15178   0.799   2.906   0.174
 4760SOL    HW115179   0.798   3.005   0.162
 4760SOL    HW215180   0.768   2.882   0.266
 4761SOL     OW15181   3.006   6.266   6.615
 4761SOL    HW115182   2.906   6.270   6.615
 4761SOL    HW215183   3.038   6.219   6.533
 4762SOL     OW15184   2.937   0.996   2.921
 4762SOL    HW115185   2.837   0.995   2.923
 4762SOL    HW215186   2.969   1.047   2.841
 4763SOL     OW15187   5.153   4.725   4.617
 4763SOL    HW115188   5.210   4.734   4.699
 4763SOL    HW215189   5.199   4.769   4.540
 4764SOL     OW15190   3.202   3.566   3.596
 4764SOL    HW115191   3.208   3.517   3.509
 4764SOL    HW215192   3.293   3.597   3.623
 4765SOL     OW15193   6.975   5.370   6.943
 4765SOL    HW115194   6.985   5.325   0.010
 4765SOL    HW215195   0.025   5.336   6.881
 4766SOL     OW15196   3.220   1.393   2.870
 4766SOL    HW115197   3.148   1.416   2.805
 4766SOL    HW215198   3.259   1.476   2.908
 4767SOL     OW15199   4.695   0.272   6.714
 4767SOL    HW115200   4.679   0.370   6.729
 4767SOL    HW215201   4.793   0.255   6.706
 4768SOL     OW15202   2.351   0.363   5.229
 4768SOL    HW115203   2.382   0.441   5.175
 4768SOL    HW215204   2.267   0.387   5.278
 4769SOL     OW15205   4.379   1.055   2.199
 4769SOL    HW115206   4.388   1.093   2.291
 4769SOL    HW215207   4.329   0.968   2.204
 4770SOL     OW15208   3.006   1.105   3.403
 4770SOL    HW115209   2.943   1.086   3.478
 4770SOL    HW215210   3.092   1.139   3.440
 4771SOL     OW15211   3.681   4.867   6.884
 4771SOL    HW115212   3.602   4.858   6.823
 4771SOL    HW215213   3.666   4.811   6.966
 4772SOL     OW15214   4.179   2.293   0.536
 4772SOL    HW115215   4.209   2.382   0.571
 4772SOL    HW215216   4.200   2.222   0.603
 4773SOL     OW15217   0.352   4.559   3.984
 4773SOL    HW115218   0.297   4.643   3.984
 4773SOL    HW215219   0.412   4.558   3.904
 4774SOL     OW15220   2.134   3.906   0.182
 4774SOL    HW115221   2.096   3.971   0.248
 4774SOL    HW215222   2.061   3.846   0.149
 4775SOL     OW15223   1.795   3.310   2.291
 4775SOL    HW115224   1.882   3.324   2.339
 4775SOL    HW215225   1.720   3.311   2.358
 4776SOL     OW15226   4.776   5.313   1.129
 4776SOL    HW115227   4.690   5.274   1.096
 4776SOL    HW215228   4.769   5.413   1.131
 4777SOL     OW15229   1.754   3.894   1.780
 4777SOL    HW115230   1.808   3.961   1.830
 4777SOL    HW215231   1.806   3.809   1.771
 4778SOL     OW15232   5.746   3.583   3.142
 4778SOL    HW115233   5.684   3.652   3.180
 4778SOL    HW215234   5.804   3.546   3.215
 4779SOL     OW15235   6.056   1.356   2.838
 4779SOL    HW115236   6.026   1.269   2.877
 4779SOL    HW215237   6.105   1.339   2.752
 4780SOL     OW15238   1.436   1.344   5.174
 4780SOL    HW115239   1.353   1.293   5.195
 4780SOL    HW215240   1.513   1.304   5.224
 4781SOL     OW15241   2.551   5.650   3.032
 4781SOL    HW115242   2.538   5.646   2.933
 4781SOL    HW215243   2.509   5.570   3.075
 4782SOL     OW15244   6.269   6.456   6.994
 4782SOL    HW115245   6.295   6.468   6.898
 4782SOL    HW215246   6.347   6.418   0.023
 4783SOL     OW15247   5.365   4.851   3.419
 4783SOL    HW115248   5.423   4.901   3.484
 4783SOL    HW215249   5.342   4.911   3.343
 4784SOL     OW15250   4.736   4.209   4.491
 4784SOL    HW115251   4.743   4.109   4.488
 4784SOL    HW215252   4.827   4.249   4.481
 4785SOL     OW15253   5.719   5.852   0.586
 4785SOL    HW115254   5.647   5.901   0.635
 4785SOL    HW215255   5.708   5.866   0.487
 4786SOL     OW15256   1.433   4.819   3.220
 4786SOL    HW115257   1.466   4.766   3.298
 4786SOL    HW215258   1.477   4.909   3.219
 4787SOL     OW15259   3.780   2.001   2.820
 4787SOL    HW115260   3.718   1.985   2.744
 4787SOL    HW215261   3.866   2.039   2.787
 4788SOL     OW15262   2.524   0.756   4.687
 4788SOL    HW115263   2.468   0.673   4.676
 4788SOL    HW215264   2.507   0.817   4.610
 4789SOL     OW15265   4.592   5.700   6.400
 4789SOL    HW115266   4.565   5.795   6.385
 4789SOL    HW215267   4.666   5.697   6.467
 4790SOL     OW15268   5.965   6.937   6.327
 4790SOL    HW115269   5.868   6.960   6.323
 4790SOL    HW215270   5.976   6.840   6.345
 4791SOL     OW15271   4.759   2.292   3.549
 4791SOL    HW115272   4.693   2.260   3.480
 4791SOL    HW215273   4.849   2.253   3.530
 4792SOL     OW15274   3.239   3.007   0.163
 4792SOL    HW115275   3.149   3.011   0.118
 4792SOL    HW215276   3.236   2.941   0.238
 4793SOL     OW15277   0.623   1.122   0.008
 4793SOL    HW115278   0.654   1.096   6.938
 4793SOL    HW215279   0.564   1.202   0.001
 4794SOL     OW15280   5.767   1.120   2.252
 4794SOL    HW115281   5.739   1.025   2.251
 4794SOL    HW215282   5.686   1.179   2.255
 4795SOL     OW15283   6.543   1.759   4.704
 4795SOL    HW115284   6.593   1.814   4.771
 4795SOL    HW215285   6.608   1.716   4.641
 4796SOL     OW15286   4.580   4.201   0.469
 4796SOL    HW115287   4.659   4.141   0.483
 4796SOL    HW215288   4.576   4.268   0.543
 4797SOL     OW15289   1.414   5.573   4.514
 4797SOL    HW115290   1.505   5.565   4.473
 4797SOL    HW215291   1.422   5.570   4.613
 4798SOL     OW15292   0.222   6.026   6.628
 4798SOL    HW115293   0.215   5.963   6.550
 4798SOL    HW215294   0.247   6.117   6.595
 4799SOL     OW15295   5.221   1.022   5.088
 4799SOL    HW115296   5.273   0.942   5.118
 4799SOL    HW215297   5.188   1.072   5.168
 4800SOL     OW15298   1.721   2.883   4.173
 4800SOL    HW115299   1.703   2.790   4.140
 4800SOL    HW215300   1.740   2.880   4.271
 4801SOL     OW15301   6.810   1.739   0.889
 4801SOL    HW115302   6.737   1.683   0.927
 4801SOL    HW215303   6.810   1.828   0.934
 4802SOL     OW15304   1.669   6.910   1.492
 4802SOL    HW115305   1.633   6.979   1.555
 4802SOL    HW215306   1.663   6.943   1.398
 4803SOL     OW15307   0.278   6.581   1.608
 4803SOL    HW115308   0.266   6.670   1.564
 4803SOL    HW215309   0.235   6.510   1.551
 4804SOL     OW15310   4.249   5.143   6.602
 4804SOL    HW115311   4.166   5.132   6.658
 4804SOL    HW215312   4.322   5.180   6.659
 4805SOL     OW15313   6.583   6.659   1.463
 4805SOL    HW115314   6.486   6.643   1.480
 4805SOL    HW215315   6.626   6.701   1.544
 4806SOL     OW15316   0.598   2.181   4.467
 4806SOL    HW115317   0.676   2.123   4.492
 4806SOL    HW215318   0.630   2.255   4.407
 4807SOL     OW15319   0.661   6.783   2.287
 4807SOL    HW115320   0.633   6.875   2.315
 4807SOL    HW215321   0.675   6.727   2.369
 4808SOL     OW15322   6.488   1.131   0.207
 4808SOL    HW115323   6.404   1.184   0.195
 4808SOL    HW215324   6.529   1.152   0.296
 4809SOL     OW15325   4.512   6.424   0.936
 4809SOL    HW115326   4.477   6.360   1.005
 4809SOL    HW215327   4.564   6.374   0.867
 4810SOL     OW15328   1.779   0.291   5.180
 4810SOL    HW115329   1.795   0.321   5.086
 4810SOL    HW215330   1.831   0.207   5.197
 4811SOL     OW15331   5.074   4.565   4.331
 4811SOL    HW115332   5.013   4.600   4.261
 4811SOL    HW215333   5.056   4.468   4.347
 4812SOL     OW15334   6.629   4.951   3.100
 4812SOL    HW115335   6.613   4.890   3.177
 4812SOL    HW215336   6.543   4.968   3.053
 4813SOL     OW15337   6.304   3.637   2.731
 4813SOL    HW115338   6.320   3.657   2.828
 4813SOL    HW215339   6.215   3.593   2.721
 4814SOL     OW15340   6.986   2.609   1.396
 4814SOL    HW115341   0.021   2.528   1.412
 4814SOL    HW215342   0.020   2.691   1.410
 4815SOL     OW15343   4.676   1.377   3.359
 4815SOL    HW115344   4.616   1.410   3.432
 4815SOL    HW215345   4.771   1.380   3.391
 4816SOL     OW15346   6.365   3.776   4.559
 4816SOL    HW115347   6.442   3.791   4.621
 4816SOL    HW215348   6.333   3.682   4.569
 4817SOL     OW15349   5.484   1.401   6.779
 4817SOL    HW115350   5.547   1.428   6.851
 4817SOL    HW215351   5.500   1.458   6.698
 4818SOL     OW15352   0.129   6.730   3.210
 4818SOL    HW115353   0.172   6.820   3.204
 4818SOL    HW215354   0.088   6.706   3.122
 4819SOL     OW15355   0.583   2.775   0.922
 4819SOL    HW115356   0.621   2.786   1.014
 4819SOL    HW215357   0.533   2.689   0.916
 4820SOL     OW15358   5.993   3.190   2.175
 4820SOL    HW115359   5.950   3.278   2.154
 4820SOL    HW215360   5.924   3.126   2.210
 4821SOL     OW15361   0.030   5.300   3.584
 4821SOL    HW115362   0.115   5.343   3.616
 4821SOL    HW215363   6.975   5.361   3.604
 4822SOL     OW15364   2.791   5.765   4.577
 4822SOL    HW115365   2.849   5.711   4.516
 4822SOL    HW215366   2.744   5.835   4.524
 4823SOL     OW15367   0.930   1.857   0.460
 4823SOL    HW115368   0.965   1.921   0.527
 4823SOL    HW215369   0.956   1.887   0.368
 4824SOL     OW15370   6.562   2.473   0.313
 4824SOL    HW115371   6.561   2.511   0.405
 4824SOL    HW215372   6.473   2.486   0.270
 4825SOL     OW15373   1.148   5.749   3.585
 4825SOL    HW115374   1.121   5.720   3.677
 4825SOL    HW215375   1.125   5.676   3.520
 4826SOL     OW15376   4.912   6.884   0.421
 4826SOL    HW115377   4.938   6.965   0.368
 4826SOL    HW215378   4.964   6.805   0.389
 4827SOL     OW15379   5.683   1.286   1.971
 4827SOL    HW115380   5.645   1.343   1.898
 4827SOL    HW215381   5.643   1.312   2.058
 4828SOL     OW15382   5.369   1.428   6.279
 4828SOL    HW115383   5.360   1.362   6.205
 4828SOL    HW215384   5.322   1.512   6.254
 4829SOL     OW15385   4.664   5.713   4.980
 4829SOL    HW115386   4.692   5.808   4.992
 4829SOL    HW215387   4.723   5.654   5.035
 4830SOL     OW15388   1.670   6.557   2.935
 4830SOL    HW115389   1.609   6.493   2.889
 4830SOL    HW215390   1.676   6.534   3.032
 4831SOL     OW15391   2.556   4.424   6.282
 4831SOL    HW115392   2.590   4.518   6.281
 4831SOL    HW215393   2.512   4.406   6.371
 4832SOL     OW15394   3.788   3.336   3.554
 4832SOL    HW115395   3.881   3.337   3.589
 4832SOL    HW215396   3.759   3.429   3.532
 4833SOL     OW15397   5.905   2.353   4.987
 4833SOL    HW115398   5.977   2.300   5.031
 4833SOL    HW215399   5.903   2.445   5.027
 4834SOL     OW15400   1.356   3.738   1.398
 4834SOL    HW115401   1.421   3.718   1.472
 4834SOL    HW215402   1.293   3.809   1.428
 4835SOL     OW15403   1.345   4.165   6.485
 4835SOL    HW115404   1.302   4.075   6.472
 4835SOL    HW215405   1.431   4.154   6.535
 4836SOL     OW15406   3.526   0.064   5.964
 4836SOL    HW115407   3.550   7.013   6.028
 4836SOL    HW215408   3.565   0.151   5.997
 4837SOL     OW15409   1.526   3.709   4.428
 4837SOL    HW115410   1.560   3.688   4.337
 4837SOL    HW215411   1.520   3.625   4.482
 4838SOL     OW15412   1.344   4.530   6.461
 4838SOL    HW115413   1.255   4.550   6.501
 4838SOL    HW215414   1.333   4.469   6.383
 4839SOL     OW15415   2.826   0.728   1.805
 4839SOL    HW115416   2.819   0.678   1.719
 4839SOL    HW215417   2.748   0.705   1.864
 4840SOL     OW15418   5.548   2.062   3.943
 4840SOL    HW115419   5.512   1.976   3.978
 4840SOL    HW215420   5.475   2.131   3.943
 4841SOL     OW15421   3.160   5.099   3.282
 4841SOL    HW115422   3.240   5.039   3.286
 4841SOL    HW215423   3.078   5.044   3.265
 4842SOL     OW15424   4.279   4.623   3.597
 4842SOL    HW115425   4.293   4.694   3.666
 4842SOL    HW215426   4.265   4.535   3.642
 4843SOL     OW15427   6.214   2.856   0.010
 4843SOL    HW115428   6.248   2.934   0.064
 4843SOL    HW215429   6.280   2.833   6.961
 4844SOL     OW15430   0.991   5.083   6.321
 4844SOL    HW115431   1.079   5.040   6.299
 4844SOL    HW215432   0.969   5.152   6.252
 4845SOL     OW15433   5.655   4.567   5.691
 4845SOL    HW115434   5.720   4.572   5.615
 4845SOL    HW215435   5.691   4.617   5.769
 4846SOL     OW15436   6.403   2.986   4.042
 4846SOL    HW115437   6.461   2.909   4.015
 4846SOL    HW215438   6.406   3.056   3.972
 4847SOL     OW15439   1.836   6.871   6.416
 4847SOL    HW115440   1.917   6.814   6.401
 4847SOL    HW215441   1.777   6.867   6.336
 4848SOL     OW15442   4.918   1.293   3.445
 4848SOL    HW115443   4.990   1.337   3.498
 4848SOL    HW215444   4.958   1.227   3.381
 4849SOL     OW15445   1.155   5.655   1.653
 4849SOL    HW115446   1.091   5.686   1.723
 4849SOL    HW215447   1.143   5.709   1.570
 4850SOL     OW15448   3.226   0.007   2.133
 4850SOL    HW115449   3.236   7.019   2.232
 4850SOL    HW215450   3.223   0.104   2.109
 4851SOL     OW15451   4.530   4.578   6.476
 4851SOL    HW115452   4.433   4.581   6.499
 4851SOL    HW215453   4.573   4.665   6.501
 4852SOL     OW15454   4.110   4.160   5.939
 4852SOL    HW115455   4.171   4.235   5.965
 4852SOL    HW215456   4.094   4.100   6.017
 4853SOL     OW15457   4.402   0.394   2.204
 4853SOL    HW115458   4.482   0.345   2.240
 4853SOL    HW215459   4.334   0.404   2.276
 4854SOL     OW15460   4.042   0.090   1.898
 4854SOL    HW115461   4.079   0.035   1.823
 4854SOL    HW215462   4.081   0.182   1.893
 4855SOL     OW15463   4.706   4.742   5.400
 4855SOL    HW115464   4.661   4.756   5.312
 4855SOL    HW215465   4.679   4.653   5.437
 4856SOL     OW15466   0.515   3.068   3.380
 4856SOL    HW115467   0.581   3.114   3.321
 4856SOL    HW215468   0.431   3.121   3.385
 4857SOL     OW15469   3.006   1.195   5.459
 4857SOL    HW115470   2.994   1.248   5.375
 4857SOL    HW215471   2.961   1.242   5.535
 4858SOL     OW15472   2.814   5.674   5.543
 4858SOL    HW115473   2.737   5.717   5.589
 4858SOL    HW215474   2.831   5.584   5.584
 4859SOL     OW15475   6.987   5.593   3.106
 4859SOL    HW115476   0.064   5.594   3.091
 4859SOL    HW215477   6.967   5.571   3.201
 4860SOL     OW15478   3.755   5.366   0.852
 4860SOL    HW115479   3.711   5.307   0.784
 4860SOL    HW215480   3.828   5.315   0.898
 4861SOL     OW15481   4.841   5.110   4.754
 4861SOL    HW115482   4.799   5.167   4.825
 4861SOL    HW215483   4.769   5.065   4.702
 4862SOL     OW15484   1.380   5.204   3.837
 4862SOL    HW115485   1.371   5.254   3.923
 4862SOL    HW215486   1.323   5.248   3.766
 4863SOL     OW15487   5.954   1.827   2.269
 4863SOL    HW115488   6.034   1.855   2.216
 4863SOL    HW215489   5.962   1.730   2.291
 4864SOL     OW15490   2.524   3.053   1.713
 4864SOL    HW115491   2.619   3.074   1.736
 4864SOL    HW215492   2.522   2.992   1.634
 4865SOL     OW15493   3.918   0.313   4.760
 4865SOL    HW115494   3.826   0.290   4.791
 4865SOL    HW215495   3.984   0.252   4.804
 4866SOL     OW15496   1.429   5.277   1.553
 4866SOL    HW115497   1.486   5.195   1.553
 4866SOL    HW215498   1.388   5.289   1.644
 4867SOL     OW15499   5.473   4.606   6.226
 4867SOL    HW115500   5.481   4.508   6.209
 4867SOL    HW215501   5.487   4.657   6.141
 4868SOL     OW15502   1.459   5.814   2.144
 4868SOL    HW115503   1.376   5.780   2.188
 4868SOL    HW215504   1.538   5.798   2.204
 4869SOL     OW15505   0.562   1.948   1.834
 4869SOL    HW115506   0.503   1.867   1.831
 4869SOL    HW215507   0.655   1.923   1.808
 4870SOL     OW15508   6.020   1.788   1.975
 4870SOL    HW115509   5.967   1.717   1.929
 4870SOL    HW215510   5.982   1.878   1.954
 4871SOL     OW15511   1.215   2.233   5.250
 4871SOL    HW115512   1.178   2.318   5.286
 4871SOL    HW215513   1.310   2.247   5.222
 4872SOL     OW15514   2.466   2.503   2.993
 4872SOL    HW115515   2.385   2.537   3.040
 4872SOL    HW215516   2.497   2.419   3.036
 4873SOL     OW15517   1.259   0.170   6.169
 4873SOL    HW115518   1.322   0.143   6.243
 4873SOL    HW215519   1.222   0.088   6.126
 4874SOL     OW15520   6.173   1.606   4.947
 4874SOL    HW115521   6.252   1.588   5.005
 4874SOL    HW215522   6.202   1.650   4.862
 4875SOL     OW15523   0.080   3.192   0.487
 4875SOL    HW115524   0.076   3.265   0.556
 4875SOL    HW215525   0.004   3.203   0.423
 4876SOL     OW15526   6.495   1.611   6.584
 4876SOL    HW115527   6.492   1.533   6.521
 4876SOL    HW215528   6.587   1.651   6.583
 4877SOL     OW15529   4.301   2.332   2.346
 4877SOL    HW115530   4.260   2.350   2.435
 4877SOL    HW215531   4.361   2.409   2.320
 4878SOL     OW15532   1.161   2.628   2.807
 4878SOL    HW115533   1.171   2.551   2.744
 4878SOL    HW215534   1.113   2.703   2.761
 4879SOL     OW15535   3.238   6.454   3.000
 4879SOL    HW115536   3.153   6.441   3.051
 4879SOL    HW215537   3.311   6.480   3.063
 4880SOL     OW15538   0.254   2.663   6.467
 4880SOL    HW115539   0.343   2.650   6.423
 4880SOL    HW215540   0.267   2.696   6.561
 4881SOL     OW15541   3.100   6.610   5.650
 4881SOL    HW115542   3.079   6.607   5.552
 4881SOL    HW215543   3.031   6.560   5.701
 4882SOL     OW15544   5.720   6.469   6.112
 4882SOL    HW115545   5.680   6.561   6.103
 4882SOL    HW215546   5.689   6.427   6.197
 4883SOL     OW15547   5.940   5.627   0.144
 4883SOL    HW115548   5.846   5.643   0.117
 4883SOL    HW215549   5.978   5.712   0.183
 4884SOL     OW15550   4.247   6.449   2.081
 4884SOL    HW115551   4.149   6.434   2.096
 4884SOL    HW215552   4.290   6.473   2.168
 4885SOL     OW15553   0.339   0.092   1.950
 4885SOL    HW115554   0.436   0.072   1.967
 4885SOL    HW215555   0.331   0.163   1.881
 4886SOL     OW15556   6.247   1.100   5.751
 4886SOL    HW115557   6.190   1.060   5.823
 4886SOL    HW215558   6.282   1.027   5.692
 4887SOL     OW15559   0.236   2.584   5.510
 4887SOL    HW115560   0.335   2.578   5.522
 4887SOL    HW215561   0.214   2.580   5.412
 4888SOL     OW15562   4.953   5.654   0.945
 4888SOL    HW115563   4.970   5.753   0.951
 4888SOL    HW215564   5.041   5.606   0.939
 4889SOL     OW15565   1.185   3.183   5.997
 4889SOL    HW115566   1.120   3.201   5.923
 4889SOL    HW215567   1.240   3.104   5.974
 4890SOL     OW15568   5.977   0.628   3.986
 4890SOL    HW115569   5.946   0.537   3.958
 4890SOL    HW215570   5.963   0.639   4.084
 4891SOL     OW15571   0.241   4.758   0.933
 4891SOL    HW115572   0.147   4.779   0.906
 4891SOL    HW215573   0.245   4.737   1.031
 4892SOL     OW15574   2.090   5.192   1.785
 4892SOL    HW115575   2.142   5.150   1.859
 4892SOL    HW215576   2.152   5.219   1.711
 4893SOL     OW15577   6.978   4.323   6.519
 4893SOL    HW115578   6.999   4.254   6.450
 4893SOL    HW215579   7.017   4.411   6.491
 4894SOL     OW15580   0.242   0.138   3.452
 4894SOL    HW115581   0.266   0.086   3.533
 4894SOL    HW215582   0.202   0.226   3.479
 4895SOL     OW15583   6.716   3.719   6.592
 4895SOL    HW115584   6.773   3.691   6.668
 4895SOL    HW215585   6.631   3.759   6.627
 4896SOL     OW15586   4.564   1.359   5.625
 4896SOL    HW115587   4.495   1.404   5.569
 4896SOL    HW215588   4.653   1.364   5.578
 4897SOL     OW15589   2.819   5.835   0.207
 4897SOL    HW115590   2.856   5.787   0.287
 4897SOL    HW215591   2.894   5.882   0.160
 4898SOL     OW15592   4.877   2.865   4.584
 4898SOL    HW115593   4.865   2.944   4.524
 4898SOL    HW215594   4.922   2.792   4.534
 4899SOL     OW15595   0.497   3.056   4.362
 4899SOL    HW115596   0.577   3.022   4.312
 4899SOL    HW215597   0.418   2.999   4.341
 4900SOL     OW15598   0.068   6.586   6.241
 4900SOL    HW115599   0.050   6.587   6.339
 4900SOL    HW215600   7.004   6.605   6.192
 4901SOL     OW15601   6.466   6.682   3.091
 4901SOL    HW115602   6.370   6.708   3.091
 4901SOL    HW215603   6.492   6.651   3.183
 4902SOL     OW15604   2.905   6.153   0.216
 4902SOL    HW115605   2.882   6.102   0.133
 4902SOL    HW215606   2.998   6.128   0.246
 4903SOL     OW15607   6.408   4.649   0.169
 4903SOL    HW115608   6.458   4.732   0.143
 4903SOL    HW215609   6.331   4.635   0.107
 4904SOL     OW15610   2.953   0.902   3.768
 4904SOL    HW115611   2.900   0.948   3.696
 4904SOL    HW215612   2.891   0.855   3.830
 4905SOL     OW15613   5.564   4.086   3.116
 4905SOL    HW115614   5.586   4.140   3.197
 4905SOL    HW215615   5.484   4.124   3.071
 4906SOL     OW15616   5.868   0.284   1.791
 4906SOL    HW115617   5.788   0.234   1.825
 4906SOL    HW215618   5.906   0.339   1.865
 4907SOL     OW15619   3.205   2.752   1.212
 4907SOL    HW115620   3.169   2.821   1.274
 4907SOL    HW215621   3.287   2.711   1.252
 4908SOL     OW15622   4.732   5.231   6.275
 4908SOL    HW115623   4.632   5.238   6.268
 4908SOL    HW215624   4.760   5.139   6.247
 4909SOL     OW15625   6.222   6.851   5.613
 4909SOL    HW115626   6.151   6.783   5.593
 4909SOL    HW215627   6.180   6.939   5.634
 4910SOL     OW15628   5.558   6.776   5.141
 4910SOL    HW115629   5.601   6.690   5.112
 4910SOL    HW215630   5.460   6.760   5.157
 4911SOL     OW15631   7.019   3.944   6.591
 4911SOL    HW115632   6.951   3.973   6.658
 4911SOL    HW215633   6.975   3.890   6.519
 4912SOL     OW15634   1.601   2.846   1.628
 4912SOL    HW115635   1.588   2.939   1.593
 4912SOL    HW215636   1.566   2.840   1.722
 4913SOL     OW15637   3.033   3.619   2.178
 4913SOL    HW115638   3.054   3.708   2.136
 4913SOL    HW215639   3.080   3.613   2.266
 4914SOL     OW15640   1.332   0.227   2.778
 4914SOL    HW115641   1.245   0.199   2.737
 4914SOL    HW215642   1.397   0.248   2.705
 4915SOL     OW15643   4.331   6.750   4.474
 4915SOL    HW115644   4.396   6.823   4.492
 4915SOL    HW215645   4.260   6.783   4.412
 4916SOL     OW15646   1.708   1.470   2.004
 4916SOL    HW115647   1.759   1.385   1.987
 4916SOL    HW215648   1.772   1.547   2.006
 4917SOL     OW15649   0.565   5.374   6.740
 4917SOL    HW115650   0.656   5.393   6.703
 4917SOL    HW215651   0.527   5.458   6.779
 4918SOL     OW15652   2.656   6.497   3.818
 4918SOL    HW115653   2.636   6.594   3.803
 4918SOL    HW215654   2.570   6.445   3.816
 4919SOL     OW15655   2.431   2.954   1.245
 4919SOL    HW115656   2.480   2.925   1.327
 4919SOL    HW215657   2.441   2.885   1.173
 4920SOL     OW15658   4.186   2.202   6.476
 4920SOL    HW115659   4.092   2.177   6.503
 4920SOL    HW215660   4.223   2.130   6.418
 4921SOL     OW15661   6.698   4.667   1.647
 4921SOL    HW115662   6.749   4.591   1.687
 4921SOL    HW215663   6.628   4.698   1.712
 4922SOL     OW15664   1.679   3.881   5.510
 4922SOL    HW115665   1.626   3.804   5.546
 4922SOL    HW215666   1.660   3.963   5.564
 4923SOL     OW15667   4.088   1.948   0.633
 4923SOL    HW115668   4.121   1.885   0.563
 4923SOL    HW215669   4.154   2.021   0.646
 4924SOL     OW15670   1.159   3.048   4.791
 4924SOL    HW115671   1.162   3.148   4.793
 4924SOL    HW215672   1.064   3.018   4.804
 4925SOL     OW15673   5.088   5.018   4.747
 4925SOL    HW115674   5.001   5.062   4.765
 4925SOL    HW215675   5.086   4.923   4.779
 4926SOL     OW15676   4.626   3.339   0.839
 4926SOL    HW115677   4.588   3.406   0.902
 4926SOL    HW215678   4.551   3.294   0.789
 4927SOL     OW15679   2.917   3.250   2.356
 4927SOL    HW115680   2.836   3.290   2.315
 4927SOL    HW215681   2.975   3.210   2.284
 4928SOL     OW15682   6.374   1.990   6.057
 4928SOL    HW115683   6.312   1.992   5.979
 4928SOL    HW215684   6.377   1.898   6.095
 4929SOL     OW15685   1.288   4.739   3.807
 4929SOL    HW115686   1.321   4.653   3.846
 4929SOL    HW215687   1.313   4.745   3.711
 4930SOL     OW15688   0.769   3.509   0.300
 4930SOL    HW115689   0.834   3.519   0.225
 4930SOL    HW215690   0.707   3.433   0.282
 4931SOL     OW15691   5.586   0.158   0.990
 4931SOL    HW115692   5.610   0.082   0.930
 4931SOL    HW215693   5.494   0.191   0.968
 4932SOL     OW15694   2.706   1.765   0.612
 4932SOL    HW115695   2.648   1.803   0.540
 4932SOL    HW215696   2.653   1.701   0.667
 4933SOL     OW15697   2.868   6.980   4.638
 4933SOL    HW115698   2.957   6.954   4.601
 4933SOL    HW215699   2.797   6.920   4.600
 4934SOL     OW15700   1.589   6.381   5.422
 4934SOL    HW115701   1.655   6.450   5.452
 4934SOL    HW215702   1.573   6.391   5.324
 4935SOL     OW15703   1.014   2.593   1.214
 4935SOL    HW115704   1.095   2.548   1.251
 4935SOL    HW215705   0.940   2.591   1.282
 4936SOL     OW15706   6.191   3.623   1.239
 4936SOL    HW115707   6.165   3.530   1.265
 4936SOL    HW215708   6.183   3.684   1.317
 4937SOL     OW15709   1.060   4.001   5.179
 4937SOL    HW115710   0.978   4.033   5.225
 4937SOL    HW215711   1.125   3.967   5.247
 4938SOL     OW15712   2.896   3.773   0.893
 4938SOL    HW115713   2.949   3.695   0.861
 4938SOL    HW215714   2.861   3.755   0.985
 4939SOL     OW15715   0.910   1.536   1.681
 4939SOL    HW115716   0.950   1.503   1.766
 4939SOL    HW215717   0.983   1.569   1.620
 4940SOL     OW15718   1.852   1.856   5.066
 4940SOL    HW115719   1.893   1.936   5.021
 4940SOL    HW215720   1.783   1.817   5.005
 4941SOL     OW15721   3.462   1.933   6.095
 4941SOL    HW115722   3.362   1.931   6.090
 4941SOL    HW215723   3.492   2.017   6.138
 4942SOL     OW15724   0.663   0.561   2.478
 4942SOL    HW115725   0.762   0.566   2.471
 4942SOL    HW215726   0.636   0.545   2.573
 4943SOL     OW15727   5.420   2.120   6.783
 4943SOL    HW115728   5.398   2.205   6.736
 4943SOL    HW215729   5.484   2.066   6.728
 4944SOL     OW15730   1.096   4.742   0.016
 4944SOL    HW115731   1.050   4.817   0.063
 4944SOL    HW215732   1.032   4.667   0.001
 4945SOL     OW15733   2.823   0.254   6.517
 4945SOL    HW115734   2.790   0.318   6.586
 4945SOL    HW215735   2.914   0.221   6.544
 4946SOL     OW15736   1.973   6.400   6.931
 4946SOL    HW115737   1.898   6.454   6.968
 4946SOL    HW215738   1.946   6.361   6.843
 4947SOL     OW15739   1.121   6.936   0.999
 4947SOL    HW115740   1.052   6.895   1.058
 4947SOL    HW215741   1.163   7.015   1.045
 4948SOL     OW15742   1.527   3.688   2.145
 4948SOL    HW115743   1.546   3.784   2.125
 4948SOL    HW215744   1.585   3.630   2.087
 4949SOL     OW15745   6.963   5.169   6.602
 4949SOL    HW115746   0.032   5.184   6.642
 4949SOL    HW215747   6.965   5.085   6.548
 4950SOL     OW15748   3.624   3.382   6.132
 4950SOL    HW115749   3.539   3.431   6.115
 4950SOL    HW215750   3.701   3.445   6.120
 4951SOL     OW15751   4.838   5.444   4.176
 4951SOL    HW115752   4.783   5.527   4.166
 4951SOL    HW215753   4.836   5.413   4.271
 4952SOL     OW15754   0.668   1.113   6.730
 4952SOL    HW115755   0.766   1.104   6.751
 4952SOL    HW215756   0.654   1.193   6.672
 4953SOL     OW15757   1.021   1.337   5.734
 4953SOL    HW115758   1.082   1.393   5.791
 4953SOL    HW215759   0.929   1.377   5.735
 4954SOL     OW15760   3.611   3.901   5.792
 4954SOL    HW115761   3.649   3.994   5.796
 4954SOL    HW215762   3.514   3.906   5.767
 4955SOL     OW15763   3.792   6.017   0.142
 4955SOL    HW115764   3.716   6.051   0.198
 4955SOL    HW215765   3.770   5.925   0.110
 4956SOL     OW15766   2.383   6.797   3.416
 4956SOL    HW115767   2.451   6.726   3.434
 4956SOL    HW215768   2.428   6.878   3.378
 4957SOL     OW15769   6.019   5.571   0.716
 4957SOL    HW115770   6.080   5.646   0.689
 4957SOL    HW215771   5.931   5.608   0.743
 4958SOL     OW15772   2.905   5.542   0.873
 4958SOL    HW115773   2.919   5.525   0.776
 4958SOL    HW215774   2.901   5.454   0.922
 4959SOL     OW15775   2.257   1.034   2.240
 4959SOL    HW115776   2.356   1.028   2.252
 4959SOL    HW215777   2.236   1.108   2.176
 4960SOL     OW15778   4.755   4.140   4.765
 4960SOL    HW115779   4.733   4.182   4.677
 4960SOL    HW215780   4.677   4.087   4.798
 4961SOL     OW15781   3.715   3.234   2.281
 4961SOL    HW115782   3.810   3.263   2.295
 4961SOL    HW215783   3.671   3.221   2.370
 4962SOL     OW15784   1.422   2.438   0.900
 4962SOL    HW115785   1.522   2.437   0.903
 4962SOL    HW215786   1.387   2.497   0.972
 4963SOL     OW15787   0.617   3.684   6.411
 4963SOL    HW115788   0.571   3.605   6.451
 4963SOL    HW215789   0.549   3.744   6.368
 4964SOL     OW15790   1.413   5.297   3.504
 4964SOL    HW115791   1.418   5.326   3.409
 4964SOL    HW215792   1.327   5.328   3.545
 4965SOL     OW15793   2.115   7.005   2.969
 4965SOL    HW115794   2.043   7.003   3.039
 4965SOL    HW215795   2.186   6.938   2.993
 4966SOL     OW15796   3.900   6.708   5.359
 4966SOL    HW115797   3.938   6.691   5.268
 4966SOL    HW215798   3.810   6.666   5.366
 4967SOL     OW15799   4.556   4.772   3.221
 4967SOL    HW115800   4.533   4.779   3.318
 4967SOL    HW215801   4.626   4.840   3.199
 4968SOL     OW15802   6.697   2.718   3.330
 4968SOL    HW115803   6.754   2.800   3.338
 4968SOL    HW215804   6.621   2.724   3.394
 4969SOL     OW15805   1.357   5.584   3.842
 4969SOL    HW115806   1.337   5.505   3.900
 4969SOL    HW215807   1.399   5.553   3.756
 4970SOL     OW15808   2.515   0.923   0.467
 4970SOL    HW115809   2.588   0.861   0.438
 4970SOL    HW215810   2.457   0.876   0.534
 4971SOL     OW15811   0.717   6.023   2.340
 4971SOL    HW115812   0.681   5.981   2.257
 4971SOL    HW215813   0.786   5.963   2.381
 4972SOL     OW15814   0.227   3.562   1.038
 4972SOL    HW115815   0.269   3.505   0.967
 4972SOL    HW215816   0.171   3.505   1.098
 4973SOL     OW15817   5.507   2.616   0.361
 4973SOL    HW115818   5.552   2.527   0.372
 4973SOL    HW215819   5.570   2.679   0.316
 4974SOL     OW15820   3.236   0.728   5.291
 4974SOL    HW115821   3.278   0.726   5.200
 4974SOL    HW215822   3.281   0.661   5.349
 4975SOL     OW15823   6.435   4.356   1.081
 4975SOL    HW115824   6.507   4.294   1.110
 4975SOL    HW215825   6.471   4.418   1.011
 4976SOL     OW15826   2.016   0.103   3.847
 4976SOL    HW115827   1.991   0.196   3.818
 4976SOL    HW215828   2.052   0.106   3.941
 4977SOL     OW15829   1.426   3.404   4.387
 4977SOL    HW115830   1.345   3.357   4.352
 4977SOL    HW215831   1.456   3.473   4.320
 4978SOL     OW15832   6.333   5.439   4.380
 4978SOL    HW115833   6.378   5.528   4.389
 4978SOL    HW215834   6.331   5.413   4.283
 4979SOL     OW15835   3.306   0.012   5.484
 4979SOL    HW115836   3.404   7.020   5.492
 4979SOL    HW215837   3.259   6.982   5.555
 4980SOL     OW15838   5.638   2.720   4.404
 4980SOL    HW115839   5.711   2.766   4.354
 4980SOL    HW215840   5.558   2.710   4.344
 4981SOL     OW15841   2.763   6.877   2.635
 4981SOL    HW115842   2.787   6.787   2.600
 4981SOL    HW215843   2.815   6.947   2.587
 4982SOL     OW15844   3.662   2.065   5.031
 4982SOL    HW115845   3.694   1.974   5.055
 4982SOL    HW215846   3.680   2.128   5.106
 4983SOL     OW15847   5.196   3.774   2.987
 4983SOL    HW115848   5.203   3.810   2.894
 4983SOL    HW215849   5.228   3.844   3.051
 4984SOL     OW15850   4.949   3.367   5.214
 4984SOL    HW115851   4.860   3.336   5.248
 4984SOL    HW215852   4.935   3.440   5.146
 4985SOL     OW15853   4.667   0.600   2.344
 4985SOL    HW115854   4.726   0.533   2.388
 4985SOL    HW215855   4.696   0.614   2.250
 4986SOL     OW15856   1.476   5.998   0.968
 4986SOL    HW115857   1.453   6.045   0.883
 4986SOL    HW215858   1.425   5.912   0.974
 4987SOL     OW15859   2.224   4.077   2.208
 4987SOL    HW115860   2.267   4.018   2.139
 4987SOL    HW215861   2.258   4.170   2.198
 4988SOL     OW15862   6.660   4.635   3.744
 4988SOL    HW115863   6.701   4.650   3.654
 4988SOL    HW215864   6.729   4.648   3.815
 4989SOL     OW15865   0.159   0.434   4.632
 4989SOL    HW115866   0.153   0.477   4.722
 4989SOL    HW215867   0.162   0.506   4.561
 4990SOL     OW15868   4.039   1.292   6.203
 4990SOL    HW115869   3.960   1.291   6.142
 4990SOL    HW215870   4.122   1.309   6.149
 4991SOL     OW15871   2.356   5.309   4.995
 4991SOL    HW115872   2.416   5.370   5.048
 4991SOL    HW215873   2.302   5.363   4.931
 4992SOL     OW15874   2.940   2.820   5.350
 4992SOL    HW115875   2.906   2.734   5.389
 4992SOL    HW215876   2.869   2.890   5.357
 4993SOL     OW15877   2.295   5.091   3.730
 4993SOL    HW115878   2.367   5.148   3.769
 4993SOL    HW215879   2.313   4.995   3.753
 4994SOL     OW15880   3.492   4.791   5.620
 4994SOL    HW115881   3.537   4.708   5.653
 4994SOL    HW215882   3.440   4.770   5.537
 4995SOL     OW15883   0.687   2.149   6.517
 4995SOL    HW115884   0.593   2.115   6.520
 4995SOL    HW215885   0.730   2.121   6.430
 4996SOL     OW15886   0.210   0.981   4.669
 4996SOL    HW115887   0.302   0.944   4.659
 4996SOL    HW215888   0.210   1.078   4.644
 4997SOL     OW15889   3.440   1.757   0.827
 4997SOL    HW115890   3.453   1.658   0.835
 4997SOL    HW215891   3.474   1.802   0.910
 4998SOL     OW15892   0.930   4.245   3.339
 4998SOL    HW115893   0.910   4.262   3.435
 4998SOL    HW215894   1.022   4.278   3.318
 4999SOL     OW15895   6.977   2.930   3.136
 4999SOL    HW115896   0.005   2.844   3.150
 4999SOL    HW215897   0.020   3.005   3.127
 5000SOL     OW15898   1.985   6.486   2.770
 5000SOL    HW115899   1.931   6.568   2.789
 5000SOL    HW215900   2.077   6.497   2.808
 5001SOL     OW15901   0.588   6.317   3.155
 5001SOL    HW115902   0.594   6.236   3.097
 5001SOL    HW215903   0.680   6.354   3.171
 5002SOL     OW15904   1.078   5.363   3.897
 5002SOL    HW115905   0.992   5.353   3.946
 5002SOL    HW215906   1.155   5.347   3.960
 5003SOL     OW15907   4.023   1.524   1.420
 5003SOL    HW115908   3.926   1.505   1.401
 5003SOL    HW215909   4.078   1.497   1.342
 5004SOL     OW15910   3.751   5.793   0.431
 5004SOL    HW115911   3.835   5.739   0.436
 5004SOL    HW215912   3.762   5.865   0.363
 5005SOL     OW15913   4.593   3.000   1.138
 5005SOL    HW115914   4.645   3.084   1.124
 5005SOL    HW215915   4.567   2.992   1.234
 5006SOL     OW15916   4.384   1.416   2.250
 5006SOL    HW115917   4.354   1.434   2.156
 5006SOL    HW215918   4.347   1.329   2.281
 5007SOL     OW15919   6.908   5.258   2.938
 5007SOL    HW115920   6.898   5.187   3.008
 5007SOL    HW215921   6.949   5.339   2.979
 5008SOL     OW15922   3.978   0.402   3.966
 5008SOL    HW115923   3.962   0.482   4.024
 5008SOL    HW215924   3.916   0.405   3.887
 5009SOL     OW15925   1.072   1.902   5.874
 5009SOL    HW115926   1.169   1.913   5.898
 5009SOL    HW215927   1.063   1.831   5.805
 5010SOL     OW15928   5.205   4.716   0.647
 5010SOL    HW115929   5.211   4.676   0.556
 5010SOL    HW215930   5.212   4.644   0.716
 5011SOL     OW15931   1.868   2.006   5.523
 5011SOL    HW115932   1.933   2.032   5.452
 5011SOL    HW215933   1.838   2.087   5.573
 5012SOL     OW15934   5.567   2.578   5.452
 5012SOL    HW115935   5.639   2.641   5.481
 5012SOL    HW215936   5.607   2.500   5.405
 5013SOL     OW15937   6.150   5.669   5.991
 5013SOL    HW115938   6.146   5.747   6.053
 5013SOL    HW215939   6.245   5.648   5.969
 5014SOL     OW15940   6.321   3.471   0.260
 5014SOL    HW115941   6.265   3.475   0.343
 5014SOL    HW215942   6.341   3.375   0.238
 5015SOL     OW15943   6.364   4.582   4.474
 5015SOL    HW115944   6.284   4.543   4.430
 5015SOL    HW215945   6.398   4.658   4.418
 5016SOL     OW15946   1.364   1.923   6.555
 5016SOL    HW115947   1.303   1.906   6.631
 5016SOL    HW215948   1.450   1.962   6.589
 5017SOL     OW15949   1.269   2.499   1.946
 5017SOL    HW115950   1.356   2.540   1.922
 5017SOL    HW215951   1.273   2.400   1.931
 5018SOL     OW15952   0.450   0.662   0.792
 5018SOL    HW115953   0.439   0.717   0.875
 5018SOL    HW215954   0.389   0.698   0.721
 5019SOL     OW15955   1.968   4.030   3.871
 5019SOL    HW115956   2.049   3.974   3.853
 5019SOL    HW215957   1.944   4.023   3.968
 5020SOL     OW15958   1.396   0.055   2.514
 5020SOL    HW115959   1.442   0.003   2.586
 5020SOL    HW215960   1.431   0.026   2.425
 5021SOL     OW15961   2.483   0.586   0.761
 5021SOL    HW115962   2.568   0.559   0.807
 5021SOL    HW215963   2.449   0.511   0.705
 5022SOL     OW15964   6.989   3.367   1.680
 5022SOL    HW115965   6.968   3.448   1.625
 5022SOL    HW215966   6.907   3.337   1.727
 5023SOL     OW15967   0.746   2.020   3.679
 5023SOL    HW115968   0.824   2.039   3.738
 5023SOL    HW215969   0.666   2.069   3.714
 5024SOL     OW15970   4.337   3.779   0.037
 5024SOL    HW115971   4.330   3.703   0.101
 5024SOL    HW215972   4.347   3.865   0.088
 5025SOL     OW15973   4.356   2.069   4.428
 5025SOL    HW115974   4.345   2.012   4.509
 5025SOL    HW215975   4.296   2.036   4.356
 5026SOL     OW15976   4.895   5.757   5.316
 5026SOL    HW115977   4.978   5.785   5.268
 5026SOL    HW215978   4.852   5.682   5.266
 5027SOL     OW15979   5.564   6.365   1.423
 5027SOL    HW115980   5.612   6.359   1.336
 5027SOL    HW215981   5.611   6.430   1.483
 5028SOL     OW15982   0.407   2.294   2.368
 5028SOL    HW115983   0.456   2.287   2.454
 5028SOL    HW215984   0.453   2.359   2.308
 5029SOL     OW15985   5.939   3.037   3.252
 5029SOL    HW115986   5.852   3.034   3.301
 5029SOL    HW215987   5.944   2.960   3.188
 5030SOL     OW15988   0.806   3.457   0.588
 5030SOL    HW115989   0.784   3.478   0.493
 5030SOL    HW215990   0.821   3.543   0.638
 5031SOL     OW15991   5.819   0.774   6.383
 5031SOL    HW115992   5.888   0.846   6.392
 5031SOL    HW215993   5.747   0.789   6.451
 5032SOL     OW15994   2.321   4.723   6.416
 5032SOL    HW115995   2.368   4.690   6.335
 5032SOL    HW215996   2.235   4.672   6.428
 5033SOL     OW15997   2.284   6.817   3.753
 5033SOL    HW115998   2.227   6.749   3.799
 5033SOL    HW215999   2.238   6.850   3.671
 5034SOL     OW16000   4.209   6.128   3.505
 5034SOL    HW116001   4.306   6.144   3.487
 5034SOL    HW216002   4.197   6.102   3.600
 5035SOL     OW16003   1.897   4.691   3.955
 5035SOL    HW116004   1.817   4.654   3.908
 5035SOL    HW216005   1.941   4.619   4.009
 5036SOL     OW16006   1.451   2.605   4.557
 5036SOL    HW116007   1.381   2.658   4.604
 5036SOL    HW216008   1.439   2.612   4.458
 5037SOL     OW16009   4.978   4.355   1.541
 5037SOL    HW116010   5.011   4.312   1.625
 5037SOL    HW216011   5.057   4.380   1.484
 5038SOL     OW16012   3.037   3.797   4.840
 5038SOL    HW116013   3.006   3.807   4.934
 5038SOL    HW216014   3.034   3.701   4.813
 5039SOL     OW16015   0.610   2.675   6.478
 5039SOL    HW116016   0.596   2.767   6.513
 5039SOL    HW216017   0.607   2.675   6.378
 5040SOL     OW16018   1.007   1.456   5.086
 5040SOL    HW116019   1.022   1.363   5.052
 5040SOL    HW216020   1.086   1.484   5.141
 5041SOL     OW16021   6.554   2.456   1.563
 5041SOL    HW116022   6.469   2.427   1.520
 5041SOL    HW216023   6.598   2.377   1.607
 5042SOL     OW16024   1.184   1.571   5.268
 5042SOL    HW116025   1.243   1.630   5.212
 5042SOL    HW216026   1.211   1.579   5.364
 5043SOL     OW16027   2.146   0.282   1.046
 5043SOL    HW116028   2.133   0.186   1.024
 5043SOL    HW216029   2.145   0.337   0.962
 5044SOL     OW16030   6.945   5.880   1.457
 5044SOL    HW116031   6.895   5.962   1.429
 5044SOL    HW216032   6.951   5.817   1.379
 5045SOL     OW16033   5.902   2.574   2.850
 5045SOL    HW116034   5.925   2.657   2.799
 5045SOL    HW216035   5.803   2.560   2.846
 5046SOL     OW16036   4.195   3.293   1.735
 5046SOL    HW116037   4.281   3.264   1.777
 5046SOL    HW216038   4.180   3.242   1.650
 5047SOL     OW16039   2.656   5.192   3.442
 5047SOL    HW116040   2.643   5.098   3.410
 5047SOL    HW216041   2.568   5.239   3.443
 5048SOL     OW16042   1.554   0.049   5.344
 5048SOL    HW116043   1.624   0.100   5.294
 5048SOL    HW216044   1.464   0.089   5.325
 5049SOL     OW16045   3.591   1.792   6.403
 5049SOL    HW116046   3.614   1.746   6.317
 5049SOL    HW216047   3.638   1.748   6.479
 5050SOL     OW16048   1.216   0.566   0.958
 5050SOL    HW116049   1.152   0.628   1.003
 5050SOL    HW216050   1.279   0.529   1.026
 5051SOL     OW16051   4.237   4.160   0.809
 5051SOL    HW116052   4.308   4.227   0.832
 5051SOL    HW216053   4.248   4.078   0.866
 5052SOL     OW16054   1.830   4.071   4.116
 5052SOL    HW116055   1.732   4.053   4.110
 5052SOL    HW216056   1.850   4.124   4.199
 5053SOL     OW16057   6.711   0.855   0.512
 5053SOL    HW116058   6.749   0.890   0.598
 5053SOL    HW216059   6.743   0.910   0.436
 5054SOL     OW16060   4.306   5.495   2.977
 5054SOL    HW116061   4.337   5.523   3.068
 5054SOL    HW216062   4.310   5.574   2.915
 5055SOL     OW16063   5.807   3.999   5.698
 5055SOL    HW116064   5.722   3.958   5.665
 5055SOL    HW216065   5.815   4.092   5.662
 5056SOL     OW16066   6.477   5.143   3.238
 5056SOL    HW116067   6.577   5.142   3.231
 5056SOL    HW216068   6.438   5.175   3.152
 5057SOL     OW16069   6.714   6.157   2.812
 5057SOL    HW116070   6.777   6.164   2.889
 5057SOL    HW216071   6.697   6.248   2.773
 5058SOL     OW16072   2.584   5.802   5.692
 5058SOL    HW116073   2.599   5.900   5.701
 5058SOL    HW216074   2.486   5.782   5.702
 5059SOL     OW16075   6.407   6.254   2.775
 5059SOL    HW116076   6.440   6.331   2.720
 5059SOL    HW216077   6.322   6.280   2.820
 5060SOL     OW16078   6.936   3.032   0.144
 5060SOL    HW116079   6.896   3.054   0.056
 5060SOL    HW216080   6.947   3.116   0.198
 5061SOL     OW16081   5.432   3.740   0.681
 5061SOL    HW116082   5.449   3.805   0.607
 5061SOL    HW216083   5.486   3.657   0.666
 5062SOL     OW16084   6.764   0.312   6.785
 5062SOL    HW116085   6.719   0.280   6.702
 5062SOL    HW216086   6.800   0.404   6.771
 5063SOL     OW16087   1.359   6.558   2.319
 5063SOL    HW116088   1.452   6.584   2.292
 5063SOL    HW216089   1.309   6.639   2.349
 5064SOL     OW16090   5.134   4.717   6.633
 5064SOL    HW116091   5.225   4.681   6.655
 5064SOL    HW216092   5.107   4.783   6.703
 5065SOL     OW16093   2.108   6.846   5.848
 5065SOL    HW116094   2.132   6.754   5.880
 5065SOL    HW216095   2.013   6.866   5.872
 5066SOL     OW16096   4.773   4.583   0.264
 5066SOL    HW116097   4.846   4.606   0.328
 5066SOL    HW216098   4.692   4.639   0.283
 5067SOL     OW16099   5.433   1.100   6.309
 5067SOL    HW116100   5.438   1.153   6.394
 5067SOL    HW216101   5.344   1.055   6.302
 5068SOL     OW16102   3.313   5.306   1.690
 5068SOL    HW116103   3.351   5.223   1.730
 5068SOL    HW216104   3.218   5.316   1.718
 5069SOL     OW16105   6.833   5.142   3.158
 5069SOL    HW116106   6.797   5.227   3.197
 5069SOL    HW216107   6.757   5.082   3.133
 5070SOL     OW16108   4.934   2.529   4.112
 5070SOL    HW116109   4.994   2.460   4.153
 5070SOL    HW216110   4.839   2.500   4.120
 5071SOL     OW16111   5.358   1.345   1.807
 5071SOL    HW116112   5.341   1.367   1.711
 5071SOL    HW216113   5.397   1.425   1.854
 5072SOL     OW16114   0.679   4.363   2.403
 5072SOL    HW116115   0.589   4.375   2.361
 5072SOL    HW216116   0.684   4.272   2.445
 5073SOL     OW16117   4.485   2.246   3.709
 5073SOL    HW116118   4.567   2.300   3.687
 5073SOL    HW216119   4.444   2.282   3.793
 5074SOL     OW16120   4.103   3.790   5.108
 5074SOL    HW116121   4.010   3.785   5.144
 5074SOL    HW216122   4.104   3.763   5.012
 5075SOL     OW16123   6.254   0.251   4.527
 5075SOL    HW116124   6.240   0.307   4.445
 5075SOL    HW216125   6.243   0.155   4.504
 5076SOL     OW16126   5.282   0.406   0.100
 5076SOL    HW116127   5.279   0.500   0.066
 5076SOL    HW216128   5.303   0.407   0.198
 5077SOL     OW16129   0.134   0.987   2.853
 5077SOL    HW116130   0.120   0.985   2.952
 5077SOL    HW216131   0.232   0.997   2.833
 5078SOL     OW16132   0.407   1.879   4.644
 5078SOL    HW116133   0.402   1.868   4.545
 5078SOL    HW216134   0.410   1.789   4.688
 5079SOL     OW16135   5.157   5.355   4.311
 5079SOL    HW116136   5.091   5.381   4.381
 5079SOL    HW216137   5.108   5.323   4.230
 5080SOL     OW16138   4.976   0.219   6.040
 5080SOL    HW116139   4.996   0.159   5.963
 5080SOL    HW216140   4.880   0.245   6.039
 5081SOL     OW16141   2.887   3.338   3.077
 5081SOL    HW116142   2.873   3.421   3.132
 5081SOL    HW216143   2.915   3.263   3.136
 5082SOL     OW16144   1.148   2.088   5.531
 5082SOL    HW116145   1.237   2.059   5.567
 5082SOL    HW216146   1.136   2.053   5.438
 5083SOL     OW16147   0.878   3.358   2.019
 5083SOL    HW116148   0.865   3.434   2.082
 5083SOL    HW216149   0.976   3.344   2.003
 5084SOL     OW16150   1.710   5.505   2.358
 5084SOL    HW116151   1.770   5.433   2.392
 5084SOL    HW216152   1.640   5.465   2.299
 5085SOL     OW16153   6.654   2.506   0.843
 5085SOL    HW116154   6.557   2.486   0.856
 5085SOL    HW216155   6.679   2.487   0.748
 5086SOL     OW16156   6.766   4.746   4.370
 5086SOL    HW116157   6.862   4.765   4.350
 5086SOL    HW216158   6.758   4.652   4.404
 5087SOL     OW16159   5.761   5.393   6.087
 5087SOL    HW116160   5.771   5.301   6.125
 5087SOL    HW216161   5.851   5.426   6.059
 5088SOL     OW16162   5.648   1.394   6.219
 5088SOL    HW116163   5.687   1.365   6.307
 5088SOL    HW216164   5.549   1.404   6.229
 5089SOL     OW16165   5.069   2.891   4.196
 5089SOL    HW116166   5.128   2.850   4.127
 5089SOL    HW216167   5.048   2.824   4.267
 5090SOL     OW16168   0.817   5.089   6.957
 5090SOL    HW116169   0.761   5.102   6.876
 5090SOL    HW216170   0.760   5.059   0.011
 5091SOL     OW16171   0.854   5.715   4.420
 5091SOL    HW116172   0.845   5.771   4.338
 5091SOL    HW216173   0.869   5.774   4.500
 5092SOL     OW16174   3.618   3.192   0.282
 5092SOL    HW116175   3.653   3.278   0.247
 5092SOL    HW216176   3.535   3.166   0.231
 5093SOL     OW16177   0.665   0.667   2.179
 5093SOL    HW116178   0.652   0.701   2.086
 5093SOL    HW216179   0.595   0.707   2.239
 5094SOL     OW16180   1.069   0.347   6.164
 5094SOL    HW116181   1.043   0.364   6.069
 5094SOL    HW216182   1.155   0.296   6.166
 5095SOL     OW16183   3.242   6.688   4.631
 5095SOL    HW116184   3.338   6.674   4.652
 5095SOL    HW216185   3.215   6.627   4.557
 5096SOL     OW16186   3.262   6.149   2.100
 5096SOL    HW116187   3.312   6.236   2.091
 5096SOL    HW216188   3.326   6.077   2.128
 5097SOL     OW16189   1.088   2.146   0.061
 5097SOL    HW116190   1.045   2.208   7.016
 5097SOL    HW216191   1.144   2.200   0.125
 5098SOL     OW16192   1.428   2.884   2.941
 5098SOL    HW116193   1.505   2.942   2.969
 5098SOL    HW216194   1.413   2.896   2.843
 5099SOL     OW16195   0.754   1.680   4.341
 5099SOL    HW116196   0.794   1.677   4.432
 5099SOL    HW216197   0.761   1.772   4.303
 5100SOL     OW16198   5.113   4.662   5.089
 5100SOL    HW116199   5.074   4.718   5.162
 5100SOL    HW216200   5.126   4.569   5.123
 5101SOL     OW16201   5.838   6.309   0.470
 5101SOL    HW116202   5.752   6.357   0.453
 5101SOL    HW216203   5.844   6.229   0.409
 5102SOL     OW16204   3.899   6.247   3.470
 5102SOL    HW116205   3.888   6.149   3.484
 5102SOL    HW216206   3.829   6.296   3.522
 5103SOL     OW16207   1.658   2.117   3.790
 5103SOL    HW116208   1.681   2.185   3.720
 5103SOL    HW216209   1.740   2.068   3.817
 5104SOL     OW16210   0.681   0.730   0.676
 5104SOL    HW116211   0.600   0.725   0.735
 5104SOL    HW216212   0.758   0.687   0.723
 5105SOL     OW16213   1.715   3.171   0.661
 5105SOL    HW116214   1.764   3.252   0.693
 5105SOL    HW216215   1.746   3.147   0.569
 5106SOL     OW16216   2.203   6.946   1.940
 5106SOL    HW116217   2.135   7.019   1.941
 5106SOL    HW216218   2.275   6.969   1.873
 5107SOL     OW16219   1.370   0.025   5.780
 5107SOL    HW116220   1.290   0.082   5.798
 5107SOL    HW216221   1.453   0.072   5.812
 5108SOL     OW16222   4.098   3.299   4.468
 5108SOL    HW116223   4.182   3.247   4.454
 5108SOL    HW216224   4.087   3.318   4.566
 5109SOL     OW16225   0.905   2.603   2.141
 5109SOL    HW116226   0.946   2.550   2.215
 5109SOL    HW216227   0.876   2.692   2.175
 5110SOL     OW16228   1.414   6.132   5.271
 5110SOL    HW116229   1.439   6.091   5.359
 5110SOL    HW216230   1.476   6.098   5.200
 5111SOL     OW16231   1.028   1.200   6.665
 5111SOL    HW116232   1.095   1.247   6.722
 5111SOL    HW216233   0.996   1.118   6.712
 5112SOL     OW16234   0.639   0.276   3.496
 5112SOL    HW116235   0.590   0.195   3.464
 5112SOL    HW216236   0.727   0.282   3.450
 5113SOL     OW16237   0.791   1.925   6.652
 5113SOL    HW116238   0.771   2.019   6.626
 5113SOL    HW216239   0.770   1.912   6.749
 5114SOL     OW16240   5.303   4.957   6.466
 5114SOL    HW116241   5.264   5.000   6.384
 5114SOL    HW216242   5.247   4.980   6.546
 5115SOL     OW16243   2.664   3.800   5.266
 5115SOL    HW116244   2.672   3.828   5.362
 5115SOL    HW216245   2.591   3.852   5.222
 5116SOL     OW16246   6.504   4.351   1.417
 5116SOL    HW116247   6.487   4.284   1.345
 5116SOL    HW216248   6.517   4.303   1.504
 5117SOL     OW16249   2.644   5.918   2.062
 5117SOL    HW116250   2.736   5.950   2.039
 5117SOL    HW216251   2.602   5.980   2.128
 5118SOL     OW16252   4.541   0.172   1.282
 5118SOL    HW116253   4.476   0.163   1.358
 5118SOL    HW216254   4.628   0.131   1.309
 5119SOL     OW16255   6.525   1.030   3.286
 5119SOL    HW116256   6.602   1.093   3.292
 5119SOL    HW216257   6.533   0.961   3.358
 5120SOL     OW16258   3.580   1.037   1.100
 5120SOL    HW116259   3.628   0.965   1.050
 5120SOL    HW216260   3.529   0.997   1.176
 5121SOL     OW16261   1.007   3.640   4.159
 5121SOL    HW116262   1.074   3.643   4.234
 5121SOL    HW216263   0.968   3.731   4.146
 5122SOL     OW16264   2.763   5.833   2.711
 5122SOL    HW116265   2.683   5.778   2.686
 5122SOL    HW216266   2.777   5.828   2.810
 5123SOL     OW16267   6.466   3.199   1.889
 5123SOL    HW116268   6.428   3.290   1.869
 5123SOL    HW216269   6.396   3.143   1.932
 5124SOL     OW16270   3.302   6.832   6.760
 5124SOL    HW116271   3.356   6.903   6.714
 5124SOL    HW216272   3.343   6.743   6.742
 5125SOL     OW16273   0.953   1.805   6.888
 5125SOL    HW116274   0.926   1.785   6.794
 5125SOL    HW216275   0.934   1.726   6.946
 5126SOL     OW16276   3.819   1.211   0.635
 5126SOL    HW116277   3.804   1.265   0.552
 5126SOL    HW216278   3.902   1.244   0.680
 5127SOL     OW16279   5.147   3.786   5.685
 5127SOL    HW116280   5.179   3.863   5.629
 5127SOL    HW216281   5.098   3.721   5.628
 5128SOL     OW16282   0.417   0.816   0.008
 5128SOL    HW116283   0.343   0.854   6.974
 5128SOL    HW216284   0.468   0.890   0.051
 5129SOL     OW16285   4.699   2.766   4.334
 5129SOL    HW116286   4.617   2.733   4.381
 5129SOL    HW216287   4.721   2.859   4.367
 5130SOL     OW16288   1.679   6.475   4.875
 5130SOL    HW116289   1.778   6.468   4.869
 5130SOL    HW216290   1.655   6.561   4.920
 5131SOL     OW16291   3.698   4.909   2.851
 5131SOL    HW116292   3.625   4.950   2.906
 5131SOL    HW216293   3.666   4.896   2.757
 5132SOL     OW16294   3.319   1.680   6.477
 5132SOL    HW116295   3.395   1.746   6.487
 5132SOL    HW216296   3.311   1.653   6.381
 5133SOL     OW16297   2.548   3.981   6.555
 5133SOL    HW116298   2.514   3.946   6.467
 5133SOL    HW216299   2.550   4.081   6.552
 5134SOL     OW16300   5.445   6.096   1.623
 5134SOL    HW116301   5.514   6.167   1.636
 5134SOL    HW216302   5.453   6.058   1.531
 5135SOL     OW16303   1.197   3.064   2.580
 5135SOL    HW116304   1.150   3.057   2.492
 5135SOL    HW216305   1.234   3.157   2.590
 5136SOL     OW16306   6.987   0.505   5.192
 5136SOL    HW116307   6.982   0.597   5.153
 5136SOL    HW216308   0.061   0.474   5.193
 5137SOL     OW16309   5.177   0.725   3.277
 5137SOL    HW116310   5.104   0.781   3.237
 5137SOL    HW216311   5.266   0.757   3.243
 5138SOL     OW16312   3.722   3.505   3.004
 5138SOL    HW116313   3.802   3.564   3.013
 5138SOL    HW216314   3.748   3.411   3.025
 5139SOL     OW16315   5.373   0.600   4.907
 5139SOL    HW116316   5.397   0.544   4.987
 5139SOL    HW216317   5.432   0.576   4.830
 5140SOL     OW16318   2.729   3.266   5.410
 5140SOL    HW116319   2.635   3.285   5.383
 5140SOL    HW216320   2.788   3.267   5.329
 5141SOL     OW16321   0.527   2.391   1.528
 5141SOL    HW116322   0.478   2.385   1.441
 5141SOL    HW216323   0.518   2.305   1.578
 5142SOL     OW16324   0.104   6.475   3.319
 5142SOL    HW116325   0.112   6.567   3.280
 5142SOL    HW216326   0.194   6.431   3.318
 5143SOL     OW16327   5.821   5.553   2.373
 5143SOL    HW116328   5.745   5.598   2.419
 5143SOL    HW216329   5.862   5.486   2.434
 5144SOL     OW16330   1.673   2.509   4.986
 5144SOL    HW116331   1.628   2.585   4.939
 5144SOL    HW216332   1.735   2.462   4.923
 5145SOL     OW16333   0.828   4.919   6.520
 5145SOL    HW116334   0.845   4.969   6.435
 5145SOL    HW216335   0.904   4.934   6.583
 5146SOL     OW16336   5.501   5.866   6.696
 5146SOL    HW116337   5.475   5.959   6.670
 5146SOL    HW216338   5.482   5.804   6.619
 5147SOL     OW16339   3.945   1.040   3.250
 5147SOL    HW116340   3.896   0.992   3.177
 5147SOL    HW216341   3.879   1.092   3.305
 5148SOL     OW16342   6.171   1.384   0.657
 5148SOL    HW116343   6.160   1.475   0.617
 5148SOL    HW216344   6.128   1.381   0.747
 5149SOL     OW16345   2.763   6.762   3.515
 5149SOL    HW116346   2.720   6.746   3.426
 5149SOL    HW216347   2.700   6.735   3.587
 5150SOL     OW16348   6.735   0.912   5.002
 5150SOL    HW116349   6.655   0.876   4.954
 5150SOL    HW216350   6.705   0.974   5.075
 5151SOL     OW16351   5.136   5.090   2.075
 5151SOL    HW116352   5.066   5.051   2.015
 5151SOL    HW216353   5.210   5.127   2.019
 5152SOL     OW16354   1.928   1.191   0.542
 5152SOL    HW116355   1.872   1.273   0.550
 5152SOL    HW216356   1.875   1.118   0.499
 5153SOL     OW16357   2.130   1.930   6.818
 5153SOL    HW116358   2.215   1.881   6.797
 5153SOL    HW216359   2.151   2.026   6.834
 5154SOL     OW16360   0.745   3.112   6.555
 5154SOL    HW116361   0.764   3.184   6.488
 5154SOL    HW216362   0.786   3.136   6.643
 5155SOL     OW16363   1.281   0.569   0.066
 5155SOL    HW116364   1.336   0.488   0.049
 5155SOL    HW216365   1.338   0.651   0.056
 5156SOL     OW16366   5.256   3.492   5.607
 5156SOL    HW116367   5.354   3.509   5.613
 5156SOL    HW216368   5.220   3.532   5.522
 5157SOL     OW16369   3.280   0.654   2.577
 5157SOL    HW116370   3.332   0.610   2.650
 5157SOL    HW216371   3.282   0.596   2.495
 5158SOL     OW16372   1.073   2.580   1.728
 5158SOL    HW116373   1.131   2.620   1.657
 5158SOL    HW216374   1.131   2.539   1.798
 5159SOL     OW16375   6.521   3.306   6.017
 5159SOL    HW116376   6.601   3.252   6.043
 5159SOL    HW216377   6.551   3.389   5.970
 5160SOL     OW16378   5.940   0.832   3.037
 5160SOL    HW116379   5.876   0.834   3.114
 5160SOL    HW216380   6.031   0.809   3.070
 5161SOL     OW16381   1.331   1.493   6.868
 5161SOL    HW116382   1.319   1.576   6.923
 5161SOL    HW216383   1.337   1.519   6.771
 5162SOL     OW16384   0.289   0.889   6.144
 5162SOL    HW116385   0.369   0.854   6.194
 5162SOL    HW216386   0.294   0.989   6.139
 5163SOL     OW16387   3.700   1.652   1.367
 5163SOL    HW116388   3.686   1.745   1.401
 5163SOL    HW216389   3.674   1.586   1.438
 5164SOL     OW16390   2.204   2.605   0.078
 5164SOL    HW116391   2.113   2.615   0.038
 5164SOL    HW216392   2.197   2.553   0.163
 5165SOL     OW16393   1.273   5.568   5.391
 5165SOL    HW116394   1.209   5.501   5.353
 5165SOL    HW216395   1.353   5.573   5.332
 5166SOL     OW16396   6.471   5.920   6.151
 5166SOL    HW116397   6.533   5.845   6.176
 5166SOL    HW216398   6.507   5.967   6.071
 5167SOL     OW16399   6.033   3.150   6.308
 5167SOL    HW116400   6.128   3.178   6.296
 5167SOL    HW216401   5.976   3.195   6.239
 5168SOL     OW16402   6.018   0.923   4.030
 5168SOL    HW116403   6.012   0.860   4.108
 5168SOL    HW216404   6.024   0.870   3.945
 5169SOL     OW16405   4.936   6.010   4.472
 5169SOL    HW116406   5.027   6.005   4.514
 5169SOL    HW216407   4.876   5.941   4.513
 5170SOL     OW16408   2.620   2.870   6.189
 5170SOL    HW116409   2.664   2.880   6.278
 5170SOL    HW216410   2.637   2.778   6.154
 5171SOL     OW16411   1.205   6.963   6.046
 5171SOL    HW116412   1.222   6.891   6.112
 5171SOL    HW216413   1.122   6.941   5.993
 5172SOL     OW16414   4.690   5.383   5.868
 5172SOL    HW116415   4.624   5.456   5.885
 5172SOL    HW216416   4.781   5.422   5.854
 5173SOL     OW16417   4.502   6.358   4.276
 5173SOL    HW116418   4.517   6.322   4.184
 5173SOL    HW216419   4.485   6.283   4.339
 5174SOL     OW16420   0.750   5.558   3.912
 5174SOL    HW116421   0.802   5.557   3.997
 5174SOL    HW216422   0.706   5.470   3.898
 5175SOL     OW16423   2.762   2.174   6.373
 5175SOL    HW116424   2.834   2.243   6.368
 5175SOL    HW216425   2.685   2.211   6.425
 5176SOL     OW16426   5.635   6.242   5.622
 5176SOL    HW116427   5.560   6.176   5.620
 5176SOL    HW216428   5.606   6.324   5.672
 5177SOL     OW16429   4.721   4.995   1.041
 5177SOL    HW116430   4.752   4.985   0.947
 5177SOL    HW216431   4.625   5.025   1.042
 5178SOL     OW16432   0.917   3.633   1.453
 5178SOL    HW116433   0.879   3.610   1.543
 5178SOL    HW216434   1.007   3.590   1.444
 5179SOL     OW16435   4.256   5.763   2.906
 5179SOL    HW116436   4.309   5.792   2.826
 5179SOL    HW216437   4.309   5.783   2.989
 5180SOL     OW16438   2.974   5.101   2.558
 5180SOL    HW116439   2.941   5.143   2.642
 5180SOL    HW216440   2.953   5.160   2.480
 5181SOL     OW16441   6.899   1.493   5.355
 5181SOL    HW116442   6.800   1.493   5.343
 5181SOL    HW216443   6.929   1.585   5.379
 5182SOL     OW16444   2.089   6.260   2.039
 5182SOL    HW116445   2.116   6.341   2.091
 5182SOL    HW216446   2.034   6.200   2.098
 5183SOL     OW16447   5.220   2.150   3.602
 5183SOL    HW116448   5.196   2.093   3.681
 5183SOL    HW216449   5.260   2.093   3.530
 5184SOL     OW16450   3.431   1.104   1.611
 5184SOL    HW116451   3.522   1.092   1.651
 5184SOL    HW216452   3.366   1.129   1.683
 5185SOL     OW16453   6.345   0.596   0.993
 5185SOL    HW116454   6.360   0.674   0.932
 5185SOL    HW216455   6.250   0.596   1.024
 5186SOL     OW16456   6.813   2.396   6.468
 5186SOL    HW116457   6.882   2.463   6.442
 5186SOL    HW216458   6.826   2.369   6.563
 5187SOL     OW16459   1.218   4.658   4.847
 5187SOL    HW116460   1.296   4.720   4.854
 5187SOL    HW216461   1.247   4.572   4.805
 5188SOL     OW16462   6.496   0.821   1.571
 5188SOL    HW116463   6.454   0.793   1.485
 5188SOL    HW216464   6.449   0.901   1.607
 5189SOL     OW16465   5.642   6.280   6.351
 5189SOL    HW116466   5.659   6.279   6.450
 5189SOL    HW216467   5.711   6.223   6.306
 5190SOL     OW16468   1.816   4.930   0.955
 5190SOL    HW116469   1.719   4.905   0.953
 5190SOL    HW216470   1.827   5.026   0.929
 5191SOL     OW16471   3.308   3.992   1.143
 5191SOL    HW116472   3.291   4.088   1.164
 5191SOL    HW216473   3.299   3.938   1.227
 5192SOL     OW16474   0.557   4.604   2.562
 5192SOL    HW116475   0.635   4.556   2.522
 5192SOL    HW216476   0.487   4.538   2.587
 5193SOL     OW16477   4.146   0.599   5.054
 5193SOL    HW116478   4.191   0.677   5.011
 5193SOL    HW216479   4.174   0.592   5.149
 5194SOL     OW16480   3.990   1.767   5.201
 5194SOL    HW116481   4.026   1.807   5.117
 5194SOL    HW216482   4.058   1.777   5.274
 5195SOL     OW16483   1.964   1.413   4.982
 5195SOL    HW116484   2.027   1.490   4.995
 5195SOL    HW216485   2.002   1.352   4.912
 5196SOL     OW16486   6.261   6.011   2.939
 5196SOL    HW116487   6.352   5.981   2.909
 5196SOL    HW216488   6.201   6.018   2.859
 5197SOL     OW16489   2.234   3.608   5.692
 5197SOL    HW116490   2.319   3.606   5.641
 5197SOL    HW216491   2.157   3.591   5.630
 5198SOL     OW16492   6.519   5.526   3.930
 5198SOL    HW116493   6.568   5.502   4.014
 5198SOL    HW216494   6.534   5.456   3.861
 5199SOL     OW16495   0.585   5.168   1.346
 5199SOL    HW116496   0.629   5.209   1.266
 5199SOL    HW216497   0.619   5.213   1.429
 5200SOL     OW16498   0.403   4.588   5.847
 5200SOL    HW116499   0.311   4.559   5.819
 5200SOL    HW216500   0.418   4.566   5.943
 5201SOL     OW16501   0.780   5.491   4.596
 5201SOL    HW116502   0.839   5.413   4.577
 5201SOL    HW216503   0.770   5.546   4.513
 5202SOL     OW16504   0.183   5.093   1.585
 5202SOL    HW116505   0.265   5.127   1.631
 5202SOL    HW216506   0.190   5.112   1.487
 5203SOL     OW16507   6.737   3.495   0.013
 5203SOL    HW116508   6.645   3.458   7.021
 5203SOL    HW216509   6.744   3.535   0.104
 5204SOL     OW16510   5.475   5.149   6.340
 5204SOL    HW116511   5.563   5.183   6.373
 5204SOL    HW216512   5.459   5.057   6.375
 5205SOL     OW16513   2.703   5.893   0.524
 5205SOL    HW116514   2.657   5.925   0.607
 5205SOL    HW216515   2.689   5.961   0.451
 5206SOL     OW16516   0.003   4.062   4.599
 5206SOL    HW116517   6.956   4.030   4.665
 5206SOL    HW216518   7.012   4.014   4.513
 5207SOL     OW16519   1.807   6.601   1.940
 5207SOL    HW116520   1.777   6.600   1.844
 5207SOL    HW216521   1.820   6.696   1.970
 5208SOL     OW16522   4.277   2.115   0.698
 5208SOL    HW116523   4.306   2.066   0.780
 5208SOL    HW216524   4.345   2.185   0.676
 5209SOL     OW16525   6.166   5.562   3.156
 5209SOL    HW116526   6.224   5.624   3.103
 5209SOL    HW216527   6.223   5.503   3.212
 5210SOL     OW16528   4.859   3.625   3.639
 5210SOL    HW116529   4.766   3.588   3.643
 5210SOL    HW216530   4.918   3.560   3.593
 5211SOL     OW16531   3.000   4.422   1.646
 5211SOL    HW116532   2.964   4.453   1.734
 5211SOL    HW216533   2.938   4.450   1.572
 5212SOL     OW16534   6.981   6.639   6.486
 5212SOL    HW116535   7.012   6.734   6.497
 5212SOL    HW216536   6.928   6.612   6.566
 5213SOL     OW16537   4.198   1.755   6.933
 5213SOL    HW116538   4.276   1.775   6.873
 5213SOL    HW216539   4.132   1.698   6.885
 5214SOL     OW16540   4.402   1.743   0.114
 5214SOL    HW116541   4.385   1.664   0.054
 5214SOL    HW216542   4.493   1.780   0.096
 5215SOL     OW16543   6.074   5.777   4.467
 5215SOL    HW116544   6.052   5.693   4.418
 5215SOL    HW216545   6.172   5.794   4.463
 5216SOL     OW16546   2.898   6.831   0.765
 5216SOL    HW116547   2.918   6.734   0.778
 5216SOL    HW216548   2.824   6.840   0.698
 5217SOL     OW16549   2.924   5.751   3.308
 5217SOL    HW116550   2.964   5.840   3.286
 5217SOL    HW216551   2.995   5.681   3.307
 5218SOL     OW16552   1.110   0.639   3.402
 5218SOL    HW116553   1.027   0.689   3.429
 5218SOL    HW216554   1.176   0.702   3.363
 5219SOL     OW16555   3.161   6.723   0.928
 5219SOL    HW116556   3.097   6.757   0.997
 5219SOL    HW216557   3.155   6.780   0.846
 5220SOL     OW16558   0.953   0.043   1.924
 5220SOL    HW116559   0.895   0.124   1.910
 5220SOL    HW216560   1.027   0.065   1.986
 5221SOL     OW16561   4.983   1.240   0.378
 5221SOL    HW116562   4.974   1.244   0.478
 5221SOL    HW216563   5.020   1.151   0.352
 5222SOL     OW16564   6.554   5.027   2.284
 5222SOL    HW116565   6.462   5.005   2.251
 5222SOL    HW216566   6.603   5.081   2.215
 5223SOL     OW16567   3.739   6.501   1.591
 5223SOL    HW116568   3.742   6.600   1.609
 5223SOL    HW216569   3.712   6.486   1.496
 5224SOL     OW16570   5.233   0.235   3.171
 5224SOL    HW116571   5.330   0.214   3.155
 5224SOL    HW216572   5.177   0.187   3.104
 5225SOL     OW16573   0.133   0.077   5.762
 5225SOL    HW116574   0.081   0.160   5.741
 5225SOL    HW216575   0.190   0.052   5.684
 5226SOL     OW16576   2.677   0.589   3.298
 5226SOL    HW116577   2.584   0.587   3.263
 5226SOL    HW216578   2.689   0.668   3.357
 5227SOL     OW16579   5.433   4.028   4.327
 5227SOL    HW116580   5.386   3.962   4.385
 5227SOL    HW216581   5.500   3.980   4.270
 5228SOL     OW16582   5.130   0.006   2.274
 5228SOL    HW116583   5.108   0.101   2.300
 5228SOL    HW216584   5.053   6.968   2.298
 5229SOL     OW16585   0.641   3.828   4.240
 5229SOL    HW116586   0.734   3.863   4.248
 5229SOL    HW216587   0.615   3.781   4.324
 5230SOL     OW16588   0.856   1.736   6.454
 5230SOL    HW116589   0.835   1.811   6.517
 5230SOL    HW216590   0.948   1.747   6.417
 5231SOL     OW16591   3.115   3.802   3.143
 5231SOL    HW116592   3.138   3.898   3.161
 5231SOL    HW216593   3.115   3.785   3.045
 5232SOL     OW16594   5.550   2.732   4.914
 5232SOL    HW116595   5.558   2.695   4.821
 5232SOL    HW216596   5.489   2.675   4.968
 5233SOL     OW16597   0.690   6.645   2.533
 5233SOL    HW116598   0.750   6.717   2.567
 5233SOL    HW216599   0.703   6.562   2.587
 5234SOL     OW16600   3.457   4.029   1.792
 5234SOL    HW116601   3.509   3.944   1.801
 5234SOL    HW216602   3.505   4.103   1.837
 5235SOL     OW16603   0.817   1.854   1.803
 5235SOL    HW116604   0.807   1.767   1.850
 5235SOL    HW216605   0.852   1.923   1.867
 5236SOL     OW16606   6.767   3.033   1.263
 5236SOL    HW116607   6.761   2.956   1.328
 5236SOL    HW216608   6.677   3.075   1.253
 5237SOL     OW16609   1.970   2.381   2.735
 5237SOL    HW116610   2.000   2.410   2.644
 5237SOL    HW216611   1.951   2.461   2.791
 5238SOL     OW16612   1.694   3.492   1.634
 5238SOL    HW116613   1.669   3.426   1.704
 5238SOL    HW216614   1.724   3.444   1.551
 5239SOL     OW16615   3.313   3.229   5.007
 5239SOL    HW116616   3.385   3.212   5.074
 5239SOL    HW216617   3.228   3.187   5.038
 5240SOL     OW16618   4.294   2.372   3.928
 5240SOL    HW116619   4.198   2.400   3.925
 5240SOL    HW216620   4.352   2.453   3.913
 5241SOL     OW16621   4.470   6.259   5.295
 5241SOL    HW116622   4.543   6.326   5.308
 5241SOL    HW216623   4.387   6.306   5.264
 5242SOL     OW16624   2.673   0.847   6.449
 5242SOL    HW116625   2.645   0.814   6.539
 5242SOL    HW216626   2.656   0.776   6.380
 5243SOL     OW16627   2.083   3.508   6.935
 5243SOL    HW116628   2.141   3.427   6.924
 5243SOL    HW216629   2.068   3.551   6.846
 5244SOL     OW16630   6.263   3.025   6.775
 5244SOL    HW116631   6.278   3.060   6.682
 5244SOL    HW216632   6.222   3.096   6.831
 5245SOL     OW16633   3.901   4.734   6.105
 5245SOL    HW116634   3.847   4.707   6.025
 5245SOL    HW216635   3.944   4.823   6.088
 5246SOL     OW16636   1.424   3.853   3.552
 5246SOL    HW116637   1.326   3.872   3.561
 5246SOL    HW216638   1.435   3.763   3.509
 5247SOL     OW16639   0.806   4.055   6.606
 5247SOL    HW116640   0.837   4.143   6.642
 5247SOL    HW216641   0.784   3.994   6.682
 5248SOL     OW16642   4.921   2.131   0.273
 5248SOL    HW116643   4.898   2.097   0.182
 5248SOL    HW216644   4.887   2.067   0.342
 5249SOL     OW16645   0.969   5.165   6.605
 5249SOL    HW116646   1.045   5.202   6.659
 5249SOL    HW216647   0.939   5.233   6.538
 5250SOL     OW16648   2.007   1.396   5.272
 5250SOL    HW116649   1.961   1.420   5.187
 5250SOL    HW216650   2.067   1.317   5.257
 5251SOL     OW16651   0.956   2.457   2.352
 5251SOL    HW116652   0.956   2.523   2.427
 5251SOL    HW216653   0.921   2.370   2.384
 5252SOL     OW16654   5.784   5.466   1.502
 5252SOL    HW116655   5.843   5.495   1.578
 5252SOL    HW216656   5.757   5.371   1.515
 5253SOL     OW16657   5.823   3.007   4.819
 5253SOL    HW116658   5.861   3.099   4.830
 5253SOL    HW216659   5.727   3.014   4.792
 5254SOL     OW16660   5.343   0.375   5.102
 5254SOL    HW116661   5.261   0.395   5.157
 5254SOL    HW216662   5.362   0.277   5.106
 5255SOL     OW16663   2.024   5.275   2.221
 5255SOL    HW116664   2.018   5.355   2.161
 5255SOL    HW216665   2.059   5.197   2.169
 5256SOL     OW16666   4.677   6.079   1.884
 5256SOL    HW116667   4.717   5.992   1.913
 5256SOL    HW216668   4.591   6.093   1.934
 5257SOL     OW16669   2.259   1.203   2.000
 5257SOL    HW116670   2.220   1.219   1.909
 5257SOL    HW216671   2.253   1.287   2.054
 5258SOL     OW16672   5.084   2.248   1.514
 5258SOL    HW116673   5.079   2.334   1.565
 5258SOL    HW216674   5.152   2.188   1.556
 5259SOL     OW16675   5.604   5.129   0.948
 5259SOL    HW116676   5.567   5.089   0.864
 5259SOL    HW216677   5.657   5.210   0.925
 5260SOL     OW16678   5.348   3.149   1.976
 5260SOL    HW116679   5.428   3.147   1.917
 5260SOL    HW216680   5.352   3.073   2.041
 5261SOL     OW16681   2.292   2.867   4.808
 5261SOL    HW116682   2.331   2.905   4.892
 5261SOL    HW216683   2.281   2.768   4.818
 5262SOL     OW16684   0.937   0.619   2.198
 5262SOL    HW116685   0.974   0.656   2.112
 5262SOL    HW216686   0.838   0.629   2.197
 5263SOL     OW16687   1.372   6.532   6.281
 5263SOL    HW116688   1.284   6.489   6.298
 5263SOL    HW216689   1.429   6.470   6.225
 5264SOL     OW16690   1.248   1.053   0.691
 5264SOL    HW116691   1.204   0.973   0.732
 5264SOL    HW216692   1.181   1.104   0.637
 5265SOL     OW16693   4.752   5.269   4.006
 5265SOL    HW116694   4.783   5.347   4.060
 5265SOL    HW216695   4.749   5.187   4.063
 5266SOL     OW16696   0.498   6.683   0.950
 5266SOL    HW116697   0.491   6.771   0.904
 5266SOL    HW216698   0.483   6.696   1.048
 5267SOL     OW16699   3.469   3.628   4.536
 5267SOL    HW116700   3.557   3.584   4.553
 5267SOL    HW216701   3.479   3.727   4.546
 5268SOL     OW16702   5.883   4.410   6.758
 5268SOL    HW116703   5.839   4.386   6.845
 5268SOL    HW216704   5.815   4.406   6.685
 5269SOL     OW16705   2.540   5.315   5.409
 5269SOL    HW116706   2.454   5.274   5.440
 5269SOL    HW216707   2.613   5.247   5.414
 5270SOL     OW16708   0.084   1.120   3.157
 5270SOL    HW116709   0.173   1.081   3.178
 5270SOL    HW216710   0.048   1.168   3.237
 5271SOL     OW16711   6.204   3.662   4.853
 5271SOL    HW116712   6.125   3.612   4.887
 5271SOL    HW216713   6.236   3.620   4.768
 5272SOL     OW16714   2.381   2.510   3.683
 5272SOL    HW116715   2.404   2.531   3.588
 5272SOL    HW216716   2.282   2.493   3.690
 5273SOL     OW16717   0.261   1.515   5.426
 5273SOL    HW116718   0.250   1.432   5.481
 5273SOL    HW216719   0.261   1.491   5.328
 5274SOL     OW16720   0.441   4.878   4.754
 5274SOL    HW116721   0.404   4.786   4.742
 5274SOL    HW216722   0.366   4.943   4.766
 5275SOL     OW16723   2.314   6.450   6.605
 5275SOL    HW116724   2.309   6.466   6.506
 5275SOL    HW216725   2.237   6.394   6.634
 5276SOL     OW16726   6.858   1.427   6.764
 5276SOL    HW116727   6.911   1.492   6.711
 5276SOL    HW216728   6.839   1.346   6.709
 5277SOL     OW16729   0.993   0.532   1.422
 5277SOL    HW116730   1.050   0.533   1.340
 5277SOL    HW216731   1.003   0.444   1.469
 5278SOL     OW16732   0.311   4.801   6.984
 5278SOL    HW116733   0.263   4.814   6.897
 5278SOL    HW216734   0.366   4.881   7.005
 5279SOL     OW16735   2.745   6.775   0.200
 5279SOL    HW116736   2.734   6.868   0.233
 5279SOL    HW216737   2.685   6.760   0.121
 5280SOL     OW16738   4.091   6.281   6.104
 5280SOL    HW116739   4.074   6.195   6.054
 5280SOL    HW216740   4.063   6.358   6.047
 5281SOL     OW16741   1.947   6.294   4.535
 5281SOL    HW116742   2.031   6.335   4.498
 5281SOL    HW216743   1.960   6.195   4.542
 5282SOL     OW16744   6.523   6.191   1.133
 5282SOL    HW116745   6.463   6.271   1.136
 5282SOL    HW216746   6.477   6.114   1.177
 5283SOL     OW16747   1.825   0.189   4.309
 5283SOL    HW116748   1.740   0.240   4.298
 5283SOL    HW216749   1.896   0.251   4.344
 5284SOL     OW16750   4.893   3.578   2.095
 5284SOL    HW116751   4.848   3.504   2.045
 5284SOL    HW216752   4.971   3.611   2.043
 5285SOL     OW16753   2.423   1.683   4.119
 5285SOL    HW116754   2.489   1.690   4.193
 5285SOL    HW216755   2.461   1.723   4.036
 5286SOL     OW16756   0.000   3.037   1.976
 5286SOL    HW116757   6.974   2.964   1.927
 5286SOL    HW216758   6.955   3.099   2.017
 5287SOL     OW16759   0.318   5.720   1.856
 5287SOL    HW116760   0.220   5.712   1.874
 5287SOL    HW216761   0.351   5.810   1.885
 5288SOL     OW16762   4.255   0.805   2.135
 5288SOL    HW116763   4.196   0.730   2.163
 5288SOL    HW216764   4.350   0.773   2.129
 5289SOL     OW16765   1.692   5.527   6.830
 5289SOL    HW116766   1.746   5.452   6.793
 5289SOL    HW216767   1.618   5.491   6.887
 5290SOL     OW16768   2.136   2.153   5.431
 5290SOL    HW116769   2.171   2.092   5.503
 5290SOL    HW216770   2.085   2.228   5.473
 5291SOL     OW16771   2.762   6.488   4.682
 5291SOL    HW116772   2.821   6.556   4.725
 5291SOL    HW216773   2.679   6.477   4.736
 5292SOL     OW16774   0.939   3.930   4.158
 5292SOL    HW116775   0.901   4.020   4.138
 5292SOL    HW216776   1.036   3.929   4.134
 5293SOL     OW16777   2.512   0.383   3.634
 5293SOL    HW116778   2.459   0.448   3.689
 5293SOL    HW216779   2.451   0.311   3.599
 5294SOL     OW16780   5.105   0.357   4.359
 5294SOL    HW116781   5.152   0.271   4.377
 5294SOL    HW216782   5.059   0.352   4.270
 5295SOL     OW16783   2.185   0.393   0.813
 5295SOL    HW116784   2.126   0.382   0.732
 5295SOL    HW216785   2.277   0.359   0.792
 5296SOL     OW16786   4.986   4.986   1.874
 5296SOL    HW116787   4.886   4.993   1.871
 5296SOL    HW216788   5.020   4.960   1.784
 5297SOL     OW16789   4.168   5.205   5.793
 5297SOL    HW116790   4.203   5.117   5.762
 5297SOL    HW216791   4.068   5.204   5.789
 5298SOL     OW16792   3.252   1.008   6.709
 5298SOL    HW116793   3.331   0.966   6.663
 5298SOL    HW216794   3.177   0.942   6.713
 5299SOL     OW16795   1.396   0.459   1.127
 5299SOL    HW116796   1.469   0.524   1.148
 5299SOL    HW216797   1.435   0.378   1.083
 5300SOL     OW16798   2.973   4.581   6.285
 5300SOL    HW116799   3.059   4.623   6.314
 5300SOL    HW216800   2.920   4.645   6.230
 5301SOL     OW16801   5.837   0.613   5.574
 5301SOL    HW116802   5.864   0.523   5.540
 5301SOL    HW216803   5.905   0.646   5.639
 5302SOL     OW16804   4.877   5.855   3.298
 5302SOL    HW116805   4.956   5.816   3.250
 5302SOL    HW216806   4.827   5.916   3.236
 5303SOL     OW16807   1.753   6.177   5.414
 5303SOL    HW116808   1.675   6.237   5.433
 5303SOL    HW216809   1.800   6.208   5.331
 5304SOL     OW16810   0.234   0.017   2.861
 5304SOL    HW116811   0.319   0.003   2.808
 5304SOL    HW216812   0.156   0.015   2.798
 5305SOL     OW16813   6.145   5.358   4.926
 5305SOL    HW116814   6.237   5.390   4.949
 5305SOL    HW216815   6.078   5.426   4.956
 5306SOL     OW16816   1.206   1.739   6.971
 5306SOL    HW116817   1.274   1.813   6.974
 5306SOL    HW216818   1.122   1.773   6.928
 5307SOL     OW16819   1.263   1.438   1.873
 5307SOL    HW116820   1.319   1.362   1.905
 5307SOL    HW216821   1.184   1.449   1.934
 5308SOL     OW16822   1.899   4.561   3.590
 5308SOL    HW116823   1.869   4.469   3.616
 5308SOL    HW216824   1.990   4.578   3.627
 5309SOL     OW16825   6.099   6.043   2.714
 5309SOL    HW116826   6.024   6.012   2.657
 5309SOL    HW216827   6.178   6.066   2.657
 5310SOL     OW16828   6.104   1.910   3.970
 5310SOL    HW116829   6.091   1.940   3.876
 5310SOL    HW216830   6.035   1.841   3.993
 5311SOL     OW16831   6.083   0.301   0.000
 5311SOL    HW116832   6.045   0.293   0.092
 5311SOL    HW216833   6.126   0.391   7.012
 5312SOL     OW16834   5.138   6.320   0.994
 5312SOL    HW116835   5.193   6.381   0.937
 5312SOL    HW216836   5.123   6.363   1.084
 5313SOL     OW16837   0.879   6.690   5.765
 5313SOL    HW116838   0.954   6.695   5.699
 5313SOL    HW216839   0.826   6.607   5.749
 5314SOL     OW16840   5.679   1.740   2.619
 5314SOL    HW116841   5.771   1.774   2.604
 5314SOL    HW216842   5.614   1.816   2.619
 5315SOL     OW16843   4.174   1.406   3.472
 5315SOL    HW116844   4.138   1.395   3.565
 5315SOL    HW216845   4.189   1.315   3.432
 5316SOL     OW16846   0.039   2.761   5.573
 5316SOL    HW116847   0.114   2.703   5.542
 5316SOL    HW216848   6.983   2.754   5.510
 5317SOL     OW16849   5.474   2.956   2.145
 5317SOL    HW116850   5.410   2.956   2.222
 5317SOL    HW216851   5.522   2.868   2.141
 5318SOL     OW16852   0.009   4.564   6.400
 5318SOL    HW116853   0.085   4.616   6.361
 5318SOL    HW216854   6.963   4.546   6.328
 5319SOL     OW16855   4.230   5.682   2.257
 5319SOL    HW116856   4.259   5.751   2.191
 5319SOL    HW216857   4.134   5.660   2.243
 5320SOL     OW16858   4.485   5.968   0.561
 5320SOL    HW116859   4.435   6.005   0.484
 5320SOL    HW216860   4.509   5.873   0.544
 5321SOL     OW16861   1.347   4.085   5.333
 5321SOL    HW116862   1.436   4.065   5.293
 5321SOL    HW216863   1.314   4.174   5.298
 5322SOL     OW16864   4.296   5.697   1.779
 5322SOL    HW116865   4.297   5.600   1.801
 5322SOL    HW216866   4.328   5.711   1.686
 5323SOL     OW16867   4.517   0.020   6.294
 5323SOL    HW116868   4.477   6.951   6.282
 5323SOL    HW216869   4.470   0.067   6.369
 5324SOL     OW16870   0.932   1.158   1.844
 5324SOL    HW116871   1.002   1.108   1.792
 5324SOL    HW216872   0.974   1.238   1.887
 5325SOL     OW16873   1.920   3.010   4.013
 5325SOL    HW116874   1.870   3.032   3.930
 5325SOL    HW216875   1.858   2.969   4.080
 5326SOL     OW16876   6.070   0.365   0.811
 5326SOL    HW116877   6.093   0.394   0.904
 5326SOL    HW216878   6.119   0.280   0.790
 5327SOL     OW16879   0.425   2.061   6.447
 5327SOL    HW116880   0.332   2.081   6.476
 5327SOL    HW216881   0.444   2.106   6.359
 5328SOL     OW16882   4.041   5.057   0.612
 5328SOL    HW116883   4.063   4.997   0.534
 5328SOL    HW216884   3.943   5.056   0.628
 5329SOL     OW16885   2.252   5.840   6.431
 5329SOL    HW116886   2.298   5.927   6.450
 5329SOL    HW216887   2.277   5.773   6.501
 5330SOL     OW16888   2.526   5.249   0.499
 5330SOL    HW116889   2.524   5.235   0.598
 5330SOL    HW216890   2.588   5.182   0.457
 5331SOL     OW16891   6.057   1.689   6.830
 5331SOL    HW116892   5.999   1.608   6.835
 5331SOL    HW216893   6.153   1.662   6.823
 5332SOL     OW16894   0.771   5.090   2.714
 5332SOL    HW116895   0.854   5.034   2.707
 5332SOL    HW216896   0.691   5.031   2.720
 5333SOL     OW16897   0.802   6.238   4.431
 5333SOL    HW116898   0.803   6.333   4.460
 5333SOL    HW216899   0.811   6.178   4.511
 5334SOL     OW16900   2.932   6.994   5.356
 5334SOL    HW116901   2.886   6.985   5.268
 5334SOL    HW216902   2.896   6.926   5.420
 5335SOL     OW16903   5.876   6.624   0.698
 5335SOL    HW116904   5.860   6.528   0.723
 5335SOL    HW216905   5.809   6.652   0.630
 5336SOL     OW16906   1.046   3.750   1.720
 5336SOL    HW116907   0.956   3.716   1.747
 5336SOL    HW216908   1.108   3.673   1.705
 5337SOL     OW16909   5.260   4.865   1.464
 5337SOL    HW116910   5.331   4.916   1.416
 5337SOL    HW216911   5.195   4.828   1.398
 5338SOL     OW16912   5.457   2.828   0.534
 5338SOL    HW116913   5.383   2.821   0.600
 5338SOL    HW216914   5.447   2.757   0.464
 5339SOL     OW16915   6.185   0.836   2.242
 5339SOL    HW116916   6.184   0.854   2.341
 5339SOL    HW216917   6.226   0.746   2.225
 5340SOL     OW16918   5.583   2.243   0.293
 5340SOL    HW116919   5.634   2.322   0.327
 5340SOL    HW216920   5.604   2.230   0.196
 5341SOL     OW16921   4.484   0.444   1.439
 5341SOL    HW116922   4.578   0.435   1.404
 5341SOL    HW216923   4.444   0.529   1.403
 5342SOL     OW16924   1.862   0.318   5.450
 5342SOL    HW116925   1.828   0.294   5.359
 5342SOL    HW216926   1.961   0.306   5.453
 5343SOL     OW16927   3.205   3.908   1.381
 5343SOL    HW116928   3.176   3.983   1.440
 5343SOL    HW216929   3.126   3.871   1.332
 5344SOL     OW16930   1.704   3.042   3.009
 5344SOL    HW116931   1.751   2.965   3.051
 5344SOL    HW216932   1.765   3.088   2.945
 5345SOL     OW16933   5.024   0.381   2.908
 5345SOL    HW116934   5.050   0.379   3.004
 5345SOL    HW216935   4.927   0.405   2.901
 5346SOL     OW16936   3.607   0.898   4.087
 5346SOL    HW116937   3.635   0.819   4.143
 5346SOL    HW216938   3.685   0.930   4.034
 5347SOL     OW16939   6.779   1.590   2.034
 5347SOL    HW116940   6.758   1.685   2.056
 5347SOL    HW216941   6.870   1.567   2.070
 5348SOL     OW16942   6.416   1.783   0.372
 5348SOL    HW116943   6.513   1.802   0.356
 5348SOL    HW216944   6.361   1.855   0.331
 5349SOL     OW16945   5.090   0.939   0.324
 5349SOL    HW116946   5.047   0.877   0.259
 5349SOL    HW216947   5.177   0.971   0.287
 5350SOL     OW16948   2.681   0.682   6.952
 5350SOL    HW116949   2.632   0.724   0.006
 5350SOL    HW216950   2.689   0.747   6.876
 5351SOL     OW16951   4.622   1.475   2.050
 5351SOL    HW116952   4.583   1.400   2.105
 5351SOL    HW216953   4.606   1.456   1.953
 5352SOL     OW16954   4.003   0.596   4.125
 5352SOL    HW116955   4.101   0.609   4.138
 5352SOL    HW216956   3.962   0.564   4.211
 5353SOL     OW16957   6.611   0.567   6.233
 5353SOL    HW116958   6.531   0.514   6.259
 5353SOL    HW216959   6.635   0.630   6.307
 5354SOL     OW16960   0.663   2.384   1.102
 5354SOL    HW116961   0.694   2.333   1.022
 5354SOL    HW216962   0.722   2.364   1.180
 5355SOL     OW16963   4.601   1.091   5.360
 5355SOL    HW116964   4.629   1.007   5.315
 5355SOL    HW216965   4.510   1.117   5.329
 5356SOL     OW16966   6.237   3.672   1.906
 5356SOL    HW116967   6.137   3.663   1.902
 5356SOL    HW216968   6.270   3.633   1.992
 5357SOL     OW16969   4.418   5.595   0.087
 5357SOL    HW116970   4.419   5.693   0.071
 5357SOL    HW216971   4.356   5.551   0.021
 5358SOL     OW16972   5.379   4.262   1.469
 5358SOL    HW116973   5.362   4.186   1.406
 5358SOL    HW216974   5.477   4.280   1.474
 5359SOL     OW16975   2.580   0.641   5.429
 5359SOL    HW116976   2.527   0.597   5.356
 5359SOL    HW216977   2.549   0.608   5.518
 5360SOL     OW16978   4.434   2.404   0.366
 5360SOL    HW116979   4.354   2.463   0.355
 5360SOL    HW216980   4.435   2.366   0.458
 5361SOL     OW16981   0.631   1.481   6.875
 5361SOL    HW116982   0.631   1.483   6.775
 5361SOL    HW216983   0.580   1.401   6.907
 5362SOL     OW16984   4.558   6.215   4.041
 5362SOL    HW116985   4.498   6.242   3.966
 5362SOL    HW216986   4.568   6.116   4.042
 5363SOL     OW16987   0.570   5.822   4.593
 5363SOL    HW116988   0.615   5.771   4.667
 5363SOL    HW216989   0.471   5.824   4.611
 5364SOL     OW16990   1.236   5.595   6.704
 5364SOL    HW116991   1.169   5.544   6.758
 5364SOL    HW216992   1.243   5.554   6.613
 5365SOL     OW16993   4.306   2.427   6.356
 5365SOL    HW116994   4.249   2.360   6.405
 5365SOL    HW216995   4.298   2.412   6.258
 5366SOL     OW16996   4.217   3.748   5.584
 5366SOL    HW116997   4.295   3.804   5.557
 5366SOL    HW216998   4.133   3.803   5.579
 5367SOL     OW16999   0.342   3.686   1.279
 5367SOL    HW117000   0.314   3.642   1.194
 5367SOL    HW217001   0.436   3.659   1.301
 5368SOL     OW17002   0.495   0.062   3.362
 5368SOL    HW117003   0.403   0.095   3.383
 5368SOL    HW217004   0.503   6.988   3.392
 5369SOL     OW17005   1.814   3.625   2.559
 5369SOL    HW117006   1.729   3.578   2.537
 5369SOL    HW217007   1.871   3.631   2.477
 5370SOL     OW17008   3.697   2.809   1.864
 5370SOL    HW117009   3.609   2.782   1.905
 5370SOL    HW217010   3.763   2.827   1.937
 5371SOL     OW17011   2.118   4.168   4.883
 5371SOL    HW117012   2.049   4.218   4.935
 5371SOL    HW217013   2.196   4.147   4.943
 5372SOL     OW17014   3.881   6.210   2.362
 5372SOL    HW117015   3.937   6.274   2.310
 5372SOL    HW217016   3.785   6.221   2.336
 5373SOL     OW17017   3.181   4.919   3.856
 5373SOL    HW117018   3.247   4.990   3.882
 5373SOL    HW217019   3.211   4.875   3.772
 5374SOL     OW17020   3.025   2.594   0.844
 5374SOL    HW117021   3.011   2.503   0.885
 5374SOL    HW217022   2.945   2.651   0.862
 5375SOL     OW17023   1.712   4.373   4.248
 5375SOL    HW117024   1.769   4.320   4.311
 5375SOL    HW217025   1.748   4.466   4.242
 5376SOL     OW17026   3.137   4.912   5.951
 5376SOL    HW117027   3.191   4.830   5.967
 5376SOL    HW217028   3.187   4.992   5.985
 5377SOL     OW17029   1.808   1.897   1.880
 5377SOL    HW117030   1.829   1.973   1.819
 5377SOL    HW217031   1.714   1.906   1.914
 5378SOL     OW17032   5.456   6.756   6.951
 5378SOL    HW117033   5.507   6.712   6.877
 5378SOL    HW217034   5.514   6.758   0.011
 5379SOL     OW17035   0.072   0.393   6.884
 5379SOL    HW117036   6.998   0.365   6.890
 5379SOL    HW217037   0.126   0.321   6.840
 5380SOL     OW17038   2.218   1.672   4.829
 5380SOL    HW117039   2.199   1.769   4.847
 5380SOL    HW217040   2.184   1.648   4.738
 5381SOL     OW17041   5.966   3.635   2.275
 5381SOL    HW117042   5.888   3.681   2.318
 5381SOL    HW217043   6.043   3.699   2.271
 5382SOL     OW17044   1.658   6.692   1.125
 5382SOL    HW117045   1.578   6.656   1.174
 5382SOL    HW217046   1.721   6.616   1.105
 5383SOL     OW17047   2.476   1.993   4.954
 5383SOL    HW117048   2.389   1.965   4.913
 5383SOL    HW217049   2.489   2.092   4.942
 5384SOL     OW17050   4.817   6.215   4.952
 5384SOL    HW117051   4.843   6.310   4.935
 5384SOL    HW217052   4.839   6.159   4.873
 5385SOL     OW17053   3.558   4.016   2.203
 5385SOL    HW117054   3.542   4.036   2.300
 5385SOL    HW217055   3.508   3.933   2.178
 5386SOL     OW17056   6.051   6.198   5.579
 5386SOL    HW117057   6.053   6.197   5.679
 5386SOL    HW217058   5.965   6.238   5.548
 5387SOL     OW17059   3.973   5.155   0.232
 5387SOL    HW117060   4.071   5.136   0.236
 5387SOL    HW217061   3.958   5.252   0.216
 5388SOL     OW17062   6.115   5.942   3.164
 5388SOL    HW117063   6.123   6.019   3.226
 5388SOL    HW217064   6.158   5.964   3.077
 5389SOL     OW17065   5.612   3.208   1.623
 5389SOL    HW117066   5.548   3.192   1.549
 5389SOL    HW217067   5.703   3.174   1.597
 5390SOL     OW17068   6.883   4.510   6.876
 5390SOL    HW117069   6.787   4.534   6.860
 5390SOL    HW217070   6.895   4.412   6.864
 5391SOL     OW17071   3.226   4.873   0.082
 5391SOL    HW117072   3.227   4.774   0.097
 5391SOL    HW217073   3.284   4.917   0.150
 5392SOL     OW17074   0.734   2.573   3.142
 5392SOL    HW117075   0.728   2.524   3.229
 5392SOL    HW217076   0.814   2.541   3.092
 5393SOL     OW17077   6.632   0.766   6.435
 5393SOL    HW117078   6.557   0.829   6.417
 5393SOL    HW217079   6.650   0.764   6.534
 5394SOL     OW17080   1.967   3.866   6.659
 5394SOL    HW117081   1.911   3.946   6.681
 5394SOL    HW217082   2.057   3.876   6.700
 5395SOL     OW17083   5.038   0.870   1.633
 5395SOL    HW117084   5.007   0.902   1.543
 5395SOL    HW217085   5.092   0.941   1.677
 5396SOL     OW17086   4.537   2.644   0.995
 5396SOL    HW117087   4.595   2.585   1.052
 5396SOL    HW217088   4.474   2.695   1.054
 5397SOL     OW17089   1.520   2.360   2.399
 5397SOL    HW117090   1.596   2.368   2.334
 5397SOL    HW217091   1.552   2.384   2.490
 5398SOL     OW17092   3.138   3.612   2.439
 5398SOL    HW117093   3.101   3.556   2.514
 5398SOL    HW217094   3.222   3.656   2.469
 5399SOL     OW17095   0.620   4.653   0.290
 5399SOL    HW117096   0.525   4.667   0.262
 5399SOL    HW217097   0.622   4.611   0.381
 5400SOL     OW17098   2.370   3.674   0.117
 5400SOL    HW117099   2.310   3.662   0.196
 5400SOL    HW217100   2.402   3.768   0.114
 5401SOL     OW17101   5.935   2.220   1.032
 5401SOL    HW117102   5.979   2.200   1.119
 5401SOL    HW217103   5.856   2.160   1.019
 5402SOL     OW17104   1.029   5.932   2.134
 5402SOL    HW117105   1.059   6.015   2.182
 5402SOL    HW217106   1.013   5.859   2.201
 5403SOL     OW17107   0.978   2.340   6.371
 5403SOL    HW117108   0.927   2.418   6.409
 5403SOL    HW217109   0.913   2.269   6.344
 5404SOL     OW17110   0.192   2.534   2.872
 5404SOL    HW117111   0.199   2.487   2.784
 5404SOL    HW217112   0.211   2.632   2.858
 5405SOL     OW17113   6.504   3.921   4.853
 5405SOL    HW117114   6.540   4.013   4.870
 5405SOL    HW217115   6.491   3.874   4.940
 5406SOL     OW17116   1.949   6.673   2.512
 5406SOL    HW117117   1.892   6.664   2.594
 5406SOL    HW217118   1.958   6.584   2.467
 5407SOL     OW17119   4.205   2.547   6.872
 5407SOL    HW117120   4.140   2.593   6.811
 5407SOL    HW217121   4.156   2.482   6.930
 5408SOL     OW17122   4.375   1.074   6.995
 5408SOL    HW117123   4.426   1.130   0.038
 5408SOL    HW217124   4.293   1.124   6.965
 5409SOL     OW17125   4.870   0.838   1.847
 5409SOL    HW117126   4.917   0.806   1.765
 5409SOL    HW217127   4.896   0.933   1.865
 5410SOL     OW17128   1.955   2.879   2.226
 5410SOL    HW117129   1.897   2.921   2.295
 5410SOL    HW217130   2.005   2.951   2.177
 5411SOL     OW17131   2.938   5.072   5.281
 5411SOL    HW117132   2.958   4.975   5.290
 5411SOL    HW217133   2.889   5.088   5.195
 5412SOL     OW17134   0.144   1.635   2.441
 5412SOL    HW117135   0.201   1.698   2.494
 5412SOL    HW217136   0.096   1.687   2.370
 5413SOL     OW17137   1.282   6.793   2.483
 5413SOL    HW117138   1.275   6.892   2.469
 5413SOL    HW217139   1.370   6.772   2.525
 5414SOL     OW17140   4.782   6.767   6.508
 5414SOL    HW117141   4.703   6.726   6.554
 5414SOL    HW217142   4.760   6.861   6.481
 5415SOL     OW17143   5.960   3.790   3.299
 5415SOL    HW117144   5.891   3.846   3.344
 5415SOL    HW217145   5.974   3.706   3.350
 5416SOL     OW17146   4.374   5.178   4.604
 5416SOL    HW117147   4.311   5.171   4.526
 5416SOL    HW217148   4.321   5.193   4.688
 5417SOL     OW17149   2.368   0.169   5.711
 5417SOL    HW117150   2.414   0.092   5.667
 5417SOL    HW217151   2.290   0.136   5.764
 5418SOL     OW17152   3.421   1.497   3.551
 5418SOL    HW117153   3.519   1.505   3.536
 5418SOL    HW217154   3.404   1.443   3.633
 5419SOL     OW17155   2.730   3.923   0.100
 5419SOL    HW117156   2.774   3.876   0.177
 5419SOL    HW217157   2.732   4.021   0.116
 5420SOL     OW17158   1.351   2.582   2.369
 5420SOL    HW117159   1.421   2.642   2.408
 5420SOL    HW217160   1.381   2.487   2.376
 5421SOL     OW17161   2.596   3.150   0.613
 5421SOL    HW117162   2.530   3.220   0.586
 5421SOL    HW217163   2.633   3.105   0.532
 5422SOL     OW17164   0.564   3.299   0.250
 5422SOL    HW117165   0.494   3.338   0.311
 5422SOL    HW217166   0.548   3.201   0.240
 5423SOL     OW17167   4.086   3.537   5.461
 5423SOL    HW117168   4.145   3.600   5.512
 5423SOL    HW217169   4.122   3.527   5.368
 5424SOL     OW17170   5.657   3.075   5.432
 5424SOL    HW117171   5.589   3.017   5.387
 5424SOL    HW217172   5.714   3.119   5.363
 5425SOL     OW17173   5.223   1.431   4.821
 5425SOL    HW117174   5.126   1.409   4.809
 5425SOL    HW217175   5.233   1.517   4.870
 5426SOL     OW17176   0.100   0.419   4.242
 5426SOL    HW117177   0.180   0.425   4.181
 5426SOL    HW217178   0.090   0.326   4.275
 5427SOL     OW17179   4.270   6.667   0.599
 5427SOL    HW117180   4.186   6.667   0.654
 5427SOL    HW217181   4.250   6.635   0.507
 5428SOL     OW17182   1.599   0.102   0.483
 5428SOL    HW117183   1.659   0.039   0.533
 5428SOL    HW217184   1.583   0.066   0.391
 5429SOL     OW17185   1.354   2.579   6.073
 5429SOL    HW117186   1.302   2.599   6.156
 5429SOL    HW217187   1.426   2.513   6.093
 5430SOL     OW17188   2.660   2.282   5.682
 5430SOL    HW117189   2.567   2.255   5.659
 5430SOL    HW217190   2.720   2.266   5.604
 5431SOL     OW17191   3.383   5.142   4.018
 5431SOL    HW117192   3.448   5.210   3.982
 5431SOL    HW217193   3.418   5.105   4.104
 5432SOL     OW17194   6.193   4.258   1.020
 5432SOL    HW117195   6.127   4.285   1.091
 5432SOL    HW217196   6.284   4.289   1.046
 5433SOL     OW17197   2.102   1.919   3.412
 5433SOL    HW117198   2.195   1.894   3.440
 5433SOL    HW217199   2.041   1.840   3.424
 5434SOL     OW17200   2.271   6.291   4.761
 5434SOL    HW117201   2.214   6.373   4.760
 5434SOL    HW217202   2.304   6.275   4.854
 5435SOL     OW17203   4.630   2.016   1.652
 5435SOL    HW117204   4.604   1.983   1.743
 5435SOL    HW217205   4.557   1.995   1.587
 5436SOL     OW17206   5.013   4.393   3.228
 5436SOL    HW117207   5.027   4.314   3.287
 5436SOL    HW217208   4.944   4.453   3.268
 5437SOL     OW17209   3.238   5.392   5.604
 5437SOL    HW117210   3.277   5.301   5.592
 5437SOL    HW217211   3.139   5.385   5.617
 5438SOL     OW17212   6.686   1.263   0.026
 5438SOL    HW117213   6.744   1.344   0.033
 5438SOL    HW217214   6.639   1.248   0.112
 5439SOL     OW17215   1.248   1.964   0.842
 5439SOL    HW117216   1.248   2.053   0.887
 5439SOL    HW217217   1.295   1.971   0.754
 5440SOL     OW17218   1.738   0.517   0.990
 5440SOL    HW117219   1.781   0.597   0.948
 5440SOL    HW217220   1.726   0.446   0.921
 5441SOL     OW17221   3.748   2.085   5.469
 5441SOL    HW117222   3.823   2.053   5.527
 5441SOL    HW217223   3.668   2.104   5.526
 5442SOL     OW17224   3.880   1.141   1.885
 5442SOL    HW117225   3.951   1.152   1.955
 5442SOL    HW217226   3.895   1.208   1.812
 5443SOL     OW17227   0.893   5.770   5.523
 5443SOL    HW117228   0.925   5.675   5.533
 5443SOL    HW217229   0.965   5.825   5.482
 5444SOL     OW17230   0.178   0.655   3.400
 5444SOL    HW117231   0.231   0.619   3.323
 5444SOL    HW217232   0.220   0.739   3.434
 5445SOL     OW17233   5.381   3.441   1.942
 5445SOL    HW117234   5.303   3.503   1.932
 5445SOL    HW217235   5.347   3.350   1.968
 5446SOL     OW17236   6.442   6.888   5.796
 5446SOL    HW117237   6.412   6.797   5.824
 5446SOL    HW217238   6.416   6.904   5.701
 5447SOL     OW17239   3.485   2.750   1.401
 5447SOL    HW117240   3.402   2.715   1.445
 5447SOL    HW217241   3.511   2.837   1.442
 5448SOL     OW17242   4.860   1.387   6.568
 5448SOL    HW117243   4.956   1.387   6.539
 5448SOL    HW217244   4.818   1.475   6.546
 5449SOL     OW17245   7.010   3.001   6.719
 5449SOL    HW117246   0.025   2.910   6.699
 5449SOL    HW217247   0.062   3.059   6.753
 5450SOL     OW17248   2.050   5.664   0.831
 5450SOL    HW117249   2.107   5.654   0.912
 5450SOL    HW217250   2.012   5.757   0.827
 5451SOL     OW17251   2.569   6.922   2.339
 5451SOL    HW117252   2.501   6.922   2.265
 5451SOL    HW217253   2.633   6.847   2.324
 5452SOL     OW17254   2.696   3.944   6.303
 5452SOL    HW117255   2.766   4.003   6.262
 5452SOL    HW217256   2.729   3.911   6.391
 5453SOL     OW17257   0.221   5.591   5.549
 5453SOL    HW117258   0.179   5.670   5.504
 5453SOL    HW217259   0.175   5.573   5.636
 5454SOL     OW17260   1.296   3.960   5.701
 5454SOL    HW117261   1.336   3.899   5.632
 5454SOL    HW217262   1.331   3.936   5.791
 5455SOL     OW17263   6.008   1.766   1.286
 5455SOL    HW117264   6.090   1.715   1.257
 5455SOL    HW217265   6.023   1.804   1.377
 5456SOL     OW17266   4.126   0.492   1.545
 5456SOL    HW117267   4.062   0.425   1.582
 5456SOL    HW217268   4.090   0.584   1.558
 5457SOL     OW17269   6.171   3.108   1.756
 5457SOL    HW117270   6.200   3.043   1.685
 5457SOL    HW217271   6.208   3.079   1.844
 5458SOL     OW17272   1.604   4.275   5.312
 5458SOL    HW117273   1.656   4.359   5.324
 5458SOL    HW217274   1.529   4.272   5.379
 5459SOL     OW17275   1.885   5.025   5.801
 5459SOL    HW117276   1.805   4.994   5.749
 5459SOL    HW217277   1.889   5.125   5.800
 5460SOL     OW17278   4.529   0.685   4.707
 5460SOL    HW117279   4.600   0.626   4.747
 5460SOL    HW217280   4.442   0.636   4.706
 5461SOL     OW17281   3.780   6.494   4.720
 5461SOL    HW117282   3.732   6.446   4.794
 5461SOL    HW217283   3.872   6.520   4.752
 5462SOL     OW17284   0.081   1.181   2.038
 5462SOL    HW117285   0.177   1.208   2.032
 5462SOL    HW217286   0.034   1.239   2.105
 5463SOL     OW17287   6.420   2.971   1.640
 5463SOL    HW117288   6.461   3.062   1.631
 5463SOL    HW217289   6.406   2.931   1.549
 5464SOL     OW17290   1.486   6.872   4.479
 5464SOL    HW117291   1.406   6.884   4.421
 5464SOL    HW217292   1.568   6.900   4.430
 5465SOL     OW17293   2.488   5.888   6.031
 5465SOL    HW117294   2.565   5.871   6.092
 5465SOL    HW217295   2.427   5.808   6.032
 5466SOL     OW17296   4.577   6.501   3.814
 5466SOL    HW117297   4.515   6.455   3.877
 5466SOL    HW217298   4.641   6.558   3.867
 5467SOL     OW17299   6.221   1.691   1.791
 5467SOL    HW117300   6.222   1.717   1.695
 5467SOL    HW217301   6.135   1.721   1.833
 5468SOL     OW17302   4.371   1.561   6.379
 5468SOL    HW117303   4.378   1.627   6.305
 5468SOL    HW217304   4.285   1.575   6.428
 5469SOL     OW17305   4.900   4.557   1.330
 5469SOL    HW117306   4.931   4.497   1.404
 5469SOL    HW217307   4.979   4.601   1.288
 5470SOL     OW17308   0.421   4.642   3.069
 5470SOL    HW117309   0.373   4.637   3.156
 5470SOL    HW217310   0.392   4.567   3.010
 5471SOL     OW17311   6.344   3.345   2.824
 5471SOL    HW117312   6.248   3.325   2.804
 5471SOL    HW217313   6.361   3.442   2.811
 5472SOL     OW17314   3.386   5.250   5.003
 5472SOL    HW117315   3.326   5.177   5.037
 5472SOL    HW217316   3.479   5.235   5.036
 5473SOL     OW17317   2.525   4.837   3.653
 5473SOL    HW117318   2.571   4.764   3.704
 5473SOL    HW217319   2.557   4.926   3.686
 5474SOL     OW17320   1.446   6.208   3.323
 5474SOL    HW117321   1.508   6.252   3.389
 5474SOL    HW217322   1.356   6.252   3.327
 5475SOL     OW17323   2.962   1.771   2.302
 5475SOL    HW117324   2.925   1.855   2.342
 5475SOL    HW217325   3.059   1.784   2.280
 5476SOL     OW17326   2.088   3.212   6.679
 5476SOL    HW117327   2.046   3.236   6.591
 5476SOL    HW217328   2.157   3.141   6.665
 5477SOL     OW17329   2.104   2.477   2.528
 5477SOL    HW117330   2.195   2.513   2.547
 5477SOL    HW217331   2.110   2.404   2.461
 5478SOL     OW17332   0.321   5.153   4.991
 5478SOL    HW117333   0.290   5.060   5.012
 5478SOL    HW217334   0.307   5.211   5.071
 5479SOL     OW17335   4.078   6.894   4.759
 5479SOL    HW117336   4.116   6.930   4.673
 5479SOL    HW217337   4.104   6.954   4.834
 5480SOL     OW17338   0.472   1.960   5.863
 5480SOL    HW117339   0.433   2.052   5.858
 5480SOL    HW217340   0.555   1.955   5.808
 5481SOL     OW17341   4.673   6.819   2.725
 5481SOL    HW117342   4.618   6.871   2.660
 5481SOL    HW217343   4.737   6.880   2.771
 5482SOL     OW17344   1.293   6.227   2.013
 5482SOL    HW117345   1.252   6.279   2.088
 5482SOL    HW217346   1.384   6.263   1.993
 5483SOL     OW17347   1.135   2.890   6.198
 5483SOL    HW117348   1.143   2.801   6.243
 5483SOL    HW217349   1.038   2.908   6.177
 5484SOL     OW17350   4.634   5.898   5.386
 5484SOL    HW117351   4.675   5.984   5.416
 5484SOL    HW217352   4.703   5.826   5.384
 5485SOL     OW17353   4.258   0.414   4.496
 5485SOL    HW117354   4.178   0.398   4.438
 5485SOL    HW217355   4.319   0.335   4.491
 5486SOL     OW17356   2.698   5.544   3.687
 5486SOL    HW117357   2.746   5.460   3.711
 5486SOL    HW217358   2.764   5.614   3.661
 5487SOL     OW17359   4.047   6.179   5.308
 5487SOL    HW117360   3.965   6.179   5.366
 5487SOL    HW217361   4.043   6.258   5.246
 5488SOL     OW17362   4.572   2.051   6.150
 5488SOL    HW117363   4.664   2.012   6.157
 5488SOL    HW217364   4.515   1.991   6.094
 5489SOL     OW17365   0.117   2.669   3.866
 5489SOL    HW117366   0.063   2.585   3.878
 5489SOL    HW217367   0.055   2.746   3.851
 5490SOL     OW17368   0.928   4.971   1.430
 5490SOL    HW117369   0.888   4.879   1.435
 5490SOL    HW217370   0.967   4.995   1.519
 5491SOL     OW17371   0.511   3.687   0.920
 5491SOL    HW117372   0.456   3.723   0.995
 5491SOL    HW217373   0.581   3.754   0.895
 5492SOL     OW17374   1.206   1.692   0.206
 5492SOL    HW117375   1.231   1.696   0.109
 5492SOL    HW217376   1.260   1.758   0.257
 5493SOL     OW17377   4.511   3.756   5.360
 5493SOL    HW117378   4.594   3.791   5.403
 5493SOL    HW217379   4.535   3.690   5.289
 5494SOL     OW17380   6.146   1.926   5.040
 5494SOL    HW117381   6.172   1.854   5.104
 5494SOL    HW217382   6.062   1.901   4.993
 5495SOL     OW17383   5.505   1.724   0.577
 5495SOL    HW117384   5.518   1.806   0.521
 5495SOL    HW217385   5.574   1.656   0.553
 5496SOL     OW17386   4.388   6.770   6.193
 5496SOL    HW117387   4.361   6.764   6.097
 5496SOL    HW217388   4.312   6.741   6.251
 5497SOL     OW17389   0.969   0.926   5.428
 5497SOL    HW117390   0.903   0.892   5.495
 5497SOL    HW217391   1.018   1.004   5.467
 5498SOL     OW17392   0.060   5.694   1.903
 5498SOL    HW117393   7.019   5.643   1.962
 5498SOL    HW217394   0.007   5.754   1.843
 5499SOL     OW17395   2.082   6.886   3.302
 5499SOL    HW117396   2.150   6.917   3.368
 5499SOL    HW217397   2.060   6.961   3.239
 5500SOL     OW17398   0.620   6.459   1.644
 5500SOL    HW117399   0.650   6.417   1.730
 5500SOL    HW217400   0.688   6.525   1.614
 5501SOL     OW17401   4.859   3.389   1.209
 5501SOL    HW117402   4.805   3.340   1.276
 5501SOL    HW217403   4.948   3.413   1.248
 5502SOL     OW17404   4.304   3.511   0.452
 5502SOL    HW117405   4.334   3.417   0.470
 5502SOL    HW217406   4.255   3.547   0.531
 5503SOL     OW17407   6.082   2.703   1.717
 5503SOL    HW117408   5.995   2.737   1.753
 5503SOL    HW217409   6.099   2.611   1.752
 5504SOL     OW17410   3.676   2.478   0.201
 5504SOL    HW117411   3.725   2.555   0.242
 5504SOL    HW217412   3.603   2.448   0.262
 5505SOL     OW17413   2.848   5.657   2.977
 5505SOL    HW117414   2.877   5.574   2.931
 5505SOL    HW217415   2.756   5.644   3.014
 5506SOL     OW17416   6.830   3.075   6.908
 5506SOL    HW117417   6.733   3.076   6.886
 5506SOL    HW217418   6.883   3.100   6.827
 5507SOL     OW17419   3.973   6.281   6.803
 5507SOL    HW117420   4.014   6.322   6.721
 5507SOL    HW217421   3.965   6.351   6.874
 5508SOL     OW17422   6.598   2.976   5.742
 5508SOL    HW117423   6.514   3.011   5.783
 5508SOL    HW217424   6.665   2.959   5.814
 5509SOL     OW17425   6.154   4.272   0.732
 5509SOL    HW117426   6.117   4.358   0.698
 5509SOL    HW217427   6.193   4.286   0.823
 5510SOL     OW17428   5.045   6.320   6.820
 5510SOL    HW117429   4.964   6.376   6.801
 5510SOL    HW217430   5.061   6.318   6.918
 5511SOL     OW17431   0.654   2.871   5.743
 5511SOL    HW117432   0.584   2.929   5.783
 5511SOL    HW217433   0.687   2.913   5.658
 5512SOL     OW17434   2.799   6.888   2.119
 5512SOL    HW117435   2.719   6.893   2.060
 5512SOL    HW217436   2.806   6.971   2.174
 5513SOL     OW17437   3.625   5.019   6.177
 5513SOL    HW117438   3.582   4.982   6.095
 5513SOL    HW217439   3.576   5.101   6.207
 5514SOL     OW17440   4.086   1.233   0.208
 5514SOL    HW117441   4.045   1.207   0.121
 5514SOL    HW217442   4.014   1.252   0.274
 5515SOL     OW17443   3.696   4.844   2.579
 5515SOL    HW117444   3.773   4.787   2.606
 5515SOL    HW217445   3.694   4.852   2.479
 5516SOL     OW17446   1.503   2.253   5.655
 5516SOL    HW117447   1.410   2.285   5.669
 5516SOL    HW217448   1.549   2.314   5.590
 5517SOL     OW17449   1.193   2.172   4.472
 5517SOL    HW117450   1.180   2.136   4.380
 5517SOL    HW217451   1.291   2.176   4.492
 5518SOL     OW17452   4.009   3.952   5.539
 5518SOL    HW117453   4.077   4.024   5.552
 5518SOL    HW217454   3.957   3.969   5.455
 5519SOL     OW17455   5.179   2.449   5.611
 5519SOL    HW117456   5.083   2.471   5.625
 5519SOL    HW217457   5.198   2.442   5.514
 5520SOL     OW17458   5.286   5.761   1.427
 5520SOL    HW117459   5.349   5.683   1.427
 5520SOL    HW217460   5.234   5.762   1.342
 5521SOL     OW17461   4.819   6.814   1.570
 5521SOL    HW117462   4.800   6.717   1.586
 5521SOL    HW217463   4.913   6.825   1.538
 5522SOL     OW17464   5.238   6.301   6.621
 5522SOL    HW117465   5.217   6.349   6.536
 5522SOL    HW217466   5.161   6.309   6.684
 5523SOL     OW17467   5.844   1.511   0.577
 5523SOL    HW117468   5.859   1.495   0.479
 5523SOL    HW217469   5.875   1.602   0.601
 5524SOL     OW17470   2.648   1.875   2.665
 5524SOL    HW117471   2.689   1.932   2.736
 5524SOL    HW217472   2.719   1.844   2.601
 5525SOL     OW17473   6.455   1.228   0.721
 5525SOL    HW117474   6.399   1.166   0.775
 5525SOL    HW217475   6.408   1.315   0.709
 5526SOL     OW17476   4.950   4.453   4.114
 5526SOL    HW117477   5.046   4.430   4.101
 5526SOL    HW217478   4.898   4.369   4.129
 5527SOL     OW17479   6.606   6.883   2.267
 5527SOL    HW117480   6.627   6.854   2.361
 5527SOL    HW217481   6.639   6.977   2.254
 5528SOL     OW17482   2.343   1.734   6.804
 5528SOL    HW117483   2.431   1.782   6.798
 5528SOL    HW217484   2.340   1.681   6.889
 5529SOL     OW17485   3.251   1.083   1.824
 5529SOL    HW117486   3.297   1.078   1.913
 5529SOL    HW217487   3.164   1.034   1.829
 5530SOL     OW17488   1.018   1.514   1.160
 5530SOL    HW117489   1.014   1.443   1.089
 5530SOL    HW217490   1.041   1.602   1.119
 5531SOL     OW17491   1.051   4.553   6.195
 5531SOL    HW117492   1.146   4.524   6.206
 5531SOL    HW217493   1.027   4.616   6.268
 5532SOL     OW17494   6.884   5.342   5.655
 5532SOL    HW117495   6.892   5.412   5.583
 5532SOL    HW217496   6.787   5.325   5.675
 5533SOL     OW17497   3.993   1.159   4.192
 5533SOL    HW117498   3.924   1.170   4.121
 5533SOL    HW217499   4.064   1.095   4.161
 5534SOL     OW17500   1.677   6.971   4.292
 5534SOL    HW117501   1.626   6.970   4.206
 5534SOL    HW217502   1.726   0.036   4.301
 5535SOL     OW17503   1.336   2.007   3.206
 5535SOL    HW117504   1.363   1.931   3.147
 5535SOL    HW217505   1.291   2.078   3.151
 5536SOL     OW17506   4.705   0.582   5.273
 5536SOL    HW117507   4.622   0.588   5.217
 5536SOL    HW217508   4.691   0.517   5.348
 5537SOL     OW17509   2.648   2.396   2.789
 5537SOL    HW117510   2.610   2.462   2.854
 5537SOL    HW217511   2.583   2.323   2.772
 5538SOL     OW17512   3.733   5.836   3.878
 5538SOL    HW117513   3.651   5.893   3.875
 5538SOL    HW217514   3.706   5.740   3.868
 5539SOL     OW17515   1.990   4.164   0.678
 5539SOL    HW117516   2.042   4.079   0.678
 5539SOL    HW217517   2.020   4.221   0.602
 5540SOL     OW17518   3.521   5.257   1.087
 5540SOL    HW117519   3.497   5.242   1.183
 5540SOL    HW217520   3.610   5.215   1.068
 5541SOL     OW17521   4.492   0.104   6.570
 5541SOL    HW117522   4.560   0.156   6.622
 5541SOL    HW217523   4.400   0.133   6.598
 5542SOL     OW17524   5.776   4.175   6.488
 5542SOL    HW117525   5.704   4.224   6.538
 5542SOL    HW217526   5.817   4.107   6.549
 5543SOL     OW17527   0.673   3.102   5.056
 5543SOL    HW117528   0.608   3.077   4.985
 5543SOL    HW217529   0.687   3.201   5.057
 5544SOL     OW17530   5.349   6.660   0.306
 5544SOL    HW117531   5.439   6.695   0.278
 5544SOL    HW217532   5.293   6.735   0.339
 5545SOL     OW17533   2.925   2.505   1.565
 5545SOL    HW117534   2.866   2.502   1.646
 5545SOL    HW217535   3.019   2.479   1.591
 5546SOL     OW17536   3.278   6.140   4.346
 5546SOL    HW117537   3.345   6.127   4.273
 5546SOL    HW217538   3.325   6.143   4.435
 5547SOL     OW17539   3.262   5.290   3.794
 5547SOL    HW117540   3.189   5.355   3.815
 5547SOL    HW217541   3.301   5.256   3.880
 5548SOL     OW17542   6.263   1.407   4.650
 5548SOL    HW117543   6.170   1.387   4.680
 5548SOL    HW217544   6.290   1.497   4.683
 5549SOL     OW17545   3.905   5.232   5.072
 5549SOL    HW117546   3.940   5.254   5.163
 5549SOL    HW217547   3.928   5.138   5.048
 5550SOL     OW17548   2.893   5.579   1.887
 5550SOL    HW117549   2.983   5.603   1.851
 5550SOL    HW217550   2.824   5.638   1.844
 5551SOL     OW17551   0.745   0.983   2.298
 5551SOL    HW117552   0.700   1.066   2.266
 5551SOL    HW217553   0.676   0.913   2.318
 5552SOL     OW17554   2.319   2.697   2.159
 5552SOL    HW117555   2.355   2.776   2.209
 5552SOL    HW217556   2.308   2.721   2.062
 5553SOL     OW17557   4.886   6.688   5.992
 5553SOL    HW117558   4.888   6.617   6.063
 5553SOL    HW217559   4.791   6.712   5.972
 5554SOL     OW17560   3.214   0.326   5.911
 5554SOL    HW117561   3.201   0.358   6.005
 5554SOL    HW217562   3.207   0.226   5.909
 5555SOL     OW17563   1.225   6.006   1.873
 5555SOL    HW117564   1.221   6.079   1.940
 5555SOL    HW217565   1.319   5.973   1.865
 5556SOL     OW17566   0.140   1.285   4.994
 5556SOL    HW117567   0.056   1.332   5.023
 5556SOL    HW217568   0.151   1.294   4.895
 5557SOL     OW17569   3.485   0.906   2.808
 5557SOL    HW117570   3.511   1.000   2.789
 5557SOL    HW217571   3.447   0.864   2.726
 5558SOL     OW17572   5.384   2.365   6.583
 5558SOL    HW117573   5.462   2.428   6.592
 5558SOL    HW217574   5.309   2.397   6.641
 5559SOL     OW17575   3.646   1.295   1.141
 5559SOL    HW117576   3.583   1.372   1.154
 5559SOL    HW217577   3.593   1.214   1.117
 5560SOL     OW17578   0.357   2.236   4.864
 5560SOL    HW117579   0.454   2.220   4.851
 5560SOL    HW217580   0.311   2.240   4.775
 5561SOL     OW17581   2.106   4.558   2.427
 5561SOL    HW117582   2.206   4.553   2.422
 5561SOL    HW217583   2.072   4.486   2.487
 5562SOL     OW17584   4.996   3.215   0.453
 5562SOL    HW117585   4.932   3.160   0.398
 5562SOL    HW217586   5.077   3.160   0.473
 5563SOL     OW17587   4.131   4.094   0.573
 5563SOL    HW117588   4.160   4.106   0.668
 5563SOL    HW217589   4.060   4.161   0.551
 5564SOL     OW17590   6.429   0.814   2.998
 5564SOL    HW117591   6.379   0.728   3.012
 5564SOL    HW217592   6.380   0.889   3.041
 5565SOL     OW17593   1.981   2.687   6.180
 5565SOL    HW117594   2.011   2.782   6.195
 5565SOL    HW217595   2.033   2.626   6.240
 5566SOL     OW17596   1.971   4.503   0.518
 5566SOL    HW117597   1.996   4.408   0.496
 5566SOL    HW217598   1.927   4.545   0.438
 5567SOL     OW17599   1.562   5.956   2.840
 5567SOL    HW117600   1.585   6.002   2.925
 5567SOL    HW217601   1.497   6.012   2.788
 5568SOL     OW17602   4.936   2.931   0.127
 5568SOL    HW117603   4.961   2.835   0.119
 5568SOL    HW217604   4.931   2.972   0.037
 5569SOL     OW17605   4.101   1.034   6.266
 5569SOL    HW117606   4.131   1.112   6.211
 5569SOL    HW217607   4.066   0.962   6.205
 5570SOL     OW17608   1.927   1.466   5.798
 5570SOL    HW117609   1.888   1.494   5.886
 5570SOL    HW217610   2.025   1.453   5.808
 5571SOL     OW17611   1.429   5.185   6.742
 5571SOL    HW117612   1.404   5.144   6.829
 5571SOL    HW217613   1.529   5.192   6.736
 5572SOL     OW17614   0.960   3.342   5.521
 5572SOL    HW117615   0.951   3.441   5.512
 5572SOL    HW217616   1.020   3.308   5.449
 5573SOL     OW17617   0.775   3.881   6.830
 5573SOL    HW117618   0.826   3.812   6.778
 5573SOL    HW217619   0.838   3.938   6.882
 5574SOL     OW17620   1.659   5.828   4.633
 5574SOL    HW117621   1.562   5.842   4.618
 5574SOL    HW217622   1.702   5.914   4.658
 5575SOL     OW17623   1.480   1.838   2.492
 5575SOL    HW117624   1.539   1.889   2.554
 5575SOL    HW217625   1.384   1.859   2.511
 5576SOL     OW17626   5.389   6.387   6.835
 5576SOL    HW117627   5.317   6.372   6.766
 5576SOL    HW217628   5.371   6.329   6.914
 5577SOL     OW17629   1.606   5.493   5.459
 5577SOL    HW117630   1.584   5.542   5.374
 5577SOL    HW217631   1.522   5.479   5.512
 5578SOL     OW17632   4.173   1.588   5.958
 5578SOL    HW117633   4.200   1.625   5.869
 5578SOL    HW217634   4.197   1.491   5.963
 5579SOL     OW17635   5.232   4.918   2.307
 5579SOL    HW117636   5.255   4.826   2.276
 5579SOL    HW217637   5.208   4.974   2.228
 5580SOL     OW17638   6.484   0.736   2.540
 5580SOL    HW117639   6.493   0.644   2.577
 5580SOL    HW217640   6.524   0.739   2.448
 5581SOL     OW17641   3.486   3.314   0.494
 5581SOL    HW117642   3.527   3.281   0.409
 5581SOL    HW217643   3.515   3.408   0.511
 5582SOL     OW17644   3.070   3.539   5.134
 5582SOL    HW117645   3.120   3.555   5.219
 5582SOL    HW217646   3.134   3.520   5.060
 5583SOL     OW17647   4.041   0.977   6.922
 5583SOL    HW117648   4.106   0.993   6.848
 5583SOL    HW217649   3.976   0.906   6.895
 5584SOL     OW17650   5.605   3.499   4.610
 5584SOL    HW117651   5.618   3.409   4.651
 5584SOL    HW217652   5.657   3.567   4.661
 5585SOL     OW17653   0.167   1.222   3.643
 5585SOL    HW117654   0.146   1.318   3.661
 5585SOL    HW217655   0.113   1.164   3.704
 5586SOL     OW17656   1.745   0.658   0.544
 5586SOL    HW117657   1.709   0.622   0.459
 5586SOL    HW217658   1.671   0.672   0.609
 5587SOL     OW17659   3.299   0.553   2.854
 5587SOL    HW117660   3.267   0.458   2.850
 5587SOL    HW217661   3.238   0.606   2.912
 5588SOL     OW17662   4.258   5.575   0.327
 5588SOL    HW117663   4.311   5.552   0.409
 5588SOL    HW217664   4.318   5.574   0.247
 5589SOL     OW17665   1.588   2.505   6.586
 5589SOL    HW117666   1.586   2.599   6.551
 5589SOL    HW217667   1.676   2.463   6.563
 5590SOL     OW17668   5.950   6.982   3.351
 5590SOL    HW117669   5.929   0.002   3.439
 5590SOL    HW217670   5.991   6.892   3.365
 5591SOL     OW17671   5.184   1.077   5.451
 5591SOL    HW117672   5.122   1.079   5.529
 5591SOL    HW217673   5.273   1.040   5.478
 5592SOL     OW17674   1.058   4.024   3.094
 5592SOL    HW117675   0.978   4.059   3.143
 5592SOL    HW217676   1.129   3.999   3.161
 5593SOL     OW17677   2.482   3.658   5.576
 5593SOL    HW117678   2.487   3.747   5.531
 5593SOL    HW217679   2.575   3.627   5.598
 5594SOL     OW17680   3.043   0.922   5.718
 5594SOL    HW117681   3.091   0.915   5.631
 5594SOL    HW217682   2.955   0.875   5.712
 5595SOL     OW17683   6.448   3.747   1.158
 5595SOL    HW117684   6.443   3.729   1.059
 5595SOL    HW217685   6.366   3.711   1.202
 5596SOL     OW17686   5.257   4.307   4.559
 5596SOL    HW117687   5.295   4.227   4.605
 5596SOL    HW217688   5.329   4.352   4.507
 5597SOL     OW17689   1.006   2.327   6.901
 5597SOL    HW117690   0.930   2.348   6.841
 5597SOL    HW217691   1.092   2.345   6.854
 5598SOL     OW17692   6.897   0.453   3.190
 5598SOL    HW117693   6.807   0.412   3.181
 5598SOL    HW217694   6.894   0.524   3.261
 5599SOL     OW17695   4.965   2.924   2.385
 5599SOL    HW117696   4.932   3.004   2.335
 5599SOL    HW217697   5.050   2.891   2.344
 5600SOL     OW17698   2.045   3.525   2.187
 5600SOL    HW117699   2.075   3.496   2.096
 5600SOL    HW217700   2.029   3.624   2.186
 5601SOL     OW17701   5.188   2.474   6.745
 5601SOL    HW117702   5.162   2.445   6.837
 5601SOL    HW217703   5.226   2.567   6.750
 5602SOL     OW17704   5.365   0.672   2.729
 5602SOL    HW117705   5.419   0.674   2.813
 5602SOL    HW217706   5.346   0.765   2.699
 5603SOL     OW17707   3.499   1.717   0.043
 5603SOL    HW117708   3.529   1.705   0.138
 5603SOL    HW217709   3.399   1.723   0.041
 5604SOL     OW17710   2.027   4.526   4.124
 5604SOL    HW117711   2.001   4.572   4.209
 5604SOL    HW217712   2.045   4.429   4.143
 5605SOL     OW17713   3.772   0.086   4.177
 5605SOL    HW117714   3.756   0.114   4.082
 5605SOL    HW217715   3.754   7.010   4.186
 5606SOL     OW17716   4.079   4.722   0.578
 5606SOL    HW117717   4.057   4.733   0.675
 5606SOL    HW217718   4.167   4.765   0.559
 5607SOL     OW17719   1.882   1.679   2.014
 5607SOL    HW117720   1.862   1.769   1.976
 5607SOL    HW217721   1.907   1.688   2.111
 5608SOL     OW17722   6.284   6.224   3.110
 5608SOL    HW117723   6.256   6.176   3.193
 5608SOL    HW217724   6.291   6.160   3.034
 5609SOL     OW17725   0.026   0.857   0.753
 5609SOL    HW117726   0.047   0.769   0.796
 5609SOL    HW217727   0.025   0.846   0.653
 5610SOL     OW17728   5.731   6.816   6.057
 5610SOL    HW117729   5.781   6.897   6.024
 5610SOL    HW217730   5.769   6.785   6.143
 5611SOL     OW17731   6.979   3.508   2.006
 5611SOL    HW117732   0.038   3.554   2.042
 5611SOL    HW217733   6.950   3.552   1.921
 5612SOL     OW17734   4.875   2.609   0.726
 5612SOL    HW117735   4.802   2.616   0.659
 5612SOL    HW217736   4.836   2.590   0.816
 5613SOL     OW17737   6.497   5.098   4.731
 5613SOL    HW117738   6.514   5.119   4.635
 5613SOL    HW217739   6.443   5.015   4.739
 5614SOL     OW17740   6.312   2.138   4.628
 5614SOL    HW117741   6.247   2.091   4.687
 5614SOL    HW217742   6.353   2.072   4.565
 5615SOL     OW17743   0.832   3.967   3.303
 5615SOL    HW117744   0.860   4.062   3.319
 5615SOL    HW217745   0.769   3.939   3.375
 5616SOL     OW17746   1.495   2.860   1.869
 5616SOL    HW117747   1.398   2.839   1.862
 5616SOL    HW217748   1.537   2.804   1.940
 5617SOL     OW17749   0.979   5.516   5.538
 5617SOL    HW117750   1.029   5.494   5.454
 5617SOL    HW217751   1.041   5.507   5.617
 5618SOL     OW17752   5.223   1.266   3.267
 5618SOL    HW117753   5.289   1.290   3.338
 5618SOL    HW217754   5.259   1.296   3.178
 5619SOL     OW17755   3.687   4.136   4.463
 5619SOL    HW117756   3.589   4.126   4.476
 5619SOL    HW217757   3.705   4.200   4.388
 5620SOL     OW17758   4.643   4.131   5.330
 5620SOL    HW117759   4.548   4.116   5.356
 5620SOL    HW217760   4.669   4.065   5.260
 5621SOL     OW17761   0.795   3.792   0.180
 5621SOL    HW117762   0.727   3.789   0.107
 5621SOL    HW217763   0.763   3.737   0.257
 5622SOL     OW17764   5.782   5.086   3.931
 5622SOL    HW117765   5.723   5.009   3.954
 5622SOL    HW217766   5.810   5.080   3.835
 5623SOL     OW17767   4.809   4.633   3.671
 5623SOL    HW117768   4.836   4.546   3.630
 5623SOL    HW217769   4.852   4.643   3.761
 5624SOL     OW17770   5.029   3.743   4.405
 5624SOL    HW117771   5.024   3.683   4.484
 5624SOL    HW217772   5.038   3.688   4.322
 5625SOL     OW17773   3.926   0.198   0.026
 5625SOL    HW117774   3.848   0.148   7.009
 5625SOL    HW217775   3.968   0.143   0.098
 5626SOL     OW17776   1.910   4.615   5.951
 5626SOL    HW117777   1.904   4.549   6.026
 5626SOL    HW217778   1.960   4.573   5.874
 5627SOL     OW17779   0.920   5.083   1.187
 5627SOL    HW117780   0.929   5.053   1.282
 5627SOL    HW217781   0.844   5.147   1.179
 5628SOL     OW17782   1.509   2.577   0.450
 5628SOL    HW117783   1.564   2.648   0.407
 5628SOL    HW217784   1.479   2.609   0.540
 5629SOL     OW17785   1.044   3.144   5.055
 5629SOL    HW117786   1.021   3.081   5.129
 5629SOL    HW217787   1.143   3.159   5.055
 5630SOL     OW17788   1.134   4.300   7.012
 5630SOL    HW117789   1.222   4.307   0.038
 5630SOL    HW217790   1.142   4.236   6.936
 5631SOL     OW17791   2.551   0.822   3.601
 5631SOL    HW117792   2.607   0.825   3.684
 5631SOL    HW217793   2.464   0.868   3.618
 5632SOL     OW17794   2.966   6.450   5.814
 5632SOL    HW117795   3.008   6.504   5.886
 5632SOL    HW217796   2.903   6.383   5.854
 5633SOL     OW17797   1.396   4.876   5.122
 5633SOL    HW117798   1.434   4.964   5.152
 5633SOL    HW217799   1.400   4.870   5.023
 5634SOL     OW17800   1.244   0.276   1.667
 5634SOL    HW117801   1.159   0.322   1.641
 5634SOL    HW217802   1.238   0.179   1.644
 5635SOL     OW17803   3.703   0.722   3.188
 5635SOL    HW117804   3.637   0.710   3.113
 5635SOL    HW217805   3.655   0.718   3.276
 5636SOL     OW17806   4.778   0.227   4.829
 5636SOL    HW117807   4.872   0.195   4.827
 5636SOL    HW217808   4.720   0.155   4.869
 5637SOL     OW17809   5.650   6.521   5.087
 5637SOL    HW117810   5.678   6.490   4.996
 5637SOL    HW217811   5.585   6.456   5.126
 5638SOL     OW17812   1.955   6.213   0.116
 5638SOL    HW117813   1.966   6.289   0.052
 5638SOL    HW217814   2.039   6.202   0.169
 5639SOL     OW17815   3.293   0.394   1.860
 5639SOL    HW117816   3.273   0.371   1.955
 5639SOL    HW217817   3.374   0.344   1.829
 5640SOL     OW17818   4.527   6.561   4.475
 5640SOL    HW117819   4.471   6.643   4.464
 5640SOL    HW217820   4.494   6.490   4.413
 5641SOL     OW17821   6.303   5.211   3.868
 5641SOL    HW117822   6.257   5.129   3.902
 5641SOL    HW217823   6.394   5.187   3.835
 5642SOL     OW17824   1.533   1.498   6.450
 5642SOL    HW117825   1.521   1.514   6.352
 5642SOL    HW217826   1.526   1.400   6.469
 5643SOL     OW17827   4.634   1.981   3.703
 5643SOL    HW117828   4.612   2.075   3.679
 5643SOL    HW217829   4.719   1.953   3.659
 5644SOL     OW17830   2.513   0.945   4.872
 5644SOL    HW117831   2.596   0.940   4.927
 5644SOL    HW217832   2.518   0.881   4.796
 5645SOL     OW17833   0.033   6.173   4.279
 5645SOL    HW117834   6.967   6.176   4.326
 5645SOL    HW217835   0.021   6.134   4.188
 5646SOL     OW17836   6.433   1.142   2.561
 5646SOL    HW117837   6.484   1.102   2.636
 5646SOL    HW217838   6.336   1.147   2.585
 5647SOL     OW17839   6.073   3.370   6.630
 5647SOL    HW117840   6.081   3.446   6.566
 5647SOL    HW217841   5.985   3.324   6.617
 5648SOL     OW17842   1.712   2.106   4.696
 5648SOL    HW117843   1.720   2.137   4.601
 5648SOL    HW217844   1.757   2.172   4.756
 5649SOL     OW17845   6.704   0.481   4.732
 5649SOL    HW117846   6.672   0.531   4.813
 5649SOL    HW217847   6.695   0.383   4.748
 5650SOL     OW17848   5.950   4.572   5.881
 5650SOL    HW117849   5.893   4.490   5.882
 5650SOL    HW217850   5.893   4.652   5.900
 5651SOL     OW17851   5.545   0.589   3.220
 5651SOL    HW117852   5.509   0.654   3.153
 5651SOL    HW217853   5.614   0.531   3.176
 5652SOL     OW17854   3.331   4.383   6.632
 5652SOL    HW117855   3.310   4.377   6.534
 5652SOL    HW217856   3.365   4.474   6.653
 5653SOL     OW17857   1.914   0.044   5.334
 5653SOL    HW117858   2.009   0.029   5.309
 5653SOL    HW217859   1.909   0.071   5.430
 5654SOL     OW17860   3.154   6.983   6.930
 5654SOL    HW117861   3.100   6.945   7.006
 5654SOL    HW217862   3.193   6.908   6.876
 5655SOL     OW17863   5.768   4.839   2.227
 5655SOL    HW117864   5.805   4.924   2.189
 5655SOL    HW217865   5.671   4.833   2.205
 5656SOL     OW17866   2.677   4.274   6.554
 5656SOL    HW117867   2.684   4.213   6.633
 5656SOL    HW217868   2.765   4.322   6.541
 5657SOL     OW17869   5.517   5.599   1.444
 5657SOL    HW117870   5.537   5.670   1.512
 5657SOL    HW217871   5.520   5.509   1.488
 5658SOL     OW17872   4.638   6.648   6.246
 5658SOL    HW117873   4.698   6.703   6.305
 5658SOL    HW217874   4.555   6.699   6.226
 5659SOL     OW17875   3.276   3.284   2.526
 5659SOL    HW117876   3.285   3.309   2.430
 5659SOL    HW217877   3.188   3.316   2.561
 5660SOL     OW17878   0.832   4.341   1.991
 5660SOL    HW117879   0.882   4.355   2.077
 5660SOL    HW217880   0.835   4.244   1.966
 5661SOL     OW17881   5.664   5.293   5.332
 5661SOL    HW117882   5.611   5.251   5.406
 5661SOL    HW217883   5.676   5.391   5.350
 5662SOL     OW17884   1.681   4.636   5.148
 5662SOL    HW117885   1.589   4.601   5.129
 5662SOL    HW217886   1.730   4.649   5.062
 5663SOL     OW17887   2.429   3.165   0.341
 5663SOL    HW117888   2.339   3.182   0.301
 5663SOL    HW217889   2.436   3.069   0.368
 5664SOL     OW17890   6.038   6.924   1.516
 5664SOL    HW117891   5.977   6.943   1.439
 5664SOL    HW217892   6.008   6.975   1.597
 5665SOL     OW17893   1.037   0.390   5.893
 5665SOL    HW117894   1.037   0.474   5.837
 5665SOL    HW217895   1.074   0.315   5.839
 5666SOL     OW17896   4.579   6.180   6.508
 5666SOL    HW117897   4.481   6.173   6.521
 5666SOL    HW217898   4.601   6.270   6.469
 5667SOL     OW17899   5.746   5.182   3.119
 5667SOL    HW117900   5.814   5.243   3.158
 5667SOL    HW217901   5.782   5.141   3.035
 5668SOL     OW17902   6.718   2.761   6.142
 5668SOL    HW117903   6.700   2.839   6.202
 5668SOL    HW217904   6.637   2.741   6.087
 5669SOL     OW17905   1.600   1.820   5.476
 5669SOL    HW117906   1.580   1.831   5.379
 5669SOL    HW217907   1.664   1.891   5.506
 5670SOL     OW17908   1.389   2.873   2.671
 5670SOL    HW117909   1.452   2.826   2.608
 5670SOL    HW217910   1.343   2.947   2.622
 5671SOL     OW17911   0.702   1.037   6.311
 5671SOL    HW117912   0.631   1.034   6.381
 5671SOL    HW217913   0.791   1.046   6.355
 5672SOL     OW17914   3.879   4.676   6.388
 5672SOL    HW117915   3.783   4.693   6.408
 5672SOL    HW217916   3.897   4.694   6.292
 5673SOL     OW17917   2.030   5.806   1.125
 5673SOL    HW117918   2.022   5.877   1.194
 5673SOL    HW217919   2.048   5.718   1.170
 5674SOL     OW17920   0.462   2.888   6.995
 5674SOL    HW117921   0.519   2.815   0.011
 5674SOL    HW217922   0.497   2.914   6.904
 5675SOL     OW17923   4.500   1.469   5.879
 5675SOL    HW117924   4.506   1.413   5.796
 5675SOL    HW217925   4.416   1.447   5.928
 5676SOL     OW17926   2.012   5.461   1.813
 5676SOL    HW117927   2.037   5.368   1.788
 5676SOL    HW217928   1.944   5.496   1.748
 5677SOL     OW17929   5.964   1.014   3.611
 5677SOL    HW117930   5.973   0.930   3.664
 5677SOL    HW217931   5.999   1.091   3.664
 5678SOL     OW17932   1.371   5.291   2.509
 5678SOL    HW117933   1.377   5.378   2.460
 5678SOL    HW217934   1.342   5.309   2.603
 5679SOL     OW17935   3.598   6.144   5.600
 5679SOL    HW117936   3.638   6.114   5.687
 5679SOL    HW217937   3.534   6.219   5.617
 5680SOL     OW17938   0.696   0.272   6.428
 5680SOL    HW117939   0.779   0.260   6.373
 5680SOL    HW217940   0.674   0.369   6.436
 5681SOL     OW17941   2.877   3.307   0.424
 5681SOL    HW117942   2.878   3.220   0.473
 5681SOL    HW217943   2.961   3.358   0.444
 5682SOL     OW17944   2.202   4.981   4.743
 5682SOL    HW117945   2.284   5.035   4.761
 5682SOL    HW217946   2.187   4.917   4.818
 5683SOL     OW17947   3.226   3.513   4.527
 5683SOL    HW117948   3.320   3.545   4.543
 5683SOL    HW217949   3.228   3.418   4.497
 5684SOL     OW17950   3.341   4.079   2.620
 5684SOL    HW117951   3.263   4.138   2.641
 5684SOL    HW217952   3.336   3.996   2.676
 5685SOL     OW17953   6.529   0.883   2.044
 5685SOL    HW117954   6.571   0.956   1.989
 5685SOL    HW217955   6.432   0.875   2.021
 5686SOL     OW17956   3.255   4.484   6.185
 5686SOL    HW117957   3.263   4.386   6.199
 5686SOL    HW217958   3.263   4.531   6.273
 5687SOL     OW17959   5.034   0.044   5.822
 5687SOL    HW117960   5.125   0.067   5.785
 5687SOL    HW217961   4.964   0.082   5.762
 5688SOL     OW17962   5.579   1.342   2.229
 5688SOL    HW117963   5.623   1.432   2.237
 5688SOL    HW217964   5.484   1.348   2.259
 5689SOL     OW17965   3.931   3.564   5.696
 5689SOL    HW117966   3.877   3.646   5.676
 5689SOL    HW217967   3.993   3.546   5.619
 5690SOL     OW17968   2.628   0.552   2.600
 5690SOL    HW117969   2.726   0.564   2.619
 5690SOL    HW217970   2.578   0.547   2.686
 5691SOL     OW17971   3.299   0.336   4.611
 5691SOL    HW117972   3.221   0.340   4.673
 5691SOL    HW217973   3.273   0.379   4.524
 5692SOL     OW17974   6.366   3.255   0.824
 5692SOL    HW117975   6.287   3.315   0.815
 5692SOL    HW217976   6.374   3.223   0.918
 5693SOL     OW17977   5.614   3.464   2.089
 5693SOL    HW117978   5.600   3.478   2.187
 5693SOL    HW217979   5.536   3.499   2.038
 5694SOL     OW17980   2.041   2.406   4.966
 5694SOL    HW117981   1.994   2.381   5.051
 5694SOL    HW217982   2.129   2.360   4.961
 5695SOL     OW17983   1.308   3.712   2.914
 5695SOL    HW117984   1.393   3.742   2.871
 5695SOL    HW217985   1.265   3.642   2.858
 5696SOL     OW17986   3.222   1.516   6.211
 5696SOL    HW117987   3.159   1.476   6.279
 5696SOL    HW217988   3.275   1.443   6.168
 5697SOL     OW17989   6.375   3.812   0.813
 5697SOL    HW117990   6.362   3.877   0.888
 5697SOL    HW217991   6.369   3.861   0.725
 5698SOL     OW17992   1.974   4.943   4.239
 5698SOL    HW117993   1.893   4.931   4.183
 5698SOL    HW217994   2.039   5.004   4.193
 5699SOL     OW17995   1.160   1.974   5.262
 5699SOL    HW117996   1.121   1.942   5.176
 5699SOL    HW217997   1.174   2.073   5.258
 5700SOL     OW17998   2.087   5.179   4.595
 5700SOL    HW117999   2.116   5.104   4.655
 5700SOL    HW218000   2.065   5.260   4.650
 5701SOL     OW18001   4.727   2.105   2.391
 5701SOL    HW118002   4.629   2.100   2.376
 5701SOL    HW218003   4.746   2.146   2.480
 5702SOL     OW18004   4.083   0.823   0.124
 5702SOL    HW118005   4.090   0.901   0.062
 5702SOL    HW218006   4.112   0.740   0.077
 5703SOL     OW18007   4.765   4.139   2.547
 5703SOL    HW118008   4.726   4.231   2.548
 5703SOL    HW218009   4.771   4.105   2.453
 5704SOL     OW18010   5.269   3.437   3.901
 5704SOL    HW118011   5.297   3.374   3.828
 5704SOL    HW218012   5.246   3.526   3.862
 5705SOL     OW18013   6.604   0.845   4.740
 5705SOL    HW118014   6.577   0.940   4.727
 5705SOL    HW218015   6.564   0.788   4.668
 5706SOL     OW18016   2.191   1.091   5.836
 5706SOL    HW118017   2.220   1.186   5.844
 5706SOL    HW218018   2.267   1.036   5.801
 5707SOL     OW18019   4.757   0.352   1.101
 5707SOL    HW118020   4.772   0.401   1.187
 5707SOL    HW218021   4.667   0.375   1.065
 5708SOL     OW18022   0.759   6.890   0.417
 5708SOL    HW118023   0.687   6.868   0.351
 5708SOL    HW218024   0.781   6.987   0.410
 5709SOL     OW18025   7.014   2.720   0.622
 5709SOL    HW118026   0.075   2.774   0.640
 5709SOL    HW218027   6.995   2.662   0.701
 5710SOL     OW18028   3.299   5.130   6.020
 5710SOL    HW118029   3.372   5.115   5.954
 5710SOL    HW218030   3.338   5.139   6.112
 5711SOL     OW18031   5.624   0.771   5.296
 5711SOL    HW118032   5.597   0.815   5.383
 5711SOL    HW218033   5.620   0.672   5.307
 5712SOL     OW18034   4.921   6.956   6.110
 5712SOL    HW118035   4.958   6.893   6.042
 5712SOL    HW218036   4.841   7.003   6.073
 5713SOL     OW18037   0.349   3.243   2.756
 5713SOL    HW118038   0.437   3.228   2.712
 5713SOL    HW218039   0.318   3.157   2.798
 5714SOL     OW18040   2.379   0.580   1.087
 5714SOL    HW118041   2.393   0.658   1.026
 5714SOL    HW218042   2.395   0.495   1.037
 5715SOL     OW18043   0.424   5.559   3.866
 5715SOL    HW118044   0.449   5.602   3.953
 5715SOL    HW218045   0.444   5.622   3.791
 5716SOL     OW18046   1.698   2.733   4.681
 5716SOL    HW118047   1.713   2.831   4.677
 5716SOL    HW218048   1.626   2.707   4.617
 5717SOL     OW18049   0.330   4.881   5.462
 5717SOL    HW118050   0.376   4.848   5.544
 5717SOL    HW218051   0.236   4.849   5.461
 5718SOL     OW18052   2.345   6.085   5.885
 5718SOL    HW118053   2.259   6.074   5.936
 5718SOL    HW218054   2.414   6.022   5.920
 5719SOL     OW18055   1.472   0.778   0.293
 5719SOL    HW118056   1.452   0.698   0.350
 5719SOL    HW218057   1.446   0.861   0.341
 5720SOL     OW18058   2.068   5.822   4.118
 5720SOL    HW118059   2.042   5.911   4.079
 5720SOL    HW218060   1.986   5.766   4.131
 5721SOL     OW18061   6.221   5.265   6.699
 5721SOL    HW118062   6.264   5.345   6.656
 5721SOL    HW218063   6.125   5.285   6.718
 5722SOL     OW18064   5.279   0.649   4.038
 5722SOL    HW118065   5.281   0.642   4.138
 5722SOL    HW218066   5.196   0.696   4.009
 5723SOL     OW18067   6.191   5.535   1.082
 5723SOL    HW118068   6.127   5.611   1.064
 5723SOL    HW218069   6.269   5.542   1.020
 5724SOL     OW18070   4.699   3.038   6.016
 5724SOL    HW118071   4.743   2.951   6.038
 5724SOL    HW218072   4.718   3.061   5.920
 5725SOL     OW18073   6.398   6.916   5.380
 5725SOL    HW118074   6.358   6.870   5.300
 5725SOL    HW218075   6.332   6.913   5.456
 5726SOL     OW18076   4.304   5.770   5.083
 5726SOL    HW118077   4.341   5.856   5.119
 5726SOL    HW218078   4.314   5.768   4.984
 5727SOL     OW18079   5.425   3.284   3.417
 5727SOL    HW118080   5.485   3.204   3.420
 5727SOL    HW218081   5.401   3.304   3.323
 5728SOL     OW18082   3.730   0.997   4.883
 5728SOL    HW118083   3.767   0.924   4.940
 5728SOL    HW218084   3.660   1.047   4.933
 5729SOL     OW18085   3.373   1.537   3.898
 5729SOL    HW118086   3.418   1.560   3.984
 5729SOL    HW218087   3.353   1.439   3.895
 5730SOL     OW18088   3.769   5.433   0.003
 5730SOL    HW118089   3.799   5.437   0.098
 5730SOL    HW218090   3.780   5.340   6.989
 5731SOL     OW18091   3.986   1.086   5.131
 5731SOL    HW118092   3.976   0.988   5.148
 5731SOL    HW218093   4.045   1.100   5.051
 5732SOL     OW18094   6.273   4.060   4.751
 5732SOL    HW118095   6.326   3.989   4.799
 5732SOL    HW218096   6.327   4.097   4.676
 5733SOL     OW18097   2.129   6.198   0.635
 5733SOL    HW118098   2.037   6.228   0.663
 5733SOL    HW218099   2.173   6.150   0.711
 5734SOL     OW18100   1.566   0.228   6.294
 5734SOL    HW118101   1.650   0.264   6.336
 5734SOL    HW218102   1.517   0.172   6.361
 5735SOL     OW18103   6.035   1.252   0.923
 5735SOL    HW118104   5.968   1.313   0.881
 5735SOL    HW218105   6.016   1.243   1.020
 5736SOL     OW18106   3.826   3.136   6.482
 5736SOL    HW118107   3.753   3.196   6.450
 5736SOL    HW218108   3.874   3.178   6.559
 5737SOL     OW18109   4.969   5.625   2.383
 5737SOL    HW118110   4.932   5.642   2.475
 5737SOL    HW218111   5.068   5.611   2.389
 5738SOL     OW18112   3.068   1.306   1.094
 5738SOL    HW118113   3.103   1.227   1.144
 5738SOL    HW218114   2.984   1.340   1.136
 5739SOL     OW18115   2.006   1.255   6.048
 5739SOL    HW118116   2.006   1.313   5.967
 5739SOL    HW218117   1.915   1.256   6.090
 5740SOL     OW18118   5.469   2.411   2.519
 5740SOL    HW118119   5.465   2.332   2.580
 5740SOL    HW218120   5.378   2.450   2.507
 5741SOL     OW18121   1.388   3.382   3.643
 5741SOL    HW118122   1.324   3.453   3.672
 5741SOL    HW218123   1.347   3.292   3.658
 5742SOL     OW18124   6.524   4.241   2.297
 5742SOL    HW118125   6.600   4.264   2.236
 5742SOL    HW218126   6.496   4.146   2.282
 5743SOL     OW18127   3.268   0.025   5.917
 5743SOL    HW118128   3.253   6.948   5.925
 5743SOL    HW218129   3.366   0.044   5.925
 5744SOL     OW18130   5.397   5.873   4.785
 5744SOL    HW118131   5.399   5.876   4.885
 5744SOL    HW218132   5.488   5.893   4.750
 5745SOL     OW18133   2.173   3.794   2.886
 5745SOL    HW118134   2.149   3.843   2.802
 5745SOL    HW218135   2.264   3.822   2.916
 5746SOL     OW18136   5.110   0.646   3.621
 5746SOL    HW118137   5.177   0.606   3.558
 5746SOL    HW218138   5.029   0.674   3.571
 5747SOL     OW18139   0.704   0.149   1.679
 5747SOL    HW118140   0.707   0.189   1.587
 5747SOL    HW218141   0.688   0.051   1.671
 5748SOL     OW18142   6.106   0.222   6.680
 5748SOL    HW118143   6.087   0.191   6.773
 5748SOL    HW218144   6.190   0.177   6.647
 5749SOL     OW18145   1.857   6.102   6.083
 5749SOL    HW118146   1.845   6.140   6.174
 5749SOL    HW218147   1.796   6.148   6.019
 5750SOL     OW18148   6.430   2.210   4.159
 5750SOL    HW118149   6.489   2.253   4.091
 5750SOL    HW218150   6.378   2.280   4.207
 5751SOL     OW18151   6.757   4.486   4.625
 5751SOL    HW118152   6.690   4.478   4.550
 5751SOL    HW218153   6.842   4.441   4.599
 5752SOL     OW18154   5.369   1.834   6.574
 5752SOL    HW118155   5.459   1.874   6.557
 5752SOL    HW218156   5.298   1.903   6.556
 5753SOL     OW18157   3.640   3.566   3.839
 5753SOL    HW118158   3.581   3.645   3.857
 5753SOL    HW218159   3.617   3.528   3.749
 5754SOL     OW18160   5.955   0.618   0.802
 5754SOL    HW118161   5.999   0.535   0.767
 5754SOL    HW218162   5.862   0.624   0.766
 5755SOL     OW18163   1.036   4.094   6.449
 5755SOL    HW118164   1.110   4.094   6.517
 5755SOL    HW218165   0.950   4.070   6.493
 5756SOL     OW18166   5.050   6.800   1.399
 5756SOL    HW118167   4.991   6.839   1.329
 5756SOL    HW218168   5.142   6.837   1.390
 5757SOL     OW18169   1.856   2.014   4.101
 5757SOL    HW118170   1.951   1.985   4.116
 5757SOL    HW218171   1.809   2.017   4.189
 5758SOL     OW18172   6.154   6.779   3.001
 5758SOL    HW118173   6.073   6.742   2.955
 5758SOL    HW218174   6.130   6.863   3.049
 5759SOL     OW18175   3.234   6.116   2.732
 5759SOL    HW118176   3.323   6.081   2.759
 5759SOL    HW218177   3.176   6.127   2.813
 5760SOL     OW18178   0.299   2.357   0.071
 5760SOL    HW118179   0.204   2.338   0.047
 5760SOL    HW218180   0.360   2.312   0.005
 5761SOL     OW18181   0.198   6.966   5.289
 5761SOL    HW118182   0.144   0.023   5.259
 5761SOL    HW218183   0.136   6.898   5.331
 5762SOL     OW18184   0.654   6.454   5.983
 5762SOL    HW118185   0.673   6.449   5.885
 5762SOL    HW218186   0.659   6.363   6.023
 5763SOL     OW18187   4.515   0.347   6.984
 5763SOL    HW118188   4.438   0.286   7.003
 5763SOL    HW218189   4.537   0.345   6.887
 5764SOL     OW18190   3.512   6.119   4.131
 5764SOL    HW118191   3.508   6.089   4.036
 5764SOL    HW218192   3.594   6.082   4.175
 5765SOL     OW18193   5.713   6.997   3.142
 5765SOL    HW118194   5.634   0.032   3.166
 5765SOL    HW218195   5.776   6.993   3.220
 5766SOL     OW18196   0.910   1.020   4.143
 5766SOL    HW118197   0.913   1.120   4.147
 5766SOL    HW218198   0.891   0.991   4.050
 5767SOL     OW18199   6.053   0.148   0.407
 5767SOL    HW118200   6.095   0.237   0.426
 5767SOL    HW218201   5.959   0.162   0.375
 5768SOL     OW18202   1.777   0.389   4.909
 5768SOL    HW118203   1.750   0.481   4.934
 5768SOL    HW218204   1.702   0.343   4.861
 5769SOL     OW18205   1.214   2.365   6.502
 5769SOL    HW118206   1.118   2.351   6.481
 5769SOL    HW218207   1.268   2.292   6.459
 5770SOL     OW18208   0.972   2.902   1.815
 5770SOL    HW118209   0.888   2.862   1.852
 5770SOL    HW218210   0.956   2.998   1.793
 5771SOL     OW18211   3.348   5.910   3.475
 5771SOL    HW118212   3.338   5.890   3.377
 5771SOL    HW218213   3.272   5.869   3.525
 5772SOL     OW18214   2.969   1.389   3.368
 5772SOL    HW118215   3.054   1.425   3.329
 5772SOL    HW218216   2.972   1.289   3.367
 5773SOL     OW18217   5.442   0.343   4.353
 5773SOL    HW118218   5.518   0.334   4.288
 5773SOL    HW218219   5.370   0.279   4.329
 5774SOL     OW18220   1.294   6.604   4.164
 5774SOL    HW118221   1.212   6.572   4.212
 5774SOL    HW218222   1.314   6.543   4.088
 5775SOL     OW18223   6.157   4.822   2.366
 5775SOL    HW118224   6.234   4.823   2.430
 5775SOL    HW218225   6.071   4.817   2.418
 5776SOL     OW18226   4.162   0.917   4.496
 5776SOL    HW118227   4.072   0.956   4.481
 5776SOL    HW218228   4.207   0.963   4.572
 5777SOL     OW18229   6.782   1.049   1.555
 5777SOL    HW118230   6.862   0.993   1.534
 5777SOL    HW218231   6.701   0.990   1.560
 5778SOL     OW18232   0.065   0.709   6.117
 5778SOL    HW118233   0.140   0.775   6.128
 5778SOL    HW218234   0.001   0.719   6.193
 5779SOL     OW18235   5.686   1.719   0.294
 5779SOL    HW118236   5.756   1.667   0.245
 5779SOL    HW218237   5.719   1.811   0.312
 5780SOL     OW18238   5.535   4.877   4.143
 5780SOL    HW118239   5.439   4.851   4.139
 5780SOL    HW218240   5.576   4.870   4.052
 5781SOL     OW18241   1.027   6.271   5.459
 5781SOL    HW118242   1.121   6.300   5.441
 5781SOL    HW218243   1.026   6.172   5.473
 5782SOL     OW18244   5.605   0.934   1.223
 5782SOL    HW118245   5.566   0.892   1.141
 5782SOL    HW218246   5.562   1.023   1.238
 5783SOL     OW18247   2.263   2.368   6.504
 5783SOL    HW118248   2.333   2.371   6.575
 5783SOL    HW218249   2.281   2.291   6.442
 5784SOL     OW18250   6.643   6.078   0.464
 5784SOL    HW118251   6.580   6.108   0.393
 5784SOL    HW218252   6.664   5.981   0.451
 5785SOL     OW18253   1.408   1.342   2.316
 5785SOL    HW118254   1.483   1.301   2.367
 5785SOL    HW218255   1.333   1.277   2.307
 5786SOL     OW18256   5.922   4.589   1.886
 5786SOL    HW118257   5.898   4.594   1.983
 5786SOL    HW218258   6.022   4.580   1.877
 5787SOL     OW18259   2.099   2.476   6.289
 5787SOL    HW118260   2.105   2.410   6.214
 5787SOL    HW218261   2.143   2.439   6.370
 5788SOL     OW18262   3.433   1.162   4.296
 5788SOL    HW118263   3.415   1.085   4.235
 5788SOL    HW218264   3.389   1.145   4.384
 5789SOL     OW18265   3.351   4.884   6.229
 5789SOL    HW118266   3.444   4.901   6.262
 5789SOL    HW218267   3.355   4.822   6.151
 5790SOL     OW18268   2.142   3.316   3.910
 5790SOL    HW118269   2.161   3.223   3.943
 5790SOL    HW218270   2.066   3.312   3.845
 5791SOL     OW18271   1.469   1.069   3.480
 5791SOL    HW118272   1.387   1.127   3.476
 5791SOL    HW218273   1.541   1.111   3.424
 5792SOL     OW18274   1.179   1.503   3.326
 5792SOL    HW118275   1.116   1.535   3.396
 5792SOL    HW218276   1.231   1.425   3.360
 5793SOL     OW18277   6.500   1.374   5.520
 5793SOL    HW118278   6.415   1.362   5.572
 5793SOL    HW218279   6.560   1.295   5.536
 5794SOL     OW18280   6.901   3.607   6.762
 5794SOL    HW118281   6.990   3.654   6.766
 5794SOL    HW218282   6.915   3.509   6.771
 5795SOL     OW18283   6.826   4.584   0.119
 5795SOL    HW118284   6.864   4.565   0.028
 5795SOL    HW218285   6.753   4.519   0.139
 5796SOL     OW18286   2.953   1.832   0.405
 5796SOL    HW118287   2.868   1.880   0.429
 5796SOL    HW218288   2.936   1.772   0.327
 5797SOL     OW18289   3.054   3.149   5.968
 5797SOL    HW118290   3.032   3.142   5.871
 5797SOL    HW218291   2.978   3.192   6.017
 5798SOL     OW18292   6.061   4.820   4.184
 5798SOL    HW118293   6.088   4.725   4.199
 5798SOL    HW218294   6.054   4.867   4.272
 5799SOL     OW18295   4.913   0.450   4.148
 5799SOL    HW118296   4.936   0.499   4.065
 5799SOL    HW218297   4.821   0.476   4.178
 5800SOL     OW18298   5.203   6.128   6.251
 5800SOL    HW118299   5.192   6.179   6.336
 5800SOL    HW218300   5.285   6.160   6.203
 5801SOL     OW18301   1.935   0.788   1.993
 5801SOL    HW118302   2.006   0.815   1.927
 5801SOL    HW218303   1.846   0.786   1.947
 5802SOL     OW18304   0.376   2.684   4.497
 5802SOL    HW118305   0.433   2.699   4.416
 5802SOL    HW218306   0.290   2.640   4.469
 5803SOL     OW18307   1.542   4.826   0.956
 5803SOL    HW118308   1.546   4.845   0.858
 5803SOL    HW218309   1.447   4.827   0.986
 5804SOL     OW18310   0.602   3.024   6.784
 5804SOL    HW118311   0.580   2.992   6.692
 5804SOL    HW218312   0.588   3.123   6.790
 5805SOL     OW18313   4.724   3.436   6.846
 5805SOL    HW118314   4.652   3.496   6.880
 5805SOL    HW218315   4.801   3.492   6.815
 5806SOL     OW18316   6.006   6.195   5.869
 5806SOL    HW118317   6.014   6.139   5.951
 5806SOL    HW218318   5.924   6.252   5.876
 5807SOL     OW18319   2.192   4.268   1.039
 5807SOL    HW118320   2.100   4.301   1.017
 5807SOL    HW218321   2.187   4.206   1.118
 5808SOL     OW18322   6.651   1.540   3.860
 5808SOL    HW118323   6.687   1.475   3.792
 5808SOL    HW218324   6.718   1.613   3.874
 5809SOL     OW18325   0.548   3.614   3.530
 5809SOL    HW118326   0.579   3.659   3.614
 5809SOL    HW218327   0.550   3.515   3.542
 5810SOL     OW18328   3.485   1.616   2.841
 5810SOL    HW118329   3.397   1.637   2.884
 5810SOL    HW218330   3.547   1.576   2.909
 5811SOL     OW18331   3.074   6.878   1.160
 5811SOL    HW118332   3.009   6.858   1.233
 5811SOL    HW218333   3.081   6.977   1.148
 5812SOL     OW18334   4.963   0.629   4.755
 5812SOL    HW118335   5.033   0.697   4.776
 5812SOL    HW218336   5.003   0.555   4.700
 5813SOL     OW18337   1.396   2.326   4.681
 5813SOL    HW118338   1.325   2.263   4.650
 5813SOL    HW218339   1.427   2.383   4.605
 5814SOL     OW18340   0.503   4.920   1.320
 5814SOL    HW118341   0.567   4.854   1.359
 5814SOL    HW218342   0.538   5.013   1.333
 5815SOL     OW18343   4.244   6.445   5.226
 5815SOL    HW118344   4.227   6.537   5.262
 5815SOL    HW218345   4.158   6.404   5.195
 5816SOL     OW18346   5.556   6.584   6.763
 5816SOL    HW118347   5.578   6.567   6.667
 5816SOL    HW218348   5.501   6.507   6.798
 5817SOL     OW18349   6.456   2.431   6.175
 5817SOL    HW118350   6.422   2.338   6.179
 5817SOL    HW218351   6.498   2.447   6.085
 5818SOL     OW18352   5.879   6.744   4.979
 5818SOL    HW118353   5.796   6.689   4.967
 5818SOL    HW218354   5.868   6.803   5.059
 5819SOL     OW18355   6.424   1.062   1.678
 5819SOL    HW118356   6.333   1.072   1.717
 5819SOL    HW218357   6.493   1.089   1.745
 5820SOL     OW18358   5.322   4.634   1.586
 5820SOL    HW118359   5.305   4.669   1.678
 5820SOL    HW218360   5.316   4.708   1.520
 5821SOL     OW18361   2.748   6.329   2.412
 5821SOL    HW118362   2.777   6.276   2.491
 5821SOL    HW218363   2.829   6.364   2.363
 5822SOL     OW18364   0.168   0.299   2.763
 5822SOL    HW118365   0.156   0.201   2.776
 5822SOL    HW218366   0.127   0.326   2.675
 5823SOL     OW18367   1.414   2.301   3.961
 5823SOL    HW118368   1.435   2.339   3.871
 5823SOL    HW218369   1.320   2.325   3.986
 5824SOL     OW18370   5.046   0.705   3.886
 5824SOL    HW118371   4.958   0.659   3.889
 5824SOL    HW218372   5.090   0.689   3.798
 5825SOL     OW18373   3.021   0.932   1.785
 5825SOL    HW118374   2.962   0.853   1.796
 5825SOL    HW218375   3.054   0.936   1.690
 5826SOL     OW18376   0.636   6.694   3.251
 5826SOL    HW118377   0.672   6.773   3.302
 5826SOL    HW218378   0.574   6.726   3.180
 5827SOL     OW18379   1.701   5.357   6.209
 5827SOL    HW118380   1.737   5.337   6.117
 5827SOL    HW218381   1.768   5.412   6.260
 5828SOL     OW18382   6.363   1.372   1.021
 5828SOL    HW118383   6.417   1.379   1.105
 5828SOL    HW218384   6.383   1.285   0.976
 5829SOL     OW18385   1.900   0.701   1.325
 5829SOL    HW118386   1.841   0.620   1.313
 5829SOL    HW218387   1.889   0.761   1.246
 5830SOL     OW18388   1.338   0.953   6.096
 5830SOL    HW118389   1.319   0.856   6.110
 5830SOL    HW218390   1.328   0.975   5.999
 5831SOL     OW18391   5.820   5.534   2.852
 5831SOL    HW118392   5.838   5.615   2.797
 5831SOL    HW218393   5.851   5.452   2.803
 5832SOL     OW18394   4.074   3.600   4.402
 5832SOL    HW118395   4.061   3.501   4.414
 5832SOL    HW218396   4.062   3.624   4.306
 5833SOL     OW18397   3.083   3.057   4.409
 5833SOL    HW118398   3.107   3.038   4.314
 5833SOL    HW218399   3.062   2.971   4.456
 5834SOL     OW18400   5.446   1.552   6.516
 5834SOL    HW118401   5.419   1.514   6.428
 5834SOL    HW218402   5.427   1.650   6.518
 5835SOL     OW18403   5.731   2.453   4.474
 5835SOL    HW118404   5.719   2.440   4.573
 5835SOL    HW218405   5.727   2.550   4.452
 5836SOL     OW18406   3.842   6.789   3.673
 5836SOL    HW118407   3.743   6.780   3.682
 5836SOL    HW218408   3.870   6.762   3.581
 5837SOL     OW18409   3.954   4.095   0.062
 5837SOL    HW118410   4.026   4.113   0.128
 5837SOL    HW218411   3.883   4.037   0.104
 5838SOL     OW18412   0.898   1.419   6.193
 5838SOL    HW118413   0.922   1.434   6.289
 5838SOL    HW218414   0.959   1.473   6.135
 5839SOL     OW18415   0.210   2.701   2.526
 5839SOL    HW118416   0.119   2.705   2.567
 5839SOL    HW218417   0.202   2.709   2.427
 5840SOL     OW18418   3.429   5.431   0.255
 5840SOL    HW118419   3.467   5.492   0.324
 5840SOL    HW218420   3.428   5.478   0.166
 5841SOL     OW18421   6.474   2.648   3.488
 5841SOL    HW118422   6.464   2.569   3.426
 5841SOL    HW218423   6.385   2.688   3.505
 5842SOL     OW18424   3.444   2.516   1.062
 5842SOL    HW118425   3.383   2.489   1.137
 5842SOL    HW218426   3.535   2.477   1.077
 5843SOL     OW18427   0.405   1.733   1.922
 5843SOL    HW118428   0.307   1.713   1.930
 5843SOL    HW218429   0.446   1.673   1.854
 5844SOL     OW18430   1.797   6.535   6.370
 5844SOL    HW118431   1.815   6.607   6.436
 5844SOL    HW218432   1.725   6.565   6.307
 5845SOL     OW18433   2.443   2.324   4.274
 5845SOL    HW118434   2.395   2.283   4.351
 5845SOL    HW218435   2.534   2.353   4.304
 5846SOL     OW18436   0.577   3.403   6.497
 5846SOL    HW118437   0.504   3.370   6.437
 5846SOL    HW218438   0.666   3.387   6.455
 5847SOL     OW18439   1.416   2.623   4.292
 5847SOL    HW118440   1.317   2.615   4.302
 5847SOL    HW218441   1.437   2.670   4.206
 5848SOL     OW18442   1.139   4.615   3.471
 5848SOL    HW118443   1.069   4.607   3.542
 5848SOL    HW218444   1.214   4.672   3.503
 5849SOL     OW18445   2.138   0.337   5.470
 5849SOL    HW118446   2.104   0.422   5.431
 5849SOL    HW218447   2.222   0.355   5.522
 5850SOL     OW18448   0.807   5.068   3.086
 5850SOL    HW118449   0.819   5.042   2.990
 5850SOL    HW218450   0.738   5.140   3.092
 5851SOL     OW18451   6.738   3.556   2.137
 5851SOL    HW118452   6.837   3.542   2.136
 5851SOL    HW218453   6.708   3.590   2.048
 5852SOL     OW18454   3.575   6.565   2.567
 5852SOL    HW118455   3.496   6.568   2.629
 5852SOL    HW218456   3.659   6.555   2.621
 5853SOL     OW18457   4.968   4.114   5.299
 5853SOL    HW118458   4.989   4.036   5.240
 5853SOL    HW218459   5.042   4.181   5.293
 5854SOL     OW18460   1.264   1.036   6.861
 5854SOL    HW118461   1.223   1.127   6.859
 5854SOL    HW218462   1.193   0.967   6.874
 5855SOL     OW18463   1.980   1.587   5.454
 5855SOL    HW118464   2.003   1.517   5.386
 5855SOL    HW218465   1.903   1.554   5.510
 5856SOL     OW18466   0.543   6.594   3.928
 5856SOL    HW118467   0.495   6.637   3.852
 5856SOL    HW218468   0.542   6.655   4.007
 5857SOL     OW18469   1.142   2.483   5.303
 5857SOL    HW118470   1.046   2.464   5.324
 5857SOL    HW218471   1.147   2.557   5.236
 5858SOL     OW18472   3.205   0.424   4.366
 5858SOL    HW118473   3.210   0.519   4.398
 5858SOL    HW218474   3.137   0.417   4.293
 5859SOL     OW18475   5.711   4.753   1.809
 5859SOL    HW118476   5.765   4.805   1.743
 5859SOL    HW218477   5.770   4.689   1.858
 5860SOL     OW18478   6.356   4.567   0.411
 5860SOL    HW118479   6.405   4.578   0.324
 5860SOL    HW218480   6.260   4.547   0.394
 5861SOL     OW18481   6.621   2.178   4.724
 5861SOL    HW118482   6.646   2.085   4.750
 5861SOL    HW218483   6.522   2.183   4.711
 5862SOL     OW18484   6.190   5.226   4.157
 5862SOL    HW118485   6.228   5.303   4.108
 5862SOL    HW218486   6.152   5.160   4.092
 5863SOL     OW18487   2.030   1.437   1.251
 5863SOL    HW118488   2.046   1.348   1.294
 5863SOL    HW218489   2.117   1.485   1.240
 5864SOL     OW18490   4.489   5.158   6.938
 5864SOL    HW118491   4.487   5.061   6.911
 5864SOL    HW218492   4.477   5.165   0.015
 5865SOL     OW18493   4.404   0.517   2.993
 5865SOL    HW118494   4.484   0.542   3.047
 5865SOL    HW218495   4.361   0.436   3.033
 5866SOL     OW18496   3.787   1.703   6.974
 5866SOL    HW118497   3.699   1.666   6.945
 5866SOL    HW218498   3.773   1.766   0.028
 5867SOL     OW18499   6.785   2.914   2.441
 5867SOL    HW118500   6.759   2.875   2.353
 5867SOL    HW218501   6.792   2.842   2.509
 5868SOL     OW18502   0.378   6.137   5.493
 5868SOL    HW118503   0.344   6.044   5.485
 5868SOL    HW218504   0.305   6.202   5.472
 5869SOL     OW18505   2.423   5.063   4.932
 5869SOL    HW118506   2.449   5.027   5.022
 5869SOL    HW218507   2.386   5.155   4.942
 5870SOL     OW18508   5.766   5.842   4.565
 5870SOL    HW118509   5.841   5.815   4.504
 5870SOL    HW218510   5.685   5.789   4.542
 5871SOL     OW18511   3.699   4.774   0.894
 5871SOL    HW118512   3.642   4.747   0.817
 5871SOL    HW218513   3.648   4.835   0.955
 5872SOL     OW18514   4.452   5.847   3.843
 5872SOL    HW118515   4.380   5.915   3.841
 5872SOL    HW218516   4.459   5.801   3.754
 5873SOL     OW18517   1.987   3.261   1.124
 5873SOL    HW118518   2.034   3.254   1.212
 5873SOL    HW218519   1.915   3.330   1.130
 5874SOL     OW18520   0.633   4.560   6.447
 5874SOL    HW118521   0.544   4.525   6.476
 5874SOL    HW218522   0.628   4.659   6.434
 5875SOL     OW18523   4.287   2.619   1.298
 5875SOL    HW118524   4.314   2.701   1.247
 5875SOL    HW218525   4.221   2.566   1.245
 5876SOL     OW18526   4.184   4.590   6.159
 5876SOL    HW118527   4.094   4.627   6.135
 5876SOL    HW218528   4.175   4.532   6.240
 5877SOL     OW18529   5.854   5.963   2.864
 5877SOL    HW118530   5.855   5.921   2.954
 5877SOL    HW218531   5.928   5.924   2.808
 5878SOL     OW18532   4.896   4.354   2.955
 5878SOL    HW118533   4.963   4.356   3.030
 5878SOL    HW218534   4.806   4.380   2.990
 5879SOL     OW18535   3.136   4.578   5.543
 5879SOL    HW118536   3.161   4.501   5.485
 5879SOL    HW218537   3.040   4.601   5.528
 5880SOL     OW18538   5.595   2.391   1.075
 5880SOL    HW118539   5.646   2.370   0.991
 5880SOL    HW218540   5.574   2.489   1.078
 5881SOL     OW18541   0.850   6.004   3.799
 5881SOL    HW118542   0.797   6.058   3.733
 5881SOL    HW218543   0.847   6.048   3.888
 5882SOL     OW18544   1.136   5.616   4.453
 5882SOL    HW118545   1.087   5.537   4.491
 5882SOL    HW218546   1.233   5.608   4.474
 5883SOL     OW18547   0.283   5.770   0.257
 5883SOL    HW118548   0.190   5.745   0.285
 5883SOL    HW218549   0.279   5.820   0.171
 5884SOL     OW18550   1.016   1.248   1.344
 5884SOL    HW118551   1.108   1.271   1.311
 5884SOL    HW218552   0.949   1.297   1.289
 5885SOL     OW18553   6.918   5.863   2.155
 5885SOL    HW118554   6.963   5.922   2.088
 5885SOL    HW218555   6.948   5.888   2.247
 5886SOL     OW18556   2.050   4.030   3.244
 5886SOL    HW118557   1.967   4.026   3.300
 5886SOL    HW218558   2.073   4.125   3.225
 5887SOL     OW18559   2.226   3.737   1.563
 5887SOL    HW118560   2.303   3.673   1.555
 5887SOL    HW218561   2.142   3.686   1.583
 5888SOL     OW18562   2.977   6.353   1.559
 5888SOL    HW118563   3.028   6.307   1.632
 5888SOL    HW218564   2.879   6.339   1.572
 5889SOL     OW18565   4.660   1.129   1.616
 5889SOL    HW118566   4.705   1.215   1.643
 5889SOL    HW218567   4.725   1.073   1.565
 5890SOL     OW18568   2.531   5.120   2.768
 5890SOL    HW118569   2.439   5.083   2.761
 5890SOL    HW218570   2.586   5.089   2.690
 5891SOL     OW18571   2.284   3.039   6.636
 5891SOL    HW118572   2.306   2.955   6.588
 5891SOL    HW218573   2.358   3.061   6.701
 5892SOL     OW18574   0.499   2.184   1.697
 5892SOL    HW118575   0.400   2.196   1.695
 5892SOL    HW218576   0.521   2.095   1.737
 5893SOL     OW18577   0.030   6.241   1.204
 5893SOL    HW118578   0.112   6.260   1.259
 5893SOL    HW218579   0.054   6.177   1.131
 5894SOL     OW18580   3.131   5.473   6.479
 5894SOL    HW118581   3.139   5.412   6.558
 5894SOL    HW218582   3.133   5.419   6.395
 5895SOL     OW18583   6.173   2.361   4.522
 5895SOL    HW118584   6.229   2.297   4.573
 5895SOL    HW218585   6.084   2.372   4.568
 5896SOL     OW18586   5.376   2.303   0.730
 5896SOL    HW118587   5.324   2.342   0.806
 5896SOL    HW218588   5.313   2.254   0.669
 5897SOL     OW18589   3.036   3.637   0.338
 5897SOL    HW118590   3.044   3.588   0.425
 5897SOL    HW218591   3.126   3.665   0.306
 5898SOL     OW18592   3.855   0.357   6.692
 5898SOL    HW118593   3.859   0.427   6.763
 5898SOL    HW218594   3.948   0.327   6.670
 5899SOL     OW18595   6.919   0.385   0.800
 5899SOL    HW118596   6.835   0.439   0.810
 5899SOL    HW218597   6.918   0.310   0.865
 5900SOL     OW18598   5.000   5.811   2.190
 5900SOL    HW118599   4.991   5.740   2.259
 5900SOL    HW218600   5.093   5.808   2.151
 5901SOL     OW18601   1.234   0.541   4.789
 5901SOL    HW118602   1.194   0.482   4.859
 5901SOL    HW218603   1.212   0.636   4.809
 5902SOL     OW18604   4.763   3.892   5.513
 5902SOL    HW118605   4.841   3.940   5.554
 5902SOL    HW218606   4.787   3.863   5.420
 5903SOL     OW18607   5.047   1.119   6.074
 5903SOL    HW118608   5.133   1.150   6.114
 5903SOL    HW218609   4.975   1.186   6.093
 5904SOL     OW18610   6.855   5.462   1.415
 5904SOL    HW118611   6.950   5.491   1.421
 5904SOL    HW218612   6.851   5.362   1.404
 5905SOL     OW18613   6.447   1.823   5.112
 5905SOL    HW118614   6.478   1.911   5.076
 5905SOL    HW218615   6.348   1.816   5.103
 5906SOL     OW18616   4.289   0.573   4.712
 5906SOL    HW118617   4.190   0.576   4.725
 5906SOL    HW218618   4.311   0.520   4.630
 5907SOL     OW18619   1.133   3.645   5.905
 5907SOL    HW118620   1.169   3.566   5.956
 5907SOL    HW218621   1.196   3.722   5.915
 5908SOL     OW18622   4.763   2.818   6.817
 5908SOL    HW118623   4.706   2.755   6.870
 5908SOL    HW218624   4.800   2.888   6.878
 5909SOL     OW18625   6.748   4.727   2.979
 5909SOL    HW118626   6.692   4.804   3.010
 5909SOL    HW218627   6.801   4.754   2.899
 5910SOL     OW18628   1.689   4.155   2.629
 5910SOL    HW118629   1.723   4.157   2.723
 5910SOL    HW218630   1.750   4.208   2.570
 5911SOL     OW18631   0.611   1.227   4.950
 5911SOL    HW118632   0.556   1.144   4.961
 5911SOL    HW218633   0.697   1.216   5.000
 5912SOL     OW18634   0.896   3.898   5.964
 5912SOL    HW118635   0.834   3.820   5.956
 5912SOL    HW218636   0.966   3.893   5.893
 5913SOL     OW18637   1.778   2.826   5.754
 5913SOL    HW118638   1.744   2.911   5.793
 5913SOL    HW218639   1.759   2.823   5.656
 5914SOL     OW18640   0.762   5.665   0.279
 5914SOL    HW118641   0.788   5.663   0.183
 5914SOL    HW218642   0.808   5.591   0.328
 5915SOL     OW18643   5.561   4.145   4.793
 5915SOL    HW118644   5.529   4.137   4.888
 5915SOL    HW218645   5.492   4.107   4.732
 5916SOL     OW18646   3.041   0.847   6.762
 5916SOL    HW118647   2.998   0.863   6.673
 5916SOL    HW218648   3.035   0.930   6.817
 5917SOL     OW18649   3.378   3.237   1.778
 5917SOL    HW118650   3.394   3.190   1.864
 5917SOL    HW218651   3.429   3.323   1.776
 5918SOL     OW18652   3.247   2.155   3.677
 5918SOL    HW118653   3.317   2.198   3.733
 5918SOL    HW218654   3.289   2.115   3.595
 5919SOL     OW18655   1.789   1.264   5.674
 5919SOL    HW118656   1.833   1.350   5.701
 5919SOL    HW218657   1.762   1.213   5.756
 5920SOL     OW18658   2.025   3.598   6.674
 5920SOL    HW118659   1.937   3.555   6.653
 5920SOL    HW218660   2.019   3.696   6.657
 5921SOL     OW18661   3.498   6.401   4.195
 5921SOL    HW118662   3.596   6.409   4.183
 5921SOL    HW218663   3.472   6.305   4.202
 5922SOL     OW18664   6.638   5.118   2.508
 5922SOL    HW118665   6.606   5.210   2.485
 5922SOL    HW218666   6.615   5.054   2.435
 5923SOL     OW18667   0.990   6.795   3.142
 5923SOL    HW118668   1.042   6.719   3.102
 5923SOL    HW218669   1.046   6.841   3.211
 5924SOL     OW18670   6.115   2.083   4.815
 5924SOL    HW118671   6.132   2.039   4.903
 5924SOL    HW218672   6.043   2.033   4.766
 5925SOL     OW18673   6.735   6.924   1.406
 5925SOL    HW118674   6.700   7.010   1.369
 5925SOL    HW218675   6.659   6.862   1.426
 5926SOL     OW18676   2.577   6.891   1.963
 5926SOL    HW118677   2.484   6.869   1.995
 5926SOL    HW218678   2.572   6.926   1.869
 5927SOL     OW18679   1.861   5.869   0.789
 5927SOL    HW118680   1.814   5.939   0.843
 5927SOL    HW218681   1.802   5.789   0.780
 5928SOL     OW18682   6.192   6.534   1.037
 5928SOL    HW118683   6.115   6.582   0.994
 5928SOL    HW218684   6.276   6.586   1.023
 5929SOL     OW18685   0.366   0.523   6.550
 5929SOL    HW118686   0.461   0.513   6.580
 5929SOL    HW218687   0.354   0.475   6.463
 5930SOL     OW18688   0.105   1.703   5.122
 5930SOL    HW118689   0.075   1.750   5.206
 5930SOL    HW218690   0.150   1.617   5.146
 5931SOL     OW18691   6.349   4.572   0.670
 5931SOL    HW118692   6.326   4.663   0.704
 5931SOL    HW218693   6.368   4.577   0.572
 5932SOL     OW18694   2.311   0.755   0.598
 5932SOL    HW118695   2.222   0.751   0.644
 5932SOL    HW218696   2.378   0.702   0.651
 5933SOL     OW18697   5.475   2.383   3.350
 5933SOL    HW118698   5.529   2.467   3.356
 5933SOL    HW218699   5.536   2.304   3.353
 5934SOL     OW18700   4.459   3.573   1.694
 5934SOL    HW118701   4.388   3.573   1.765
 5934SOL    HW218702   4.466   3.664   1.654
 5935SOL     OW18703   3.823   3.374   2.738
 5935SOL    HW118704   3.894   3.305   2.718
 5935SOL    HW218705   3.846   3.459   2.690
 5936SOL     OW18706   6.544   5.947   6.901
 5936SOL    HW118707   6.509   6.040   6.894
 5936SOL    HW218708   6.640   5.950   6.929
 5937SOL     OW18709   0.639   3.190   0.987
 5937SOL    HW118710   0.603   3.279   1.013
 5937SOL    HW218711   0.563   3.130   0.960
 5938SOL     OW18712   3.148   5.191   1.444
 5938SOL    HW118713   3.064   5.176   1.497
 5938SOL    HW218714   3.213   5.118   1.463
 5939SOL     OW18715   0.366   6.765   2.518
 5939SOL    HW118716   0.424   6.720   2.451
 5939SOL    HW218717   0.271   6.764   2.486
 5940SOL     OW18718   4.370   4.646   2.366
 5940SOL    HW118719   4.406   4.702   2.440
 5940SOL    HW218720   4.446   4.600   2.319
 5941SOL     OW18721   6.079   2.925   3.882
 5941SOL    HW118722   6.030   2.948   3.798
 5941SOL    HW218723   6.016   2.931   3.960
 5942SOL     OW18724   0.143   2.241   5.058
 5942SOL    HW118725   0.052   2.225   5.018
 5942SOL    HW218726   0.213   2.208   4.994
 5943SOL     OW18727   1.365   6.206   0.761
 5943SOL    HW118728   1.424   6.148   0.706
 5943SOL    HW218729   1.293   6.244   0.703
 5944SOL     OW18730   5.024   2.752   3.265
 5944SOL    HW118731   5.108   2.697   3.265
 5944SOL    HW218732   4.946   2.693   3.290
 5945SOL     OW18733   6.516   6.319   6.648
 5945SOL    HW118734   6.539   6.396   6.588
 5945SOL    HW218735   6.545   6.234   6.604
 5946SOL     OW18736   3.983   2.207   5.109
 5946SOL    HW118737   3.901   2.256   5.136
 5946SOL    HW218738   3.963   2.149   5.030
 5947SOL     OW18739   5.653   4.159   3.486
 5947SOL    HW118740   5.562   4.200   3.485
 5947SOL    HW218741   5.709   4.200   3.414
 5948SOL     OW18742   2.748   5.254   3.149
 5948SOL    HW118743   2.846   5.274   3.140
 5948SOL    HW218744   2.721   5.260   3.245
 5949SOL     OW18745   5.304   4.211   2.992
 5949SOL    HW118746   5.298   4.236   2.895
 5949SOL    HW218747   5.279   4.290   3.048
 5950SOL     OW18748   0.873   2.451   5.340
 5950SOL    HW118749   0.789   2.481   5.385
 5950SOL    HW218750   0.851   2.407   5.253
 5951SOL     OW18751   1.835   0.898   3.123
 5951SOL    HW118752   1.767   0.911   3.050
 5951SOL    HW218753   1.797   0.839   3.194
 5952SOL     OW18754   6.979   6.475   4.487
 5952SOL    HW118755   6.927   6.390   4.495
 5952SOL    HW218756   7.006   6.488   4.391
 5953SOL     OW18757   1.649   4.105   5.684
 5953SOL    HW118758   1.732   4.129   5.734
 5953SOL    HW218759   1.620   4.182   5.627
 5954SOL     OW18760   1.230   4.754   6.053
 5954SOL    HW118761   1.163   4.816   6.011
 5954SOL    HW218762   1.206   4.659   6.029
 5955SOL     OW18763   3.726   5.084   2.051
 5955SOL    HW118764   3.631   5.077   2.081
 5955SOL    HW218765   3.763   5.173   2.080
 5956SOL     OW18766   0.283   1.512   0.965
 5956SOL    HW118767   0.377   1.525   0.996
 5956SOL    HW218768   0.221   1.568   1.020
 5957SOL     OW18769   4.191   6.920   6.558
 5957SOL    HW118770   4.192   6.994   6.491
 5957SOL    HW218771   4.132   6.946   6.635
 5958SOL     OW18772   0.901   5.853   2.457
 5958SOL    HW118773   0.930   5.758   2.445
 5958SOL    HW218774   0.970   5.902   2.510
 5959SOL     OW18775   1.426   0.817   5.006
 5959SOL    HW118776   1.366   0.819   4.927
 5959SOL    HW218777   1.375   0.785   5.086
 5960SOL     OW18778   3.299   5.952   4.969
 5960SOL    HW118779   3.296   5.854   4.950
 5960SOL    HW218780   3.284   5.968   5.067
 5961SOL     OW18781   3.546   0.392   5.276
 5961SOL    HW118782   3.481   0.317   5.265
 5961SOL    HW218783   3.547   0.448   5.194
 5962SOL     OW18784   5.405   4.296   3.440
 5962SOL    HW118785   5.407   4.395   3.423
 5962SOL    HW218786   5.337   4.253   3.381
 5963SOL     OW18787   4.204   3.989   1.734
 5963SOL    HW118788   4.107   3.996   1.757
 5963SOL    HW218789   4.254   4.066   1.776
 5964SOL     OW18790   1.557   3.351   5.125
 5964SOL    HW118791   1.533   3.429   5.182
 5964SOL    HW218792   1.655   3.353   5.105
 5965SOL     OW18793   2.095   2.223   4.265
 5965SOL    HW118794   2.053   2.313   4.251
 5965SOL    HW218795   2.107   2.178   4.176
 5966SOL     OW18796   1.326   5.353   4.042
 5966SOL    HW118797   1.258   5.367   4.114
 5966SOL    HW218798   1.417   5.370   4.079
 5967SOL     OW18799   5.225   5.532   0.879
 5967SOL    HW118800   5.188   5.439   0.887
 5967SOL    HW218801   5.186   5.577   0.799
 5968SOL     OW18802   2.235   1.887   4.499
 5968SOL    HW118803   2.312   1.828   4.524
 5968SOL    HW218804   2.238   1.906   4.401
 5969SOL     OW18805   0.479   2.393   3.237
 5969SOL    HW118806   0.455   2.337   3.157
 5969SOL    HW218807   0.515   2.481   3.206
 5970SOL     OW18808   1.798   4.336   3.661
 5970SOL    HW118809   1.860   4.279   3.609
 5970SOL    HW218810   1.728   4.279   3.704
 5971SOL     OW18811   3.246   5.685   3.660
 5971SOL    HW118812   3.164   5.741   3.652
 5971SOL    HW218813   3.222   5.598   3.704
 5972SOL     OW18814   4.740   0.021   1.445
 5972SOL    HW118815   4.787   6.967   1.491
 5972SOL    HW218816   4.792   0.105   1.458
 5973SOL     OW18817   2.971   4.882   3.249
 5973SOL    HW118818   2.976   4.869   3.348
 5973SOL    HW218819   2.884   4.845   3.215
 5974SOL     OW18820   0.548   3.772   7.006
 5974SOL    HW118821   0.621   3.775   6.938
 5974SOL    HW218822   0.476   3.836   6.980
 5975SOL     OW18823   1.889   3.026   6.779
 5975SOL    HW118824   1.825   3.026   6.702
 5975SOL    HW218825   1.974   3.072   6.751
 5976SOL     OW18826   3.139   4.099   4.388
 5976SOL    HW118827   3.092   4.060   4.309
 5976SOL    HW218828   3.094   4.068   4.472
 5977SOL     OW18829   0.499   3.711   3.097
 5977SOL    HW118830   0.537   3.639   3.039
 5977SOL    HW218831   0.460   3.782   3.039
 5978SOL     OW18832   5.351   4.998   1.169
 5978SOL    HW118833   5.331   4.908   1.131
 5978SOL    HW218834   5.337   5.068   1.099
 5979SOL     OW18835   1.458   0.908   1.864
 5979SOL    HW118836   1.413   0.993   1.836
 5979SOL    HW218837   1.395   0.853   1.919
 5980SOL     OW18838   5.771   2.766   5.467
 5980SOL    HW118839   5.788   2.833   5.395
 5980SOL    HW218840   5.792   2.807   5.556
 5981SOL     OW18841   3.535   2.260   0.582
 5981SOL    HW118842   3.453   2.298   0.625
 5981SOL    HW218843   3.550   2.306   0.494
 5982SOL     OW18844   6.372   3.088   6.501
 5982SOL    HW118845   6.339   3.167   6.448
 5982SOL    HW218846   6.441   3.119   6.566
 5983SOL     OW18847   6.992   0.837   4.250
 5983SOL    HW118848   6.969   0.860   4.345
 5983SOL    HW218849   6.958   0.908   4.189
 5984SOL     OW18850   0.319   0.346   6.320
 5984SOL    HW118851   0.303   0.361   6.222
 5984SOL    HW218852   0.397   0.285   6.331
 5985SOL     OW18853   5.714   3.614   3.865
 5985SOL    HW118854   5.806   3.620   3.827
 5985SOL    HW218855   5.647   3.634   3.793
 5986SOL     OW18856   3.195   3.965   2.342
 5986SOL    HW118857   3.291   3.990   2.331
 5986SOL    HW218858   3.173   3.958   2.439
 5987SOL     OW18859   4.352   0.257   5.152
 5987SOL    HW118860   4.393   0.289   5.067
 5987SOL    HW218861   4.254   0.273   5.149
 5988SOL     OW18862   3.157   6.887   5.657
 5988SOL    HW118863   3.131   6.792   5.667
 5988SOL    HW218864   3.186   6.924   5.746
 5989SOL     OW18865   3.145   1.929   6.471
 5989SOL    HW118866   3.202   1.889   6.543
 5989SOL    HW218867   3.056   1.882   6.470
 5990SOL     OW18868   2.635   5.921   3.317
 5990SOL    HW118869   2.560   5.922   3.251
 5990SOL    HW218870   2.645   5.828   3.353
 5991SOL     OW18871   4.216   4.711   2.777
 5991SOL    HW118872   4.164   4.767   2.713
 5991SOL    HW218873   4.299   4.761   2.805
 5992SOL     OW18874   3.726   2.117   4.047
 5992SOL    HW118875   3.631   2.098   4.070
 5992SOL    HW218876   3.734   2.132   3.948
 5993SOL     OW18877   2.591   5.791   3.883
 5993SOL    HW118878   2.555   5.700   3.905
 5993SOL    HW218879   2.536   5.832   3.810
 5994SOL     OW18880   6.259   2.490   0.445
 5994SOL    HW118881   6.210   2.516   0.362
 5994SOL    HW218882   6.265   2.569   0.506
 5995SOL     OW18883   0.390   3.869   1.736
 5995SOL    HW118884   0.337   3.934   1.682
 5995SOL    HW218885   0.328   3.815   1.793
 5996SOL     OW18886   1.309   6.303   5.977
 5996SOL    HW118887   1.307   6.217   5.927
 5996SOL    HW218888   1.318   6.380   5.913
 5997SOL     OW18889   6.936   0.097   1.616
 5997SOL    HW118890   6.986   0.157   1.553
 5997SOL    HW218891   6.838   0.109   1.601
 5998SOL     OW18892   4.910   3.745   2.901
 5998SOL    HW118893   4.925   3.669   2.963
 5998SOL    HW218894   4.987   3.809   2.906
 5999SOL     OW18895   2.136   3.070   3.068
 5999SOL    HW118896   2.115   3.025   2.981
 5999SOL    HW218897   2.157   3.167   3.052
 6000SOL     OW18898   4.910   0.830   3.508
 6000SOL    HW118899   4.912   0.926   3.539
 6000SOL    HW218900   4.933   0.826   3.411
 6001SOL     OW18901   4.870   1.076   0.057
 6001SOL    HW118902   4.818   0.991   0.061
 6001SOL    HW218903   4.838   1.139   0.128
 6002SOL     OW18904   1.854   0.444   2.136
 6002SOL    HW118905   1.915   0.502   2.082
 6002SOL    HW218906   1.819   0.370   2.079
 6003SOL     OW18907   4.998   5.321   3.577
 6003SOL    HW118908   4.990   5.268   3.493
 6003SOL    HW218909   4.922   5.299   3.638
 6004SOL     OW18910   0.769   3.089   1.786
 6004SOL    HW118911   0.718   3.040   1.715
 6004SOL    HW218912   0.708   3.155   1.831
 6005SOL     OW18913   2.175   6.835   2.631
 6005SOL    HW118914   2.225   6.780   2.698
 6005SOL    HW218915   2.085   6.793   2.615
 6006SOL     OW18916   2.396   6.482   6.324
 6006SOL    HW118917   2.351   6.474   6.235
 6006SOL    HW218918   2.439   6.572   6.331
 6007SOL     OW18919   5.742   3.556   4.378
 6007SOL    HW118920   5.693   3.513   4.453
 6007SOL    HW218921   5.727   3.504   4.294
 6008SOL     OW18922   5.407   3.966   2.190
 6008SOL    HW118923   5.410   3.963   2.290
 6008SOL    HW218924   5.324   3.920   2.158
 6009SOL     OW18925   3.381   1.546   5.055
 6009SOL    HW118926   3.287   1.511   5.066
 6009SOL    HW218927   3.378   1.645   5.045
 6010SOL     OW18928   1.912   5.310   3.355
 6010SOL    HW118929   1.870   5.219   3.359
 6010SOL    HW218930   1.862   5.372   3.415
 6011SOL     OW18931   6.050   2.464   1.519
 6011SOL    HW118932   5.979   2.488   1.452
 6011SOL    HW218933   6.056   2.536   1.588
 6012SOL     OW18934   0.692   2.226   0.860
 6012SOL    HW118935   0.744   2.271   0.788
 6012SOL    HW218936   0.639   2.151   0.821
 6013SOL     OW18937   5.331   0.932   2.559
 6013SOL    HW118938   5.346   0.955   2.463
 6013SOL    HW218939   5.235   0.950   2.583
 6014SOL     OW18940   6.080   1.791   0.297
 6014SOL    HW118941   6.068   1.834   0.207
 6014SOL    HW218942   6.041   1.851   0.367
 6015SOL     OW18943   6.264   6.880   4.053
 6015SOL    HW118944   6.304   6.950   4.112
 6015SOL    HW218945   6.326   6.863   3.976
 6016SOL     OW18946   0.983   0.236   5.199
 6016SOL    HW118947   1.024   0.183   5.126
 6016SOL    HW218948   0.915   0.181   5.247
 6017SOL     OW18949   0.322   3.630   2.472
 6017SOL    HW118950   0.290   3.691   2.400
 6017SOL    HW218951   0.319   3.677   2.560
 6018SOL     OW18952   3.304   4.770   1.826
 6018SOL    HW118953   3.274   4.733   1.738
 6018SOL    HW218954   3.398   4.740   1.844
 6019SOL     OW18955   0.059   6.880   3.628
 6019SOL    HW118956   0.153   6.913   3.621
 6019SOL    HW218957   0.045   6.838   3.717
 6020SOL     OW18958   2.640   6.298   2.839
 6020SOL    HW118959   2.651   6.229   2.767
 6020SOL    HW218960   2.554   6.347   2.825
 6021SOL     OW18961   2.741   0.859   3.390
 6021SOL    HW118962   2.778   0.929   3.329
 6021SOL    HW218963   2.662   0.895   3.438
 6022SOL     OW18964   3.323   2.605   5.726
 6022SOL    HW118965   3.411   2.646   5.746
 6022SOL    HW218966   3.255   2.676   5.708
 6023SOL     OW18967   0.638   2.128   2.011
 6023SOL    HW118968   0.679   2.201   1.957
 6023SOL    HW218969   0.594   2.062   1.950
 6024SOL     OW18970   6.225   4.625   1.774
 6024SOL    HW118971   6.220   4.559   1.698
 6024SOL    HW218972   6.234   4.575   1.860
 6025SOL     OW18973   4.506   2.522   2.289
 6025SOL    HW118974   4.565   2.467   2.348
 6025SOL    HW218975   4.559   2.599   2.252
 6026SOL     OW18976   1.254   4.338   5.260
 6026SOL    HW118977   1.295   4.428   5.247
 6026SOL    HW218978   1.157   4.342   5.236
 6027SOL     OW18979   3.757   4.271   0.279
 6027SOL    HW118980   3.681   4.329   0.250
 6027SOL    HW218981   3.726   4.177   0.288
 6028SOL     OW18982   0.978   4.245   5.627
 6028SOL    HW118983   1.076   4.229   5.619
 6028SOL    HW218984   0.961   4.337   5.664
 6029SOL     OW18985   1.858   5.387   1.062
 6029SOL    HW118986   1.846   5.337   1.148
 6029SOL    HW218987   1.816   5.478   1.070
 6030SOL     OW18988   1.648   6.257   1.362
 6030SOL    HW118989   1.727   6.219   1.411
 6030SOL    HW218990   1.583   6.184   1.342
 6031SOL     OW18991   4.538   1.040   4.566
 6031SOL    HW118992   4.533   1.135   4.536
 6031SOL    HW218993   4.605   0.991   4.509
 6032SOL     OW18994   1.188   2.259   2.146
 6032SOL    HW118995   1.126   2.229   2.074
 6032SOL    HW218996   1.169   2.354   2.170
 6033SOL     OW18997   0.485   6.840   4.390
 6033SOL    HW118998   0.444   6.915   4.443
 6033SOL    HW218999   0.418   6.767   4.378
 6034SOL     OW19000   3.032   5.035   4.590
 6034SOL    HW119001   2.964   4.962   4.593
 6034SOL    HW219002   3.117   5.003   4.631
 6035SOL     OW19003   4.652   0.520   4.190
 6035SOL    HW119004   4.580   0.485   4.129
 6035SOL    HW219005   4.623   0.509   4.285
 6036SOL     OW19006   5.427   0.897   5.542
 6036SOL    HW119007   5.514   0.878   5.587
 6036SOL    HW219008   5.371   0.814   5.541
 6037SOL     OW19009   0.007   4.773   4.301
 6037SOL    HW119010   0.011   4.681   4.262
 6037SOL    HW219011   0.097   4.816   4.294
 6038SOL     OW19012   0.301   3.070   6.528
 6038SOL    HW119013   0.237   3.009   6.482
 6038SOL    HW219014   0.267   3.092   6.620
 6039SOL     OW19015   3.088   4.003   3.379
 6039SOL    HW119016   3.159   3.978   3.446
 6039SOL    HW219017   3.008   3.944   3.392
 6040SOL     OW19018   1.274   1.253   1.242
 6040SOL    HW119019   1.292   1.325   1.175
 6040SOL    HW219020   1.335   1.265   1.320
 6041SOL     OW19021   0.933   3.182   6.141
 6041SOL    HW119022   0.913   3.280   6.142
 6041SOL    HW219023   1.030   3.168   6.123
 6042SOL     OW19024   5.920   5.799   4.955
 6042SOL    HW119025   5.959   5.891   4.964
 6042SOL    HW219026   5.956   5.757   4.872
 6043SOL     OW19027   6.530   4.244   3.498
 6043SOL    HW119028   6.527   4.283   3.589
 6043SOL    HW219029   6.577   4.307   3.436
 6044SOL     OW19030   1.312   1.514   1.106
 6044SOL    HW119031   1.333   1.611   1.116
 6044SOL    HW219032   1.261   1.499   1.021
 6045SOL     OW19033   5.887   3.964   6.620
 6045SOL    HW119034   5.939   4.019   6.685
 6045SOL    HW219035   5.938   3.880   6.600
 6046SOL     OW19036   0.417   3.541   0.090
 6046SOL    HW119037   0.465   3.628   0.080
 6046SOL    HW219038   0.483   3.469   0.114
 6047SOL     OW19039   1.046   6.725   4.935
 6047SOL    HW119040   0.977   6.701   4.867
 6047SOL    HW219041   1.137   6.722   4.893
 6048SOL     OW19042   5.090   6.456   3.801
 6048SOL    HW119043   5.188   6.472   3.814
 6048SOL    HW219044   5.047   6.539   3.766
 6049SOL     OW19045   0.216   5.259   0.309
 6049SOL    HW119046   0.267   5.174   0.297
 6049SOL    HW219047   0.132   5.241   0.360
 6050SOL     OW19048   5.492   4.407   5.500
 6050SOL    HW119049   5.482   4.474   5.426
 6050SOL    HW219050   5.533   4.451   5.579
 6051SOL     OW19051   2.399   1.851   3.430
 6051SOL    HW119052   2.430   1.858   3.335
 6051SOL    HW219053   2.443   1.923   3.484
 6052SOL     OW19054   0.639   1.925   6.877
 6052SOL    HW119055   0.629   2.001   6.940
 6052SOL    HW219056   0.582   1.940   6.796
 6053SOL     OW19057   1.025   0.699   6.150
 6053SOL    HW119058   0.942   0.665   6.107
 6053SOL    HW219059   1.102   0.639   6.128
 6054SOL     OW19060   0.345   3.918   6.261
 6054SOL    HW119061   0.307   3.948   6.349
 6054SOL    HW219062   0.313   3.980   6.189
 6055SOL     OW19063   5.646   5.793   2.737
 6055SOL    HW119064   5.581   5.774   2.810
 6055SOL    HW219065   5.724   5.844   2.775
 6056SOL     OW19066   5.507   2.768   6.463
 6056SOL    HW119067   5.411   2.748   6.485
 6056SOL    HW219068   5.520   2.758   6.364
 6057SOL     OW19069   4.996   0.449   6.434
 6057SOL    HW119070   5.066   0.438   6.505
 6057SOL    HW219071   4.972   0.359   6.398
 6058SOL     OW19072   5.609   2.204   5.573
 6058SOL    HW119073   5.591   2.120   5.522
 6058SOL    HW219074   5.635   2.277   5.510
 6059SOL     OW19075   6.942   6.418   6.670
 6059SOL    HW119076   6.917   6.353   6.598
 6059SOL    HW219077   6.986   6.370   6.746
 6060SOL     OW19078   3.377   5.706   6.538
 6060SOL    HW119079   3.393   5.805   6.537
 6060SOL    HW219080   3.389   5.671   6.631
 6061SOL     OW19081   1.838   1.374   6.506
 6061SOL    HW119082   1.841   1.301   6.575
 6061SOL    HW219083   1.801   1.338   6.420
 6062SOL     OW19084   1.392   6.462   3.165
 6062SOL    HW119085   1.349   6.536   3.113
 6062SOL    HW219086   1.427   6.497   3.251
 6063SOL     OW19087   6.073   6.289   0.014
 6063SOL    HW119088   6.083   6.197   0.052
 6063SOL    HW219089   6.162   6.336   0.016
 6064SOL     OW19090   0.556   5.386   1.898
 6064SOL    HW119091   0.491   5.460   1.880
 6064SOL    HW219092   0.565   5.373   1.997
 6065SOL     OW19093   4.598   6.916   1.138
 6065SOL    HW119094   4.549   6.999   1.164
 6065SOL    HW219095   4.533   6.840   1.129
 6066SOL     OW19096   5.348   2.267   5.458
 6066SOL    HW119097   5.426   2.251   5.518
 6066SOL    HW219098   5.380   2.300   5.369
 6067SOL     OW19099   4.718   1.245   0.291
 6067SOL    HW119100   4.814   1.239   0.318
 6067SOL    HW219101   4.668   1.300   0.357
 6068SOL     OW19102   5.203   0.723   5.562
 6068SOL    HW119103   5.121   0.740   5.617
 6068SOL    HW219104   5.179   0.669   5.482
 6069SOL     OW19105   6.565   4.815   3.332
 6069SOL    HW119106   6.525   4.726   3.351
 6069SOL    HW219107   6.514   4.886   3.381
 6070SOL     OW19108   4.707   3.281   1.394
 6070SOL    HW119109   4.753   3.193   1.392
 6070SOL    HW219110   4.608   3.268   1.384
 6071SOL     OW19111   6.235   0.625   5.709
 6071SOL    HW119112   6.241   0.559   5.634
 6071SOL    HW219113   6.144   0.667   5.709
 6072SOL     OW19114   5.872   1.538   1.833
 6072SOL    HW119115   5.910   1.463   1.887
 6072SOL    HW219116   5.895   1.525   1.736
 6073SOL     OW19117   5.544   1.243   0.711
 6073SOL    HW119118   5.538   1.325   0.655
 6073SOL    HW219119   5.570   1.165   0.653
 6074SOL     OW19120   0.664   1.442   5.937
 6074SOL    HW119121   0.694   1.351   5.964
 6074SOL    HW219122   0.743   1.500   5.920
 6075SOL     OW19123   5.092   3.127   5.868
 6075SOL    HW119124   5.066   3.222   5.852
 6075SOL    HW219125   5.153   3.096   5.794
 6076SOL     OW19126   3.466   0.304   3.724
 6076SOL    HW119127   3.432   0.309   3.818
 6076SOL    HW219128   3.485   0.209   3.701
 6077SOL     OW19129   5.482   5.281   3.009
 6077SOL    HW119130   5.564   5.260   3.061
 6077SOL    HW219131   5.461   5.379   3.017
 6078SOL     OW19132   2.373   4.327   4.291
 6078SOL    HW119133   2.315   4.247   4.280
 6078SOL    HW219134   2.374   4.356   4.387
 6079SOL     OW19135   3.133   2.604   0.501
 6079SOL    HW119136   3.118   2.577   0.406
 6079SOL    HW219137   3.062   2.669   0.528
 6080SOL     OW19138   6.078   3.515   3.988
 6080SOL    HW119139   6.115   3.542   4.077
 6080SOL    HW219140   6.014   3.439   4.000
 6081SOL     OW19141   0.825   4.068   1.921
 6081SOL    HW119142   0.910   4.026   1.890
 6081SOL    HW219143   0.749   4.005   1.907
 6082SOL     OW19144   4.792   1.796   5.211
 6082SOL    HW119145   4.828   1.877   5.163
 6082SOL    HW219146   4.766   1.822   5.304
 6083SOL     OW19147   1.716   6.137   0.237
 6083SOL    HW119148   1.664   6.069   0.185
 6083SOL    HW219149   1.791   6.172   0.181
 6084SOL     OW19150   0.533   5.989   6.400
 6084SOL    HW119151   0.620   6.039   6.404
 6084SOL    HW219152   0.521   5.950   6.308
 6085SOL     OW19153   5.503   4.930   1.898
 6085SOL    HW119154   5.577   4.865   1.883
 6085SOL    HW219155   5.477   4.973   1.811
 6086SOL     OW19156   3.107   2.179   1.887
 6086SOL    HW119157   3.033   2.217   1.942
 6086SOL    HW219158   3.158   2.113   1.941
 6087SOL     OW19159   3.615   1.172   0.355
 6087SOL    HW119160   3.700   1.123   0.333
 6087SOL    HW219161   3.544   1.106   0.379
 6088SOL     OW19162   0.778   1.008   4.365
 6088SOL    HW119163   0.822   1.015   4.276
 6088SOL    HW219164   0.847   0.987   4.435
 6089SOL     OW19165   0.067   3.434   1.219
 6089SOL    HW119166   0.113   3.434   1.307
 6089SOL    HW219167   0.011   3.351   1.211
 6090SOL     OW19168   6.546   6.925   4.027
 6090SOL    HW119169   6.535   6.836   3.984
 6090SOL    HW219170   6.593   6.914   4.115
 6091SOL     OW19171   6.693   2.201   2.433
 6091SOL    HW119172   6.690   2.203   2.532
 6091SOL    HW219173   6.757   2.129   2.403
 6092SOL     OW19174   0.246   3.274   1.504
 6092SOL    HW119175   0.192   3.206   1.554
 6092SOL    HW219176   0.285   3.231   1.422
 6093SOL     OW19177   0.896   4.041   0.511
 6093SOL    HW119178   0.987   4.081   0.502
 6093SOL    HW219179   0.833   4.084   0.446
 6094SOL     OW19180   0.300   1.363   1.409
 6094SOL    HW119181   0.215   1.415   1.418
 6094SOL    HW219182   0.283   1.284   1.349
 6095SOL     OW19183   0.552   4.229   4.721
 6095SOL    HW119184   0.563   4.318   4.676
 6095SOL    HW219185   0.456   4.202   4.718
 6096SOL     OW19186   5.675   1.879   2.984
 6096SOL    HW119187   5.646   1.962   2.936
 6096SOL    HW219188   5.625   1.800   2.948
 6097SOL     OW19189   3.847   1.159   2.900
 6097SOL    HW119190   3.839   1.063   2.930
 6097SOL    HW219191   3.758   1.203   2.907
 6098SOL     OW19192   0.062   1.087   6.800
 6098SOL    HW119193   7.015   1.081   6.872
 6098SOL    HW219194   0.130   1.157   6.823
 6099SOL     OW19195   5.906   4.224   4.241
 6099SOL    HW119196   5.933   4.237   4.337
 6099SOL    HW219197   5.809   4.203   4.236
 6100SOL     OW19198   0.084   2.811   1.165
 6100SOL    HW119199   0.062   2.830   1.261
 6100SOL    HW219200   0.015   2.851   1.106
 6101SOL     OW19201   6.038   6.466   3.429
 6101SOL    HW119202   6.004   6.397   3.365
 6101SOL    HW219203   6.109   6.426   3.486
 6102SOL     OW19204   3.681   6.312   4.937
 6102SOL    HW119205   3.653   6.269   5.023
 6102SOL    HW219206   3.742   6.250   4.887
 6103SOL     OW19207   5.401   1.785   4.697
 6103SOL    HW119208   5.485   1.735   4.720
 6103SOL    HW219209   5.407   1.817   4.602
 6104SOL     OW19210   2.554   2.581   1.258
 6104SOL    HW119211   2.553   2.567   1.357
 6104SOL    HW219212   2.625   2.646   1.234
 6105SOL     OW19213   3.353   4.945   4.516
 6105SOL    HW119214   3.305   4.919   4.600
 6105SOL    HW219215   3.441   4.987   4.539
 6106SOL     OW19216   1.902   5.350   4.151
 6106SOL    HW119217   1.939   5.279   4.091
 6106SOL    HW219218   1.853   5.308   4.227
 6107SOL     OW19219   1.878   4.772   5.552
 6107SOL    HW119220   1.915   4.863   5.571
 6107SOL    HW219221   1.952   4.712   5.520
 6108SOL     OW19222   5.317   1.348   4.545
 6108SOL    HW119223   5.329   1.359   4.643
 6108SOL    HW219224   5.406   1.327   4.503
 6109SOL     OW19225   0.565   4.402   1.962
 6109SOL    HW119226   0.535   4.494   1.990
 6109SOL    HW219227   0.665   4.398   1.965
 6110SOL     OW19228   3.532   1.761   3.270
 6110SOL    HW119229   3.469   1.686   3.251
 6110SOL    HW219230   3.521   1.831   3.199
 6111SOL     OW19231   0.633   4.657   3.566
 6111SOL    HW119232   0.666   4.740   3.521
 6111SOL    HW219233   0.612   4.587   3.498
 6112SOL     OW19234   2.400   0.723   1.318
 6112SOL    HW119235   2.395   0.652   1.247
 6112SOL    HW219236   2.382   0.812   1.277
 6113SOL     OW19237   0.500   5.011   6.210
 6113SOL    HW119238   0.567   5.066   6.258
 6113SOL    HW219239   0.424   5.069   6.180
 6114SOL     OW19240   3.733   4.231   1.305
 6114SOL    HW119241   3.736   4.135   1.334
 6114SOL    HW219242   3.645   4.271   1.330
 6115SOL     OW19243   0.376   3.946   2.964
 6115SOL    HW119244   0.335   3.940   2.873
 6115SOL    HW219245   0.446   4.017   2.966
 6116SOL     OW19246   4.128   2.905   1.016
 6116SOL    HW119247   4.043   2.908   1.068
 6116SOL    HW219248   4.108   2.883   0.920
 6117SOL     OW19249   5.440   6.347   4.318
 6117SOL    HW119250   5.355   6.347   4.370
 6117SOL    HW219251   5.444   6.430   4.261
 6118SOL     OW19252   6.499   0.484   3.314
 6118SOL    HW119253   6.412   0.434   3.316
 6118SOL    HW219254   6.553   0.459   3.394
 6119SOL     OW19255   6.176   4.697   5.253
 6119SOL    HW119256   6.145   4.769   5.190
 6119SOL    HW219257   6.120   4.615   5.238
 6120SOL     OW19258   2.723   1.906   2.147
 6120SOL    HW119259   2.809   1.899   2.197
 6120SOL    HW219260   2.655   1.953   2.203
 6121SOL     OW19261   0.096   1.857   3.150
 6121SOL    HW119262   0.132   1.878   3.241
 6121SOL    HW219263   0.061   1.941   3.109
 6122SOL     OW19264   3.819   5.753   4.185
 6122SOL    HW119265   3.737   5.790   4.141
 6122SOL    HW219266   3.900   5.781   4.134
 6123SOL     OW19267   6.885   1.926   2.894
 6123SOL    HW119268   6.940   1.996   2.940
 6123SOL    HW219269   6.808   1.970   2.847
 6124SOL     OW19270   2.923   0.537   4.764
 6124SOL    HW119271   3.011   0.584   4.759
 6124SOL    HW219272   2.852   0.603   4.790
 6125SOL     OW19273   1.075   3.859   2.869
 6125SOL    HW119274   1.162   3.824   2.903
 6125SOL    HW219275   1.032   3.915   2.940
 6126SOL     OW19276   3.269   0.021   2.707
 6126SOL    HW119277   3.210   0.097   2.735
 6126SOL    HW219278   3.273   6.974   2.780
 6127SOL     OW19279   1.778   5.660   1.076
 6127SOL    HW119280   1.763   5.631   0.982
 6127SOL    HW219281   1.866   5.707   1.083
 6128SOL     OW19282   5.668   3.645   1.591
 6128SOL    HW119283   5.655   3.586   1.671
 6128SOL    HW219284   5.709   3.592   1.517
 6129SOL     OW19285   6.149   3.763   3.582
 6129SOL    HW119286   6.119   3.855   3.557
 6129SOL    HW219287   6.219   3.732   3.518
 6130SOL     OW19288   6.504   3.175   2.701
 6130SOL    HW119289   6.461   3.158   2.612
 6130SOL    HW219290   6.440   3.226   2.759
 6131SOL     OW19291   0.258   2.022   5.630
 6131SOL    HW119292   0.234   1.930   5.600
 6131SOL    HW219293   0.226   2.036   5.723
 6132SOL     OW19294   0.275   3.006   0.347
 6132SOL    HW119295   0.223   2.964   0.273
 6132SOL    HW219296   0.217   3.071   0.397
 6133SOL     OW19297   1.414   4.867   0.577
 6133SOL    HW119298   1.336   4.873   0.640
 6133SOL    HW219299   1.499   4.861   0.629
 6134SOL     OW19300   4.288   4.350   6.034
 6134SOL    HW119301   4.274   4.445   6.060
 6134SOL    HW219302   4.381   4.322   6.056
 6135SOL     OW19303   5.493   6.356   1.815
 6135SOL    HW119304   5.413   6.410   1.839
 6135SOL    HW219305   5.540   6.398   1.737
 6136SOL     OW19306   1.848   2.089   2.451
 6136SOL    HW119307   1.932   2.034   2.456
 6136SOL    HW219308   1.841   2.145   2.533
 6137SOL     OW19309   2.854   6.787   5.749
 6137SOL    HW119310   2.895   6.857   5.689
 6137SOL    HW219311   2.757   6.776   5.725
 6138SOL     OW19312   4.304   0.276   3.364
 6138SOL    HW119313   4.339   0.184   3.381
 6138SOL    HW219314   4.377   0.343   3.377
 6139SOL     OW19315   2.900   6.414   3.523
 6139SOL    HW119316   2.931   6.509   3.525
 6139SOL    HW219317   2.829   6.400   3.592
 6140SOL     OW19318   2.094   5.564   1.294
 6140SOL    HW119319   2.044   5.484   1.262
 6140SOL    HW219320   2.174   5.579   1.236
 6141SOL     OW19321   0.903   6.144   4.698
 6141SOL    HW119322   0.910   6.045   4.712
 6141SOL    HW219323   0.904   6.190   4.787
 6142SOL     OW19324   0.057   2.726   4.158
 6142SOL    HW119325   6.998   2.784   4.170
 6142SOL    HW219326   0.062   2.696   4.063
 6143SOL     OW19327   6.602   6.072   6.590
 6143SOL    HW119328   6.695   6.051   6.618
 6143SOL    HW219329   6.539   6.006   6.632
 6144SOL     OW19330   0.436   5.448   4.912
 6144SOL    HW119331   0.355   5.415   4.865
 6144SOL    HW219332   0.418   5.454   5.011
 6145SOL     OW19333   5.680   5.342   3.437
 6145SOL    HW119334   5.607   5.386   3.386
 6145SOL    HW219335   5.755   5.407   3.450
 6146SOL     OW19336   5.991   1.349   4.196
 6146SOL    HW119337   6.080   1.371   4.236
 6146SOL    HW219338   6.005   1.289   4.117
 6147SOL     OW19339   0.942   4.262   3.883
 6147SOL    HW119340   0.922   4.218   3.971
 6147SOL    HW219341   0.929   4.361   3.892
 6148SOL     OW19342   5.618   6.644   3.978
 6148SOL    HW119343   5.557   6.572   3.946
 6148SOL    HW219344   5.711   6.607   3.988
 6149SOL     OW19345   0.238   5.503   4.592
 6149SOL    HW119346   0.252   5.413   4.633
 6149SOL    HW219347   0.314   5.525   4.530
 6150SOL     OW19348   4.887   6.963   6.720
 6150SOL    HW119349   4.942   6.898   6.772
 6150SOL    HW219350   4.946   7.019   6.662
 6151SOL     OW19351   4.261   0.571   5.294
 6151SOL    HW119352   4.237   0.661   5.332
 6151SOL    HW219353   4.247   0.501   5.364
 6152SOL     OW19354   6.108   3.586   6.412
 6152SOL    HW119355   6.192   3.578   6.359
 6152SOL    HW219356   6.124   3.646   6.491
 6153SOL     OW19357   3.848   5.807   5.466
 6153SOL    HW119358   3.852   5.738   5.394
 6153SOL    HW219359   3.811   5.892   5.429
 6154SOL     OW19360   5.208   2.697   3.532
 6154SOL    HW119361   5.111   2.692   3.557
 6154SOL    HW219362   5.225   2.782   3.482
 6155SOL     OW19363   3.202   4.948   4.785
 6155SOL    HW119364   3.114   4.920   4.824
 6155SOL    HW219365   3.276   4.925   4.849
 6156SOL     OW19366   5.456   0.614   4.332
 6156SOL    HW119367   5.493   0.521   4.327
 6156SOL    HW219368   5.382   0.615   4.400
 6157SOL     OW19369   1.405   0.432   4.581
 6157SOL    HW119370   1.371   0.341   4.557
 6157SOL    HW219371   1.352   0.469   4.657
 6158SOL     OW19372   4.853   6.101   0.356
 6158SOL    HW119373   4.788   6.119   0.430
 6158SOL    HW219374   4.858   6.002   0.339
 6159SOL     OW19375   4.488   3.588   6.587
 6159SOL    HW119376   4.401   3.589   6.635
 6159SOL    HW219377   4.563   3.602   6.652
 6160SOL     OW19378   6.135   4.914   0.634
 6160SOL    HW119379   6.069   4.851   0.595
 6160SOL    HW219380   6.111   5.008   0.607
 6161SOL     OW19381   5.011   0.713   6.654
 6161SOL    HW119382   5.110   0.711   6.667
 6161SOL    HW219383   4.981   0.632   6.604
 6162SOL     OW19384   5.419   5.717   3.789
 6162SOL    HW119385   5.348   5.688   3.853
 6162SOL    HW219386   5.377   5.757   3.708
 6163SOL     OW19387   0.161   3.958   3.187
 6163SOL    HW119388   0.240   3.945   3.127
 6163SOL    HW219389   0.186   4.022   3.260
 6164SOL     OW19390   4.796   3.082   0.649
 6164SOL    HW119391   4.707   3.067   0.606
 6164SOL    HW219392   4.851   3.142   0.590
 6165SOL     OW19393   3.361   0.246   1.382
 6165SOL    HW119394   3.334   0.293   1.298
 6165SOL    HW219395   3.460   0.233   1.382
 6166SOL     OW19396   3.336   0.477   0.877
 6166SOL    HW119397   3.291   0.566   0.864
 6166SOL    HW219398   3.433   0.485   0.852
 6167SOL     OW19399   0.400   5.242   3.221
 6167SOL    HW119400   0.365   5.152   3.199
 6167SOL    HW219401   0.497   5.247   3.198
 6168SOL     OW19402   0.121   2.004   1.675
 6168SOL    HW119403   0.050   1.940   1.704
 6168SOL    HW219404   0.202   1.953   1.646
 6169SOL     OW19405   1.784   3.905   1.275
 6169SOL    HW119406   1.877   3.879   1.302
 6169SOL    HW219407   1.789   3.968   1.197
 6170SOL     OW19408   6.027   2.051   4.421
 6170SOL    HW119409   6.038   2.055   4.321
 6170SOL    HW219410   6.092   1.984   4.458
 6171SOL     OW19411   6.504   2.518   6.445
 6171SOL    HW119412   6.603   2.525   6.445
 6171SOL    HW219413   6.472   2.497   6.352
 6172SOL     OW19414   0.046   4.357   3.397
 6172SOL    HW119415   7.005   4.291   3.438
 6172SOL    HW219416   0.085   4.415   3.469
 6173SOL     OW19417   5.601   5.904   2.373
 6173SOL    HW119418   5.599   5.828   2.438
 6173SOL    HW219419   5.634   5.986   2.419
 6174SOL     OW19420   0.603   1.800   3.611
 6174SOL    HW119421   0.663   1.880   3.617
 6174SOL    HW219422   0.576   1.770   3.702
 6175SOL     OW19423   4.842   2.101   6.574
 6175SOL    HW119424   4.789   2.183   6.553
 6175SOL    HW219425   4.907   2.122   6.648
 6176SOL     OW19426   2.327   5.415   6.032
 6176SOL    HW119427   2.369   5.406   6.122
 6176SOL    HW219428   2.299   5.325   6.000
 6177SOL     OW19429   6.001   5.178   1.499
 6177SOL    HW119430   5.981   5.268   1.537
 6177SOL    HW219431   5.939   5.160   1.422
 6178SOL     OW19432   4.249   4.420   1.727
 6178SOL    HW119433   4.273   4.496   1.788
 6178SOL    HW219434   4.294   4.337   1.760
 6179SOL     OW19435   4.823   5.464   4.460
 6179SOL    HW119436   4.751   5.429   4.521
 6179SOL    HW219437   4.790   5.545   4.413
 6180SOL     OW19438   1.448   3.518   6.191
 6180SOL    HW119439   1.497   3.580   6.130
 6180SOL    HW219440   1.506   3.439   6.211
 6181SOL     OW19441   0.119   6.854   6.597
 6181SOL    HW119442   0.160   6.897   6.517
 6181SOL    HW219443   0.086   6.925   6.660
 6182SOL     OW19444   2.754   2.746   5.874
 6182SOL    HW119445   2.723   2.790   5.790
 6182SOL    HW219446   2.788   2.654   5.854
 6183SOL     OW19447   0.157   0.626   0.962
 6183SOL    HW119448   0.152   0.580   0.873
 6183SOL    HW219449   0.252   0.653   0.980
 6184SOL     OW19450   3.685   6.545   5.366
 6184SOL    HW119451   3.587   6.527   5.374
 6184SOL    HW219452   3.734   6.494   5.437
 6185SOL     OW19453   3.311   3.019   3.086
 6185SOL    HW119454   3.400   3.022   3.040
 6185SOL    HW219455   3.322   2.978   3.177
 6186SOL     OW19456   0.648   1.221   2.233
 6186SOL    HW119457   0.580   1.271   2.286
 6186SOL    HW219458   0.646   1.252   2.138
 6187SOL     OW19459   3.839   2.436   6.096
 6187SOL    HW119460   3.800   2.522   6.063
 6187SOL    HW219461   3.769   2.364   6.093
 6188SOL     OW19462   0.918   1.652   5.681
 6188SOL    HW119463   0.899   1.664   5.779
 6188SOL    HW219464   0.858   1.581   5.644
 6189SOL     OW19465   6.895   5.246   0.810
 6189SOL    HW119466   6.824   5.315   0.821
 6189SOL    HW219467   6.862   5.158   0.843
 6190SOL     OW19468   1.263   2.946   3.564
 6190SOL    HW119469   1.302   2.884   3.632
 6190SOL    HW219470   1.335   2.975   3.501
 6191SOL     OW19471   2.159   5.186   6.860
 6191SOL    HW119472   2.219   5.264   6.845
 6191SOL    HW219473   2.186   5.111   6.800
 6192SOL     OW19474   2.958   1.480   0.858
 6192SOL    HW119475   2.971   1.552   0.926
 6192SOL    HW219476   3.046   1.437   0.838
 6193SOL     OW19477   4.845   5.344   0.115
 6193SOL    HW119478   4.863   5.291   0.031
 6193SOL    HW219479   4.876   5.438   0.101
 6194SOL     OW19480   5.178   6.745   6.119
 6194SOL    HW119481   5.138   6.758   6.210
 6194SOL    HW219482   5.165   6.649   6.092
 6195SOL     OW19483   5.455   5.227   5.537
 6195SOL    HW119484   5.367   5.268   5.562
 6195SOL    HW219485   5.441   5.156   5.468
 6196SOL     OW19486   6.909   3.767   3.496
 6196SOL    HW119487   6.812   3.784   3.476
 6196SOL    HW219488   6.934   3.676   3.463
 6197SOL     OW19489   0.127   5.495   1.474
 6197SOL    HW119490   0.191   5.421   1.495
 6197SOL    HW219491   0.178   5.575   1.444
 6198SOL     OW19492   6.308   2.216   5.784
 6198SOL    HW119493   6.223   2.268   5.792
 6198SOL    HW219494   6.287   2.119   5.773
 6199SOL     OW19495   2.185   0.100   5.896
 6199SOL    HW119496   2.124   0.023   5.877
 6199SOL    HW219497   2.232   0.085   5.983
 6200SOL     OW19498   1.478   6.480   6.911
 6200SOL    HW119499   1.395   6.501   6.859
 6200SOL    HW219500   1.551   6.455   6.849
 6201SOL     OW19501   1.233   4.986   3.497
 6201SOL    HW119502   1.170   5.019   3.568
 6201SOL    HW219503   1.186   4.985   3.409
 6202SOL     OW19504   4.970   1.885   1.927
 6202SOL    HW119505   4.982   1.795   1.884
 6202SOL    HW219506   4.915   1.943   1.867
 6203SOL     OW19507   0.455   0.898   2.617
 6203SOL    HW119508   0.381   0.903   2.551
 6203SOL    HW219509   0.422   0.930   2.706
 6204SOL     OW19510   1.190   5.871   4.381
 6204SOL    HW119511   1.149   5.952   4.422
 6204SOL    HW219512   1.133   5.791   4.401
 6205SOL     OW19513   0.301   4.524   3.445
 6205SOL    HW119514   0.287   4.615   3.405
 6205SOL    HW219515   0.291   4.455   3.374
 6206SOL     OW19516   5.229   2.385   4.042
 6206SOL    HW119517   5.271   2.368   3.953
 6206SOL    HW219518   5.291   2.439   4.099
 6207SOL     OW19519   1.855   6.004   3.280
 6207SOL    HW119520   1.902   5.916   3.280
 6207SOL    HW219521   1.826   6.027   3.373
 6208SOL     OW19522   4.152   4.430   6.370
 6208SOL    HW119523   4.144   4.331   6.366
 6208SOL    HW219524   4.169   4.459   6.464
 6209SOL     OW19525   3.128   0.874   2.498
 6209SOL    HW119526   3.179   0.810   2.556
 6209SOL    HW219527   3.036   0.886   2.536
 6210SOL     OW19528   5.258   0.124   4.379
 6210SOL    HW119529   5.274   0.030   4.348
 6210SOL    HW219530   5.248   0.125   4.478
 6211SOL     OW19531   4.845   2.816   5.518
 6211SOL    HW119532   4.745   2.805   5.518
 6211SOL    HW219533   4.868   2.913   5.516
 6212SOL     OW19534   4.817   3.916   4.542
 6212SOL    HW119535   4.774   3.852   4.606
 6212SOL    HW219536   4.899   3.875   4.504
 6213SOL     OW19537   5.212   5.752   0.690
 6213SOL    HW119538   5.274   5.732   0.615
 6213SOL    HW219539   5.137   5.810   0.657
 6214SOL     OW19540   6.855   6.657   6.114
 6214SOL    HW119541   6.887   6.748   6.085
 6214SOL    HW219542   6.817   6.609   6.036
 6215SOL     OW19543   5.207   3.087   5.579
 6215SOL    HW119544   5.166   3.168   5.621
 6215SOL    HW219545   5.136   3.018   5.562
 6216SOL     OW19546   5.707   2.573   6.452
 6216SOL    HW119547   5.664   2.517   6.523
 6216SOL    HW219548   5.662   2.662   6.449
 6217SOL     OW19549   0.280   4.159   2.319
 6217SOL    HW119550   0.352   4.145   2.251
 6217SOL    HW219551   0.307   4.233   2.381
 6218SOL     OW19552   4.877   6.456   1.616
 6218SOL    HW119553   4.815   6.440   1.539
 6218SOL    HW219554   4.878   6.375   1.674
 6219SOL     OW19555   1.954   0.484   6.947
 6219SOL    HW119556   1.986   0.429   0.003
 6219SOL    HW219557   1.983   0.579   6.960
 6220SOL     OW19558   2.155   0.876   2.674
 6220SOL    HW119559   2.113   0.905   2.588
 6220SOL    HW219560   2.254   0.881   2.666
 6221SOL     OW19561   4.220   5.289   5.511
 6221SOL    HW119562   4.151   5.237   5.460
 6221SOL    HW219563   4.248   5.238   5.592
 6222SOL     OW19564   0.685   1.089   1.742
 6222SOL    HW119565   0.776   1.085   1.782
 6222SOL    HW219566   0.665   1.182   1.713
 6223SOL     OW19567   6.690   5.168   3.599
 6223SOL    HW119568   6.616   5.101   3.603
 6223SOL    HW219569   6.762   5.133   3.539
 6224SOL     OW19570   4.248   0.204   0.347
 6224SOL    HW119571   4.236   0.113   0.307
 6224SOL    HW219572   4.159   0.239   0.377
 6225SOL     OW19573   5.905   5.055   6.546
 6225SOL    HW119574   5.868   4.964   6.527
 6225SOL    HW219575   5.989   5.069   6.495
 6226SOL     OW19576   1.593   1.298   3.339
 6226SOL    HW119577   1.581   1.388   3.380
 6226SOL    HW219578   1.660   1.304   3.265
 6227SOL     OW19579   1.655   4.720   5.949
 6227SOL    HW119580   1.750   4.693   5.962
 6227SOL    HW219581   1.640   4.746   5.854
 6228SOL     OW19582   1.169   3.832   3.668
 6228SOL    HW119583   1.169   3.734   3.688
 6228SOL    HW219584   1.120   3.847   3.582
 6229SOL     OW19585   0.300   5.165   4.184
 6229SOL    HW119586   0.265   5.200   4.097
 6229SOL    HW219587   0.398   5.148   4.176
 6230SOL     OW19588   1.419   1.015   0.419
 6230SOL    HW119589   1.350   1.077   0.381
 6230SOL    HW219590   1.418   1.020   0.519
 6231SOL     OW19591   1.340   5.704   5.619
 6231SOL    HW119592   1.307   5.641   5.549
 6231SOL    HW219593   1.424   5.748   5.588
 6232SOL     OW19594   3.609   0.924   6.160
 6232SOL    HW119595   3.585   0.850   6.223
 6232SOL    HW219596   3.568   1.010   6.191
 6233SOL     OW19597   6.888   4.322   1.389
 6233SOL    HW119598   6.792   4.334   1.364
 6233SOL    HW219599   6.939   4.285   1.311
 6234SOL     OW19600   5.016   4.915   2.510
 6234SOL    HW119601   4.993   4.845   2.442
 6234SOL    HW219602   5.084   4.978   2.472
 6235SOL     OW19603   0.754   1.272   0.992
 6235SOL    HW119604   0.854   1.281   0.996
 6235SOL    HW219605   0.727   1.235   0.903
 6236SOL     OW19606   5.819   6.412   1.792
 6236SOL    HW119607   5.914   6.429   1.819
 6236SOL    HW219608   5.760   6.483   1.830
 6237SOL     OW19609   4.014   0.875   3.469
 6237SOL    HW119610   4.030   0.944   3.398
 6237SOL    HW219611   4.055   0.788   3.442
 6238SOL     OW19612   2.362   6.176   3.039
 6238SOL    HW119613   2.366   6.247   2.969
 6238SOL    HW219614   2.350   6.218   3.129
 6239SOL     OW19615   4.538   1.153   4.140
 6239SOL    HW119616   4.454   1.106   4.166
 6239SOL    HW219617   4.516   1.238   4.093
 6240SOL     OW19618   4.022   3.599   4.148
 6240SOL    HW119619   3.942   3.659   4.151
 6240SOL    HW219620   3.996   3.508   4.118
 6241SOL     OW19621   3.796   0.672   2.780
 6241SOL    HW119622   3.843   0.675   2.692
 6241SOL    HW219623   3.721   0.606   2.776
 6242SOL     OW19624   3.350   1.889   4.411
 6242SOL    HW119625   3.304   1.977   4.415
 6242SOL    HW219626   3.441   1.896   4.452
 6243SOL     OW19627   3.329   0.679   0.137
 6243SOL    HW119628   3.371   0.590   0.126
 6243SOL    HW219629   3.362   0.721   0.222
 6244SOL     OW19630   5.150   2.478   1.647
 6244SOL    HW119631   5.240   2.482   1.604
 6244SOL    HW219632   5.138   2.557   1.707
 6245SOL     OW19633   6.918   5.064   1.584
 6245SOL    HW119634   7.017   5.071   1.592
 6245SOL    HW219635   6.892   4.972   1.556
 6246SOL     OW19636   1.017   6.302   5.191
 6246SOL    HW119637   0.978   6.316   5.282
 6246SOL    HW219638   0.999   6.208   5.163
 6247SOL     OW19639   5.300   4.654   2.257
 6247SOL    HW119640   5.311   4.639   2.355
 6247SOL    HW219641   5.233   4.588   2.221
 6248SOL     OW19642   4.687   2.460   5.983
 6248SOL    HW119643   4.787   2.462   5.991
 6248SOL    HW219644   4.659   2.373   5.942
 6249SOL     OW19645   5.779   2.330   3.607
 6249SOL    HW119646   5.726   2.248   3.586
 6249SOL    HW219647   5.855   2.307   3.667
 6250SOL     OW19648   4.910   7.002   5.269
 6250SOL    HW119649   4.981   6.996   5.340
 6250SOL    HW219650   4.833   6.943   5.294
 6251SOL     OW19651   2.890   1.129   4.155
 6251SOL    HW119652   2.984   1.159   4.137
 6251SOL    HW219653   2.842   1.118   4.068
 6252SOL     OW19654   2.069   4.776   6.917
 6252SOL    HW119655   2.089   4.686   6.879
 6252SOL    HW219656   1.977   4.804   6.888
 6253SOL     OW19657   4.820   6.275   4.109
 6253SOL    HW119658   4.723   6.293   4.090
 6253SOL    HW219659   4.872   6.284   4.024
 6254SOL     OW19660   6.652   6.730   1.716
 6254SOL    HW119661   6.628   6.640   1.753
 6254SOL    HW219662   6.749   6.748   1.734
 6255SOL     OW19663   2.878   6.808   1.341
 6255SOL    HW119664   2.895   6.715   1.373
 6255SOL    HW219665   2.793   6.810   1.289
 6256SOL     OW19666   0.109   4.217   2.095
 6256SOL    HW119667   0.160   4.160   2.160
 6256SOL    HW219668   0.039   4.269   2.144
 6257SOL     OW19669   4.029   3.853   0.262
 6257SOL    HW119670   4.119   3.859   0.305
 6257SOL    HW219671   3.961   3.897   0.321
 6258SOL     OW19672   4.262   5.205   4.318
 6258SOL    HW119673   4.181   5.255   4.350
 6258SOL    HW219674   4.258   5.193   4.219
 6259SOL     OW19675   5.234   6.865   4.530
 6259SOL    HW119676   5.208   6.878   4.625
 6259SOL    HW219677   5.180   6.791   4.490
 6260SOL     OW19678   3.210   2.160   0.142
 6260SOL    HW119679   3.177   2.094   0.075
 6260SOL    HW219680   3.278   2.220   0.099
 6261SOL     OW19681   4.509   6.053   1.231
 6261SOL    HW119682   4.423   6.084   1.272
 6261SOL    HW219683   4.526   5.958   1.257
 6262SOL     OW19684   5.887   1.718   4.056
 6262SOL    HW119685   5.856   1.636   4.007
 6262SOL    HW219686   5.811   1.753   4.111
 6263SOL     OW19687   6.806   6.254   6.001
 6263SOL    HW119688   6.720   6.207   5.981
 6263SOL    HW219689   6.789   6.327   6.068
 6264SOL     OW19690   0.757   6.801   0.693
 6264SOL    HW119691   0.745   6.820   0.596
 6264SOL    HW219692   0.849   6.829   0.721
 6265SOL     OW19693   4.055   6.373   6.577
 6265SOL    HW119694   4.144   6.347   6.539
 6265SOL    HW219695   3.984   6.352   6.510
 6266SOL     OW19696   2.667   5.072   3.701
 6266SOL    HW119697   2.672   5.130   3.620
 6266SOL    HW219698   2.749   5.015   3.706
 6267SOL     OW19699   0.197   6.758   4.387
 6267SOL    HW119700   0.146   6.675   4.407
 6267SOL    HW219701   0.194   6.776   4.288
 6268SOL     OW19702   2.879   2.387   0.485
 6268SOL    HW119703   2.919   2.368   0.396
 6268SOL    HW219704   2.930   2.338   0.556
 6269SOL     OW19705   0.863   5.466   0.763
 6269SOL    HW119706   0.771   5.468   0.722
 6269SOL    HW219707   0.928   5.511   0.702
 6270SOL     OW19708   1.753   6.101   0.900
 6270SOL    HW119709   1.750   6.189   0.853
 6270SOL    HW219710   1.668   6.087   0.951
 6271SOL     OW19711   6.637   3.185   5.207
 6271SOL    HW119712   6.628   3.130   5.290
 6271SOL    HW219713   6.658   3.125   5.130
 6272SOL     OW19714   6.632   0.635   0.305
 6272SOL    HW119715   6.562   0.570   0.277
 6272SOL    HW219716   6.628   0.648   0.404
 6273SOL     OW19717   0.717   6.619   2.911
 6273SOL    HW119718   0.756   6.569   2.989
 6273SOL    HW219719   0.696   6.555   2.838
 6274SOL     OW19720   3.160   5.912   4.285
 6274SOL    HW119721   3.183   6.003   4.317
 6274SOL    HW219722   3.061   5.905   4.274
 6275SOL     OW19723   3.140   5.458   1.355
 6275SOL    HW119724   3.137   5.380   1.418
 6275SOL    HW219725   3.084   5.532   1.391
 6276SOL     OW19726   2.043   4.343   2.587
 6276SOL    HW119727   2.117   4.278   2.574
 6276SOL    HW219728   2.018   4.347   2.684
 6277SOL     OW19729   5.531   1.882   1.254
 6277SOL    HW119730   5.476   1.914   1.177
 6277SOL    HW219731   5.516   1.942   1.333
 6278SOL     OW19732   4.219   2.861   0.166
 6278SOL    HW119733   4.263   2.792   0.108
 6278SOL    HW219734   4.161   2.920   0.110
 6279SOL     OW19735   1.058   6.082   1.631
 6279SOL    HW119736   1.095   6.082   1.724
 6279SOL    HW219737   0.969   6.037   1.630
 6280SOL     OW19738   4.885   0.751   6.889
 6280SOL    HW119739   4.787   0.744   6.871
 6280SOL    HW219740   4.934   0.768   6.803
 6281SOL     OW19741   5.935   3.679   6.008
 6281SOL    HW119742   5.925   3.648   5.914
 6281SOL    HW219743   5.934   3.779   6.010
 6282SOL     OW19744   6.817   4.782   6.244
 6282SOL    HW119745   6.810   4.867   6.192
 6282SOL    HW219746   6.739   4.775   6.307
 6283SOL     OW19747   3.262   6.494   4.446
 6283SOL    HW119748   3.203   6.438   4.387
 6283SOL    HW219749   3.353   6.454   4.450
 6284SOL     OW19750   2.219   4.742   5.780
 6284SOL    HW119751   2.267   4.828   5.800
 6284SOL    HW219752   2.264   4.667   5.829
 6285SOL     OW19753   1.747   4.884   4.114
 6285SOL    HW119754   1.648   4.895   4.121
 6285SOL    HW219755   1.769   4.830   4.033
 6286SOL     OW19756   0.774   3.305   6.806
 6286SOL    HW119757   0.830   3.368   6.754
 6286SOL    HW219758   0.677   3.328   6.793
 6287SOL     OW19759   3.731   5.327   4.468
 6287SOL    HW119760   3.677   5.356   4.389
 6287SOL    HW219761   3.688   5.359   4.552
 6288SOL     OW19762   2.945   4.172   5.772
 6288SOL    HW119763   2.886   4.097   5.803
 6288SOL    HW219764   3.002   4.141   5.696
 6289SOL     OW19765   2.794   5.774   5.889
 6289SOL    HW119766   2.727   5.794   5.818
 6289SOL    HW219767   2.783   5.679   5.919
 6290SOL     OW19768   6.576   0.739   3.239
 6290SOL    HW119769   6.528   0.655   3.263
 6290SOL    HW219770   6.530   0.784   3.163
 6291SOL     OW19771   3.021   3.126   1.919
 6291SOL    HW119772   3.033   3.140   2.017
 6291SOL    HW219773   3.110   3.133   1.873
 6292SOL     OW19774   0.768   4.055   4.644
 6292SOL    HW119775   0.855   4.103   4.633
 6292SOL    HW219776   0.700   4.118   4.680
 6293SOL     OW19777   3.184   1.855   0.697
 6293SOL    HW119778   3.172   1.786   0.626
 6293SOL    HW219779   3.262   1.829   0.756
 6294SOL     OW19780   0.384   0.593   1.943
 6294SOL    HW119781   0.315   0.645   1.894
 6294SOL    HW219782   0.470   0.644   1.946
 6295SOL     OW19783   4.517   3.139   5.710
 6295SOL    HW119784   4.433   3.102   5.748
 6295SOL    HW219785   4.595   3.084   5.742
 6296SOL     OW19786   6.760   2.396   0.580
 6296SOL    HW119787   6.687   2.362   0.521
 6296SOL    HW219788   6.847   2.394   0.530
 6297SOL     OW19789   0.868   1.847   4.847
 6297SOL    HW119790   0.786   1.872   4.796
 6297SOL    HW219791   0.887   1.916   4.916
 6298SOL     OW19792   0.271   1.185   5.908
 6298SOL    HW119793   0.202   1.114   5.895
 6298SOL    HW219794   0.278   1.241   5.825
 6299SOL     OW19795   3.387   1.826   3.798
 6299SOL    HW119796   3.371   1.744   3.853
 6299SOL    HW219797   3.369   1.805   3.702
 6300SOL     OW19798   2.661   2.118   0.627
 6300SOL    HW119799   2.606   2.201   0.631
 6300SOL    HW219800   2.612   2.043   0.670
 6301SOL     OW19801   4.637   5.779   1.053
 6301SOL    HW119802   4.641   5.873   1.020
 6301SOL    HW219803   4.665   5.717   0.979
 6302SOL     OW19804   1.852   3.381   0.722
 6302SOL    HW119805   1.877   3.429   0.806
 6302SOL    HW219806   1.863   3.443   0.644
 6303SOL     OW19807   6.432   5.015   5.551
 6303SOL    HW119808   6.406   4.941   5.488
 6303SOL    HW219809   6.513   5.061   5.517
 6304SOL     OW19810   2.095   2.662   4.852
 6304SOL    HW119811   2.074   2.566   4.874
 6304SOL    HW219812   2.109   2.713   4.937
 6305SOL     OW19813   1.534   6.380   5.153
 6305SOL    HW119814   1.444   6.345   5.125
 6305SOL    HW219815   1.604   6.344   5.092
 6306SOL     OW19816   2.045   4.257   4.108
 6306SOL    HW119817   1.972   4.234   4.044
 6306SOL    HW219818   2.134   4.237   4.067
 6307SOL     OW19819   3.688   3.139   2.020
 6307SOL    HW119820   3.777   3.102   1.992
 6307SOL    HW219821   3.694   3.173   2.114
 6308SOL     OW19822   1.570   0.904   1.426
 6308SOL    HW119823   1.503   0.834   1.450
 6308SOL    HW219824   1.626   0.925   1.507
 6309SOL     OW19825   2.206   5.791   4.916
 6309SOL    HW119826   2.159   5.780   4.829
 6309SOL    HW219827   2.213   5.888   4.939
 6310SOL     OW19828   1.049   6.678   2.468
 6310SOL    HW119829   1.147   6.695   2.458
 6310SOL    HW219830   1.022   6.692   2.564
 6311SOL     OW19831   5.122   0.932   5.905
 6311SOL    HW119832   5.094   0.997   5.976
 6311SOL    HW219833   5.220   0.941   5.889
 6312SOL     OW19834   4.216   4.774   1.445
 6312SOL    HW119835   4.310   4.809   1.439
 6312SOL    HW219836   4.152   4.848   1.426
 6313SOL     OW19837   5.767   5.547   3.129
 6313SOL    HW119838   5.682   5.590   3.161
 6313SOL    HW219839   5.777   5.565   3.031
 6314SOL     OW19840   2.042   5.411   2.866
 6314SOL    HW119841   1.979   5.464   2.810
 6314SOL    HW219842   2.108   5.364   2.808
 6315SOL     OW19843   1.877   2.650   3.800
 6315SOL    HW119844   1.946   2.666   3.728
 6315SOL    HW219845   1.923   2.641   3.888
 6316SOL     OW19846   4.882   0.731   5.651
 6316SOL    HW119847   4.925   0.677   5.724
 6316SOL    HW219848   4.787   0.701   5.639
 6317SOL     OW19849   4.773   4.552   3.372
 6317SOL    HW119850   4.836   4.518   3.441
 6317SOL    HW219851   4.687   4.578   3.416
 6318SOL     OW19852   5.842   6.100   0.305
 6318SOL    HW119853   5.791   6.020   0.272
 6318SOL    HW219854   5.932   6.102   0.263
 6319SOL     OW19855   5.327   1.935   4.041
 6319SOL    HW119856   5.343   2.011   4.105
 6319SOL    HW219857   5.280   1.861   4.088
 6320SOL     OW19858   6.095   2.802   6.689
 6320SOL    HW119859   6.162   2.865   6.729
 6320SOL    HW219860   6.130   2.766   6.603
 6321SOL     OW19861   0.280   3.078   6.793
 6321SOL    HW119862   0.249   3.028   6.874
 6321SOL    HW219863   0.348   3.146   6.820
 6322SOL     OW19864   2.073   0.927   2.425
 6322SOL    HW119865   2.008   0.881   2.365
 6322SOL    HW219866   2.128   0.991   2.372
 6323SOL     OW19867   1.502   6.023   0.618
 6323SOL    HW119868   1.601   6.009   0.617
 6323SOL    HW219869   1.457   5.939   0.590
 6324SOL     OW19870   5.406   4.282   2.331
 6324SOL    HW119871   5.390   4.297   2.233
 6324SOL    HW219872   5.403   4.184   2.350
 6325SOL     OW19873   0.869   3.376   3.836
 6325SOL    HW119874   0.880   3.284   3.799
 6325SOL    HW219875   0.773   3.390   3.861
 6326SOL     OW19876   5.780   5.573   4.694
 6326SOL    HW119877   5.716   5.576   4.770
 6326SOL    HW219878   5.815   5.665   4.677
 6327SOL     OW19879   0.612   0.781   1.922
 6327SOL    HW119880   0.704   0.765   1.888
 6327SOL    HW219881   0.596   0.880   1.929
 6328SOL     OW19882   3.945   3.696   4.656
 6328SOL    HW119883   3.988   3.690   4.566
 6328SOL    HW219884   3.874   3.766   4.654
 6329SOL     OW19885   6.938   3.187   4.557
 6329SOL    HW119886   6.842   3.188   4.529
 6329SOL    HW219887   6.973   3.093   4.552
 6330SOL     OW19888   4.323   1.576   3.309
 6330SOL    HW119889   4.270   1.516   3.367
 6330SOL    HW219890   4.400   1.615   3.361
 6331SOL     OW19891   1.471   2.429   3.738
 6331SOL    HW119892   1.535   2.502   3.761
 6331SOL    HW219893   1.514   2.366   3.673
 6332SOL     OW19894   4.534   1.414   0.461
 6332SOL    HW119895   4.518   1.343   0.529
 6332SOL    HW219896   4.456   1.477   0.459
 6333SOL     OW19897   6.327   2.013   0.228
 6333SOL    HW119898   6.232   2.043   0.233
 6333SOL    HW219899   6.386   2.092   0.213
 6334SOL     OW19900   2.815   1.222   2.531
 6334SOL    HW119901   2.844   1.318   2.530
 6334SOL    HW219902   2.816   1.186   2.438
 6335SOL     OW19903   6.118   2.159   5.412
 6335SOL    HW119904   6.186   2.089   5.393
 6335SOL    HW219905   6.044   2.119   5.467
 6336SOL     OW19906   0.922   5.755   5.854
 6336SOL    HW119907   0.838   5.718   5.814
 6336SOL    HW219908   0.900   5.834   5.911
 6337SOL     OW19909   6.474   0.440   5.965
 6337SOL    HW119910   6.569   0.432   5.997
 6337SOL    HW219911   6.465   0.393   5.877
 6338SOL     OW19912   0.994   1.024   2.141
 6338SOL    HW119913   0.910   1.011   2.194
 6338SOL    HW219914   0.975   1.011   2.044
 6339SOL     OW19915   0.066   4.573   3.760
 6339SOL    HW119916   0.063   4.481   3.799
 6339SOL    HW219917   0.161   4.597   3.738
 6340SOL     OW19918   2.860   5.623   6.643
 6340SOL    HW119919   2.900   5.533   6.628
 6340SOL    HW219920   2.925   5.694   6.616
 6341SOL     OW19921   1.033   4.440   3.067
 6341SOL    HW119922   0.951   4.383   3.069
 6341SOL    HW219923   1.098   4.409   3.136
 6342SOL     OW19924   2.733   6.888   1.088
 6342SOL    HW119925   2.634   6.898   1.082
 6342SOL    HW219926   2.765   6.834   1.009
 6343SOL     OW19927   1.908   3.424   0.109
 6343SOL    HW119928   1.881   3.334   0.075
 6343SOL    HW219929   1.964   3.471   0.040
 6344SOL     OW19930   2.321   0.646   3.872
 6344SOL    HW119931   2.325   0.618   3.776
 6344SOL    HW219932   2.287   0.740   3.877
 6345SOL     OW19933   0.327   3.554   4.082
 6345SOL    HW119934   0.279   3.592   4.162
 6345SOL    HW219935   0.260   3.518   4.018
 6346SOL     OW19936   0.887   4.196   4.146
 6346SOL    HW119937   0.950   4.258   4.193
 6346SOL    HW219938   0.796   4.239   4.141
 6347SOL     OW19939   1.716   1.433   2.303
 6347SOL    HW119940   1.686   1.439   2.207
 6347SOL    HW219941   1.693   1.518   2.351
 6348SOL     OW19942   0.707   2.364   0.284
 6348SOL    HW119943   0.769   2.400   0.215
 6348SOL    HW219944   0.673   2.438   0.342
 6349SOL     OW19945   5.933   1.047   0.713
 6349SOL    HW119946   5.980   0.959   0.702
 6349SOL    HW219947   5.993   1.111   0.762
 6350SOL     OW19948   6.674   0.204   1.465
 6350SOL    HW119949   6.671   0.230   1.562
 6350SOL    HW219950   6.714   0.278   1.412
 6351SOL     OW19951   6.740   2.106   2.705
 6351SOL    HW119952   6.836   2.122   2.686
 6351SOL    HW219953   6.711   2.161   2.783
 6352SOL     OW19954   3.571   0.540   5.036
 6352SOL    HW119955   3.570   0.640   5.044
 6352SOL    HW219956   3.537   0.513   4.946
 6353SOL     OW19957   3.782   6.267   5.411
 6353SOL    HW119958   3.854   6.318   5.458
 6353SOL    HW219959   3.715   6.235   5.478
 6354SOL     OW19960   6.216   4.982   3.355
 6354SOL    HW119961   6.274   5.056   3.324
 6354SOL    HW219962   6.233   4.964   3.452
 6355SOL     OW19963   4.287   6.298   0.235
 6355SOL    HW119964   4.384   6.318   0.222
 6355SOL    HW219965   4.274   6.199   0.240
 6356SOL     OW19966   0.249   0.004   6.366
 6356SOL    HW119967   0.328   0.063   6.377
 6356SOL    HW219968   0.227   7.016   6.269
 6357SOL     OW19969   4.870   1.933   3.563
 6357SOL    HW119970   4.964   1.903   3.575
 6357SOL    HW219971   4.868   2.008   3.495
 6358SOL     OW19972   1.578   0.721   4.432
 6358SOL    HW119973   1.604   0.772   4.350
 6358SOL    HW219974   1.660   0.684   4.476
 6359SOL     OW19975   6.954   4.562   1.178
 6359SOL    HW119976   6.858   4.565   1.208
 6359SOL    HW219977   7.013   4.583   1.256
 6360SOL     OW19978   2.958   2.827   0.455
 6360SOL    HW119979   2.892   2.754   0.473
 6360SOL    HW219980   2.965   2.841   0.357
 6361SOL     OW19981   0.535   1.449   2.969
 6361SOL    HW119982   0.579   1.465   2.881
 6361SOL    HW219983   0.518   1.537   3.014
 6362SOL     OW19984   2.203   4.969   0.022
 6362SOL    HW119985   2.142   4.907   6.995
 6362SOL    HW219986   2.223   5.048   6.986
 6363SOL     OW19987   0.496   1.666   1.681
 6363SOL    HW119988   0.576   1.675   1.622
 6363SOL    HW219989   0.445   1.584   1.656
 6364SOL     OW19990   2.725   1.818   3.378
 6364SOL    HW119991   2.669   1.831   3.297
 6364SOL    HW219992   2.810   1.771   3.353
 6365SOL     OW19993   5.855   0.010   2.040
 6365SOL    HW119994   5.909   7.013   1.958
 6365SOL    HW219995   5.778   0.069   2.018
 6366SOL     OW19996   6.472   1.681   5.354
 6366SOL    HW119997   6.452   1.733   5.271
 6366SOL    HW219998   6.500   1.588   5.330
 6367SOL     OW19999   1.985   3.312   4.393
 6367SOL    HW120000   2.029   3.333   4.306
 6367SOL    HW220001   1.898   3.361   4.400
 6368SOL     OW20002   5.490   3.265   5.038
 6368SOL    HW120003   5.449   3.345   5.082
 6368SOL    HW220004   5.419   3.198   5.017
 6369SOL     OW20005   3.005   4.264   0.896
 6369SOL    HW120006   3.091   4.311   0.915
 6369SOL    HW220007   3.010   4.169   0.927
 6370SOL     OW20008   6.164   3.207   5.034
 6370SOL    HW120009   6.157   3.193   5.133
 6370SOL    HW220010   6.260   3.214   5.008
 6371SOL     OW20011   6.080   4.296   1.450
 6371SOL    HW120012   6.149   4.287   1.522
 6371SOL    HW220013   6.092   4.384   1.403
 6372SOL     OW20014   5.602   1.818   2.067
 6372SOL    HW120015   5.547   1.897   2.095
 6372SOL    HW220016   5.636   1.831   1.974
 6373SOL     OW20017   5.486   1.940   1.572
 6373SOL    HW120018   5.577   1.928   1.611
 6373SOL    HW220019   5.434   1.855   1.581
 6374SOL     OW20020   3.603   3.260   6.383
 6374SOL    HW120021   3.581   3.340   6.439
 6374SOL    HW220022   3.615   3.288   6.287
 6375SOL     OW20023   5.307   1.440   2.284
 6375SOL    HW120024   5.273   1.533   2.272
 6375SOL    HW220025   5.245   1.375   2.239
 6376SOL     OW20026   3.431   6.490   6.942
 6376SOL    HW120027   3.524   6.498   6.977
 6376SOL    HW220028   3.377   6.433   7.003
 6377SOL     OW20029   6.984   1.961   0.307
 6377SOL    HW120030   0.055   1.952   0.341
 6377SOL    HW220031   6.955   1.873   0.267
 6378SOL     OW20032   6.208   4.089   2.364
 6378SOL    HW120033   6.207   4.180   2.322
 6378SOL    HW220034   6.168   4.095   2.455
 6379SOL     OW20035   2.252   4.531   6.622
 6379SOL    HW120036   2.232   4.464   6.694
 6379SOL    HW220037   2.227   4.622   6.653
 6380SOL     OW20038   2.096   2.816   4.267
 6380SOL    HW120039   2.108   2.908   4.306
 6380SOL    HW220040   2.177   2.761   4.284
 6381SOL     OW20041   3.619   4.693   0.406
 6381SOL    HW120042   3.718   4.701   0.401
 6381SOL    HW220043   3.577   4.771   0.359
 6382SOL     OW20044   1.938   1.131   1.067
 6382SOL    HW120045   2.021   1.159   1.117
 6382SOL    HW220046   1.953   1.143   0.969
 6383SOL     OW20047   3.089   1.579   2.102
 6383SOL    HW120048   3.102   1.619   2.011
 6383SOL    HW220049   2.991   1.565   2.119
 6384SOL     OW20050   0.597   1.327   1.942
 6384SOL    HW120051   0.610   1.312   1.844
 6384SOL    HW220052   0.606   1.424   1.963
 6385SOL     OW20053   0.499   3.644   1.601
 6385SOL    HW120054   0.496   3.729   1.654
 6385SOL    HW220055   0.407   3.611   1.585
 6386SOL     OW20056   3.037   4.918   1.096
 6386SOL    HW120057   2.956   4.865   1.123
 6386SOL    HW220058   3.047   4.915   0.997
 6387SOL     OW20059   6.275   1.660   5.937
 6387SOL    HW120060   6.314   1.577   5.899
 6387SOL    HW220061   6.328   1.688   6.017
 6388SOL     OW20062   6.810   4.886   2.206
 6388SOL    HW120063   6.849   4.910   2.117
 6388SOL    HW220064   6.727   4.941   2.221
 6389SOL     OW20065   6.935   0.574   0.483
 6389SOL    HW120066   7.011   0.553   0.545
 6389SOL    HW220067   6.879   0.647   0.523
 6390SOL     OW20068   4.244   5.818   0.698
 6390SOL    HW120069   4.306   5.829   0.777
 6390SOL    HW220070   4.275   5.876   0.623
 6391SOL     OW20071   0.921   1.666   4.589
 6391SOL    HW120072   1.006   1.700   4.548
 6391SOL    HW220073   0.900   1.719   4.671
 6392SOL     OW20074   4.325   6.538   2.930
 6392SOL    HW120075   4.251   6.494   2.981
 6392SOL    HW220076   4.367   6.609   2.987
 6393SOL     OW20077   2.047   4.245   0.411
 6393SOL    HW120078   1.963   4.226   0.359
 6393SOL    HW220079   2.116   4.281   0.348
 6394SOL     OW20080   1.598   5.217   1.880
 6394SOL    HW120081   1.604   5.316   1.872
 6394SOL    HW220082   1.670   5.174   1.824
 6395SOL     OW20083   0.997   3.375   5.212
 6395SOL    HW120084   1.020   3.299   5.151
 6395SOL    HW220085   0.920   3.426   5.174
 6396SOL     OW20086   1.103   3.447   3.943
 6396SOL    HW120087   1.018   3.399   3.920
 6396SOL    HW220088   1.082   3.525   4.002
 6397SOL     OW20089   1.137   3.675   4.926
 6397SOL    HW120090   1.210   3.742   4.938
 6397SOL    HW220091   1.066   3.713   4.867
 6398SOL     OW20092   0.072   0.148   2.181
 6398SOL    HW120093   0.126   0.211   2.125
 6398SOL    HW220094   0.087   0.054   2.148
 6399SOL     OW20095   2.438   6.776   6.020
 6399SOL    HW120096   2.354   6.744   5.976
 6399SOL    HW220097   2.512   6.711   6.000
 6400SOL     OW20098   1.775   0.106   2.561
 6400SOL    HW120099   1.839   0.089   2.636
 6400SOL    HW220100   1.783   0.032   2.494
 6401SOL     OW20101   4.055   4.845   1.085
 6401SOL    HW120102   4.047   4.887   1.176
 6401SOL    HW220103   4.070   4.746   1.096
 6402SOL     OW20104   3.677   3.403   6.839
 6402SOL    HW120105   3.678   3.321   6.895
 6402SOL    HW220106   3.701   3.482   6.895
 6403SOL     OW20107   3.460   5.210   6.254
 6403SOL    HW120108   3.484   5.303   6.282
 6403SOL    HW220109   3.390   5.174   6.314
 6404SOL     OW20110   5.160   6.624   6.715
 6404SOL    HW120111   5.114   6.685   6.779
 6404SOL    HW220112   5.245   6.589   6.756
 6405SOL     OW20113   4.161   0.824   3.733
 6405SOL    HW120114   4.166   0.724   3.739
 6405SOL    HW220115   4.140   0.850   3.639
 6406SOL     OW20116   0.228   3.299   2.094
 6406SOL    HW120117   0.142   3.284   2.142
 6406SOL    HW220118   0.220   3.267   1.999
 6407SOL     OW20119   1.155   6.953   2.827
 6407SOL    HW120120   1.156   7.015   2.748
 6407SOL    HW220121   1.205   6.995   2.903
 6408SOL     OW20122   0.995   6.726   2.745
 6408SOL    HW120123   1.065   6.792   2.773
 6408SOL    HW220124   0.914   6.736   2.802
 6409SOL     OW20125   6.513   4.388   3.763
 6409SOL    HW120126   6.600   4.342   3.781
 6409SOL    HW220127   6.527   4.487   3.761
 6410SOL     OW20128   2.220   0.400   6.799
 6410SOL    HW120129   2.292   0.382   6.866
 6410SOL    HW220130   2.240   0.485   6.750
 6411SOL     OW20131   1.540   1.975   4.283
 6411SOL    HW120132   1.630   1.933   4.272
 6411SOL    HW220133   1.487   1.966   4.199
 6412SOL     OW20134   5.015   0.483   0.218
 6412SOL    HW120135   4.963   0.398   0.230
 6412SOL    HW220136   5.092   0.466   0.157
 6413SOL     OW20137   4.484   6.114   3.408
 6413SOL    HW120138   4.513   6.075   3.321
 6413SOL    HW220139   4.548   6.086   3.480
 6414SOL     OW20140   3.313   0.166   0.052
 6414SOL    HW120141   3.383   0.210   7.017
 6414SOL    HW220142   3.291   0.076   0.014
 6415SOL     OW20143   0.353   1.589   3.654
 6415SOL    HW120144   0.445   1.598   3.691
 6415SOL    HW220145   0.358   1.554   3.561
 6416SOL     OW20146   2.266   4.429   0.349
 6416SOL    HW120147   2.323   4.407   0.429
 6416SOL    HW220148   2.258   4.528   0.340
 6417SOL     OW20149   4.560   2.936   5.247
 6417SOL    HW120150   4.497   3.009   5.276
 6417SOL    HW220151   4.650   2.976   5.227
 6418SOL     OW20152   4.821   5.949   0.032
 6418SOL    HW120153   4.760   6.026   0.049
 6418SOL    HW220154   4.844   5.945   6.956
 6419SOL     OW20155   1.457   6.884   6.857
 6419SOL    HW120156   1.441   6.829   6.775
 6419SOL    HW220157   1.372   6.933   6.881
 6420SOL     OW20158   3.008   5.154   3.668
 6420SOL    HW120159   3.099   5.185   3.698
 6420SOL    HW220160   3.018   5.095   3.588
 6421SOL     OW20161   4.401   6.398   1.830
 6421SOL    HW120162   4.431   6.307   1.856
 6421SOL    HW220163   4.326   6.427   1.889
 6422SOL     OW20164   1.138   1.136   5.928
 6422SOL    HW120165   1.083   1.205   5.882
 6422SOL    HW220166   1.141   1.155   6.026
 6423SOL     OW20167   0.855   3.535   3.626
 6423SOL    HW120168   0.801   3.618   3.641
 6423SOL    HW220169   0.857   3.481   3.710
 6424SOL     OW20170   5.788   4.351   5.933
 6424SOL    HW120171   5.788   4.403   6.018
 6424SOL    HW220172   5.714   4.283   5.935
 6425SOL     OW20173   0.937   6.908   4.079
 6425SOL    HW120174   0.887   6.909   4.166
 6425SOL    HW220175   0.996   6.828   4.075
 6426SOL     OW20176   3.871   5.156   4.008
 6426SOL    HW120177   3.771   5.161   4.016
 6426SOL    HW220178   3.911   5.245   4.029
 6427SOL     OW20179   3.008   3.375   2.599
 6427SOL    HW120180   2.965   3.357   2.511
 6427SOL    HW220181   2.996   3.295   2.658
 6428SOL     OW20182   6.948   4.128   6.326
 6428SOL    HW120183   6.948   4.041   6.374
 6428SOL    HW220184   6.857   4.170   6.333
 6429SOL     OW20185   2.977   1.635   4.581
 6429SOL    HW120186   2.902   1.571   4.600
 6429SOL    HW220187   2.940   1.723   4.552
 6430SOL     OW20188   6.242   1.327   4.347
 6430SOL    HW120189   6.232   1.426   4.342
 6430SOL    HW220190   6.286   1.302   4.433
 6431SOL     OW20191   3.557   5.054   3.081
 6431SOL    HW120192   3.588   5.021   3.170
 6431SOL    HW220193   3.486   4.993   3.045
 6432SOL     OW20194   3.388   3.676   0.296
 6432SOL    HW120195   3.484   3.647   0.297
 6432SOL    HW220196   3.383   3.769   0.260
 6433SOL     OW20197   3.889   5.650   6.343
 6433SOL    HW120198   3.826   5.630   6.418
 6433SOL    HW220199   3.983   5.639   6.375
 6434SOL     OW20200   6.598   5.198   6.803
 6434SOL    HW120201   6.554   5.248   6.877
 6434SOL    HW220202   6.640   5.262   6.739
 6435SOL     OW20203   4.382   0.384   0.711
 6435SOL    HW120204   4.312   0.313   0.708
 6435SOL    HW220205   4.341   0.471   0.737
 6436SOL     OW20206   1.158   1.373   3.649
 6436SOL    HW120207   1.079   1.409   3.601
 6436SOL    HW220208   1.185   1.437   3.722
 6437SOL     OW20209   1.441   3.185   0.069
 6437SOL    HW120210   1.357   3.238   0.071
 6437SOL    HW220211   1.419   3.087   0.071
 6438SOL     OW20212   1.359   5.584   1.811
 6438SOL    HW120213   1.278   5.604   1.756
 6438SOL    HW220214   1.409   5.669   1.829
 6439SOL     OW20215   4.044   6.125   2.929
 6439SOL    HW120216   3.950   6.122   2.962
 6439SOL    HW220217   4.096   6.193   2.982
 6440SOL     OW20218   2.378   1.846   5.343
 6440SOL    HW120219   2.322   1.919   5.303
 6440SOL    HW220220   2.447   1.886   5.402
 6441SOL     OW20221   1.226   1.102   2.237
 6441SOL    HW120222   1.250   1.030   2.302
 6441SOL    HW220223   1.134   1.086   2.202
 6442SOL     OW20224   2.990   1.916   4.043
 6442SOL    HW120225   2.956   1.847   3.979
 6442SOL    HW220226   3.043   1.985   3.992
 6443SOL     OW20227   2.435   1.361   6.320
 6443SOL    HW120228   2.446   1.306   6.237
 6443SOL    HW220229   2.365   1.431   6.305
 6444SOL     OW20230   6.597   4.065   5.695
 6444SOL    HW120231   6.518   4.023   5.739
 6444SOL    HW220232   6.616   4.018   5.609
 6445SOL     OW20233   3.331   2.963   3.342
 6445SOL    HW120234   3.249   2.983   3.395
 6445SOL    HW220235   3.401   2.924   3.403
 6446SOL     OW20236   0.263   0.418   1.509
 6446SOL    HW120237   0.219   0.506   1.529
 6446SOL    HW220238   0.331   0.430   1.437
 6447SOL     OW20239   0.898   3.998   2.188
 6447SOL    HW120240   0.899   4.097   2.205
 6447SOL    HW220241   0.841   3.978   2.108
 6448SOL     OW20242   3.758   4.198   1.686
 6448SOL    HW120243   3.786   4.111   1.725
 6448SOL    HW220244   3.832   4.265   1.697
 6449SOL     OW20245   4.311   6.543   7.006
 6449SOL    HW120246   4.381   6.554   0.055
 6449SOL    HW220247   4.224   6.518   0.026
 6450SOL     OW20248   4.527   3.643   0.733
 6450SOL    HW120249   4.523   3.722   0.672
 6450SOL    HW220250   4.482   3.565   0.690
 6451SOL     OW20251   4.439   3.353   1.237
 6451SOL    HW120252   4.438   3.391   1.329
 6451SOL    HW220253   4.505   3.402   1.181
 6452SOL     OW20254   4.608   1.477   3.845
 6452SOL    HW120255   4.659   1.414   3.904
 6452SOL    HW220256   4.523   1.503   3.891
 6453SOL     OW20257   2.885   0.579   2.703
 6453SOL    HW120258   2.856   0.509   2.769
 6453SOL    HW220259   2.980   0.562   2.678
 6454SOL     OW20260   4.558   3.399   5.599
 6454SOL    HW120261   4.487   3.449   5.647
 6454SOL    HW220262   4.554   3.302   5.623
 6455SOL     OW20263   0.082   3.204   5.949
 6455SOL    HW120264   0.030   3.149   5.882
 6455SOL    HW220265   0.028   3.284   5.975
 6456SOL     OW20266   6.014   2.265   3.772
 6456SOL    HW120267   6.055   2.351   3.741
 6456SOL    HW220268   6.013   2.262   3.872
 6457SOL     OW20269   1.800   6.309   2.938
 6457SOL    HW120270   1.786   6.374   2.864
 6457SOL    HW220271   1.785   6.354   3.026
 6458SOL     OW20272   1.190   6.909   4.658
 6458SOL    HW120273   1.205   6.811   4.642
 6458SOL    HW220274   1.278   6.955   4.670
 6459SOL     OW20275   0.094   3.198   3.739
 6459SOL    HW120276   0.056   3.289   3.725
 6459SOL    HW220277   0.193   3.201   3.731
 6460SOL     OW20278   1.566   5.583   5.813
 6460SOL    HW120279   1.534   5.604   5.905
 6460SOL    HW220280   1.549   5.661   5.753
 6461SOL     OW20281   6.298   0.592   2.264
 6461SOL    HW120282   6.272   0.540   2.183
 6461SOL    HW220283   6.272   0.542   2.346
 6462SOL     OW20284   2.867   4.137   5.432
 6462SOL    HW120285   2.914   4.106   5.349
 6462SOL    HW220286   2.774   4.100   5.434
 6463SOL     OW20287   4.719   3.469   1.787
 6463SOL    HW120288   4.741   3.416   1.868
 6463SOL    HW220289   4.621   3.491   1.786
 6464SOL     OW20290   0.726   3.590   3.282
 6464SOL    HW120291   0.732   3.639   3.369
 6464SOL    HW220292   0.655   3.631   3.225
 6465SOL     OW20293   2.688   1.026   2.656
 6465SOL    HW120294   2.717   1.117   2.626
 6465SOL    HW220295   2.589   1.018   2.647
 6466SOL     OW20296   6.380   5.035   6.745
 6466SOL    HW120297   6.318   5.112   6.736
 6466SOL    HW220298   6.475   5.067   6.740
 6467SOL     OW20299   3.084   3.338   6.307
 6467SOL    HW120300   3.006   3.340   6.245
 6467SOL    HW220301   3.166   3.314   6.257
 6468SOL     OW20302   0.687   1.321   6.519
 6468SOL    HW120303   0.606   1.325   6.460
 6468SOL    HW220304   0.768   1.307   6.463
 6469SOL     OW20305   3.171   0.897   0.937
 6469SOL    HW120306   3.169   0.959   1.016
 6469SOL    HW220307   3.265   0.884   0.907
 6470SOL     OW20308   5.904   1.086   6.653
 6470SOL    HW120309   5.933   1.022   6.582
 6470SOL    HW220310   5.818   1.054   6.693
 6471SOL     OW20311   0.341   6.845   4.862
 6471SOL    HW120312   0.342   6.833   4.961
 6471SOL    HW220313   0.252   6.818   4.826
 6472SOL     OW20314   1.061   6.309   0.863
 6472SOL    HW120315   1.132   6.284   0.929
 6472SOL    HW220316   1.064   6.248   0.784
 6473SOL     OW20317   3.346   1.555   3.256
 6473SOL    HW120318   3.289   1.598   3.325
 6473SOL    HW220319   3.327   1.457   3.253
 6474SOL     OW20320   4.378   0.144   4.696
 6474SOL    HW120321   4.412   0.223   4.746
 6474SOL    HW220322   4.440   0.121   4.622
 6475SOL     OW20323   5.424   5.509   4.474
 6475SOL    HW120324   5.392   5.432   4.419
 6475SOL    HW220325   5.524   5.514   4.472
 6476SOL     OW20326   5.382   4.459   4.250
 6476SOL    HW120327   5.451   4.444   4.320
 6476SOL    HW220328   5.353   4.555   4.251
 6477SOL     OW20329   0.705   0.260   0.850
 6477SOL    HW120330   0.745   0.206   0.776
 6477SOL    HW220331   0.654   0.336   0.810
 6478SOL     OW20332   1.979   6.869   0.243
 6478SOL    HW120333   2.021   6.778   0.237
 6478SOL    HW220334   2.003   6.923   0.163
 6479SOL     OW20335   4.692   5.235   4.978
 6479SOL    HW120336   4.716   5.188   5.063
 6479SOL    HW220337   4.612   5.293   4.993
 6480SOL     OW20338   2.714   0.295   4.453
 6480SOL    HW120339   2.801   0.246   4.445
 6480SOL    HW220340   2.644   0.233   4.490
 6481SOL     OW20341   4.191   3.775   1.265
 6481SOL    HW120342   4.270   3.801   1.320
 6481SOL    HW220343   4.176   3.843   1.194
 6482SOL     OW20344   5.508   3.322   4.275
 6482SOL    HW120345   5.602   3.336   4.246
 6482SOL    HW220346   5.457   3.408   4.266
 6483SOL     OW20347   1.805   6.492   5.569
 6483SOL    HW120348   1.847   6.570   5.523
 6483SOL    HW220349   1.872   6.449   5.630
 6484SOL     OW20350   3.467   0.690   3.952
 6484SOL    HW120351   3.544   0.629   3.970
 6484SOL    HW220352   3.493   0.785   3.971
 6485SOL     OW20353   2.627   5.388   5.151
 6485SOL    HW120354   2.575   5.361   5.233
 6485SOL    HW220355   2.711   5.434   5.179
 6486SOL     OW20356   6.765   3.553   2.782
 6486SOL    HW120357   6.743   3.534   2.878
 6486SOL    HW220358   6.809   3.642   2.775
 6487SOL     OW20359   6.016   6.061   4.602
 6487SOL    HW120360   5.938   6.050   4.663
 6487SOL    HW220361   6.043   5.972   4.566
 6488SOL     OW20362   3.420   5.355   2.608
 6488SOL    HW120363   3.396   5.386   2.700
 6488SOL    HW220364   3.479   5.423   2.564
 6489SOL     OW20365   7.010   4.500   5.281
 6489SOL    HW120366   7.015   4.424   5.345
 6489SOL    HW220367   6.917   4.508   5.245
 6490SOL     OW20368   2.011   3.288   5.968
 6490SOL    HW120369   2.079   3.308   6.038
 6490SOL    HW220370   2.030   3.199   5.927
 6491SOL     OW20371   0.720   6.674   2.044
 6491SOL    HW120372   0.641   6.679   1.983
 6491SOL    HW220373   0.707   6.737   2.121
 6492SOL     OW20374   4.163   3.420   2.895
 6492SOL    HW120375   4.106   3.343   2.867
 6492SOL    HW220376   4.173   3.420   2.995
 6493SOL     OW20377   2.683   5.074   4.031
 6493SOL    HW120378   2.627   5.051   4.110
 6493SOL    HW220379   2.715   4.990   3.987
 6494SOL     OW20380   6.128   1.432   2.035
 6494SOL    HW120381   6.147   1.403   1.942
 6494SOL    HW220382   6.107   1.352   2.091
 6495SOL     OW20383   6.884   5.853   2.753
 6495SOL    HW120384   6.880   5.953   2.763
 6495SOL    HW220385   6.794   5.818   2.727
 6496SOL     OW20386   2.733   2.784   1.213
 6496SOL    HW120387   2.804   2.786   1.143
 6496SOL    HW220388   2.754   2.850   1.285
 6497SOL     OW20389   0.026   3.310   0.886
 6497SOL    HW120390   0.016   3.212   0.867
 6497SOL    HW220391   6.972   3.340   0.945
 6498SOL     OW20392   2.804   4.893   4.614
 6498SOL    HW120393   2.812   4.814   4.554
 6498SOL    HW220394   2.709   4.924   4.617
 6499SOL     OW20395   5.317   1.695   3.015
 6499SOL    HW120396   5.411   1.666   2.992
 6499SOL    HW220397   5.305   1.791   2.990
 6500SOL     OW20398   1.888   3.729   2.800
 6500SOL    HW120399   1.958   3.793   2.768
 6500SOL    HW220400   1.853   3.677   2.722
 6501SOL     OW20401   6.176   0.469   2.795
 6501SOL    HW120402   6.231   0.396   2.756
 6501SOL    HW220403   6.114   0.506   2.724
 6502SOL     OW20404   0.732   2.908   3.175
 6502SOL    HW120405   0.724   3.005   3.199
 6502SOL    HW220406   0.790   2.899   3.094
 6503SOL     OW20407   1.045   3.250   5.782
 6503SOL    HW120408   0.973   3.301   5.828
 6503SOL    HW220409   1.032   3.255   5.683
 6504SOL     OW20410   3.993   6.529   5.979
 6504SOL    HW120411   3.986   6.617   6.026
 6504SOL    HW220412   4.046   6.540   5.895
 6505SOL     OW20413   0.653   6.955   0.071
 6505SOL    HW120414   0.729   7.016   0.092
 6505SOL    HW220415   0.580   7.006   0.026
 6506SOL     OW20416   1.550   5.386   2.174
 6506SOL    HW120417   1.523   5.290   2.168
 6506SOL    HW220418   1.555   5.425   2.082
 6507SOL     OW20419   5.445   5.319   0.641
 6507SOL    HW120420   5.493   5.232   0.633
 6507SOL    HW220421   5.466   5.361   0.729
 6508SOL     OW20422   6.793   1.359   4.427
 6508SOL    HW120423   6.854   1.438   4.439
 6508SOL    HW220424   6.805   1.296   4.504
 6509SOL     OW20425   2.833   1.747   6.291
 6509SOL    HW120426   2.879   1.829   6.257
 6509SOL    HW220427   2.735   1.752   6.271
 6510SOL     OW20428   4.244   4.749   4.344
 6510SOL    HW120429   4.190   4.808   4.284
 6510SOL    HW220430   4.278   4.671   4.293
 6511SOL     OW20431   3.652   3.184   6.995
 6511SOL    HW120432   3.566   3.204   0.019
 6511SOL    HW220433   3.639   3.106   6.933
 6512SOL     OW20434   5.310   1.477   2.548
 6512SOL    HW120435   5.246   1.552   2.563
 6512SOL    HW220436   5.313   1.454   2.451
 6513SOL     OW20437   3.307   4.250   1.226
 6513SOL    HW120438   3.218   4.266   1.270
 6513SOL    HW220439   3.380   4.265   1.292
 6514SOL     OW20440   5.728   5.540   5.436
 6514SOL    HW120441   5.776   5.596   5.369
 6514SOL    HW220442   5.660   5.595   5.483
 6515SOL     OW20443   0.533   4.633   2.126
 6515SOL    HW120444   0.610   4.682   2.168
 6515SOL    HW220445   0.475   4.699   2.078
 6516SOL     OW20446   5.915   1.277   3.768
 6516SOL    HW120447   5.996   1.335   3.769
 6516SOL    HW220448   5.868   1.287   3.680
 6517SOL     OW20449   0.054   3.721   1.383
 6517SOL    HW120450   7.018   3.802   1.387
 6517SOL    HW220451   0.140   3.743   1.336
 6518SOL     OW20452   1.236   1.644   2.904
 6518SOL    HW120453   1.136   1.651   2.907
 6518SOL    HW220454   1.268   1.598   2.987
 6519SOL     OW20455   2.537   1.842   3.145
 6519SOL    HW120456   2.539   1.771   3.075
 6519SOL    HW220457   2.510   1.929   3.103
 6520SOL     OW20458   5.576   6.951   6.681
 6520SOL    HW120459   5.478   6.937   6.696
 6520SOL    HW220460   5.620   6.978   6.767
 6521SOL     OW20461   2.021   4.847   4.492
 6521SOL    HW120462   2.007   4.882   4.400
 6521SOL    HW220463   2.092   4.901   4.538
 6522SOL     OW20464   2.417   3.233   5.338
 6522SOL    HW120465   2.355   3.193   5.405
 6522SOL    HW220466   2.436   3.166   5.266
 6523SOL     OW20467   4.682   6.752   0.771
 6523SOL    HW120468   4.585   6.733   0.784
 6523SOL    HW220469   4.735   6.668   0.786
 6524SOL     OW20470   3.669   2.358   1.134
 6524SOL    HW120471   3.665   2.442   1.187
 6524SOL    HW220472   3.675   2.280   1.195
 6525SOL     OW20473   3.461   5.246   3.519
 6525SOL    HW120474   3.553   5.232   3.483
 6525SOL    HW220475   3.447   5.188   3.599
 6526SOL     OW20476   6.430   6.633   0.430
 6526SOL    HW120477   6.459   6.696   0.358
 6526SOL    HW220478   6.349   6.671   0.476
 6527SOL     OW20479   5.355   2.646   0.746
 6527SOL    HW120480   5.314   2.652   0.837
 6527SOL    HW220481   5.303   2.582   0.690
 6528SOL     OW20482   4.516   0.165   0.911
 6528SOL    HW120483   4.497   0.156   0.813
 6528SOL    HW220484   4.595   0.108   0.935
 6529SOL     OW20485   3.186   6.114   1.384
 6529SOL    HW120486   3.126   6.060   1.325
 6529SOL    HW220487   3.130   6.164   1.451
 6530SOL     OW20488   1.016   2.897   4.517
 6530SOL    HW120489   1.004   2.841   4.435
 6530SOL    HW220490   1.111   2.893   4.547
 6531SOL     OW20491   2.934   3.326   4.195
 6531SOL    HW120492   2.883   3.338   4.110
 6531SOL    HW220493   2.960   3.230   4.205
 6532SOL     OW20494   0.565   6.109   7.001
 6532SOL    HW120495   0.560   6.016   6.965
 6532SOL    HW220496   0.544   6.174   6.929
 6533SOL     OW20497   5.848   5.084   1.302
 6533SOL    HW120498   5.910   5.055   1.229
 6533SOL    HW220499   5.780   5.148   1.265
 6534SOL     OW20500   6.286   2.672   4.482
 6534SOL    HW120501   6.242   2.758   4.512
 6534SOL    HW220502   6.233   2.595   4.516
 6535SOL     OW20503   5.328   3.381   6.822
 6535SOL    HW120504   5.309   3.285   6.841
 6535SOL    HW220505   5.409   3.410   6.872
 6536SOL     OW20506   6.778   5.652   5.762
 6536SOL    HW120507   6.873   5.666   5.736
 6536SOL    HW220508   6.745   5.566   5.723
 6537SOL     OW20509   6.721   4.935   3.924
 6537SOL    HW120510   6.792   4.887   3.873
 6537SOL    HW220511   6.752   5.029   3.943
 6538SOL     OW20512   1.224   4.231   3.850
 6538SOL    HW120513   1.136   4.236   3.897
 6538SOL    HW220514   1.260   4.323   3.836
 6539SOL     OW20515   5.767   6.315   5.901
 6539SOL    HW120516   5.742   6.361   5.986
 6539SOL    HW220517   5.693   6.252   5.875
 6540SOL     OW20518   0.675   3.066   5.361
 6540SOL    HW120519   0.679   2.970   5.389
 6540SOL    HW220520   0.681   3.073   5.262
 6541SOL     OW20521   3.553   1.687   6.160
 6541SOL    HW120522   3.500   1.769   6.141
 6541SOL    HW220523   3.604   1.659   6.078
 6542SOL     OW20524   1.843   5.033   1.450
 6542SOL    HW120525   1.933   5.076   1.459
 6542SOL    HW220526   1.852   4.945   1.404
 6543SOL     OW20527   4.216   1.683   3.681
 6543SOL    HW120528   4.139   1.661   3.622
 6543SOL    HW220529   4.300   1.687   3.626
 6544SOL     OW20530   1.044   1.280   0.962
 6544SOL    HW120531   1.061   1.185   0.936
 6544SOL    HW220532   1.085   1.340   0.894
 6545SOL     OW20533   6.478   4.229   0.382
 6545SOL    HW120534   6.445   4.273   0.466
 6545SOL    HW220535   6.473   4.130   0.392
 6546SOL     OW20536   4.276   5.823   4.263
 6546SOL    HW120537   4.253   5.741   4.315
 6546SOL    HW220538   4.351   5.803   4.200
 6547SOL     OW20539   6.708   5.998   4.500
 6547SOL    HW120540   6.643   5.951   4.559
 6547SOL    HW220541   6.750   6.074   4.549
 6548SOL     OW20542   1.801   0.995   4.936
 6548SOL    HW120543   1.892   1.023   4.905
 6548SOL    HW220544   1.772   0.914   4.885
 6549SOL     OW20545   2.301   1.915   1.979
 6549SOL    HW120546   2.373   1.885   2.042
 6549SOL    HW220547   2.230   1.845   1.973
 6550SOL     OW20548   5.672   0.609   2.028
 6550SOL    HW120549   5.584   0.655   2.029
 6550SOL    HW220550   5.689   0.568   2.118
 6551SOL     OW20551   2.232   5.593   1.049
 6551SOL    HW120552   2.262   5.552   0.964
 6551SOL    HW220553   2.293   5.667   1.074
 6552SOL     OW20554   2.249   3.493   6.516
 6552SOL    HW120555   2.275   3.402   6.484
 6552SOL    HW220556   2.170   3.485   6.577
 6553SOL     OW20557   0.509   1.951   3.408
 6553SOL    HW120558   0.556   1.888   3.470
 6553SOL    HW220559   0.520   2.044   3.441
 6554SOL     OW20560   2.623   1.462   4.035
 6554SOL    HW120561   2.697   1.472   4.102
 6554SOL    HW220562   2.661   1.471   3.942
 6555SOL     OW20563   2.120   3.514   1.722
 6555SOL    HW120564   2.102   3.429   1.672
 6555SOL    HW220565   2.185   3.495   1.796
 6556SOL     OW20566   4.775   2.950   3.548
 6556SOL    HW120567   4.784   2.959   3.449
 6556SOL    HW220568   4.720   2.869   3.569
 6557SOL     OW20569   1.802   6.891   2.418
 6557SOL    HW120570   1.841   6.918   2.330
 6557SOL    HW220571   1.869   6.835   2.468
 6558SOL     OW20572   4.756   5.968   0.696
 6558SOL    HW120573   4.837   5.945   0.643
 6558SOL    HW220574   4.678   5.980   0.635
 6559SOL     OW20575   0.253   2.280   6.072
 6559SOL    HW120576   0.316   2.258   6.146
 6559SOL    HW220577   0.161   2.293   6.109
 6560SOL     OW20578   6.880   3.853   6.374
 6560SOL    HW120579   6.845   3.782   6.435
 6560SOL    HW220580   6.884   3.818   6.281
 6561SOL     OW20581   2.620   5.536   6.746
 6561SOL    HW120582   2.605   5.596   6.825
 6561SOL    HW220583   2.709   5.557   6.705
 6562SOL     OW20584   5.151   2.716   0.935
 6562SOL    HW120585   5.129   2.660   1.014
 6562SOL    HW220586   5.068   2.734   0.882
 6563SOL     OW20587   5.866   3.938   5.970
 6563SOL    HW120588   5.785   3.985   6.005
 6563SOL    HW220589   5.874   3.954   5.872
 6564SOL     OW20590   6.153   4.052   2.611
 6564SOL    HW120591   6.243   4.010   2.602
 6564SOL    HW220592   6.083   3.982   2.607
 6565SOL     OW20593   5.454   5.463   1.909
 6565SOL    HW120594   5.498   5.468   1.820
 6565SOL    HW220595   5.507   5.515   1.976
 6566SOL     OW20596   5.615   5.822   5.007
 6566SOL    HW120597   5.714   5.834   5.011
 6566SOL    HW220598   5.572   5.885   5.073
 6567SOL     OW20599   2.537   0.150   2.857
 6567SOL    HW120600   2.566   0.242   2.882
 6567SOL    HW220601   2.552   0.135   2.759
 6568SOL     OW20602   5.290   1.467   1.205
 6568SOL    HW120603   5.191   1.449   1.205
 6568SOL    HW220604   5.339   1.380   1.216
 6569SOL     OW20605   1.248   4.096   3.457
 6569SOL    HW120606   1.169   4.087   3.518
 6569SOL    HW220607   1.332   4.098   3.512
 6570SOL     OW20608   4.253   0.096   2.376
 6570SOL    HW120609   4.261   0.013   2.321
 6570SOL    HW220610   4.293   0.173   2.325
 6571SOL     OW20611   2.195   6.434   3.724
 6571SOL    HW120612   2.141   6.444   3.641
 6571SOL    HW220613   2.290   6.458   3.706
 6572SOL     OW20614   0.634   0.018   4.103
 6572SOL    HW120615   0.643   0.029   4.201
 6572SOL    HW220616   0.701   0.074   4.056
 6573SOL     OW20617   1.202   2.039   3.446
 6573SOL    HW120618   1.259   2.045   3.364
 6573SOL    HW220619   1.250   2.082   3.522
 6574SOL     OW20620   1.697   5.329   1.564
 6574SOL    HW120621   1.597   5.327   1.561
 6574SOL    HW220622   1.731   5.247   1.610
 6575SOL     OW20623   6.859   0.598   4.326
 6575SOL    HW120624   6.904   0.671   4.275
 6575SOL    HW220625   6.876   0.609   4.423
 6576SOL     OW20626   3.938   0.565   3.223
 6576SOL    HW120627   3.990   0.555   3.139
 6576SOL    HW220628   3.849   0.606   3.202
 6577SOL     OW20629   2.832   0.622   5.255
 6577SOL    HW120630   2.810   0.525   5.265
 6577SOL    HW220631   2.766   0.676   5.308
 6578SOL     OW20632   0.856   5.914   0.400
 6578SOL    HW120633   0.852   6.005   0.359
 6578SOL    HW220634   0.775   5.862   0.373
 6579SOL     OW20635   2.390   1.905   2.610
 6579SOL    HW120636   2.489   1.915   2.624
 6579SOL    HW220637   2.374   1.857   2.524
 6580SOL     OW20638   2.930   2.327   6.826
 6580SOL    HW120639   2.949   2.229   6.816
 6580SOL    HW220640   2.966   2.359   6.914
 6581SOL     OW20641   0.814   2.208   2.443
 6581SOL    HW120642   0.833   2.146   2.367
 6581SOL    HW220643   0.841   2.165   2.529
 6582SOL     OW20644   3.615   6.740   3.055
 6582SOL    HW120645   3.707   6.773   3.071
 6582SOL    HW220646   3.593   6.667   3.121
 6583SOL     OW20647   1.815   4.603   0.321
 6583SOL    HW120648   1.742   4.572   0.261
 6583SOL    HW220649   1.786   4.684   0.371
 6584SOL     OW20650   4.715   3.327   5.317
 6584SOL    HW120651   4.669   3.298   5.401
 6584SOL    HW220652   4.681   3.418   5.290
 6585SOL     OW20653   4.896   6.228   1.775
 6585SOL    HW120654   4.824   6.182   1.827
 6585SOL    HW220655   4.985   6.206   1.815
 6586SOL     OW20656   6.460   2.132   6.959
 6586SOL    HW120657   6.361   2.119   6.953
 6586SOL    HW220658   6.484   2.160   0.031
 6587SOL     OW20659   2.729   4.985   4.950
 6587SOL    HW120660   2.764   4.999   4.857
 6587SOL    HW220661   2.765   4.899   4.987
 6588SOL     OW20662   1.676   2.378   0.518
 6588SOL    HW120663   1.743   2.428   0.573
 6588SOL    HW220664   1.616   2.443   0.471
 6589SOL     OW20665   5.842   0.710   0.184
 6589SOL    HW120666   5.869   0.802   0.215
 6589SOL    HW220667   5.922   0.650   0.184
 6590SOL     OW20668   0.536   5.904   4.273
 6590SOL    HW120669   0.606   5.847   4.315
 6590SOL    HW220670   0.494   5.962   4.343
 6591SOL     OW20671   5.939   3.638   3.706
 6591SOL    HW120672   5.977   3.625   3.614
 6591SOL    HW220673   5.910   3.733   3.716
 6592SOL     OW20674   0.595   0.424   4.008
 6592SOL    HW120675   0.601   0.523   4.018
 6592SOL    HW220676   0.573   0.383   4.097
 6593SOL     OW20677   0.437   6.746   3.626
 6593SOL    HW120678   0.510   6.705   3.572
 6593SOL    HW220679   0.371   6.676   3.653
 6594SOL     OW20680   5.451   6.666   6.218
 6594SOL    HW120681   5.456   6.605   6.139
 6594SOL    HW220682   5.356   6.676   6.247
 6595SOL     OW20683   0.646   6.900   4.651
 6595SOL    HW120684   0.585   6.974   4.678
 6595SOL    HW220685   0.604   6.848   4.576
 6596SOL     OW20686   4.600   0.624   3.210
 6596SOL    HW120687   4.571   0.719   3.204
 6596SOL    HW220688   4.700   0.619   3.199
 6597SOL     OW20689   0.818   5.183   1.788
 6597SOL    HW120690   0.779   5.228   1.868
 6597SOL    HW220691   0.798   5.085   1.792
 6598SOL     OW20692   1.817   5.119   1.715
 6598SOL    HW120693   1.842   5.069   1.632
 6598SOL    HW220694   1.898   5.130   1.773
 6599SOL     OW20695   0.328   5.383   0.529
 6599SOL    HW120696   0.260   5.366   0.601
 6599SOL    HW220697   0.285   5.375   0.440
 6600SOL     OW20698   5.068   0.424   4.636
 6600SOL    HW120699   5.110   0.333   4.630
 6600SOL    HW220700   5.079   0.471   4.548
 6601SOL     OW20701   1.173   2.128   3.825
 6601SOL    HW120702   1.215   2.161   3.910
 6601SOL    HW220703   1.234   2.148   3.748
 6602SOL     OW20704   6.456   6.627   0.909
 6602SOL    HW120705   6.402   6.673   0.839
 6602SOL    HW220706   6.541   6.592   0.868
 6603SOL     OW20707   6.855   4.849   2.736
 6603SOL    HW120708   6.925   4.921   2.725
 6603SOL    HW220709   6.765   4.892   2.743
 6604SOL     OW20710   1.969   4.915   3.125
 6604SOL    HW120711   2.021   4.999   3.138
 6604SOL    HW220712   1.875   4.928   3.156
 6605SOL     OW20713   6.832   5.848   0.880
 6605SOL    HW120714   6.903   5.795   0.927
 6605SOL    HW220715   6.870   5.937   0.853
 6606SOL     OW20716   0.807   5.443   3.423
 6606SOL    HW120717   0.831   5.538   3.401
 6606SOL    HW220718   0.889   5.394   3.453
 6607SOL     OW20719   0.587   2.706   4.329
 6607SOL    HW120720   0.629   2.772   4.267
 6607SOL    HW220721   0.605   2.613   4.295
 6608SOL     OW20722   0.966   6.951   5.092
 6608SOL    HW120723   0.907   7.006   5.033
 6608SOL    HW220724   0.986   6.864   5.047
 6609SOL     OW20725   2.319   2.145   6.817
 6609SOL    HW120726   2.339   2.230   6.769
 6609SOL    HW220727   2.385   2.075   6.788
 6610SOL     OW20728   2.924   5.495   0.011
 6610SOL    HW120729   3.015   5.455   0.020
 6610SOL    HW220730   2.881   5.500   0.101
 6611SOL     OW20731   2.760   0.741   4.815
 6611SOL    HW120732   2.812   0.824   4.795
 6611SOL    HW220733   2.669   0.749   4.774
 6612SOL     OW20734   5.815   0.406   6.977
 6612SOL    HW120735   5.877   0.472   6.936
 6612SOL    HW220736   5.849   0.379   0.045
 6613SOL     OW20737   5.525   5.985   0.765
 6613SOL    HW120738   5.555   6.039   0.844
 6613SOL    HW220739   5.489   6.046   0.694
 6614SOL     OW20740   3.982   5.851   1.057
 6614SOL    HW120741   4.005   5.877   0.963
 6614SOL    HW220742   3.887   5.875   1.076
 6615SOL     OW20743   3.515   5.791   5.824
 6615SOL    HW120744   3.521   5.694   5.847
 6615SOL    HW220745   3.447   5.804   5.752
 6616SOL     OW20746   3.971   2.050   0.036
 6616SOL    HW120747   3.947   2.087   0.126
 6616SOL    HW220748   4.068   2.027   0.034
 6617SOL     OW20749   4.267   1.967   4.003
 6617SOL    HW120750   4.195   1.955   3.935
 6617SOL    HW220751   4.236   1.931   4.091
 6618SOL     OW20752   6.001   2.528   3.986
 6618SOL    HW120753   5.962   2.569   3.903
 6618SOL    HW220754   5.992   2.592   4.062
 6619SOL     OW20755   4.799   5.191   3.746
 6619SOL    HW120756   4.757   5.234   3.826
 6619SOL    HW220757   4.739   5.118   3.712
 6620SOL     OW20758   1.443   2.888   4.112
 6620SOL    HW120759   1.396   2.950   4.175
 6620SOL    HW220760   1.542   2.901   4.122
 6621SOL     OW20761   3.582   3.793   3.425
 6621SOL    HW120762   3.596   3.840   3.339
 6621SOL    HW220763   3.486   3.765   3.434
 6622SOL     OW20764   6.962   5.011   1.099
 6622SOL    HW120765   7.011   5.096   1.116
 6622SOL    HW220766   6.881   5.030   1.042
 6623SOL     OW20767   3.469   4.009   3.970
 6623SOL    HW120768   3.567   4.005   3.992
 6623SOL    HW220769   3.416   3.998   4.053
 6624SOL     OW20770   2.579   2.442   2.502
 6624SOL    HW120771   2.620   2.461   2.591
 6624SOL    HW220772   2.650   2.410   2.439
 6625SOL     OW20773   1.019   5.336   6.151
 6625SOL    HW120774   1.109   5.378   6.141
 6625SOL    HW220775   0.958   5.369   6.079
 6626SOL     OW20776   3.333   6.036   6.011
 6626SOL    HW120777   3.400   6.108   5.992
 6626SOL    HW220778   3.369   5.948   5.981
 6627SOL     OW20779   2.533   0.109   4.541
 6627SOL    HW120780   2.584   0.024   4.550
 6627SOL    HW220781   2.436   0.093   4.560
 6628SOL     OW20782   4.251   6.663   3.874
 6628SOL    HW120783   4.186   6.699   3.941
 6628SOL    HW220784   4.329   6.725   3.867
 6629SOL     OW20785   5.417   5.659   5.300
 6629SOL    HW120786   5.449   5.564   5.300
 6629SOL    HW220787   5.389   5.684   5.207
 6630SOL     OW20788   1.676   6.876   0.603
 6630SOL    HW120789   1.620   6.844   0.679
 6630SOL    HW220790   1.702   6.799   0.546
 6631SOL     OW20791   2.272   1.593   5.273
 6631SOL    HW120792   2.299   1.689   5.260
 6631SOL    HW220793   2.178   1.580   5.241
 6632SOL     OW20794   1.201   1.038   5.688
 6632SOL    HW120795   1.171   1.066   5.780
 6632SOL    HW220796   1.180   1.110   5.623
 6633SOL     OW20797   5.173   0.406   5.732
 6633SOL    HW120798   5.091   0.361   5.698
 6633SOL    HW220799   5.158   0.436   5.827
 6634SOL     OW20800   2.795   2.266   4.182
 6634SOL    HW120801   2.853   2.198   4.226
 6634SOL    HW220802   2.758   2.328   4.251
 6635SOL     OW20803   4.247   5.253   6.139
 6635SOL    HW120804   4.176   5.316   6.108
 6635SOL    HW220805   4.217   5.207   6.223
 6636SOL     OW20806   5.074   1.822   1.133
 6636SOL    HW120807   4.982   1.821   1.092
 6636SOL    HW220808   5.113   1.914   1.126
 6637SOL     OW20809   0.170   3.968   0.140
 6637SOL    HW120810   0.141   4.018   0.058
 6637SOL    HW220811   0.265   3.992   0.162
 6638SOL     OW20812   3.399   3.607   4.223
 6638SOL    HW120813   3.471   3.558   4.272
 6638SOL    HW220814   3.354   3.671   4.285
 6639SOL     OW20815   6.292   2.173   3.037
 6639SOL    HW120816   6.264   2.114   2.961
 6639SOL    HW220817   6.354   2.122   3.097
 6640SOL     OW20818   0.322   3.304   4.219
 6640SOL    HW120819   0.346   3.392   4.179
 6640SOL    HW220820   0.379   3.287   4.300
 6641SOL     OW20821   5.810   2.395   0.714
 6641SOL    HW120822   5.776   2.312   0.758
 6641SOL    HW220823   5.746   2.470   0.730
 6642SOL     OW20824   0.593   5.024   6.791
 6642SOL    HW120825   0.522   5.074   6.741
 6642SOL    HW220826   0.611   4.937   6.746
 6643SOL     OW20827   6.434   5.493   5.655
 6643SOL    HW120828   6.446   5.573   5.596
 6643SOL    HW220829   6.337   5.484   5.680
 6644SOL     OW20830   2.095   6.422   3.059
 6644SOL    HW120831   2.057   6.460   3.143
 6644SOL    HW220832   2.020   6.389   3.001
 6645SOL     OW20833   4.705   2.758   5.771
 6645SOL    HW120834   4.692   2.744   5.869
 6645SOL    HW220835   4.633   2.712   5.720
 6646SOL     OW20836   4.310   6.714   5.938
 6646SOL    HW120837   4.212   6.696   5.944
 6646SOL    HW220838   4.325   6.798   5.887
 6647SOL     OW20839   3.362   5.017   0.342
 6647SOL    HW120840   3.307   5.097   0.365
 6647SOL    HW220841   3.387   4.968   0.426
 6648SOL     OW20842   3.313   6.181   4.816
 6648SOL    HW120843   3.314   6.262   4.874
 6648SOL    HW220844   3.310   6.099   4.873
 6649SOL     OW20845   5.558   1.918   5.456
 6649SOL    HW120846   5.501   1.931   5.375
 6649SOL    HW220847   5.506   1.871   5.527
 6650SOL     OW20848   2.868   0.791   4.497
 6650SOL    HW120849   2.898   0.843   4.417
 6650SOL    HW220850   2.864   0.693   4.473
 6651SOL     OW20851   6.134   1.455   3.766
 6651SOL    HW120852   6.201   1.418   3.701
 6651SOL    HW220853   6.103   1.545   3.735
 6652SOL     OW20854   0.017   5.033   6.942
 6652SOL    HW120855   0.008   5.024   0.019
 6652SOL    HW220856   0.003   5.129   6.915
 6653SOL     OW20857   5.503   3.600   6.935
 6653SOL    HW120858   5.599   3.577   6.953
 6653SOL    HW220859   5.494   3.637   6.842
 6654SOL     OW20860   6.696   1.993   3.113
 6654SOL    HW120861   6.786   1.951   3.100
 6654SOL    HW220862   6.634   1.962   3.041
 6655SOL     OW20863   6.324   5.334   1.654
 6655SOL    HW120864   6.229   5.301   1.656
 6655SOL    HW220865   6.347   5.363   1.561
 6656SOL     OW20866   5.948   1.840   2.568
 6656SOL    HW120867   5.943   1.871   2.473
 6656SOL    HW220868   6.044   1.828   2.594
 6657SOL     OW20869   5.330   1.953   3.773
 6657SOL    HW120870   5.421   1.917   3.754
 6657SOL    HW220871   5.294   1.910   3.855
 6658SOL     OW20872   6.234   4.932   3.654
 6658SOL    HW120873   6.135   4.931   3.641
 6658SOL    HW220874   6.272   4.843   3.629
 6659SOL     OW20875   0.670   6.446   0.879
 6659SOL    HW120876   0.613   6.520   0.913
 6659SOL    HW220877   0.647   6.426   0.784
 6660SOL     OW20878   1.717   0.853   3.656
 6660SOL    HW120879   1.682   0.943   3.629
 6660SOL    HW220880   1.813   0.862   3.683
 6661SOL     OW20881   3.734   6.557   3.414
 6661SOL    HW120882   3.663   6.627   3.404
 6661SOL    HW220883   3.697   6.468   3.384
 6662SOL     OW20884   3.795   5.435   1.243
 6662SOL    HW120885   3.832   5.509   1.298
 6662SOL    HW220886   3.756   5.472   1.159
 6663SOL     OW20887   1.677   4.987   5.575
 6663SOL    HW120888   1.694   5.082   5.551
 6663SOL    HW220889   1.659   4.934   5.492
 6664SOL     OW20890   2.827   6.834   1.758
 6664SOL    HW120891   2.789   6.908   1.813
 6664SOL    HW220892   2.873   6.871   1.678
 6665SOL     OW20893   3.031   0.039   0.178
 6665SOL    HW120894   2.948   0.085   0.146
 6665SOL    HW220895   3.110   0.095   0.153
 6666SOL     OW20896   2.841   0.208   0.045
 6666SOL    HW120897   2.844   0.264   6.984
 6666SOL    HW220898   2.806   0.262   0.121
 6667SOL     OW20899   1.582   5.430   0.252
 6667SOL    HW120900   1.643   5.351   0.253
 6667SOL    HW220901   1.637   5.514   0.259
 6668SOL     OW20902   6.748   3.245   5.718
 6668SOL    HW120903   6.718   3.150   5.731
 6668SOL    HW220904   6.799   3.253   5.633
 6669SOL     OW20905   0.654   3.898   3.491
 6669SOL    HW120906   0.669   3.932   3.584
 6669SOL    HW220907   0.572   3.842   3.489
 6670SOL     OW20908   1.917   3.552   0.924
 6670SOL    HW120909   1.991   3.545   0.857
 6670SOL    HW220910   1.956   3.562   1.016
 6671SOL     OW20911   5.615   5.011   0.369
 6671SOL    HW120912   5.611   4.960   0.284
 6671SOL    HW220913   5.576   5.102   0.356
 6672SOL     OW20914   1.862   2.359   1.194
 6672SOL    HW120915   1.797   2.406   1.134
 6672SOL    HW220916   1.905   2.427   1.255
 6673SOL     OW20917   5.623   3.833   4.304
 6673SOL    HW120918   5.660   3.752   4.350
 6673SOL    HW220919   5.575   3.805   4.221
 6674SOL     OW20920   6.241   1.481   6.886
 6674SOL    HW120921   6.213   1.487   6.982
 6674SOL    HW220922   6.173   1.428   6.835
 6675SOL     OW20923   5.564   1.168   0.970
 6675SOL    HW120924   5.644   1.110   0.955
 6675SOL    HW220925   5.514   1.179   0.885
 6676SOL     OW20926   0.528   3.609   5.195
 6676SOL    HW120927   0.523   3.695   5.245
 6676SOL    HW220928   0.524   3.533   5.260
 6677SOL     OW20929   0.483   2.179   0.510
 6677SOL    HW120930   0.533   2.253   0.465
 6677SOL    HW220931   0.475   2.101   0.447
 6678SOL     OW20932   3.299   3.968   0.006
 6678SOL    HW120933   3.290   3.870   7.006
 6678SOL    HW220934   3.256   4.022   6.955
 6679SOL     OW20935   1.443   6.645   3.401
 6679SOL    HW120936   1.525   6.695   3.431
 6679SOL    HW220937   1.403   6.693   3.322
 6680SOL     OW20938   6.149   5.462   1.920
 6680SOL    HW120939   6.073   5.492   1.979
 6680SOL    HW220940   6.212   5.407   1.974
 6681SOL     OW20941   2.922   6.549   0.789
 6681SOL    HW120942   2.990   6.483   0.758
 6681SOL    HW220943   2.833   6.504   0.800
 6682SOL     OW20944   1.982   4.841   6.087
 6682SOL    HW120945   1.966   4.931   6.045
 6682SOL    HW220946   1.949   4.770   6.025
 6683SOL     OW20947   6.489   6.491   6.144
 6683SOL    HW120948   6.572   6.434   6.148
 6683SOL    HW220949   6.415   6.439   6.101
 6684SOL     OW20950   2.905   0.151   5.909
 6684SOL    HW120951   2.938   0.093   5.834
 6684SOL    HW220952   2.807   0.165   5.900
 6685SOL     OW20953   3.935   3.228   0.491
 6685SOL    HW120954   4.000   3.202   0.562
 6685SOL    HW220955   3.954   3.176   0.407
 6686SOL     OW20956   4.023   4.632   5.508
 6686SOL    HW120957   4.056   4.542   5.536
 6686SOL    HW220958   4.100   4.686   5.474
 6687SOL     OW20959   6.983   2.267   1.096
 6687SOL    HW120960   0.019   2.284   1.176
 6687SOL    HW220961   6.890   2.245   1.126
 6688SOL     OW20962   5.671   5.875   0.325
 6688SOL    HW120963   5.604   5.949   0.312
 6688SOL    HW220964   5.632   5.789   0.291
 6689SOL     OW20965   3.728   4.694   5.879
 6689SOL    HW120966   3.712   4.599   5.852
 6689SOL    HW220967   3.824   4.717   5.861
 6690SOL     OW20968   0.603   0.556   0.010
 6690SOL    HW120969   0.621   0.641   6.983
 6690SOL    HW220970   0.586   0.482   6.967
 6691SOL     OW20971   2.441   2.198   2.482
 6691SOL    HW120972   2.493   2.283   2.493
 6691SOL    HW220973   2.359   2.215   2.429
 6692SOL     OW20974   3.954   6.733   2.432
 6692SOL    HW120975   3.943   6.786   2.517
 6692SOL    HW220976   3.893   6.654   2.434
 6693SOL     OW20977   2.971   1.330   5.983
 6693SOL    HW120978   2.993   1.251   5.926
 6693SOL    HW220979   2.937   1.299   6.071
 6694SOL     OW20980   4.687   4.252   1.782
 6694SOL    HW120981   4.608   4.269   1.841
 6694SOL    HW220982   4.669   4.172   1.725
 6695SOL     OW20983   3.117   1.972   6.979
 6695SOL    HW120984   3.036   1.984   0.014
 6695SOL    HW220985   3.139   1.875   6.970
 6696SOL     OW20986   3.666   3.099   5.421
 6696SOL    HW120987   3.706   3.039   5.352
 6696SOL    HW220988   3.736   3.125   5.487
 6697SOL     OW20989   4.320   1.047   2.631
 6697SOL    HW120990   4.271   1.108   2.568
 6697SOL    HW220991   4.298   1.071   2.725
 6698SOL     OW20992   2.586   3.371   1.246
 6698SOL    HW120993   2.670   3.327   1.279
 6698SOL    HW220994   2.509   3.310   1.260
 6699SOL     OW20995   1.586   3.628   5.249
 6699SOL    HW120996   1.562   3.724   5.246
 6699SOL    HW220997   1.685   3.618   5.237
 6700SOL     OW20998   4.759   6.451   1.347
 6700SOL    HW120999   4.801   6.462   1.257
 6700SOL    HW221000   4.697   6.527   1.364
 6701SOL     OW21001   6.469   0.403   1.137
 6701SOL    HW121002   6.419   0.489   1.136
 6701SOL    HW221003   6.519   0.392   1.051
 6702SOL     OW21004   5.034   2.845   1.326
 6702SOL    HW121005   4.992   2.836   1.416
 6702SOL    HW221006   4.964   2.869   1.259
 6703SOL     OW21007   6.882   0.693   1.248
 6703SOL    HW121008   6.956   0.746   1.291
 6703SOL    HW221009   6.915   0.653   1.163
 6704SOL     OW21010   1.864   5.541   6.350
 6704SOL    HW121011   1.960   5.532   6.321
 6704SOL    HW221012   1.861   5.552   6.450
 6705SOL     OW21013   2.014   4.124   2.968
 6705SOL    HW121014   2.022   4.065   3.049
 6705SOL    HW221015   1.918   4.144   2.951
 6706SOL     OW21016   0.435   5.780   1.592
 6706SOL    HW121017   0.531   5.752   1.596
 6706SOL    HW221018   0.390   5.756   1.678
 6707SOL     OW21019   5.516   0.708   2.979
 6707SOL    HW121020   5.586   0.779   2.969
 6707SOL    HW221021   5.426   0.751   2.984
 6708SOL     OW21022   0.268   3.067   1.252
 6708SOL    HW121023   0.168   3.059   1.242
 6708SOL    HW221024   0.309   3.084   1.163
 6709SOL     OW21025   2.251   4.162   2.590
 6709SOL    HW121026   2.263   4.086   2.527
 6709SOL    HW221027   2.252   4.128   2.684
 6710SOL     OW21028   5.023   2.251   1.822
 6710SOL    HW121029   5.049   2.321   1.756
 6710SOL    HW221030   4.968   2.181   1.776
 6711SOL     OW21031   3.996   5.400   6.565
 6711SOL    HW121032   3.930   5.406   6.490
 6711SOL    HW221033   3.991   5.310   6.607
 6712SOL     OW21034   5.828   3.569   0.979
 6712SOL    HW121035   5.900   3.500   0.973
 6712SOL    HW221036   5.870   3.659   0.992
 6713SOL     OW21037   2.638   4.934   4.298
 6713SOL    HW121038   2.545   4.898   4.291
 6713SOL    HW221039   2.699   4.863   4.332
 6714SOL     OW21040   6.309   0.582   3.012
 6714SOL    HW121041   6.249   0.560   2.935
 6714SOL    HW221042   6.368   0.503   3.031
 6715SOL     OW21043   0.519   0.123   4.720
 6715SOL    HW121044   0.549   0.200   4.776
 6715SOL    HW221045   0.419   0.120   4.718
 6716SOL     OW21046   1.979   4.191   1.894
 6716SOL    HW121047   1.978   4.092   1.905
 6716SOL    HW221048   2.024   4.215   1.808
 6717SOL     OW21049   5.832   3.141   5.806
 6717SOL    HW121050   5.910   3.183   5.852
 6717SOL    HW221051   5.754   3.204   5.810
 6718SOL     OW21052   5.298   2.045   0.502
 6718SOL    HW121053   5.277   1.975   0.434
 6718SOL    HW221054   5.234   2.121   0.492
 6719SOL     OW21055   0.841   0.106   0.611
 6719SOL    HW121056   0.911   0.171   0.582
 6719SOL    HW221057   0.885   0.028   0.655
 6720SOL     OW21058   1.808   1.835   4.644
 6720SOL    HW121059   1.794   1.787   4.731
 6720SOL    HW221060   1.798   1.934   4.658
 6721SOL     OW21061   6.662   6.599   0.667
 6721SOL    HW121062   6.628   6.520   0.616
 6721SOL    HW221063   6.762   6.592   0.676
 6722SOL     OW21064   6.899   3.535   1.488
 6722SOL    HW121065   6.808   3.573   1.475
 6722SOL    HW221066   6.967   3.601   1.458
 6723SOL     OW21067   2.397   4.323   3.433
 6723SOL    HW121068   2.325   4.312   3.365
 6723SOL    HW221069   2.372   4.274   3.517
 6724SOL     OW21070   2.213   4.071   5.617
 6724SOL    HW121071   2.124   4.026   5.622
 6724SOL    HW221072   2.273   4.021   5.555
 6725SOL     OW21073   4.567   2.629   3.334
 6725SOL    HW121074   4.580   2.709   3.274
 6725SOL    HW221075   4.530   2.553   3.281
 6726SOL     OW21076   0.226   1.225   0.433
 6726SOL    HW121077   0.312   1.250   0.479
 6726SOL    HW221078   0.156   1.293   0.454
 6727SOL     OW21079   1.141   5.811   5.357
 6727SOL    HW121080   1.086   5.794   5.275
 6727SOL    HW221081   1.197   5.731   5.377
 6728SOL     OW21082   3.961   2.004   5.638
 6728SOL    HW121083   3.896   1.928   5.643
 6728SOL    HW221084   4.007   2.015   5.727
 6729SOL     OW21085   4.377   1.769   2.311
 6729SOL    HW121086   4.439   1.714   2.368
 6729SOL    HW221087   4.415   1.777   2.219
 6730SOL     OW21088   6.460   2.237   1.304
 6730SOL    HW121089   6.412   2.289   1.375
 6730SOL    HW221090   6.537   2.188   1.345
 6731SOL     OW21091   4.157   0.433   5.849
 6731SOL    HW121092   4.191   0.524   5.826
 6731SOL    HW221093   4.070   0.441   5.897
 6732SOL     OW21094   6.515   4.472   6.256
 6732SOL    HW121095   6.427   4.498   6.296
 6732SOL    HW221096   6.588   4.526   6.296
 6733SOL     OW21097   5.841   4.664   6.259
 6733SOL    HW121098   5.765   4.605   6.230
 6733SOL    HW221099   5.928   4.617   6.245
 6734SOL     OW21100   5.510   2.268   4.822
 6734SOL    HW121101   5.426   2.320   4.807
 6734SOL    HW221102   5.552   2.247   4.734
 6735SOL     OW21103   5.135   2.272   4.716
 6735SOL    HW121104   5.145   2.210   4.638
 6735SOL    HW221105   5.102   2.219   4.795
 6736SOL     OW21106   4.127   3.167   0.676
 6736SOL    HW121107   4.076   3.227   0.738
 6736SOL    HW221108   4.138   3.077   0.717
 6737SOL     OW21109   5.805   2.612   1.771
 6737SOL    HW121110   5.774   2.518   1.760
 6737SOL    HW221111   5.749   2.658   1.839
 6738SOL     OW21112   1.757   7.006   2.886
 6738SOL    HW121113   1.832   0.036   2.844
 6738SOL    HW221114   1.691   0.049   2.926
 6739SOL     OW21115   0.535   0.793   6.234
 6739SOL    HW121116   0.551   0.805   6.136
 6739SOL    HW221117   0.618   0.817   6.285
 6740SOL     OW21118   0.941   0.098   1.452
 6740SOL    HW121119   0.997   0.153   1.390
 6740SOL    HW221120   0.859   0.067   1.404
 6741SOL     OW21121   2.826   2.480   0.203
 6741SOL    HW121122   2.809   2.496   0.106
 6741SOL    HW221123   2.923   2.492   0.223
 6742SOL     OW21124   6.235   4.562   2.754
 6742SOL    HW121125   6.217   4.495   2.826
 6742SOL    HW221126   6.321   4.537   2.707
 6743SOL     OW21127   4.204   4.660   6.835
 6743SOL    HW121128   4.211   4.736   6.771
 6743SOL    HW221129   4.290   4.609   6.837
 6744SOL     OW21130   6.489   6.619   5.483
 6744SOL    HW121131   6.549   6.561   5.538
 6744SOL    HW221132   6.530   6.709   5.472
 6745SOL     OW21133   5.603   3.300   4.792
 6745SOL    HW121134   5.589   3.273   4.888
 6745SOL    HW221135   5.540   3.248   4.734
 6746SOL     OW21136   1.066   2.719   3.187
 6746SOL    HW121137   1.121   2.776   3.125
 6746SOL    HW221138   1.019   2.649   3.134
 6747SOL     OW21139   0.365   6.115   5.127
 6747SOL    HW121140   0.367   6.148   5.033
 6747SOL    HW221141   0.430   6.169   5.182
 6748SOL     OW21142   1.653   2.604   4.114
 6748SOL    HW121143   1.623   2.597   4.209
 6748SOL    HW221144   1.685   2.514   4.083
 6749SOL     OW21145   3.049   5.136   2.174
 6749SOL    HW121146   3.035   5.111   2.079
 6749SOL    HW221147   3.082   5.231   2.179
 6750SOL     OW21148   3.955   0.712   5.905
 6750SOL    HW121149   4.021   0.758   5.845
 6750SOL    HW221150   3.919   0.778   5.971
 6751SOL     OW21151   4.446   1.692   4.364
 6751SOL    HW121152   4.440   1.696   4.464
 6751SOL    HW221153   4.355   1.704   4.325
 6752SOL     OW21154   2.264   5.219   2.465
 6752SOL    HW121155   2.222   5.153   2.403
 6752SOL    HW221156   2.353   5.247   2.428
 6753SOL     OW21157   3.568   4.256   6.620
 6753SOL    HW121158   3.613   4.267   6.531
 6753SOL    HW221159   3.471   4.279   6.612
 6754SOL     OW21160   5.572   0.390   0.109
 6754SOL    HW121161   5.509   0.409   0.033
 6754SOL    HW221162   5.666   0.399   0.077
 6755SOL     OW21163   3.680   5.967   5.308
 6755SOL    HW121164   3.675   6.066   5.292
 6755SOL    HW221165   3.595   5.936   5.350
 6756SOL     OW21166   4.442   3.127   5.422
 6756SOL    HW121167   4.461   3.137   5.520
 6756SOL    HW221168   4.403   3.212   5.388
 6757SOL     OW21169   3.276   0.125   1.634
 6757SOL    HW121170   3.184   0.106   1.669
 6757SOL    HW221171   3.279   0.216   1.594
 6758SOL     OW21172   4.617   2.728   3.610
 6758SOL    HW121173   4.573   2.703   3.524
 6758SOL    HW221174   4.645   2.645   3.659
 6759SOL     OW21175   1.682   2.464   2.173
 6759SOL    HW121176   1.601   2.421   2.135
 6759SOL    HW221177   1.758   2.399   2.172
 6760SOL     OW21178   5.197   2.035   5.454
 6760SOL    HW121179   5.261   2.104   5.420
 6760SOL    HW221180   5.248   1.963   5.502
 6761SOL     OW21181   3.017   0.362   5.107
 6761SOL    HW121182   3.013   0.286   5.171
 6761SOL    HW221183   2.930   0.412   5.109
 6762SOL     OW21184   5.553   5.183   4.629
 6762SOL    HW121185   5.593   5.227   4.709
 6762SOL    HW221186   5.454   5.192   4.632
 6763SOL     OW21187   5.349   5.920   4.196
 6763SOL    HW121188   5.420   5.849   4.189
 6763SOL    HW221189   5.359   5.984   4.120
 6764SOL     OW21190   1.112   4.689   2.239
 6764SOL    HW121191   1.186   4.645   2.289
 6764SOL    HW221192   1.117   4.663   2.142
 6765SOL     OW21193   0.335   4.454   2.539
 6765SOL    HW121194   0.355   4.428   2.445
 6765SOL    HW221195   0.236   4.460   2.551
 6766SOL     OW21196   5.548   0.162   1.447
 6766SOL    HW121197   5.639   0.203   1.445
 6766SOL    HW221198   5.479   0.235   1.451
 6767SOL     OW21199   2.782   0.116   1.224
 6767SOL    HW121200   2.752   0.133   1.318
 6767SOL    HW221201   2.776   0.018   1.205
 6768SOL     OW21202   2.234   0.727   6.274
 6768SOL    HW121203   2.288   0.656   6.318
 6768SOL    HW221204   2.137   0.709   6.290
 6769SOL     OW21205   5.403   2.544   1.565
 6769SOL    HW121206   5.410   2.623   1.627
 6769SOL    HW221207   5.491   2.528   1.522
 6770SOL     OW21208   6.926   1.525   1.770
 6770SOL    HW121209   6.875   1.450   1.727
 6770SOL    HW221210   6.880   1.551   1.855
 6771SOL     OW21211   4.265   0.641   4.178
 6771SOL    HW121212   4.317   0.641   4.263
 6771SOL    HW221213   4.287   0.723   4.125
 6772SOL     OW21214   2.843   0.936   5.431
 6772SOL    HW121215   2.750   0.928   5.467
 6772SOL    HW221216   2.886   1.018   5.468
 6773SOL     OW21217   0.065   3.368   2.907
 6773SOL    HW121218   0.069   3.467   2.925
 6773SOL    HW221219   0.081   3.352   2.810
 6774SOL     OW21220   1.495   1.540   5.735
 6774SOL    HW121221   1.487   1.454   5.785
 6774SOL    HW221222   1.560   1.529   5.660
 6775SOL     OW21223   0.375   3.321   0.443
 6775SOL    HW121224   0.356   3.404   0.495
 6775SOL    HW221225   0.364   3.241   0.501
 6776SOL     OW21226   6.328   6.647   5.844
 6776SOL    HW121227   6.309   6.560   5.800
 6776SOL    HW221228   6.270   6.657   5.926
 6777SOL     OW21229   4.397   4.617   0.173
 6777SOL    HW121230   4.468   4.610   0.242
 6777SOL    HW221231   4.393   4.533   0.119
 6778SOL     OW21232   6.691   5.372   3.226
 6778SOL    HW121233   6.614   5.423   3.187
 6778SOL    HW221234   6.728   5.422   3.304
 6779SOL     OW21235   5.449   3.499   6.512
 6779SOL    HW121236   5.500   3.492   6.426
 6779SOL    HW221237   5.373   3.434   6.512
 6780SOL     OW21238   1.352   2.196   1.555
 6780SOL    HW121239   1.430   2.180   1.615
 6780SOL    HW221240   1.381   2.248   1.475
 6781SOL     OW21241   6.039   4.494   5.115
 6781SOL    HW121242   6.081   4.411   5.080
 6781SOL    HW221243   5.955   4.513   5.064
 6782SOL     OW21244   6.249   1.500   4.033
 6782SOL    HW121245   6.188   1.498   3.953
 6782SOL    HW221246   6.324   1.435   4.019
 6783SOL     OW21247   1.059   5.490   0.185
 6783SOL    HW121248   1.005   5.433   0.123
 6783SOL    HW221249   1.156   5.466   0.177
 6784SOL     OW21250   3.973   3.473   0.248
 6784SOL    HW121251   4.050   3.417   0.217
 6784SOL    HW221252   3.985   3.496   0.345
 6785SOL     OW21253   5.097   6.451   1.285
 6785SOL    HW121254   5.089   6.487   1.378
 6785SOL    HW221255   5.176   6.389   1.279
 6786SOL     OW21256   2.050   3.557   5.490
 6786SOL    HW121257   2.028   3.648   5.456
 6786SOL    HW221258   2.101   3.507   5.420
 6787SOL     OW21259   1.015   4.113   2.659
 6787SOL    HW121260   0.962   4.028   2.652
 6787SOL    HW221261   1.067   4.113   2.744
 6788SOL     OW21262   2.782   3.717   1.121
 6788SOL    HW121263   2.720   3.646   1.090
 6788SOL    HW221264   2.747   3.758   1.206
 6789SOL     OW21265   1.809   5.057   3.356
 6789SOL    HW121266   1.775   5.072   3.263
 6789SOL    HW221267   1.732   5.054   3.420
 6790SOL     OW21268   0.980   2.838   1.506
 6790SOL    HW121269   0.937   2.922   1.474
 6790SOL    HW221270   1.034   2.856   1.588
 6791SOL     OW21271   3.648   3.743   5.479
 6791SOL    HW121272   3.592   3.700   5.550
 6791SOL    HW221273   3.721   3.795   5.521
 6792SOL     OW21274   1.272   5.102   0.861
 6792SOL    HW121275   1.245   5.007   0.844
 6792SOL    HW221276   1.251   5.126   0.956
 6793SOL     OW21277   5.634   1.071   0.480
 6793SOL    HW121278   5.550   1.050   0.429
 6793SOL    HW221279   5.707   1.095   0.417
 6794SOL     OW21280   3.331   1.898   5.506
 6794SOL    HW121281   3.405   1.966   5.497
 6794SOL    HW221282   3.276   1.920   5.586
 6795SOL     OW21283   4.068   5.966   0.092
 6795SOL    HW121284   4.116   6.046   0.056
 6795SOL    HW221285   3.993   5.996   0.151
 6796SOL     OW21286   3.913   2.070   2.410
 6796SOL    HW121287   3.866   2.025   2.486
 6796SOL    HW221288   3.864   2.051   2.325
 6797SOL     OW21289   6.984   2.545   3.076
 6797SOL    HW121290   6.899   2.539   3.024
 6797SOL    HW221291   0.038   2.561   3.014
 6798SOL     OW21292   6.315   0.169   1.824
 6798SOL    HW121293   6.398   0.196   1.873
 6798SOL    HW221294   6.268   0.250   1.791
 6799SOL     OW21295   4.668   5.674   2.371
 6799SOL    HW121296   4.638   5.591   2.419
 6799SOL    HW221297   4.766   5.688   2.388
 6800SOL     OW21298   3.382   3.626   6.286
 6800SOL    HW121299   3.453   3.688   6.318
 6800SOL    HW221300   3.302   3.632   6.346
 6801SOL     OW21301   0.213   2.832   3.550
 6801SOL    HW121302   0.294   2.879   3.585
 6801SOL    HW221303   0.232   2.797   3.458
 6802SOL     OW21304   3.492   5.261   2.291
 6802SOL    HW121305   3.444   5.224   2.370
 6802SOL    HW221306   3.448   5.229   2.207
 6803SOL     OW21307   4.650   2.117   0.051
 6803SOL    HW121308   4.656   2.198   0.109
 6803SOL    HW221309   4.739   2.098   0.010
 6804SOL     OW21310   1.607   6.040   3.138
 6804SOL    HW121311   1.693   6.017   3.182
 6804SOL    HW221312   1.548   6.089   3.203
 6805SOL     OW21313   6.388   1.422   5.877
 6805SOL    HW121314   6.347   1.400   5.789
 6805SOL    HW221315   6.447   1.347   5.907
 6806SOL     OW21316   4.718   5.559   5.237
 6806SOL    HW121317   4.621   5.554   5.262
 6806SOL    HW221318   4.772   5.507   5.303
 6807SOL     OW21319   4.524   3.158   0.027
 6807SOL    HW121320   4.470   3.241   0.011
 6807SOL    HW221321   4.621   3.182   0.029
 6808SOL     OW21322   2.907   4.918   3.778
 6808SOL    HW121323   2.852   4.876   3.850
 6808SOL    HW221324   2.999   4.936   3.813
 6809SOL     OW21325   1.113   3.423   6.428
 6809SOL    HW121326   1.169   3.342   6.407
 6809SOL    HW221327   1.069   3.455   6.344
 6810SOL     OW21328   6.153   1.921   3.458
 6810SOL    HW121329   6.147   1.980   3.378
 6810SOL    HW221330   6.239   1.869   3.454
 6811SOL     OW21331   4.803   6.458   2.320
 6811SOL    HW121332   4.728   6.392   2.324
 6811SOL    HW221333   4.848   6.452   2.231
 6812SOL     OW21334   3.683   3.204   3.335
 6812SOL    HW121335   3.638   3.271   3.275
 6812SOL    HW221336   3.714   3.251   3.418
 6813SOL     OW21337   5.278   3.668   0.890
 6813SOL    HW121338   5.342   3.685   0.815
 6813SOL    HW221339   5.191   3.714   0.871
 6814SOL     OW21340   2.200   2.860   0.812
 6814SOL    HW121341   2.107   2.875   0.846
 6814SOL    HW221342   2.235   2.945   0.773
 6815SOL     OW21343   1.263   6.521   6.754
 6815SOL    HW121344   1.172   6.483   6.740
 6815SOL    HW221345   1.290   6.575   6.674
 6816SOL     OW21346   5.171   4.401   1.141
 6816SOL    HW121347   5.177   4.452   1.227
 6816SOL    HW221348   5.155   4.305   1.161
 6817SOL     OW21349   1.421   2.187   5.911
 6817SOL    HW121350   1.459   2.194   5.819
 6817SOL    HW221351   1.474   2.245   5.974
 6818SOL     OW21352   4.263   5.107   0.760
 6818SOL    HW121353   4.266   5.015   0.800
 6818SOL    HW221354   4.190   5.112   0.692
 6819SOL     OW21355   2.807   1.094   3.603
 6819SOL    HW121356   2.816   1.162   3.675
 6819SOL    HW221357   2.711   1.089   3.574
 6820SOL     OW21358   1.642   4.996   4.697
 6820SOL    HW121359   1.601   5.079   4.658
 6820SOL    HW221360   1.634   4.999   4.797
 6821SOL     OW21361   2.032   1.791   4.172
 6821SOL    HW121362   1.969   1.833   4.237
 6821SOL    HW221363   2.120   1.838   4.176
 6822SOL     OW21364   5.472   1.188   5.434
 6822SOL    HW121365   5.512   1.206   5.345
 6822SOL    HW221366   5.461   1.089   5.447
 6823SOL     OW21367   4.031   3.425   2.315
 6823SOL    HW121368   4.064   3.392   2.403
 6823SOL    HW221369   3.996   3.347   2.262
 6824SOL     OW21370   0.627   5.588   4.787
 6824SOL    HW121371   0.570   5.521   4.835
 6824SOL    HW221372   0.690   5.540   4.725
 6825SOL     OW21373   5.822   0.100   4.175
 6825SOL    HW121374   5.909   0.125   4.218
 6825SOL    HW221375   5.824   0.003   4.150
 6826SOL     OW21376   1.231   2.502   3.587
 6826SOL    HW121377   1.242   2.573   3.517
 6826SOL    HW221378   1.321   2.477   3.624
 6827SOL     OW21379   4.184   5.560   5.515
 6827SOL    HW121380   4.201   5.462   5.525
 6827SOL    HW221381   4.089   5.574   5.488
 6828SOL     OW21382   2.241   2.480   1.299
 6828SOL    HW121383   2.193   2.524   1.223
 6828SOL    HW221384   2.319   2.536   1.326
 6829SOL     OW21385   5.831   4.421   3.881
 6829SOL    HW121386   5.836   4.433   3.981
 6829SOL    HW221387   5.780   4.337   3.861
 6830SOL     OW21388   4.664   0.922   3.796
 6830SOL    HW121389   4.654   0.913   3.895
 6830SOL    HW221390   4.619   0.844   3.751
 6831SOL     OW21391   1.041   1.788   6.251
 6831SOL    HW121392   1.085   1.741   6.175
 6831SOL    HW221393   1.075   1.882   6.256
 6832SOL     OW21394   2.811   4.549   1.455
 6832SOL    HW121395   2.767   4.526   1.369
 6832SOL    HW221396   2.863   4.634   1.444
 6833SOL     OW21397   4.377   6.299   6.820
 6833SOL    HW121398   4.396   6.309   6.722
 6833SOL    HW221399   4.356   6.389   6.859
 6834SOL     OW21400   2.626   4.607   2.769
 6834SOL    HW121401   2.637   4.624   2.867
 6834SOL    HW221402   2.537   4.563   2.753
 6835SOL     OW21403   3.908   6.813   3.944
 6835SOL    HW121404   3.962   6.895   3.963
 6835SOL    HW221405   3.894   6.805   3.845
 6836SOL     OW21406   3.505   5.047   0.770
 6836SOL    HW121407   3.587   5.029   0.716
 6836SOL    HW221408   3.521   5.019   0.865
 6837SOL     OW21409   0.883   3.402   3.094
 6837SOL    HW121410   0.846   3.475   3.151
 6837SOL    HW221411   0.957   3.356   3.143
 6838SOL     OW21412   2.582   2.515   0.372
 6838SOL    HW121413   2.560   2.612   0.365
 6838SOL    HW221414   2.670   2.498   0.327
 6839SOL     OW21415   3.752   1.033   2.298
 6839SOL    HW121416   3.783   1.089   2.374
 6839SOL    HW221417   3.690   0.962   2.332
 6840SOL     OW21418   0.790   1.072   5.843
 6840SOL    HW121419   0.776   1.119   5.930
 6840SOL    HW221420   0.860   1.001   5.855
 6841SOL     OW21421   6.576   2.697   5.555
 6841SOL    HW121422   6.585   2.776   5.616
 6841SOL    HW221423   6.479   2.676   5.543
 6842SOL     OW21424   2.490   4.679   3.023
 6842SOL    HW121425   2.409   4.736   3.032
 6842SOL    HW221426   2.572   4.737   3.024
 6843SOL     OW21427   3.438   6.158   1.493
 6843SOL    HW121428   3.358   6.106   1.462
 6843SOL    HW221429   3.428   6.181   1.589
 6844SOL     OW21430   5.775   0.055   5.455
 6844SOL    HW121431   5.853   0.117   5.465
 6844SOL    HW221432   5.723   0.079   5.373
 6845SOL     OW21433   5.766   2.521   3.387
 6845SOL    HW121434   5.833   2.491   3.319
 6845SOL    HW221435   5.775   2.465   3.469
 6846SOL     OW21436   1.309   3.563   0.824
 6846SOL    HW121437   1.381   3.503   0.860
 6846SOL    HW221438   1.220   3.528   0.850
 6847SOL     OW21439   6.784   2.067   3.620
 6847SOL    HW121440   6.771   1.993   3.553
 6847SOL    HW221441   6.877   2.062   3.657
 6848SOL     OW21442   6.771   3.949   4.146
 6848SOL    HW121443   6.822   3.913   4.068
 6848SOL    HW221444   6.673   3.951   4.124
 6849SOL     OW21445   3.132   4.125   5.531
 6849SOL    HW121446   3.047   4.167   5.501
 6849SOL    HW221447   3.158   4.052   5.468
 6850SOL     OW21448   5.765   0.547   4.278
 6850SOL    HW121449   5.696   0.601   4.230
 6850SOL    HW221450   5.722   0.497   4.353
 6851SOL     OW21451   2.197   4.273   3.652
 6851SOL    HW121452   2.164   4.367   3.646
 6851SOL    HW221453   2.126   4.210   3.620
 6852SOL     OW21454   4.526   2.991   0.661
 6852SOL    HW121455   4.577   2.956   0.739
 6852SOL    HW221456   4.499   2.915   0.602
 6853SOL     OW21457   5.436   5.195   5.861
 6853SOL    HW121458   5.442   5.290   5.892
 6853SOL    HW221459   5.440   5.192   5.761
 6854SOL     OW21460   5.651   5.881   5.414
 6854SOL    HW121461   5.742   5.853   5.441
 6854SOL    HW221462   5.583   5.819   5.453
 6855SOL     OW21463   4.638   6.044   3.201
 6855SOL    HW121464   4.676   6.137   3.195
 6855SOL    HW221465   4.675   5.988   3.127
 6856SOL     OW21466   6.531   2.422   1.130
 6856SOL    HW121467   6.491   2.344   1.179
 6856SOL    HW221468   6.630   2.416   1.131
 6857SOL     OW21469   1.274   4.661   5.712
 6857SOL    HW121470   1.230   4.618   5.791
 6857SOL    HW221471   1.362   4.700   5.740
 6858SOL     OW21472   1.219   3.152   1.572
 6858SOL    HW121473   1.133   3.200   1.554
 6858SOL    HW221474   1.286   3.178   1.503
 6859SOL     OW21475   2.547   2.374   0.606
 6859SOL    HW121476   2.537   2.425   0.520
 6859SOL    HW221477   2.626   2.410   0.656
 6860SOL     OW21478   0.463   0.216   6.778
 6860SOL    HW121479   0.502   0.303   6.748
 6860SOL    HW221480   0.501   0.142   6.722
 6861SOL     OW21481   5.788   3.580   6.985
 6861SOL    HW121482   5.812   3.668   6.943
 6861SOL    HW221483   5.810   3.506   6.921
 6862SOL     OW21484   0.707   5.480   2.959
 6862SOL    HW121485   0.722   5.434   2.872
 6862SOL    HW221486   0.709   5.579   2.946
 6863SOL     OW21487   5.050   1.297   5.232
 6863SOL    HW121488   5.083   1.388   5.259
 6863SOL    HW221489   5.054   1.235   5.311
 6864SOL     OW21490   2.068   3.600   6.331
 6864SOL    HW121491   2.127   3.607   6.412
 6864SOL    HW221492   1.976   3.572   6.359
 6865SOL     OW21493   1.647   1.234   2.878
 6865SOL    HW121494   1.671   1.137   2.875
 6865SOL    HW221495   1.647   1.272   2.786
 6866SOL     OW21496   1.587   4.878   6.285
 6866SOL    HW121497   1.562   4.802   6.225
 6866SOL    HW221498   1.528   4.877   6.366
 6867SOL     OW21499   1.625   1.882   6.696
 6867SOL    HW121500   1.628   1.846   6.789
 6867SOL    HW221501   1.704   1.941   6.680
 6868SOL     OW21502   4.180   5.099   3.783
 6868SOL    HW121503   4.156   5.002   3.780
 6868SOL    HW221504   4.182   5.136   3.691
 6869SOL     OW21505   1.091   0.405   5.490
 6869SOL    HW121506   1.150   0.479   5.522
 6869SOL    HW221507   1.001   0.442   5.467
 6870SOL     OW21508   6.536   3.026   6.259
 6870SOL    HW121509   6.590   3.110   6.264
 6870SOL    HW221510   6.461   3.031   6.325
 6871SOL     OW21511   5.942   2.865   3.542
 6871SOL    HW121512   5.865   2.867   3.478
 6871SOL    HW221513   5.993   2.951   3.537
 6872SOL     OW21514   2.501   4.742   1.173
 6872SOL    HW121515   2.464   4.811   1.235
 6872SOL    HW221516   2.437   4.727   1.097
 6873SOL     OW21517   0.351   3.496   2.901
 6873SOL    HW121518   0.336   3.423   2.834
 6873SOL    HW221519   0.448   3.504   2.921
 6874SOL     OW21520   3.686   6.085   1.962
 6874SOL    HW121521   3.714   6.039   1.877
 6874SOL    HW221522   3.641   6.171   1.940
 6875SOL     OW21523   2.721   0.345   6.281
 6875SOL    HW121524   2.759   0.293   6.357
 6875SOL    HW221525   2.623   0.328   6.274
 6876SOL     OW21526   5.759   5.999   3.288
 6876SOL    HW121527   5.662   5.979   3.301
 6876SOL    HW221528   5.794   5.946   3.211
 6877SOL     OW21529   1.472   3.785   1.814
 6877SOL    HW121530   1.568   3.814   1.812
 6877SOL    HW221531   1.426   3.825   1.893
 6878SOL     OW21532   1.225   0.253   3.554
 6878SOL    HW121533   1.201   0.168   3.600
 6878SOL    HW221534   1.154   0.321   3.571
 6879SOL     OW21535   1.446   1.516   1.343
 6879SOL    HW121536   1.536   1.489   1.310
 6879SOL    HW221537   1.381   1.514   1.267
 6880SOL     OW21538   0.887   0.055   0.167
 6880SOL    HW121539   0.885   0.153   0.182
 6880SOL    HW221540   0.945   0.034   0.089
 6881SOL     OW21541   6.643   3.617   1.466
 6881SOL    HW121542   6.589   3.547   1.419
 6881SOL    HW221543   6.583   3.694   1.490
 6882SOL     OW21544   2.661   6.779   6.727
 6882SOL    HW121545   2.672   6.870   6.687
 6882SOL    HW221546   2.572   6.742   6.702
 6883SOL     OW21547   4.729   6.999   0.927
 6883SOL    HW121548   4.690   6.970   1.015
 6883SOL    HW221549   4.729   6.922   0.864
 6884SOL     OW21550   1.523   5.752   3.237
 6884SOL    HW121551   1.468   5.753   3.320
 6884SOL    HW221552   1.535   5.846   3.204
 6885SOL     OW21553   5.503   4.398   4.473
 6885SOL    HW121554   5.521   4.448   4.557
 6885SOL    HW221555   5.569   4.323   4.464
 6886SOL     OW21556   5.891   3.458   0.694
 6886SOL    HW121557   5.913   3.494   0.603
 6886SOL    HW221558   5.856   3.532   0.751
 6887SOL     OW21559   5.416   5.996   5.546
 6887SOL    HW121560   5.510   5.962   5.551
 6887SOL    HW221561   5.354   5.919   5.536
 6888SOL     OW21562   0.004   4.110   1.494
 6888SOL    HW121563   6.975   4.024   1.491
 6888SOL    HW221564   6.963   4.186   1.477
 6889SOL     OW21565   0.696   2.809   5.431
 6889SOL    HW121566   0.759   2.742   5.470
 6889SOL    HW221567   0.612   2.762   5.403
 6890SOL     OW21568   4.859   4.652   3.959
 6890SOL    HW121569   4.925   4.723   3.984
 6890SOL    HW221570   4.886   4.565   4.002
 6891SOL     OW21571   1.483   1.438   0.362
 6891SOL    HW121572   1.566   1.385   0.347
 6891SOL    HW221573   1.412   1.378   0.399
 6892SOL     OW21574   1.251   0.756   5.212
 6892SOL    HW121575   1.152   0.743   5.198
 6892SOL    HW221576   1.268   0.776   5.309
 6893SOL     OW21577   6.031   3.337   1.032
 6893SOL    HW121578   6.057   3.307   1.124
 6893SOL    HW221579   5.939   3.303   1.011
 6894SOL     OW21580   5.430   5.214   0.019
 6894SOL    HW121581   5.342   5.234   0.063
 6894SOL    HW221582   5.480   5.299   0.005
 6895SOL     OW21583   1.415   5.091   2.884
 6895SOL    HW121584   1.507   5.057   2.865
 6895SOL    HW221585   1.420   5.188   2.908
 6896SOL     OW21586   4.824   0.917   6.088
 6896SOL    HW121587   4.921   0.931   6.106
 6896SOL    HW221588   4.783   1.004   6.059
 6897SOL     OW21589   4.170   2.283   4.779
 6897SOL    HW121590   4.160   2.348   4.854
 6897SOL    HW221591   4.266   2.257   4.770
 6898SOL     OW21592   1.720   6.433   1.108
 6898SOL    HW121593   1.681   6.371   1.176
 6898SOL    HW221594   1.658   6.439   1.030
 6899SOL     OW21595   6.302   5.227   3.010
 6899SOL    HW121596   6.270   5.250   2.918
 6899SOL    HW221597   6.224   5.208   3.070
 6900SOL     OW21598   0.309   4.641   4.800
 6900SOL    HW121599   0.293   4.566   4.863
 6900SOL    HW221600   0.221   4.679   4.771
 6901SOL     OW21601   4.848   4.117   6.154
 6901SOL    HW121602   4.786   4.046   6.186
 6901SOL    HW221603   4.888   4.090   6.067
 6902SOL     OW21604   0.081   5.730   5.064
 6902SOL    HW121605   0.134   5.809   5.032
 6902SOL    HW221606   0.093   5.720   5.163
 6903SOL     OW21607   0.359   6.571   5.099
 6903SOL    HW121608   0.448   6.552   5.058
 6903SOL    HW221609   0.288   6.528   5.044
 6904SOL     OW21610   0.493   0.130   6.351
 6904SOL    HW121611   0.571   0.190   6.368
 6904SOL    HW221612   0.516   0.064   6.280
 6905SOL     OW21613   4.450   5.591   5.300
 6905SOL    HW121614   4.382   5.662   5.316
 6905SOL    HW221615   4.413   5.524   5.236
 6906SOL     OW21616   2.486   1.990   3.678
 6906SOL    HW121617   2.448   2.054   3.611
 6906SOL    HW221618   2.580   2.016   3.700
 6907SOL     OW21619   5.616   3.447   0.390
 6907SOL    HW121620   5.522   3.463   0.359
 6907SOL    HW221621   5.619   3.455   0.490
 6908SOL     OW21622   2.896   5.290   0.992
 6908SOL    HW121623   2.830   5.229   0.950
 6908SOL    HW221624   2.936   5.245   1.072
 6909SOL     OW21625   6.000   5.203   2.306
 6909SOL    HW121626   6.035   5.129   2.364
 6909SOL    HW221627   5.912   5.175   2.267
 6910SOL     OW21628   1.805   2.622   2.422
 6910SOL    HW121629   1.894   2.584   2.396
 6910SOL    HW221630   1.740   2.610   2.347
 6911SOL     OW21631   2.037   6.798   5.164
 6911SOL    HW121632   2.135   6.786   5.179
 6911SOL    HW221633   2.016   6.780   5.068
 6912SOL     OW21634   2.333   4.177   6.215
 6912SOL    HW121635   2.274   4.183   6.134
 6912SOL    HW221636   2.397   4.254   6.215
 6913SOL     OW21637   4.059   5.459   6.078
 6913SOL    HW121638   4.053   5.478   5.980
 6913SOL    HW221639   3.969   5.472   6.119
 6914SOL     OW21640   0.849   1.801   2.358
 6914SOL    HW121641   0.867   1.894   2.327
 6914SOL    HW221642   0.848   1.799   2.458
 6915SOL     OW21643   5.832   2.995   4.026
 6915SOL    HW121644   5.812   2.912   3.975
 6915SOL    HW221645   5.828   2.976   4.124
 6916SOL     OW21646   4.366   6.370   5.723
 6916SOL    HW121647   4.387   6.311   5.645
 6916SOL    HW221648   4.377   6.318   5.808
 6917SOL     OW21649   3.335   5.538   2.135
 6917SOL    HW121650   3.279   5.602   2.083
 6917SOL    HW221651   3.332   5.448   2.092
 6918SOL     OW21652   1.550   3.890   6.304
 6918SOL    HW121653   1.611   3.819   6.268
 6918SOL    HW221654   1.571   3.907   6.400
 6919SOL     OW21655   6.333   6.118   3.741
 6919SOL    HW121656   6.430   6.102   3.759
 6919SOL    HW221657   6.279   6.078   3.816
 6920SOL     OW21658   0.275   3.603   5.444
 6920SOL    HW121659   0.198   3.633   5.501
 6920SOL    HW221660   0.240   3.574   5.354
 6921SOL     OW21661   3.686   0.162   5.725
 6921SOL    HW121662   3.618   0.125   5.789
 6921SOL    HW221663   3.679   0.261   5.722
 6922SOL     OW21664   2.705   4.125   6.801
 6922SOL    HW121665   2.741   4.171   6.882
 6922SOL    HW221666   2.618   4.081   6.823
 6923SOL     OW21667   5.051   6.836   2.993
 6923SOL    HW121668   5.021   6.794   2.907
 6923SOL    HW221669   5.100   6.768   3.048
 6924SOL     OW21670   3.151   4.763   1.314
 6924SOL    HW121671   3.251   4.753   1.320
 6924SOL    HW221672   3.128   4.835   1.248
 6925SOL     OW21673   5.976   0.361   4.297
 6925SOL    HW121674   6.069   0.396   4.282
 6925SOL    HW221675   5.911   0.436   4.292
 6926SOL     OW21676   2.533   2.808   0.301
 6926SOL    HW121677   2.572   2.882   0.356
 6926SOL    HW221678   2.464   2.846   0.240
 6927SOL     OW21679   3.370   6.612   5.636
 6927SOL    HW121680   3.413   6.687   5.686
 6927SOL    HW221681   3.271   6.618   5.643
 6928SOL     OW21682   4.181   5.524   0.785
 6928SOL    HW121683   4.087   5.543   0.756
 6928SOL    HW221684   4.227   5.610   0.807
 6929SOL     OW21685   4.644   5.980   3.594
 6929SOL    HW121686   4.702   6.054   3.629
 6929SOL    HW221687   4.694   5.894   3.598
 6930SOL     OW21688   0.495   6.184   2.351
 6930SOL    HW121689   0.588   6.151   2.369
 6930SOL    HW221690   0.430   6.131   2.405
 6931SOL     OW21691   3.943   2.674   7.015
 6931SOL    HW121692   3.987   2.763   7.009
 6931SOL    HW221693   4.008   2.603   6.985
 6932SOL     OW21694   3.942   0.724   6.841
 6932SOL    HW121695   3.890   0.705   6.923
 6932SOL    HW221696   3.882   0.718   6.761
 6933SOL     OW21697   3.544   5.756   6.093
 6933SOL    HW121698   3.610   5.681   6.093
 6933SOL    HW221699   3.541   5.798   6.002
 6934SOL     OW21700   4.383   5.863   0.023
 6934SOL    HW121701   4.394   5.863   6.945
 6934SOL    HW221702   4.415   5.950   0.060
 6935SOL     OW21703   4.031   5.684   1.878
 6935SOL    HW121704   4.002   5.776   1.905
 6935SOL    HW221705   4.122   5.689   1.837
 6936SOL     OW21706   1.275   1.156   0.224
 6936SOL    HW121707   1.348   1.177   0.159
 6936SOL    HW221708   1.230   1.241   0.252
 6937SOL     OW21709   6.772   4.157   0.359
 6937SOL    HW121710   6.675   4.182   0.359
 6937SOL    HW221711   6.817   4.198   0.280
 6938SOL     OW21712   2.715   0.007   5.151
 6938SOL    HW121713   2.733   0.021   5.054
 6938SOL    HW221714   2.633   0.057   5.178
 6939SOL     OW21715   6.362   3.226   3.272
 6939SOL    HW121716   6.420   3.153   3.235
 6939SOL    HW221717   6.388   3.313   3.230
 6940SOL     OW21718   0.390   6.711   1.249
 6940SOL    HW121719   0.297   6.731   1.280
 6940SOL    HW221720   0.420   6.624   1.287
 6941SOL     OW21721   3.955   3.196   2.189
 6941SOL    HW121722   3.959   3.102   2.225
 6941SOL    HW221723   3.958   3.193   2.089
 6942SOL     OW21724   0.350   5.748   2.709
 6942SOL    HW121725   0.357   5.658   2.666
 6942SOL    HW221726   0.434   5.769   2.758
 6943SOL     OW21727   3.270   5.242   5.331
 6943SOL    HW121728   3.294   5.323   5.276
 6943SOL    HW221729   3.186   5.261   5.383
 6944SOL     OW21730   1.089   4.995   5.992
 6944SOL    HW121731   1.166   5.053   5.964
 6944SOL    HW221732   1.096   4.975   6.089
 6945SOL     OW21733   3.749   1.757   0.955
 6945SOL    HW121734   3.817   1.786   0.887
 6945SOL    HW221735   3.693   1.836   0.981
 6946SOL     OW21736   5.661   5.319   4.013
 6946SOL    HW121737   5.716   5.242   3.979
 6946SOL    HW221738   5.586   5.284   4.069
 6947SOL     OW21739   6.364   3.184   5.607
 6947SOL    HW121740   6.369   3.157   5.703
 6947SOL    HW221741   6.421   3.265   5.592
 6948SOL     OW21742   0.510   5.702   0.021
 6948SOL    HW121743   0.521   5.710   0.120
 6948SOL    HW221744   0.419   5.736   7.016
 6949SOL     OW21745   1.863   1.505   3.518
 6949SOL    HW121746   1.887   1.446   3.441
 6949SOL    HW221747   1.764   1.502   3.533
 6950SOL     OW21748   1.898   1.223   4.174
 6950SOL    HW121749   1.954   1.198   4.254
 6950SOL    HW221750   1.849   1.308   4.193
 6951SOL     OW21751   1.184   3.264   0.097
 6951SOL    HW121752   1.102   3.209   0.115
 6951SOL    HW221753   1.165   3.328   0.023
 6952SOL     OW21754   4.643   4.815   3.942
 6952SOL    HW121755   4.659   4.815   3.843
 6952SOL    HW221756   4.687   4.735   3.982
 6953SOL     OW21757   0.613   0.620   1.658
 6953SOL    HW121758   0.619   0.530   1.701
 6953SOL    HW221759   0.603   0.690   1.729
 6954SOL     OW21760   6.793   5.517   6.347
 6954SOL    HW121761   6.838   5.602   6.373
 6954SOL    HW221762   6.808   5.447   6.417
 6955SOL     OW21763   3.676   5.524   2.870
 6955SOL    HW121764   3.659   5.545   2.774
 6955SOL    HW221765   3.680   5.425   2.882
 6956SOL     OW21766   6.325   4.591   3.138
 6956SOL    HW121767   6.268   4.513   3.111
 6956SOL    HW221768   6.391   4.610   3.065
 6957SOL     OW21769   5.182   4.265   5.459
 6957SOL    HW121770   5.125   4.330   5.509
 6957SOL    HW221771   5.279   4.288   5.472
 6958SOL     OW21772   3.500   3.499   1.799
 6958SOL    HW121773   3.437   3.574   1.778
 6958SOL    HW221774   3.540   3.514   1.889
 6959SOL     OW21775   0.089   3.486   3.409
 6959SOL    HW121776   0.103   3.508   3.505
 6959SOL    HW221777   0.174   3.503   3.358
 6960SOL     OW21778   5.058   4.869   0.416
 6960SOL    HW121779   5.096   4.926   0.488
 6960SOL    HW221780   5.127   4.855   0.345
 6961SOL     OW21781   4.830   3.015   4.355
 6961SOL    HW121782   4.915   3.067   4.349
 6961SOL    HW221783   4.767   3.046   4.284
 6962SOL     OW21784   2.438   6.871   0.513
 6962SOL    HW121785   2.406   6.783   0.549
 6962SOL    HW221786   2.431   6.870   0.413
 6963SOL     OW21787   0.642   0.201   6.996
 6963SOL    HW121788   0.728   0.239   6.962
 6963SOL    HW221789   0.579   0.190   6.919
 6964SOL     OW21790   2.654   1.626   5.539
 6964SOL    HW121791   2.724   1.625   5.468
 6964SOL    HW221792   2.610   1.537   5.544
 6965SOL     OW21793   1.722   1.376   0.544
 6965SOL    HW121794   1.693   1.301   0.486
 6965SOL    HW221795   1.760   1.449   0.487
 6966SOL     OW21796   0.801   6.222   0.446
 6966SOL    HW121797   0.769   6.232   0.352
 6966SOL    HW221798   0.728   6.245   0.509
 6967SOL     OW21799   4.135   6.801   6.875
 6967SOL    HW121800   4.228   6.830   6.896
 6967SOL    HW221801   4.137   6.724   6.811
 6968SOL     OW21802   4.744   0.534   1.640
 6968SOL    HW121803   4.699   0.582   1.716
 6968SOL    HW221804   4.843   0.537   1.653
 6969SOL     OW21805   1.566   3.423   2.818
 6969SOL    HW121806   1.536   3.410   2.723
 6969SOL    HW221807   1.546   3.516   2.848
 6970SOL     OW21808   3.067   6.023   6.004
 6970SOL    HW121809   3.033   6.011   5.911
 6970SOL    HW221810   3.167   6.022   6.003
 6971SOL     OW21811   0.124   3.826   0.362
 6971SOL    HW121812   0.140   3.872   0.275
 6971SOL    HW221813   0.027   3.804   0.371
 6972SOL     OW21814   5.777   3.242   1.322
 6972SOL    HW121815   5.781   3.232   1.223
 6972SOL    HW221816   5.784   3.151   1.365
 6973SOL     OW21817   0.941   0.829   2.787
 6973SOL    HW121818   0.929   0.895   2.861
 6973SOL    HW221819   1.038   0.818   2.766
 6974SOL     OW21820   4.085   3.658   2.804
 6974SOL    HW121821   4.115   3.565   2.821
 6974SOL    HW221822   4.032   3.661   2.719
 6975SOL     OW21823   3.308   5.666   5.604
 6975SOL    HW121824   3.215   5.683   5.639
 6975SOL    HW221825   3.310   5.579   5.555
 6976SOL     OW21826   5.220   5.258   5.294
 6976SOL    HW121827   5.172   5.171   5.287
 6976SOL    HW221828   5.187   5.308   5.374
 6977SOL     OW21829   4.160   5.208   2.436
 6977SOL    HW121830   4.132   5.296   2.475
 6977SOL    HW221831   4.079   5.160   2.403
 6978SOL     OW21832   0.310   3.319   0.874
 6978SOL    HW121833   0.319   3.246   0.806
 6978SOL    HW221834   0.214   3.327   0.901
 6979SOL     OW21835   1.187   4.167   2.884
 6979SOL    HW121836   1.257   4.104   2.851
 6979SOL    HW221837   1.140   4.127   2.962
 6980SOL     OW21838   3.092   4.871   3.025
 6980SOL    HW121839   3.044   4.851   3.110
 6980SOL    HW221840   3.031   4.854   2.948
 6981SOL     OW21841   4.385   2.693   7.008
 6981SOL    HW121842   4.417   2.777   6.965
 6981SOL    HW221843   4.319   2.647   6.949
 6982SOL     OW21844   6.683   6.037   2.312
 6982SOL    HW121845   6.744   6.074   2.382
 6982SOL    HW221846   6.653   5.946   2.339
 6983SOL     OW21847   6.783   0.320   4.376
 6983SOL    HW121848   6.781   0.420   4.372
 6983SOL    HW221849   6.814   0.291   4.467
 6984SOL     OW21850   1.469   4.479   3.096
 6984SOL    HW121851   1.427   4.410   3.155
 6984SOL    HW221852   1.399   4.544   3.067
 6985SOL     OW21853   5.054   3.240   0.743
 6985SOL    HW121854   4.956   3.226   0.758
 6985SOL    HW221855   5.102   3.154   0.758
 6986SOL     OW21856   4.441   6.027   5.128
 6986SOL    HW121857   4.459   6.086   5.207
 6986SOL    HW221858   4.528   6.000   5.086
 6987SOL     OW21859   0.285   1.588   6.806
 6987SOL    HW121860   0.213   1.557   6.867
 6987SOL    HW221861   0.347   1.649   6.856
 6988SOL     OW21862   1.157   0.430   6.417
 6988SOL    HW121863   1.107   0.403   6.335
 6988SOL    HW221864   1.234   0.489   6.391
 6989SOL     OW21865   0.465   3.151   2.505
 6989SOL    HW121866   0.388   3.114   2.454
 6989SOL    HW221867   0.476   3.248   2.483
 6990SOL     OW21868   3.055   5.012   6.311
 6990SOL    HW121869   3.087   4.995   6.405
 6990SOL    HW221870   3.121   4.973   6.246
 6991SOL     OW21871   5.368   4.216   4.144
 6991SOL    HW121872   5.371   4.142   4.211
 6991SOL    HW221873   5.374   4.304   4.191
 6992SOL     OW21874   1.922   5.320   5.658
 6992SOL    HW121875   1.919   5.389   5.730
 6992SOL    HW221876   1.829   5.304   5.623
 6993SOL     OW21877   4.235   2.340   1.911
 6993SOL    HW121878   4.175   2.335   1.991
 6993SOL    HW221879   4.327   2.367   1.940
 6994SOL     OW21880   2.432   1.081   2.911
 6994SOL    HW121881   2.397   1.135   2.988
 6994SOL    HW221882   2.529   1.101   2.899
 6995SOL     OW21883   6.554   5.288   0.316
 6995SOL    HW121884   6.465   5.305   0.358
 6995SOL    HW221885   6.581   5.193   0.333
 6996SOL     OW21886   1.488   0.750   0.016
 6996SOL    HW121887   1.490   0.843   7.001
 6996SOL    HW221888   1.470   0.752   0.114
 6997SOL     OW21889   5.712   5.875   6.346
 6997SOL    HW121890   5.780   5.806   6.322
 6997SOL    HW221891   5.752   5.941   6.409
 6998SOL     OW21892   0.127   1.080   5.634
 6998SOL    HW121893   0.132   1.032   5.722
 6998SOL    HW221894   0.053   1.146   5.636
 6999SOL     OW21895   0.868   2.490   0.095
 6999SOL    HW121896   0.906   2.430   0.024
 6999SOL    HW221897   0.942   2.535   0.144
 7000SOL     OW21898   0.636   5.165   2.472
 7000SOL    HW121899   0.708   5.191   2.408
 7000SOL    HW221900   0.674   5.161   2.565
 7001SOL     OW21901   0.898   1.235   3.847
 7001SOL    HW121902   0.821   1.224   3.784
 7001SOL    HW221903   0.971   1.171   3.823
 7002SOL     OW21904   1.287   4.668   3.012
 7002SOL    HW121905   1.310   4.714   3.097
 7002SOL    HW221906   1.357   4.689   2.943
 7003SOL     OW21907   0.208   5.503   6.613
 7003SOL    HW121908   0.274   5.560   6.661
 7003SOL    HW221909   0.177   5.549   6.530
 7004SOL     OW21910   1.138   0.493   6.861
 7004SOL    HW121911   1.225   0.481   6.812
 7004SOL    HW221912   1.138   0.435   6.942
 7005SOL     OW21913   2.009   5.164   0.516
 7005SOL    HW121914   1.976   5.082   0.563
 7005SOL    HW221915   2.089   5.200   0.564
 7006SOL     OW21916   1.262   0.559   3.612
 7006SOL    HW121917   1.215   0.615   3.543
 7006SOL    HW221918   1.354   0.594   3.626
 7007SOL     OW21919   2.075   6.473   6.242
 7007SOL    HW121920   1.979   6.495   6.259
 7007SOL    HW221921   2.096   6.381   6.274
 7008SOL     OW21922   6.021   2.968   2.973
 7008SOL    HW121923   6.086   2.911   3.023
 7008SOL    HW221924   6.051   3.064   2.976
 7009SOL     OW21925   5.307   5.371   2.307
 7009SOL    HW121926   5.281   5.448   2.249
 7009SOL    HW221927   5.234   5.302   2.305
 7010SOL     OW21928   4.951   2.470   3.057
 7010SOL    HW121929   4.857   2.464   3.093
 7010SOL    HW221930   5.005   2.393   3.093
 7011SOL     OW21931   1.966   5.828   6.759
 7011SOL    HW121932   2.049   5.870   6.722
 7011SOL    HW221933   1.965   5.837   6.858
 7012SOL     OW21934   0.941   3.563   0.082
 7012SOL    HW121935   1.018   3.576   0.019
 7012SOL    HW221936   0.900   3.651   0.103
 7013SOL     OW21937   2.364   2.582   6.867
 7013SOL    HW121938   2.279   2.570   6.919
 7013SOL    HW221939   2.439   2.601   6.931
 7014SOL     OW21940   0.340   3.914   1.032
 7014SOL    HW121941   0.366   3.943   1.124
 7014SOL    HW221942   0.240   3.916   1.024
 7015SOL     OW21943   6.018   6.715   0.891
 7015SOL    HW121944   5.979   6.802   0.923
 7015SOL    HW221945   5.946   6.662   0.845
 7016SOL     OW21946   2.699   5.165   0.797
 7016SOL    HW121947   2.748   5.220   0.728
 7016SOL    HW221948   2.608   5.204   0.811
 7017SOL     OW21949   5.808   3.826   6.846
 7017SOL    HW121950   5.776   3.827   6.751
 7017SOL    HW221951   5.900   3.864   6.851
 7018SOL     OW21952   6.794   2.308   4.146
 7018SOL    HW121953   6.892   2.327   4.134
 7018SOL    HW221954   6.776   2.211   4.129
 7019SOL     OW21955   2.974   6.363   2.281
 7019SOL    HW121956   3.038   6.300   2.324
 7019SOL    HW221957   3.021   6.448   2.259
 7020SOL     OW21958   6.530   2.024   0.715
 7020SOL    HW121959   6.620   2.055   0.747
 7020SOL    HW221960   6.539   1.932   0.676
 7021SOL     OW21961   0.782   2.474   4.848
 7021SOL    HW121962   0.724   2.395   4.828
 7021SOL    HW221963   0.745   2.524   4.927
 7022SOL     OW21964   1.964   3.532   1.209
 7022SOL    HW121965   1.874   3.535   1.254
 7022SOL    HW221966   2.026   3.594   1.257
 7023SOL     OW21967   6.428   1.725   0.827
 7023SOL    HW121968   6.445   1.781   0.908
 7023SOL    HW221969   6.330   1.723   0.807
 7024SOL     OW21970   3.639   4.653   5.397
 7024SOL    HW121971   3.578   4.599   5.456
 7024SOL    HW221972   3.691   4.592   5.338
 7025SOL     OW21973   3.612   0.563   0.956
 7025SOL    HW121974   3.637   0.487   0.895
 7025SOL    HW221975   3.689   0.625   0.965
 7026SOL     OW21976   3.017   2.329   1.335
 7026SOL    HW121977   2.956   2.252   1.357
 7026SOL    HW221978   2.993   2.408   1.391
 7027SOL     OW21979   2.760   4.311   0.549
 7027SOL    HW121980   2.735   4.218   0.575
 7027SOL    HW221981   2.743   4.325   0.452
 7028SOL     OW21982   3.017   0.361   2.175
 7028SOL    HW121983   2.970   0.371   2.088
 7028SOL    HW221984   2.977   0.424   2.242
 7029SOL     OW21985   3.371   4.097   2.936
 7029SOL    HW121986   3.327   4.011   2.910
 7029SOL    HW221987   3.464   4.099   2.898
 7030SOL     OW21988   5.622   6.898   4.709
 7030SOL    HW121989   5.684   6.889   4.786
 7030SOL    HW221990   5.662   6.957   4.639
 7031SOL     OW21991   5.537   4.669   1.121
 7031SOL    HW121992   5.567   4.618   1.202
 7031SOL    HW221993   5.587   4.756   1.117
 7032SOL     OW21994   3.578   4.917   3.965
 7032SOL    HW121995   3.645   4.845   3.983
 7032SOL    HW221996   3.580   4.983   4.040
 7033SOL     OW21997   2.782   2.025   5.663
 7033SOL    HW121998   2.791   2.119   5.696
 7033SOL    HW221999   2.801   1.962   5.738
 7034SOL     OW22000   6.493   2.472   2.847
 7034SOL    HW122001   6.416   2.483   2.909
 7034SOL    HW222002   6.490   2.542   2.777
 7035SOL     OW22003   3.512   2.513   0.780
 7035SOL    HW122004   3.483   2.526   0.875
 7035SOL    HW222005   3.431   2.506   0.721
 7036SOL     OW22006   6.677   1.862   1.966
 7036SOL    HW122007   6.714   1.938   2.019
 7036SOL    HW222008   6.603   1.819   2.016
 7037SOL     OW22009   0.580   1.471   5.456
 7037SOL    HW122010   0.483   1.464   5.436
 7037SOL    HW222011   0.628   1.505   5.375
 7038SOL     OW22012   1.509   3.839   7.013
 7038SOL    HW122013   1.440   3.833   0.063
 7038SOL    HW222014   1.530   3.746   6.980
 7039SOL     OW22015   6.030   0.415   1.432
 7039SOL    HW122016   6.028   0.479   1.508
 7039SOL    HW222017   6.122   0.410   1.394
 7040SOL     OW22018   5.100   3.003   4.692
 7040SOL    HW122019   5.162   2.925   4.701
 7040SOL    HW222020   5.010   2.971   4.662
 7041SOL     OW22021   0.960   6.275   2.756
 7041SOL    HW122022   0.967   6.333   2.675
 7041SOL    HW222023   1.021   6.310   2.827
 7042SOL     OW22024   4.551   5.046   5.417
 7042SOL    HW122025   4.527   5.125   5.474
 7042SOL    HW222026   4.470   5.014   5.368
 7043SOL     OW22027   2.407   5.947   0.504
 7043SOL    HW122028   2.456   6.034   0.510
 7043SOL    HW222029   2.442   5.893   0.428
 7044SOL     OW22030   5.029   6.174   5.191
 7044SOL    HW122031   4.975   6.195   5.110
 7044SOL    HW222032   5.068   6.258   5.229
 7045SOL     OW22033   5.331   0.709   1.603
 7045SOL    HW122034   5.287   0.768   1.670
 7045SOL    HW222035   5.388   0.641   1.651
 7046SOL     OW22036   3.053   0.743   2.209
 7046SOL    HW122037   2.971   0.695   2.179
 7046SOL    HW222038   3.041   0.775   2.303
 7047SOL     OW22039   0.923   6.829   1.134
 7047SOL    HW122040   0.847   6.885   1.168
 7047SOL    HW222041   0.887   6.756   1.077
 7048SOL     OW22042   0.625   5.269   4.888
 7048SOL    HW122043   0.563   5.345   4.907
 7048SOL    HW222044   0.578   5.183   4.904
 7049SOL     OW22045   2.575   1.848   5.136
 7049SOL    HW122046   2.526   1.906   5.070
 7049SOL    HW222047   2.519   1.837   5.218
 7050SOL     OW22048   4.221   4.479   0.739
 7050SOL    HW122049   4.126   4.450   0.749
 7050SOL    HW222050   4.248   4.472   0.643
 7051SOL     OW22051   2.143   0.757   2.175
 7051SOL    HW122052   2.053   0.748   2.133
 7051SOL    HW222053   2.161   0.853   2.197
 7052SOL     OW22054   5.688   2.379   3.014
 7052SOL    HW122055   5.616   2.314   3.040
 7052SOL    HW222056   5.763   2.331   2.969
 7053SOL     OW22057   0.591   4.460   3.377
 7053SOL    HW122058   0.543   4.394   3.434
 7053SOL    HW222059   0.652   4.412   3.315
 7054SOL     OW22060   5.301   6.497   0.864
 7054SOL    HW122061   5.253   6.545   0.792
 7054SOL    HW222062   5.388   6.461   0.829
 7055SOL     OW22063   2.092   7.017   0.029
 7055SOL    HW122064   2.066   6.950   6.982
 7055SOL    HW222065   2.172   0.047   7.018
 7056SOL     OW22066   0.801   5.508   1.400
 7056SOL    HW122067   0.773   5.540   1.310
 7056SOL    HW222068   0.759   5.565   1.471
 7057SOL     OW22069   3.015   6.041   4.924
 7057SOL    HW122070   2.978   6.129   4.893
 7057SOL    HW222071   3.113   6.037   4.901
 7058SOL     OW22072   5.825   2.869   5.712
 7058SOL    HW122073   5.777   2.818   5.784
 7058SOL    HW222074   5.830   2.965   5.738
 7059SOL     OW22075   1.959   1.166   3.919
 7059SOL    HW122076   1.931   1.160   4.014
 7059SOL    HW222077   2.057   1.186   3.913
 7060SOL     OW22078   2.723   2.500   0.830
 7060SOL    HW122079   2.757   2.416   0.873
 7060SOL    HW222080   2.654   2.542   0.889
 7061SOL     OW22081   1.133   6.606   0.858
 7061SOL    HW122082   1.046   6.656   0.859
 7061SOL    HW222083   1.120   6.516   0.817
 7062SOL     OW22084   3.629   0.791   5.463
 7062SOL    HW122085   3.643   0.692   5.466
 7062SOL    HW222086   3.556   0.816   5.526
 7063SOL     OW22087   7.017   1.106   1.095
 7063SOL    HW122088   6.969   1.156   1.024
 7063SOL    HW222089   0.085   1.148   1.111
 7064SOL     OW22090   2.354   1.618   5.793
 7064SOL    HW122091   2.432   1.679   5.803
 7064SOL    HW222092   2.298   1.647   5.716
 7065SOL     OW22093   2.945   0.110   2.745
 7065SOL    HW122094   2.935   0.020   2.788
 7065SOL    HW222095   2.962   0.099   2.647
 7066SOL     OW22096   4.368   0.996   1.620
 7066SOL    HW122097   4.452   1.047   1.603
 7066SOL    HW222098   4.388   0.916   1.677
 7067SOL     OW22099   3.011   4.449   5.834
 7067SOL    HW122100   3.084   4.490   5.778
 7067SOL    HW222101   3.021   4.350   5.834
 7068SOL     OW22102   4.821   5.074   2.633
 7068SOL    HW122103   4.727   5.082   2.600
 7068SOL    HW222104   4.874   5.020   2.567
 7069SOL     OW22105   3.659   1.589   5.918
 7069SOL    HW122106   3.748   1.593   5.874
 7069SOL    HW222107   3.591   1.557   5.852
 7070SOL     OW22108   0.664   1.967   5.657
 7070SOL    HW122109   0.632   1.876   5.632
 7070SOL    HW222110   0.763   1.971   5.647
 7071SOL     OW22111   4.255   5.393   6.984
 7071SOL    HW122112   4.259   5.464   6.913
 7071SOL    HW222113   4.204   5.314   6.950
 7072SOL     OW22114   1.434   3.720   5.558
 7072SOL    HW122115   1.454   3.715   5.460
 7072SOL    HW222116   1.370   3.647   5.583
 7073SOL     OW22117   4.238   1.192   4.671
 7073SOL    HW122118   4.297   1.244   4.609
 7073SOL    HW222119   4.143   1.216   4.654
 7074SOL     OW22120   5.704   2.854   2.745
 7074SOL    HW122121   5.671   2.781   2.805
 7074SOL    HW222122   5.804   2.849   2.739
 7075SOL     OW22123   1.830   4.278   2.441
 7075SOL    HW122124   1.808   4.320   2.354
 7075SOL    HW222125   1.912   4.320   2.479
 7076SOL     OW22126   6.295   1.706   1.229
 7076SOL    HW122127   6.317   1.636   1.297
 7076SOL    HW222128   6.268   1.662   1.143
 7077SOL     OW22129   3.649   6.231   2.196
 7077SOL    HW122130   3.573   6.284   2.158
 7077SOL    HW222131   3.688   6.173   2.125
 7078SOL     OW22132   6.838   1.688   0.126
 7078SOL    HW122133   6.742   1.717   0.121
 7078SOL    HW222134   6.850   1.602   0.078
 7079SOL     OW22135   2.836   5.885   5.323
 7079SOL    HW122136   2.813   5.795   5.360
 7079SOL    HW222137   2.905   5.875   5.251
 7080SOL     OW22138   3.718   1.700   6.657
 7080SOL    HW122139   3.686   1.607   6.673
 7080SOL    HW222140   3.660   1.765   6.705
 7081SOL     OW22141   3.559   6.478   6.240
 7081SOL    HW122142   3.602   6.537   6.308
 7081SOL    HW222143   3.624   6.459   6.167
 7082SOL     OW22144   1.608   5.057   2.115
 7082SOL    HW122145   1.618   5.112   2.032
 7082SOL    HW222146   1.697   5.022   2.143
 7083SOL     OW22147   5.566   2.715   3.368
 7083SOL    HW122148   5.532   2.712   3.462
 7083SOL    HW222149   5.652   2.665   3.362
 7084SOL     OW22150   1.250   5.294   0.451
 7084SOL    HW122151   1.152   5.283   0.465
 7084SOL    HW222152   1.280   5.382   0.489
 7085SOL     OW22153   0.266   2.979   2.107
 7085SOL    HW122154   0.334   2.996   2.036
 7085SOL    HW222155   0.175   2.999   2.071
 7086SOL     OW22156   3.733   0.434   3.750
 7086SOL    HW122157   3.644   0.398   3.719
 7086SOL    HW222158   3.738   0.532   3.729
 7087SOL     OW22159   5.994   2.630   4.289
 7087SOL    HW122160   5.983   2.531   4.280
 7087SOL    HW222161   6.092   2.652   4.290
 7088SOL     OW22162   6.160   1.652   5.672
 7088SOL    HW122163   6.192   1.669   5.765
 7088SOL    HW222164   6.177   1.556   5.648
 7089SOL     OW22165   3.423   6.364   2.060
 7089SOL    HW122166   3.432   6.420   1.978
 7089SOL    HW222167   3.382   6.418   2.134
 7090SOL     OW22168   5.560   2.997   1.812
 7090SOL    HW122169   5.635   2.982   1.876
 7090SOL    HW222170   5.585   3.068   1.747
 7091SOL     OW22171   5.530   6.674   5.922
 7091SOL    HW122172   5.435   6.704   5.925
 7091SOL    HW222173   5.584   6.729   5.986
 7092SOL     OW22174   3.925   0.245   6.108
 7092SOL    HW122175   3.901   0.306   6.032
 7092SOL    HW222176   3.999   0.287   6.161
 7093SOL     OW22177   4.193   2.889   0.429
 7093SOL    HW122178   4.209   2.835   0.347
 7093SOL    HW222179   4.095   2.890   0.449
 7094SOL     OW22180   4.307   0.877   5.551
 7094SOL    HW122181   4.260   0.843   5.469
 7094SOL    HW222182   4.315   0.977   5.545
 7095SOL     OW22183   2.688   5.054   2.975
 7095SOL    HW122184   2.622   5.087   2.907
 7095SOL    HW222185   2.697   5.121   3.049
 7096SOL     OW22186   0.103   4.724   0.156
 7096SOL    HW122187   0.013   4.706   0.115
 7096SOL    HW222188   0.169   4.743   0.083
 7097SOL     OW22189   4.813   2.024   3.303
 7097SOL    HW122190   4.765   2.015   3.216
 7097SOL    HW222191   4.912   2.013   3.288
 7098SOL     OW22192   1.373   1.185   1.990
 7098SOL    HW122193   1.464   1.185   2.031
 7098SOL    HW222194   1.308   1.143   2.053
 7099SOL     OW22195   3.091   1.492   5.246
 7099SOL    HW122196   3.078   1.490   5.147
 7099SOL    HW222197   3.134   1.579   5.271
 7100SOL     OW22198   0.722   4.231   1.050
 7100SOL    HW122199   0.761   4.147   1.014
 7100SOL    HW222200   0.664   4.210   1.128
 7101SOL     OW22201   2.809   6.876   4.245
 7101SOL    HW122202   2.907   6.853   4.241
 7101SOL    HW222203   2.757   6.805   4.198
 7102SOL     OW22204   5.324   2.003   2.485
 7102SOL    HW122205   5.346   1.909   2.509
 7102SOL    HW222206   5.225   2.017   2.491
 7103SOL     OW22207   6.618   3.772   4.631
 7103SOL    HW122208   6.604   3.813   4.722
 7103SOL    HW222209   6.691   3.821   4.584
 7104SOL     OW22210   4.415   2.488   4.203
 7104SOL    HW122211   4.474   2.564   4.175
 7104SOL    HW222212   4.396   2.430   4.124
 7105SOL     OW22213   3.094   3.489   1.723
 7105SOL    HW122214   3.163   3.560   1.721
 7105SOL    HW222215   3.074   3.463   1.817
 7106SOL     OW22216   2.426   2.222   2.765
 7106SOL    HW122217   2.451   2.191   2.673
 7106SOL    HW222218   2.327   2.212   2.777
 7107SOL     OW22219   3.717   0.286   0.879
 7107SOL    HW122220   3.637   0.291   0.820
 7107SOL    HW222221   3.695   0.230   0.959
 7108SOL     OW22222   2.465   6.421   1.893
 7108SOL    HW122223   2.533   6.427   1.966
 7108SOL    HW222224   2.402   6.498   1.900
 7109SOL     OW22225   2.231   5.197   5.888
 7109SOL    HW122226   2.183   5.180   5.803
 7109SOL    HW222227   2.247   5.111   5.936
 7110SOL     OW22228   2.305   5.516   5.788
 7110SOL    HW122229   2.319   5.615   5.796
 7110SOL    HW222230   2.303   5.475   5.879
 7111SOL     OW22231   6.370   1.966   3.722
 7111SOL    HW122232   6.273   1.991   3.723
 7111SOL    HW222233   6.381   1.870   3.749
 7112SOL     OW22234   6.454   4.768   4.304
 7112SOL    HW122235   6.457   4.839   4.233
 7112SOL    HW222236   6.545   4.729   4.317
 7113SOL     OW22237   3.337   0.249   5.186
 7113SOL    HW122238   3.322   0.152   5.166
 7113SOL    HW222239   3.255   0.287   5.230
 7114SOL     OW22240   6.022   3.665   0.517
 7114SOL    HW122241   6.014   3.608   0.434
 7114SOL    HW222242   6.112   3.654   0.557
 7115SOL     OW22243   4.991   3.166   6.139
 7115SOL    HW122244   5.024   3.150   6.046
 7115SOL    HW222245   4.917   3.233   6.137
 7116SOL     OW22246   6.785   5.326   4.470
 7116SOL    HW122247   6.814   5.364   4.558
 7116SOL    HW222248   6.797   5.227   4.471
 7117SOL     OW22249   2.871   0.840   2.594
 7117SOL    HW122250   2.852   0.771   2.664
 7117SOL    HW222251   2.809   0.918   2.606
 7118SOL     OW22252   5.209   5.035   6.026
 7118SOL    HW122253   5.291   5.059   5.973
 7118SOL    HW222254   5.191   4.937   6.016
 7119SOL     OW22255   3.090   6.465   3.866
 7119SOL    HW122256   3.155   6.530   3.904
 7119SOL    HW222257   3.134   6.410   3.795
 7120SOL     OW22258   4.443   2.071   2.341
 7120SOL    HW122259   4.382   1.993   2.332
 7120SOL    HW222260   4.398   2.144   2.393
 7121SOL     OW22261   1.609   6.107   1.696
 7121SOL    HW122262   1.535   6.133   1.634
 7121SOL    HW222263   1.665   6.187   1.716
 7122SOL     OW22264   2.594   2.493   6.506
 7122SOL    HW122265   2.552   2.408   6.538
 7122SOL    HW222266   2.589   2.496   6.406
 7123SOL     OW22267   5.294   3.357   6.042
 7123SOL    HW122268   5.198   3.378   6.022
 7123SOL    HW222269   5.332   3.301   5.968
 7124SOL     OW22270   3.503   2.762   5.815
 7124SOL    HW122271   3.473   2.830   5.881
 7124SOL    HW222272   3.524   2.806   5.728
 7125SOL     OW22273   1.399   5.844   1.623
 7125SOL    HW122274   1.425   5.869   1.716
 7125SOL    HW222275   1.299   5.837   1.616
 7126SOL     OW22276   3.877   4.504   0.127
 7126SOL    HW122277   3.810   4.465   0.190
 7126SOL    HW222278   3.883   4.446   0.045
 7127SOL     OW22279   2.575   0.140   4.804
 7127SOL    HW122280   2.630   0.214   4.843
 7127SOL    HW222281   2.564   0.154   4.706
 7128SOL     OW22282   4.388   3.595   0.215
 7128SOL    HW122283   4.486   3.610   0.225
 7128SOL    HW222284   4.353   3.548   0.296
 7129SOL     OW22285   6.803   1.823   0.608
 7129SOL    HW122286   6.838   1.916   0.610
 7129SOL    HW222287   6.792   1.789   0.702
 7130SOL     OW22288   3.327   6.920   3.513
 7130SOL    HW122289   3.365   7.002   3.553
 7130SOL    HW222290   3.265   6.876   3.579
 7131SOL     OW22291   2.487   1.232   2.421
 7131SOL    HW122292   2.452   1.256   2.511
 7131SOL    HW222293   2.514   1.314   2.372
 7132SOL     OW22294   5.673   5.217   2.564
 7132SOL    HW122295   5.628   5.248   2.480
 7132SOL    HW222296   5.607   5.215   2.638
 7133SOL     OW22297   3.735   6.560   2.358
 7133SOL    HW122298   3.679   6.623   2.304
 7133SOL    HW222299   3.691   6.542   2.446
 7134SOL     OW22300   6.210   4.578   6.048
 7134SOL    HW122301   6.280   4.540   5.989
 7134SOL    HW222302   6.121   4.575   6.001
 7135SOL     OW22303   2.618   5.724   6.944
 7135SOL    HW122304   2.707   5.762   6.969
 7135SOL    HW222305   2.563   5.709   0.005
 7136SOL     OW22306   1.168   3.367   2.663
 7136SOL    HW122307   1.155   3.432   2.587
 7136SOL    HW222308   1.105   3.390   2.737
 7137SOL     OW22309   1.249   6.958   1.925
 7137SOL    HW122310   1.243   6.865   1.959
 7137SOL    HW222311   1.207   7.021   1.990
 7138SOL     OW22312   6.739   4.056   1.026
 7138SOL    HW122313   6.716   4.041   0.930
 7138SOL    HW222314   6.732   3.970   1.076
 7139SOL     OW22315   5.934   5.824   0.762
 7139SOL    HW122316   5.873   5.829   0.683
 7139SOL    HW222317   6.015   5.880   0.745
 7140SOL     OW22318   5.904   3.875   0.645
 7140SOL    HW122319   5.913   3.891   0.744
 7140SOL    HW222320   5.986   3.829   0.611
 7141SOL     OW22321   2.246   2.434   0.553
 7141SOL    HW122322   2.252   2.521   0.601
 7141SOL    HW222323   2.334   2.387   0.557
 7142SOL     OW22324   3.806   6.085   6.088
 7142SOL    HW122325   3.750   6.084   6.005
 7142SOL    HW222326   3.898   6.052   6.067
 7143SOL     OW22327   2.788   3.632   5.811
 7143SOL    HW122328   2.783   3.614   5.713
 7143SOL    HW222329   2.696   3.653   5.846
 7144SOL     OW22330   5.920   1.791   6.320
 7144SOL    HW122331   5.825   1.806   6.291
 7144SOL    HW222332   5.947   1.697   6.299
 7145SOL     OW22333   0.180   3.626   6.738
 7145SOL    HW122334   0.191   3.697   6.808
 7145SOL    HW222335   0.207   3.538   6.774
 7146SOL     OW22336   0.201   1.644   4.394
 7146SOL    HW122337   0.174   1.732   4.355
 7146SOL    HW222338   0.301   1.643   4.407
 7147SOL     OW22339   6.787   0.593   6.782
 7147SOL    HW122340   6.781   0.639   6.870
 7147SOL    HW222341   6.865   0.628   6.731
 7148SOL     OW22342   5.464   6.428   0.239
 7148SOL    HW122343   5.382   6.485   0.232
 7148SOL    HW222344   5.546   6.485   0.226
 7149SOL     OW22345   6.892   3.769   0.325
 7149SOL    HW122346   6.903   3.747   0.228
 7149SOL    HW222347   6.897   3.685   0.379
 7150SOL     OW22348   2.249   2.211   0.068
 7150SOL    HW122349   2.307   2.184   7.013
 7150SOL    HW222350   2.302   2.265   0.133
 7151SOL     OW22351   5.965   2.390   0.082
 7151SOL    HW122352   5.990   2.454   0.010
 7151SOL    HW222353   5.874   2.353   0.063
 7152SOL     OW22354   5.729   0.359   4.504
 7152SOL    HW122355   5.814   0.317   4.534
 7152SOL    HW222356   5.658   0.344   4.573
 7153SOL     OW22357   5.052   6.040   0.161
 7153SOL    HW122358   5.017   6.117   0.215
 7153SOL    HW222359   4.975   5.996   0.113
 7154SOL     OW22360   5.268   6.296   2.121
 7154SOL    HW122361   5.182   6.266   2.080
 7154SOL    HW222362   5.250   6.340   2.209
 7155SOL     OW22363   1.231   6.795   1.395
 7155SOL    HW122364   1.157   6.808   1.461
 7155SOL    HW222365   1.192   6.765   1.308
 7156SOL     OW22366   7.011   3.439   5.452
 7156SOL    HW122367   6.989   3.519   5.508
 7156SOL    HW222368   0.088   3.434   5.438
 7157SOL     OW22369   0.046   4.199   5.885
 7157SOL    HW122370   0.008   4.145   5.810
 7157SOL    HW222371   0.146   4.188   5.887
 7158SOL     OW22372   5.026   6.737   3.728
 7158SOL    HW122373   5.099   6.751   3.660
 7158SOL    HW222374   4.977   6.822   3.743
 7159SOL     OW22375   0.809   6.368   3.625
 7159SOL    HW122376   0.768   6.446   3.670
 7159SOL    HW222377   0.760   6.284   3.651
 7160SOL     OW22378   5.920   6.113   2.044
 7160SOL    HW122379   5.878   6.028   2.076
 7160SOL    HW222380   5.869   6.191   2.081
 7161SOL     OW22381   3.888   2.729   1.385
 7161SOL    HW122382   3.956   2.800   1.369
 7161SOL    HW222383   3.842   2.746   1.473
 7162SOL     OW22384   0.341   6.533   0.233
 7162SOL    HW122385   0.281   6.554   0.310
 7162SOL    HW222386   0.399   6.455   0.257
 7163SOL     OW22387   0.016   5.539   0.605
 7163SOL    HW122388   6.969   5.491   0.550
 7163SOL    HW222389   0.064   5.474   0.663
 7164SOL     OW22390   1.043   6.425   6.646
 7164SOL    HW122391   0.968   6.448   6.585
 7164SOL    HW222392   1.084   6.338   6.617
 7165SOL     OW22393   4.461   3.087   6.133
 7165SOL    HW122394   4.555   3.083   6.102
 7165SOL    HW222395   4.459   3.097   6.233
 7166SOL     OW22396   0.086   6.653   5.772
 7166SOL    HW122397   0.178   6.636   5.805
 7166SOL    HW222398   0.053   6.740   5.809
 7167SOL     OW22399   1.028   3.975   5.689
 7167SOL    HW122400   1.125   3.992   5.708
 7167SOL    HW222401   0.980   4.062   5.681
 7168SOL     OW22402   6.813   0.547   1.940
 7168SOL    HW122403   6.896   0.521   1.891
 7168SOL    HW222404   6.820   0.517   2.035
 7169SOL     OW22405   2.127   4.830   5.246
 7169SOL    HW122406   2.096   4.897   5.314
 7169SOL    HW222407   2.216   4.794   5.273
 7170SOL     OW22408   4.190   2.290   1.637
 7170SOL    HW122409   4.238   2.348   1.572
 7170SOL    HW222410   4.228   2.304   1.729
 7171SOL     OW22411   0.242   6.372   1.776
 7171SOL    HW122412   0.281   6.298   1.722
 7171SOL    HW222413   0.280   6.460   1.746
 7172SOL     OW22414   1.273   2.245   3.050
 7172SOL    HW122415   1.258   2.334   3.095
 7172SOL    HW222416   1.362   2.246   3.005
 7173SOL     OW22417   3.582   5.394   4.249
 7173SOL    HW122418   3.644   5.437   4.184
 7173SOL    HW222419   3.507   5.457   4.272
 7174SOL     OW22420   6.586   3.850   2.900
 7174SOL    HW122421   6.617   3.878   2.809
 7174SOL    HW222422   6.658   3.796   2.944
 7175SOL     OW22423   5.795   2.764   6.133
 7175SOL    HW122424   5.722   2.816   6.177
 7175SOL    HW222425   5.767   2.738   6.041
 7176SOL     OW22426   6.062   2.007   6.300
 7176SOL    HW122427   6.133   2.013   6.371
 7176SOL    HW222428   6.030   1.912   6.293
 7177SOL     OW22429   1.033   5.275   3.394
 7177SOL    HW122430   0.990   5.186   3.406
 7177SOL    HW222431   1.071   5.283   3.302
 7178SOL     OW22432   0.273   5.876   5.412
 7178SOL    HW122433   0.341   5.804   5.424
 7178SOL    HW222434   0.256   5.890   5.314
 7179SOL     OW22435   5.229   4.607   5.456
 7179SOL    HW122436   5.261   4.692   5.497
 7179SOL    HW222437   5.278   4.591   5.370
 7180SOL     OW22438   6.475   1.941   2.651
 7180SOL    HW122439   6.494   1.844   2.662
 7180SOL    HW222440   6.561   1.992   2.651
 7181SOL     OW22441   3.916   0.378   0.286
 7181SOL    HW122442   3.849   0.304   0.290
 7181SOL    HW222443   3.878   0.454   0.232
 7182SOL     OW22444   2.211   0.578   2.733
 7182SOL    HW122445   2.198   0.676   2.717
 7182SOL    HW222446   2.144   0.527   2.679
 7183SOL     OW22447   1.817   6.962   0.881
 7183SOL    HW122448   1.784   0.032   0.901
 7183SOL    HW222449   1.835   6.953   0.783
 7184SOL     OW22450   6.984   1.449   3.428
 7184SOL    HW122451   6.951   1.360   3.460
 7184SOL    HW222452   6.997   1.446   3.329
 7185SOL     OW22453   3.564   0.071   3.619
 7185SOL    HW122454   3.606   7.007   3.650
 7185SOL    HW222455   3.633   0.126   3.570
 7186SOL     OW22456   6.528   2.984   0.990
 7186SOL    HW122457   6.574   2.896   1.004
 7186SOL    HW222458   6.535   3.038   1.074
 7187SOL     OW22459   2.963   3.778   3.537
 7187SOL    HW122460   2.924   3.708   3.597
 7187SOL    HW222461   3.051   3.808   3.573
 7188SOL     OW22462   4.412   5.525   6.702
 7188SOL    HW122463   4.434   5.570   6.616
 7188SOL    HW222464   4.318   5.547   6.729
 7189SOL     OW22465   6.952   1.825   6.180
 7189SOL    HW122466   6.867   1.876   6.163
 7189SOL    HW222467   0.008   1.878   6.145
 7190SOL     OW22468   5.446   5.644   0.564
 7190SOL    HW122469   5.444   5.588   0.646
 7190SOL    HW222470   5.541   5.665   0.540
 7191SOL     OW22471   0.218   5.292   2.330
 7191SOL    HW122472   0.255   5.295   2.423
 7191SOL    HW222473   0.202   5.196   2.305
 7192SOL     OW22474   3.293   4.600   5.770
 7192SOL    HW122475   3.240   4.586   5.686
 7192SOL    HW222476   3.380   4.551   5.763
 7193SOL     OW22477   4.046   1.322   4.403
 7193SOL    HW122478   4.032   1.261   4.325
 7193SOL    HW222479   3.979   1.301   4.474
 7194SOL     OW22480   3.663   2.671   5.309
 7194SOL    HW122481   3.567   2.698   5.299
 7194SOL    HW222482   3.668   2.584   5.357
 7195SOL     OW22483   6.620   4.309   5.259
 7195SOL    HW122484   6.567   4.225   5.242
 7195SOL    HW222485   6.557   4.386   5.273
 7196SOL     OW22486   3.007   3.747   1.285
 7196SOL    HW122487   2.959   3.735   1.199
 7196SOL    HW222488   2.974   3.680   1.352
 7197SOL     OW22489   3.336   4.660   6.687
 7197SOL    HW122490   3.429   4.697   6.696
 7197SOL    HW222491   3.301   4.637   6.778
 7198SOL     OW22492   1.562   6.272   1.980
 7198SOL    HW122493   1.557   6.246   1.883
 7198SOL    HW222494   1.629   6.346   1.990
 7199SOL     OW22495   6.001   1.185   3.999
 7199SOL    HW122496   6.016   1.086   3.995
 7199SOL    HW222497   5.963   1.216   3.912
 7200SOL     OW22498   0.440   4.499   6.107
 7200SOL    HW122499   0.478   4.406   6.107
 7200SOL    HW222500   0.510   4.563   6.137
 7201SOL     OW22501   5.937   5.345   4.719
 7201SOL    HW122502   6.029   5.359   4.684
 7201SOL    HW222503   5.893   5.433   4.733
 7202SOL     OW22504   3.759   6.352   6.050
 7202SOL    HW122505   3.794   6.269   6.094
 7202SOL    HW222506   3.809   6.431   6.083
 7203SOL     OW22507   1.206   1.879   1.236
 7203SOL    HW122508   1.262   1.855   1.316
 7203SOL    HW222509   1.266   1.903   1.160
 7204SOL     OW22510   5.084   0.630   2.789
 7204SOL    HW122511   5.057   0.545   2.834
 7204SOL    HW222512   5.183   0.633   2.779
 7205SOL     OW22513   3.754   1.226   4.046
 7205SOL    HW122514   3.781   1.309   3.998
 7205SOL    HW222515   3.725   1.249   4.139
 7206SOL     OW22516   1.610   2.774   6.545
 7206SOL    HW122517   1.689   2.833   6.527
 7206SOL    HW222518   1.589   2.775   6.642
 7207SOL     OW22519   1.762   2.386   3.686
 7207SOL    HW122520   1.768   2.476   3.731
 7207SOL    HW222521   1.854   2.351   3.671
 7208SOL     OW22522   3.376   0.536   3.539
 7208SOL    HW122523   3.414   0.481   3.613
 7208SOL    HW222524   3.295   0.492   3.502
 7209SOL     OW22525   4.698   1.390   3.066
 7209SOL    HW122526   4.601   1.375   3.047
 7209SOL    HW222527   4.713   1.399   3.164
 7210SOL     OW22528   3.403   1.155   4.936
 7210SOL    HW122529   3.467   1.231   4.923
 7210SOL    HW222530   3.384   1.143   5.033
 7211SOL     OW22531   5.137   5.869   6.198
 7211SOL    HW122532   5.164   5.965   6.197
 7211SOL    HW222533   5.117   5.841   6.292
 7212SOL     OW22534   0.197   5.979   4.404
 7212SOL    HW122535   0.160   6.055   4.351
 7212SOL    HW222536   0.185   5.894   4.353
 7213SOL     OW22537   5.756   2.749   0.462
 7213SOL    HW122538   5.684   2.776   0.526
 7213SOL    HW222539   5.836   2.718   0.513
 7214SOL     OW22540   5.923   1.446   5.806
 7214SOL    HW122541   5.970   1.495   5.879
 7214SOL    HW222542   5.845   1.500   5.774
 7215SOL     OW22543   6.660   1.521   3.109
 7215SOL    HW122544   6.627   1.462   3.036
 7215SOL    HW222545   6.582   1.564   3.155
 7216SOL     OW22546   5.535   6.273   4.047
 7216SOL    HW122547   5.521   6.291   4.145
 7216SOL    HW222548   5.497   6.183   4.025
 7217SOL     OW22549   1.258   3.314   2.918
 7217SOL    HW122550   1.332   3.270   2.968
 7217SOL    HW222551   1.263   3.289   2.822
 7218SOL     OW22552   0.338   2.672   6.009
 7218SOL    HW122553   0.422   2.664   5.956
 7218SOL    HW222554   0.265   2.622   5.963
 7219SOL     OW22555   3.150   5.787   1.565
 7219SOL    HW122556   3.072   5.725   1.552
 7219SOL    HW222557   3.204   5.790   1.481
 7220SOL     OW22558   0.600   3.690   4.484
 7220SOL    HW122559   0.607   3.735   4.573
 7220SOL    HW222560   0.514   3.640   4.478
 7221SOL     OW22561   5.010   4.994   3.808
 7221SOL    HW122562   5.094   5.040   3.836
 7221SOL    HW222563   4.932   5.056   3.822
 7222SOL     OW22564   5.847   5.081   3.663
 7222SOL    HW122565   5.882   5.175   3.661
 7222SOL    HW222566   5.761   5.076   3.613
 7223SOL     OW22567   6.017   5.387   1.679
 7223SOL    HW122568   6.059   5.473   1.649
 7223SOL    HW222569   5.947   5.407   1.748
 7224SOL     OW22570   6.141   2.618   3.340
 7224SOL    HW122571   6.053   2.584   3.305
 7224SOL    HW222572   6.196   2.651   3.263
 7225SOL     OW22573   1.475   5.202   0.718
 7225SOL    HW122574   1.444   5.157   0.802
 7225SOL    HW222575   1.403   5.200   0.650
 7226SOL     OW22576   6.602   6.824   0.242
 7226SOL    HW122577   6.674   6.766   0.202
 7226SOL    HW222578   6.622   6.840   0.338
 7227SOL     OW22579   1.962   0.451   1.708
 7227SOL    HW122580   1.871   0.412   1.720
 7227SOL    HW222581   1.958   0.550   1.721
 7228SOL     OW22582   6.491   3.803   3.602
 7228SOL    HW122583   6.502   3.719   3.550
 7228SOL    HW222584   6.446   3.783   3.689
 7229SOL     OW22585   5.477   6.390   5.253
 7229SOL    HW122586   5.509   6.413   5.344
 7229SOL    HW222587   5.403   6.323   5.260
 7230SOL     OW22588   2.693   4.747   6.594
 7230SOL    HW122589   2.787   4.713   6.599
 7230SOL    HW222590   2.630   4.670   6.582
 7231SOL     OW22591   3.705   2.608   6.949
 7231SOL    HW122592   3.800   2.634   6.965
 7231SOL    HW222593   3.663   2.580   0.014
 7232SOL     OW22594   4.276   5.646   3.541
 7232SOL    HW122595   4.367   5.665   3.577
 7232SOL    HW222596   4.271   5.551   3.510
 7233SOL     OW22597   0.479   1.718   6.960
 7233SOL    HW122598   0.537   1.639   6.940
 7233SOL    HW222599   0.518   1.800   6.918
 7234SOL     OW22600   5.462   6.013   3.934
 7234SOL    HW122601   5.383   5.982   3.882
 7234SOL    HW222602   5.518   5.935   3.961
 7235SOL     OW22603   0.095   0.078   1.171
 7235SOL    HW122604   0.056   0.160   1.128
 7235SOL    HW222605   0.026   0.006   1.174
 7236SOL     OW22606   0.742   4.321   3.164
 7236SOL    HW122607   0.698   4.236   3.138
 7236SOL    HW222608   0.800   4.305   3.244
 7237SOL     OW22609   4.653   1.215   6.357
 7237SOL    HW122610   4.563   1.186   6.325
 7237SOL    HW222611   4.647   1.309   6.392
 7238SOL     OW22612   4.775   3.259   0.031
 7238SOL    HW122613   4.825   3.310   0.101
 7238SOL    HW222614   4.742   3.322   6.983
 7239SOL     OW22615   6.198   2.547   2.871
 7239SOL    HW122616   6.232   2.611   2.802
 7239SOL    HW222617   6.101   2.564   2.888
 7240SOL     OW22618   0.417   1.825   0.988
 7240SOL    HW122619   0.401   1.837   0.890
 7240SOL    HW222620   0.344   1.768   1.026
 7241SOL     OW22621   2.333   0.209   3.271
 7241SOL    HW122622   2.407   0.149   3.303
 7241SOL    HW222623   2.346   0.228   3.174
 7242SOL     OW22624   6.667   3.502   5.826
 7242SOL    HW122625   6.716   3.414   5.822
 7242SOL    HW222626   6.695   3.551   5.909
 7243SOL     OW22627   6.673   4.510   6.516
 7243SOL    HW122628   6.664   4.521   6.615
 7243SOL    HW222629   6.759   4.464   6.495
 7244SOL     OW22630   0.078   6.011   0.478
 7244SOL    HW122631   7.008   6.049   0.465
 7244SOL    HW222632   0.076   5.912   0.466
 7245SOL     OW22633   2.046   2.442   6.671
 7245SOL    HW122634   2.110   2.408   6.602
 7245SOL    HW222635   1.953   2.436   6.635
 7246SOL     OW22636   4.559   6.896   4.538
 7246SOL    HW122637   4.621   6.853   4.474
 7246SOL    HW222638   4.599   6.981   4.572
 7247SOL     OW22639   3.556   4.116   5.016
 7247SOL    HW122640   3.595   4.153   4.931
 7247SOL    HW222641   3.601   4.158   5.094
 7248SOL     OW22642   2.542   2.437   5.081
 7248SOL    HW122643   2.585   2.370   5.021
 7248SOL    HW222644   2.596   2.447   5.164
 7249SOL     OW22645   3.820   5.834   3.142
 7249SOL    HW122646   3.914   5.824   3.176
 7249SOL    HW222647   3.769   5.893   3.205
 7250SOL     OW22648   4.739   5.126   5.228
 7250SOL    HW122649   4.834   5.125   5.259
 7250SOL    HW222650   4.680   5.097   5.304
 7251SOL     OW22651   6.934   5.697   3.828
 7251SOL    HW122652   7.002   5.711   3.900
 7251SOL    HW222653   6.899   5.786   3.798
 7252SOL     OW22654   3.807   3.944   2.040
 7252SOL    HW122655   3.732   3.886   2.009
 7252SOL    HW222656   3.772   4.035   2.064
 7253SOL     OW22657   1.215   5.211   5.884
 7253SOL    HW122658   1.307   5.196   5.848
 7253SOL    HW222659   1.221   5.270   5.965
 7254SOL     OW22660   0.485   3.989   4.073
 7254SOL    HW122661   0.544   3.949   4.143
 7254SOL    HW222662   0.393   3.952   4.082
 7255SOL     OW22663   4.763   4.177   0.802
 7255SOL    HW122664   4.825   4.254   0.814
 7255SOL    HW222665   4.765   4.147   0.706
 7256SOL     OW22666   3.178   0.247   3.781
 7256SOL    HW122667   3.110   0.302   3.831
 7256SOL    HW222668   3.195   0.289   3.692
 7257SOL     OW22669   1.047   1.346   4.717
 7257SOL    HW122670   1.137   1.337   4.674
 7257SOL    HW222671   0.975   1.325   4.651
 7258SOL     OW22672   0.505   1.716   2.964
 7258SOL    HW122673   0.409   1.686   2.964
 7258SOL    HW222674   0.510   1.810   2.930
 7259SOL     OW22675   1.334   3.528   1.856
 7259SOL    HW122676   1.276   3.473   1.795
 7259SOL    HW222677   1.375   3.603   1.804
 7260SOL     OW22678   5.875   2.790   0.844
 7260SOL    HW122679   5.877   2.879   0.797
 7260SOL    HW222680   5.820   2.726   0.791
 7261SOL     OW22681   0.354   4.461   6.996
 7261SOL    HW122682   0.411   4.518   0.034
 7261SOL    HW222683   0.377   4.365   7.009
 7262SOL     OW22684   3.197   0.474   4.929
 7262SOL    HW122685   3.150   0.423   5.001
 7262SOL    HW222686   3.226   0.563   4.964
 7263SOL     OW22687   6.848   5.028   6.097
 7263SOL    HW122688   6.790   5.100   6.059
 7263SOL    HW222689   6.937   5.029   6.051
 7264SOL     OW22690   4.691   2.066   1.175
 7264SOL    HW122691   4.674   1.997   1.246
 7264SOL    HW222692   4.755   2.134   1.211
 7265SOL     OW22693   3.262   6.828   5.282
 7265SOL    HW122694   3.254   6.888   5.362
 7265SOL    HW222695   3.196   6.754   5.288
 7266SOL     OW22696   0.009   0.874   2.606
 7266SOL    HW122697   0.039   0.891   2.700
 7266SOL    HW222698   6.934   0.898   2.597
 7267SOL     OW22699   6.594   3.657   5.416
 7267SOL    HW122700   6.500   3.623   5.427
 7267SOL    HW222701   6.649   3.587   5.371
 7268SOL     OW22702   5.528   6.192   4.732
 7268SOL    HW122703   5.456   6.254   4.702
 7268SOL    HW222704   5.537   6.118   4.665
 7269SOL     OW22705   2.474   5.508   4.754
 7269SOL    HW122706   2.529   5.434   4.792
 7269SOL    HW222707   2.377   5.485   4.762
 7270SOL     OW22708   0.155   1.906   4.327
 7270SOL    HW122709   0.068   1.957   4.324
 7270SOL    HW222710   0.231   1.970   4.316
 7271SOL     OW22711   0.919   5.648   3.116
 7271SOL    HW122712   0.961   5.712   3.181
 7271SOL    HW222713   0.968   5.561   3.119
 7272SOL     OW22714   6.588   3.951   1.996
 7272SOL    HW122715   6.549   3.882   1.935
 7272SOL    HW222716   6.536   3.952   2.082
 7273SOL     OW22717   0.414   1.574   4.660
 7273SOL    HW122718   0.334   1.577   4.720
 7273SOL    HW222719   0.492   1.539   4.711
 7274SOL     OW22720   0.055   5.758   0.447
 7274SOL    HW122721   7.019   5.767   0.366
 7274SOL    HW222722   0.026   5.678   0.500
 7275SOL     OW22723   0.140   5.386   3.293
 7275SOL    HW122724   0.165   5.409   3.199
 7275SOL    HW222725   0.213   5.333   3.335
 7276SOL     OW22726   5.100   6.237   3.613
 7276SOL    HW122727   5.088   6.309   3.681
 7276SOL    HW222728   5.131   6.277   3.526
 7277SOL     OW22729   5.247   1.017   6.746
 7277SOL    HW122730   5.237   0.930   6.698
 7277SOL    HW222731   5.168   1.075   6.726
 7278SOL     OW22732   3.962   3.114   1.914
 7278SOL    HW122733   4.049   3.071   1.891
 7278SOL    HW222734   3.949   3.196   1.858
 7279SOL     OW22735   3.476   6.263   5.960
 7279SOL    HW122736   3.465   6.342   5.899
 7279SOL    HW222737   3.571   6.258   5.991
 7280SOL     OW22738   4.117   6.968   5.703
 7280SOL    HW122739   4.043   6.967   5.635
 7280SOL    HW222740   4.199   6.927   5.664
 7281SOL     OW22741   5.680   1.070   6.234
 7281SOL    HW122742   5.584   1.090   6.252
 7281SOL    HW222743   5.732   1.155   6.231
 7282SOL     OW22744   6.125   6.125   3.392
 7282SOL    HW122745   6.203   6.089   3.444
 7282SOL    HW222746   6.042   6.116   3.446
 7283SOL     OW22747   2.608   1.479   2.748
 7283SOL    HW122748   2.548   1.428   2.686
 7283SOL    HW222749   2.660   1.414   2.804
 7284SOL     OW22750   1.142   0.874   4.282
 7284SOL    HW122751   1.112   0.861   4.377
 7284SOL    HW222752   1.067   0.913   4.229
 7285SOL     OW22753   6.066   5.173   1.882
 7285SOL    HW122754   6.131   5.234   1.927
 7285SOL    HW222755   6.034   5.215   1.797
 7286SOL     OW22756   1.722   3.513   0.287
 7286SOL    HW122757   1.787   3.504   0.211
 7286SOL    HW222758   1.672   3.427   0.298
 7287SOL     OW22759   6.327   2.199   6.231
 7287SOL    HW122760   6.318   2.144   6.314
 7287SOL    HW222761   6.347   2.139   6.153
 7288SOL     OW22762   2.693   0.496   6.671
 7288SOL    HW122763   2.640   0.580   6.659
 7288SOL    HW222764   2.763   0.510   6.741
 7289SOL     OW22765   4.317   1.008   3.155
 7289SOL    HW122766   4.342   0.931   3.097
 7289SOL    HW222767   4.399   1.059   3.181
 7290SOL     OW22768   2.200   6.127   4.382
 7290SOL    HW122769   2.267   6.194   4.414
 7290SOL    HW222770   2.242   6.036   4.379
 7291SOL     OW22771   3.843   4.841   1.508
 7291SOL    HW122772   3.836   4.746   1.480
 7291SOL    HW222773   3.762   4.867   1.561
 7292SOL     OW22774   4.065   0.296   5.121
 7292SOL    HW122775   3.980   0.245   5.132
 7292SOL    HW222776   4.046   0.383   5.075
 7293SOL     OW22777   2.623   0.780   6.054
 7293SOL    HW122778   2.719   0.775   6.083
 7293SOL    HW222779   2.574   0.701   6.089
 7294SOL     OW22780   6.210   4.866   6.917
 7294SOL    HW122781   6.288   4.920   6.885
 7294SOL    HW222782   6.131   4.884   6.858
 7295SOL     OW22783   3.960   6.389   1.697
 7295SOL    HW122784   3.885   6.450   1.673
 7295SOL    HW222785   3.985   6.402   1.793
 7296SOL     OW22786   4.378   5.537   0.581
 7296SOL    HW122787   4.436   5.467   0.621
 7296SOL    HW222788   4.296   5.550   0.637
 7297SOL     OW22789   4.551   6.634   2.057
 7297SOL    HW122790   4.537   6.635   1.958
 7297SOL    HW222791   4.617   6.704   2.083
 7298SOL     OW22792   5.319   2.458   4.759
 7298SOL    HW122793   5.282   2.536   4.808
 7298SOL    HW222794   5.244   2.397   4.731
 7299SOL     OW22795   5.352   3.406   0.339
 7299SOL    HW122796   5.302   3.485   0.303
 7299SOL    HW222797   5.308   3.375   0.423
 7300SOL     OW22798   4.211   5.296   0.937
 7300SOL    HW122799   4.191   5.378   0.883
 7300SOL    HW222800   4.238   5.222   0.875
 7301SOL     OW22801   6.364   1.767   6.763
 7301SOL    HW122802   6.342   1.865   6.752
 7301SOL    HW222803   6.412   1.735   6.681
 7302SOL     OW22804   0.159   1.681   6.493
 7302SOL    HW122805   0.123   1.655   6.583
 7302SOL    HW222806   0.212   1.605   6.455
 7303SOL     OW22807   5.111   6.887   1.737
 7303SOL    HW122808   5.092   6.949   1.814
 7303SOL    HW222809   5.084   6.794   1.762
 7304SOL     OW22810   3.944   3.375   4.016
 7304SOL    HW122811   3.844   3.385   4.021
 7304SOL    HW222812   3.966   3.287   3.974
 7305SOL     OW22813   5.819   2.758   6.655
 7305SOL    HW122814   5.786   2.694   6.586
 7305SOL    HW222815   5.919   2.753   6.660
 7306SOL     OW22816   4.437   4.559   1.551
 7306SOL    HW122817   4.521   4.514   1.582
 7306SOL    HW222818   4.358   4.518   1.597
 7307SOL     OW22819   3.704   6.852   1.922
 7307SOL    HW122820   3.654   6.938   1.930
 7307SOL    HW222821   3.779   6.851   1.989
 7308SOL     OW22822   5.405   0.485   3.860
 7308SOL    HW122823   5.444   0.555   3.800
 7308SOL    HW222824   5.362   0.529   3.939
 7309SOL     OW22825   4.509   4.386   7.010
 7309SOL    HW122826   4.564   4.357   0.067
 7309SOL    HW222827   4.524   4.323   6.934
 7310SOL     OW22828   2.008   5.729   1.849
 7310SOL    HW122829   2.076   5.778   1.794
 7310SOL    HW222830   2.018   5.631   1.835
 7311SOL     OW22831   3.210   1.997   2.057
 7311SOL    HW122832   3.192   1.922   2.122
 7311SOL    HW222833   3.304   2.029   2.069
 7312SOL     OW22834   0.245   2.766   6.728
 7312SOL    HW122835   0.248   2.697   6.801
 7312SOL    HW222836   0.310   2.839   6.750
 7313SOL     OW22837   4.231   2.421   6.021
 7313SOL    HW122838   4.285   2.343   6.054
 7313SOL    HW222839   4.145   2.388   5.984
 7314SOL     OW22840   0.838   2.039   4.491
 7314SOL    HW122841   0.855   2.113   4.556
 7314SOL    HW222842   0.914   1.975   4.493
 7315SOL     OW22843   6.619   1.532   6.183
 7315SOL    HW122844   6.700   1.475   6.193
 7315SOL    HW222845   6.588   1.530   6.088
 7316SOL     OW22846   4.146   3.567   3.440
 7316SOL    HW122847   4.235   3.583   3.398
 7316SOL    HW222848   4.116   3.651   3.485
 7317SOL     OW22849   3.372   0.685   4.218
 7317SOL    HW122850   3.393   0.674   4.121
 7317SOL    HW222851   3.274   0.703   4.229
 7318SOL     OW22852   2.345   0.482   1.513
 7318SOL    HW122853   2.320   0.536   1.433
 7318SOL    HW222854   2.439   0.449   1.503
 7319SOL     OW22855   0.085   4.009   6.106
 7319SOL    HW122856   0.134   4.076   6.051
 7319SOL    HW222857   0.049   4.053   6.188
 7320SOL     OW22858   0.323   1.338   2.053
 7320SOL    HW122859   0.408   1.314   2.005
 7320SOL    HW222860   0.338   1.420   2.108
 7321SOL     OW22861   4.345   1.421   4.049
 7321SOL    HW122862   4.276   1.487   4.020
 7321SOL    HW222863   4.352   1.421   4.149
 7322SOL     OW22864   0.794   2.661   1.398
 7322SOL    HW122865   0.860   2.733   1.420
 7322SOL    HW222866   0.756   2.623   1.482
 7323SOL     OW22867   2.233   4.800   3.057
 7323SOL    HW122868   2.217   4.884   3.109
 7323SOL    HW222869   2.190   4.723   3.104
 7324SOL     OW22870   5.046   5.910   2.830
 7324SOL    HW122871   4.969   5.955   2.785
 7324SOL    HW222872   5.132   5.940   2.788
 7325SOL     OW22873   3.018   6.541   6.935
 7325SOL    HW122874   2.939   6.537   6.996
 7325SOL    HW222875   3.079   6.615   6.964
 7326SOL     OW22876   2.706   1.130   3.915
 7326SOL    HW122877   2.610   1.154   3.902
 7326SOL    HW222878   2.765   1.200   3.876
 7327SOL     OW22879   1.570   3.535   5.803
 7327SOL    HW122880   1.473   3.556   5.806
 7327SOL    HW222881   1.586   3.460   5.738
 7328SOL     OW22882   2.082   6.587   0.215
 7328SOL    HW122883   2.180   6.604   0.217
 7328SOL    HW222884   2.053   6.551   0.304
 7329SOL     OW22885   4.780   3.890   1.803
 7329SOL    HW122886   4.728   3.952   1.745
 7329SOL    HW222887   4.775   3.797   1.766
 7330SOL     OW22888   3.924   2.584   1.024
 7330SOL    HW122889   3.975   2.565   1.108
 7330SOL    HW222890   3.827   2.592   1.045
 7331SOL     OW22891   6.324   1.491   1.435
 7331SOL    HW122892   6.405   1.463   1.384
 7331SOL    HW222893   6.242   1.452   1.391
 7332SOL     OW22894   4.387   6.854   0.335
 7332SOL    HW122895   4.299   6.852   0.381
 7332SOL    HW222896   4.460   6.860   0.403
 7333SOL     OW22897   0.134   4.749   2.249
 7333SOL    HW122898   0.203   4.713   2.312
 7333SOL    HW222899   0.091   4.673   2.200
 7334SOL     OW22900   2.757   0.091   3.522
 7334SOL    HW122901   2.773   0.176   3.573
 7334SOL    HW222902   2.842   0.061   3.479
 7335SOL     OW22903   1.858   3.166   3.412
 7335SOL    HW122904   1.917   3.085   3.405
 7335SOL    HW222905   1.881   3.230   3.339
 7336SOL     OW22906   1.215   5.880   4.742
 7336SOL    HW122907   1.217   5.972   4.782
 7336SOL    HW222908   1.280   5.874   4.667
 7337SOL     OW22909   5.031   1.807   1.557
 7337SOL    HW122910   4.937   1.779   1.576
 7337SOL    HW222911   5.051   1.792   1.461
 7338SOL     OW22912   0.587   3.694   0.374
 7338SOL    HW122913   0.641   3.611   0.363
 7338SOL    HW222914   0.499   3.671   0.416
 7339SOL     OW22915   1.786   5.086   5.273
 7339SOL    HW122916   1.864   5.093   5.335
 7339SOL    HW222917   1.747   4.994   5.279
 7340SOL     OW22918   3.560   0.120   6.519
 7340SOL    HW122919   3.623   0.196   6.503
 7340SOL    HW222920   3.493   0.116   6.444
 7341SOL     OW22921   6.034   2.534   0.301
 7341SOL    HW122922   6.028   2.621   0.252
 7341SOL    HW222923   5.995   2.461   0.245
 7342SOL     OW22924   0.353   6.119   1.625
 7342SOL    HW122925   0.389   6.029   1.601
 7342SOL    HW222926   0.383   6.143   1.718
 7343SOL     OW22927   6.683   3.175   0.801
 7343SOL    HW122928   6.621   3.112   0.847
 7343SOL    HW222929   6.720   3.132   0.719
 7344SOL     OW22930   2.619   0.817   5.786
 7344SOL    HW122931   2.622   0.911   5.751
 7344SOL    HW222932   2.635   0.818   5.884
 7345SOL     OW22933   3.997   6.001   6.661
 7345SOL    HW122934   3.994   6.099   6.677
 7345SOL    HW222935   3.914   5.973   6.612
 7346SOL     OW22936   4.477   4.938   2.110
 7346SOL    HW122937   4.423   5.014   2.146
 7346SOL    HW222938   4.529   4.896   2.184
 7347SOL     OW22939   4.652   0.469   6.175
 7347SOL    HW122940   4.718   0.542   6.156
 7347SOL    HW222941   4.694   0.381   6.153
 7348SOL     OW22942   0.355   6.209   0.133
 7348SOL    HW122943   0.363   6.201   0.232
 7348SOL    HW222944   0.440   6.182   0.090
 7349SOL     OW22945   4.595   1.248   1.235
 7349SOL    HW122946   4.498   1.244   1.210
 7349SOL    HW222947   4.630   1.156   1.248
 7350SOL     OW22948   3.572   1.199   5.277
 7350SOL    HW122949   3.529   1.269   5.333
 7350SOL    HW222950   3.646   1.240   5.222
 7351SOL     OW22951   2.570   5.003   4.680
 7351SOL    HW122952   2.535   5.049   4.761
 7351SOL    HW222953   2.546   5.055   4.598
 7352SOL     OW22954   6.281   2.443   4.221
 7352SOL    HW122955   6.256   2.532   4.183
 7352SOL    HW222956   6.282   2.448   4.321
 7353SOL     OW22957   0.109   2.039   5.890
 7353SOL    HW122958   0.021   2.086   5.896
 7353SOL    HW222959   0.181   2.095   5.932
 7354SOL     OW22960   0.828   1.875   2.884
 7354SOL    HW122961   0.845   1.887   2.982
 7354SOL    HW222962   0.735   1.904   2.862
 7355SOL     OW22963   3.990   1.745   0.779
 7355SOL    HW122964   4.000   1.820   0.713
 7355SOL    HW222965   4.050   1.669   0.753
 7356SOL     OW22966   3.721   4.411   6.073
 7356SOL    HW122967   3.801   4.352   6.063
 7356SOL    HW222968   3.680   4.428   5.984
 7357SOL     OW22969   4.389   6.918   1.726
 7357SOL    HW122970   4.355   6.886   1.815
 7357SOL    HW222971   4.312   6.937   1.665
 7358SOL     OW22972   4.233   0.272   2.622
 7358SOL    HW122973   4.225   0.237   2.529
 7358SOL    HW222974   4.323   0.247   2.659
 7359SOL     OW22975   3.160   6.664   2.527
 7359SOL    HW122976   3.243   6.716   2.506
 7359SOL    HW222977   3.170   6.571   2.491
 7360SOL     OW22978   2.932   4.354   6.132
 7360SOL    HW122979   2.892   4.366   6.041
 7360SOL    HW222980   2.950   4.443   6.173
 7361SOL     OW22981   6.477   0.627   3.720
 7361SOL    HW122982   6.403   0.634   3.787
 7361SOL    HW222983   6.564   0.647   3.765
 7362SOL     OW22984   3.430   5.516   0.690
 7362SOL    HW122985   3.406   5.435   0.743
 7362SOL    HW222986   3.429   5.597   0.750
 7363SOL     OW22987   4.321   0.986   1.283
 7363SOL    HW122988   4.283   1.012   1.194
 7363SOL    HW222989   4.261   1.019   1.356
 7364SOL     OW22990   5.624   5.708   1.789
 7364SOL    HW122991   5.641   5.614   1.759
 7364SOL    HW222992   5.690   5.769   1.745
 7365SOL     OW22993   4.825   3.847   2.108
 7365SOL    HW122994   4.837   3.750   2.131
 7365SOL    HW222995   4.765   3.855   2.029
 7366SOL     OW22996   2.322   6.134   3.519
 7366SOL    HW122997   2.390   6.107   3.587
 7366SOL    HW222998   2.243   6.073   3.526
 7367SOL     OW22999   4.572   1.152   0.635
 7367SOL    HW123000   4.581   1.082   0.564
 7367SOL    HW223001   4.656   1.154   0.690
 7368SOL     OW23002   3.093   3.846   2.641
 7368SOL    HW123003   3.022   3.846   2.712
 7368SOL    HW223004   3.058   3.804   2.558
 7369SOL     OW23005   5.357   3.865   6.847
 7369SOL    HW123006   5.411   3.914   6.916
 7369SOL    HW223007   5.419   3.815   6.787
 7370SOL     OW23008   2.553   0.641   4.045
 7370SOL    HW123009   2.532   0.692   4.128
 7370SOL    HW223010   2.469   0.626   3.993
 7371SOL     OW23011   3.669   0.402   3.355
 7371SOL    HW123012   3.580   0.358   3.344
 7371SOL    HW223013   3.656   0.500   3.369
 7372SOL     OW23014   4.117   1.858   5.443
 7372SOL    HW123015   4.197   1.913   5.420
 7372SOL    HW223016   4.052   1.913   5.494
 7373SOL     OW23017   6.536   2.763   4.533
 7373SOL    HW123018   6.446   2.738   4.497
 7373SOL    HW223019   6.601   2.771   4.458
 7374SOL     OW23020   6.956   3.153   6.287
 7374SOL    HW123021   6.894   3.096   6.342
 7374SOL    HW223022   7.014   3.094   6.231
 7375SOL     OW23023   2.784   1.735   1.599
 7375SOL    HW123024   2.808   1.646   1.639
 7375SOL    HW223025   2.813   1.808   1.661
 7376SOL     OW23026   6.484   5.471   0.623
 7376SOL    HW123027   6.433   5.384   0.624
 7376SOL    HW223028   6.500   5.499   0.528
 7377SOL     OW23029   2.694   5.709   0.912
 7377SOL    HW123030   2.760   5.636   0.930
 7377SOL    HW223031   2.744   5.792   0.884
 7378SOL     OW23032   2.361   5.080   5.350
 7378SOL    HW123033   2.353   4.992   5.395
 7378SOL    HW223034   2.410   5.070   5.263
 7379SOL     OW23035   5.172   2.153   3.025
 7379SOL    HW123036   5.130   2.101   3.100
 7379SOL    HW223037   5.219   2.089   2.964
 7380SOL     OW23038   5.370   3.408   1.412
 7380SOL    HW123039   5.357   3.444   1.504
 7380SOL    HW223040   5.366   3.308   1.414
 7381SOL     OW23041   3.849   0.318   1.312
 7381SOL    HW123042   3.919   0.387   1.294
 7381SOL    HW223043   3.780   0.357   1.373
 7382SOL     OW23044   0.624   2.691   0.072
 7382SOL    HW123045   0.677   2.772   0.097
 7382SOL    HW223046   0.684   2.623   0.029
 7383SOL     OW23047   2.454   6.844   0.942
 7383SOL    HW123048   2.427   6.834   1.038
 7383SOL    HW223049   2.430   6.761   0.892
 7384SOL     OW23050   6.989   0.708   6.630
 7384SOL    HW123051   6.983   0.660   6.543
 7384SOL    HW223052   0.040   0.668   6.686
 7385SOL     OW23053   6.620   4.338   2.822
 7385SOL    HW123054   6.564   4.255   2.829
 7385SOL    HW223055   6.646   4.352   2.727
 7386SOL     OW23056   5.965   3.961   0.940
 7386SOL    HW123057   5.986   3.886   1.002
 7386SOL    HW223058   6.044   4.023   0.934
 7387SOL     OW23059   0.245   5.446   3.684
 7387SOL    HW123060   0.310   5.429   3.610
 7387SOL    HW223061   0.288   5.503   3.754
 7388SOL     OW23062   2.166   4.600   3.247
 7388SOL    HW123063   2.088   4.637   3.297
 7388SOL    HW223064   2.249   4.610   3.302
 7389SOL     OW23065   0.410   2.534   0.884
 7389SOL    HW123066   0.325   2.580   0.911
 7389SOL    HW223067   0.424   2.454   0.943
 7390SOL     OW23068   4.124   2.038   4.285
 7390SOL    HW123069   4.111   2.083   4.374
 7390SOL    HW223070   4.078   2.090   4.214
 7391SOL     OW23071   3.147   3.869   2.109
 7391SOL    HW123072   3.167   3.904   2.201
 7391SOL    HW223073   3.147   3.946   2.044
 7392SOL     OW23074   3.672   6.514   0.403
 7392SOL    HW123075   3.731   6.501   0.483
 7392SOL    HW223076   3.581   6.478   0.423
 7393SOL     OW23077   4.346   5.587   3.248
 7393SOL    HW123078   4.411   5.660   3.227
 7393SOL    HW223079   4.272   5.623   3.305
 7394SOL     OW23080   1.504   1.264   6.762
 7394SOL    HW123081   1.462   1.253   6.672
 7394SOL    HW223082   1.437   1.301   6.826
 7395SOL     OW23083   3.173   5.660   0.785
 7395SOL    HW123084   3.117   5.590   0.828
 7395SOL    HW223085   3.244   5.690   0.849
 7396SOL     OW23086   1.148   4.909   2.412
 7396SOL    HW123087   1.237   4.883   2.450
 7396SOL    HW223088   1.121   4.843   2.342
 7397SOL     OW23089   5.988   5.164   5.032
 7397SOL    HW123090   5.899   5.188   5.070
 7397SOL    HW223091   6.032   5.246   4.994
 7398SOL     OW23092   2.945   5.861   2.239
 7398SOL    HW123093   2.970   5.787   2.302
 7398SOL    HW223094   2.889   5.928   2.288
 7399SOL     OW23095   6.513   2.231   5.580
 7399SOL    HW123096   6.567   2.147   5.587
 7399SOL    HW223097   6.443   2.231   5.652
 7400SOL     OW23098   4.092   3.257   5.570
 7400SOL    HW123099   4.095   3.194   5.492
 7400SOL    HW223100   4.147   3.338   5.550
 7401SOL     OW23101   3.070   2.166   4.774
 7401SOL    HW123102   3.050   2.082   4.824
 7401SOL    HW223103   3.117   2.231   4.834
 7402SOL     OW23104   4.044   4.934   4.719
 7402SOL    HW123105   4.055   4.957   4.816
 7402SOL    HW223106   4.131   4.901   4.683
 7403SOL     OW23107   2.025   5.182   3.984
 7403SOL    HW123108   1.982   5.107   3.935
 7403SOL    HW223109   2.115   5.202   3.944
 7404SOL     OW23110   2.181   2.828   1.336
 7404SOL    HW123111   2.230   2.827   1.248
 7404SOL    HW223112   2.090   2.788   1.324
 7405SOL     OW23113   2.840   6.643   5.505
 7405SOL    HW123114   2.811   6.673   5.595
 7405SOL    HW223115   2.799   6.554   5.484
 7406SOL     OW23116   0.651   3.050   4.671
 7406SOL    HW123117   0.692   3.129   4.626
 7406SOL    HW223118   0.685   2.966   4.629
 7407SOL     OW23119   1.368   6.128   4.495
 7407SOL    HW123120   1.389   6.208   4.552
 7407SOL    HW223121   1.270   6.114   4.493
 7408SOL     OW23122   4.301   4.998   5.670
 7408SOL    HW123123   4.361   4.976   5.747
 7408SOL    HW223124   4.350   4.980   5.584
 7409SOL     OW23125   5.681   4.906   1.074
 7409SOL    HW123126   5.637   4.982   1.026
 7409SOL    HW223127   5.780   4.921   1.077
 7410SOL     OW23128   5.997   1.068   6.937
 7410SOL    HW123129   5.998   1.027   6.846
 7410SOL    HW223130   6.029   1.162   6.931
 7411SOL     OW23131   3.536   1.897   5.799
 7411SOL    HW123132   3.547   1.933   5.891
 7411SOL    HW223133   3.499   1.968   5.739
 7412SOL     OW23134   4.541   6.607   6.691
 7412SOL    HW123135   4.532   6.533   6.624
 7412SOL    HW223136   4.498   6.690   6.655
 7413SOL     OW23137   4.824   1.077   3.636
 7413SOL    HW123138   4.745   1.038   3.683
 7413SOL    HW223139   4.797   1.161   3.589
 7414SOL     OW23140   3.195   1.074   4.778
 7414SOL    HW123141   3.254   1.016   4.722
 7414SOL    HW223142   3.251   1.132   4.837
 7415SOL     OW23143   4.050   0.889   5.671
 7415SOL    HW123144   4.130   0.893   5.611
 7415SOL    HW223145   4.011   0.981   5.681
 7416SOL     OW23146   0.012   0.430   1.812
 7416SOL    HW123147   0.082   0.469   1.752
 7416SOL    HW223148   0.036   0.336   1.835
 7417SOL     OW23149   0.153   0.677   1.570
 7417SOL    HW123150   0.100   0.758   1.596
 7417SOL    HW223151   0.179   0.683   1.474
 7418SOL     OW23152   1.987   3.679   6.088
 7418SOL    HW123153   2.052   3.632   6.029
 7418SOL    HW223154   2.016   3.670   6.183
 7419SOL     OW23155   6.927   2.671   4.503
 7419SOL    HW123156   6.881   2.596   4.551
 7419SOL    HW223157   6.859   2.731   4.461
 7420SOL     OW23158   6.373   6.780   7.018
 7420SOL    HW123159   6.325   6.854   0.044
 7420SOL    HW223160   6.310   6.704   7.002
 7421SOL     OW23161   0.063   3.960   1.037
 7421SOL    HW123162   7.016   3.949   1.108
 7421SOL    HW223163   0.082   4.058   1.023
 7422SOL     OW23164   6.727   3.210   1.761
 7422SOL    HW123165   6.764   3.214   1.854
 7422SOL    HW223166   6.628   3.199   1.765
 7423SOL     OW23167   4.038   2.268   5.905
 7423SOL    HW123168   3.966   2.299   5.968
 7423SOL    HW223169   4.033   2.169   5.894
 7424SOL     OW23170   1.048   1.870   4.457
 7424SOL    HW123171   1.134   1.885   4.505
 7424SOL    HW223172   1.064   1.810   4.379
 7425SOL     OW23173   5.521   0.865   0.774
 7425SOL    HW123174   5.528   0.852   0.676
 7425SOL    HW223175   5.607   0.903   0.809
 7426SOL     OW23176   3.830   3.802   5.671
 7426SOL    HW123177   3.892   3.875   5.641
 7426SOL    HW223178   3.751   3.842   5.717
 7427SOL     OW23179   3.075   0.477   1.445
 7427SOL    HW123180   3.149   0.527   1.491
 7427SOL    HW223181   2.987   0.520   1.466
 7428SOL     OW23182   1.203   6.827   5.306
 7428SOL    HW123183   1.218   6.922   5.281
 7428SOL    HW223184   1.156   6.779   5.232
 7429SOL     OW23185   0.422   0.214   2.209
 7429SOL    HW123186   0.494   0.283   2.207
 7429SOL    HW223187   0.373   0.214   2.122
 7430SOL     OW23188   6.747   3.305   2.646
 7430SOL    HW123189   6.656   3.267   2.666
 7430SOL    HW223190   6.760   3.388   2.701
 7431SOL     OW23191   1.117   2.654   4.713
 7431SOL    HW123192   1.180   2.720   4.671
 7431SOL    HW223193   1.029   2.698   4.728
 7432SOL     OW23194   1.367   1.132   2.703
 7432SOL    HW123195   1.379   1.224   2.741
 7432SOL    HW223196   1.424   1.122   2.621
 7433SOL     OW23197   3.914   0.134   6.365
 7433SOL    HW123198   3.826   0.169   6.399
 7433SOL    HW223199   3.937   0.178   6.279
 7434SOL     OW23200   3.673   7.014   3.299
 7434SOL    HW123201   3.623   0.025   3.219
 7434SOL    HW223202   3.631   6.929   3.332
 7435SOL     OW23203   4.672   4.425   3.144
 7435SOL    HW123204   4.585   4.460   3.110
 7435SOL    HW223205   4.710   4.488   3.212
 7436SOL     OW23206   4.879   2.785   6.288
 7436SOL    HW123207   4.808   2.799   6.356
 7436SOL    HW223208   4.969   2.806   6.328
 7437SOL     OW23209   3.694   0.482   1.481
 7437SOL    HW123210   3.711   0.415   1.553
 7437SOL    HW223211   3.656   0.566   1.520
 7438SOL     OW23212   1.808   0.930   6.045
 7438SOL    HW123213   1.882   0.959   6.106
 7438SOL    HW223214   1.836   0.849   5.994
 7439SOL     OW23215   1.514   4.457   5.871
 7439SOL    HW123216   1.548   4.537   5.822
 7439SOL    HW223217   1.552   4.454   5.963
 7440SOL     OW23218   6.169   2.574   4.798
 7440SOL    HW123219   6.174   2.481   4.835
 7440SOL    HW223220   6.103   2.576   4.722
 7441SOL     OW23221   4.927   6.843   0.690
 7441SOL    HW123222   4.907   6.865   0.594
 7441SOL    HW223223   4.858   6.779   0.724
 7442SOL     OW23224   6.950   1.160   6.059
 7442SOL    HW123225   6.937   1.082   5.999
 7442SOL    HW223226   7.004   1.132   6.139
 7443SOL     OW23227   0.152   6.903   0.323
 7443SOL    HW123228   0.150   7.001   0.301
 7443SOL    HW223229   0.246   6.872   0.331
 7444SOL     OW23230   0.778   6.303   6.716
 7444SOL    HW123231   0.869   6.296   6.758
 7444SOL    HW223232   0.771   6.390   6.666
 7445SOL     OW23233   3.939   5.905   1.996
 7445SOL    HW123234   3.866   5.970   1.976
 7445SOL    HW223235   4.028   5.951   1.985
 7446SOL     OW23236   6.244   5.051   0.341
 7446SOL    HW123237   6.219   5.028   0.247
 7446SOL    HW223238   6.343   5.040   0.353
 7447SOL     OW23239   0.042   5.772   0.990
 7447SOL    HW123240   0.048   5.811   0.898
 7447SOL    HW223241   0.102   5.693   0.997
 7448SOL     OW23242   4.841   5.191   6.904
 7448SOL    HW123243   4.741   5.193   6.911
 7448SOL    HW223244   4.868   5.200   6.808
 7449SOL     OW23245   6.456   3.789   6.190
 7449SOL    HW123246   6.550   3.821   6.204
 7449SOL    HW223247   6.438   3.780   6.092
 7450SOL     OW23248   5.167   3.627   0.297
 7450SOL    HW123249   5.130   3.629   0.203
 7450SOL    HW223250   5.124   3.699   0.351
 7451SOL     OW23251   4.363   5.263   2.833
 7451SOL    HW123252   4.300   5.329   2.875
 7451SOL    HW223253   4.451   5.307   2.816
 7452SOL     OW23254   6.655   6.115   0.149
 7452SOL    HW123255   6.591   6.192   0.151
 7452SOL    HW223256   6.741   6.145   0.107
 7453SOL     OW23257   4.510   4.897   6.374
 7453SOL    HW123258   4.414   4.898   6.345
 7453SOL    HW223259   4.558   4.824   6.326
 7454SOL     OW23260   4.142   1.807   1.117
 7454SOL    HW123261   4.074   1.870   1.081
 7454SOL    HW223262   4.101   1.715   1.125
 7455SOL     OW23263   6.800   0.625   2.685
 7455SOL    HW123264   6.847   0.579   2.761
 7455SOL    HW223265   6.858   0.699   2.650
 7456SOL     OW23266   2.772   0.863   5.076
 7456SOL    HW123267   2.827   0.810   5.140
 7456SOL    HW223268   2.779   0.824   4.984
 7457SOL     OW23269   1.248   1.898   2.771
 7457SOL    HW123270   1.187   1.862   2.701
 7457SOL    HW223271   1.247   1.836   2.850
 7458SOL     OW23272   6.841   5.815   4.877
 7458SOL    HW123273   6.890   5.901   4.860
 7458SOL    HW223274   6.789   5.789   4.796
 7459SOL     OW23275   5.504   6.521   3.069
 7459SOL    HW123276   5.575   6.590   3.086
 7459SOL    HW223277   5.548   6.433   3.051
 7460SOL     OW23278   0.680   0.721   1.126
 7460SOL    HW123279   0.701   0.680   1.215
 7460SOL    HW223280   0.753   0.701   1.061
 7461SOL     OW23281   1.594   4.682   5.656
 7461SOL    HW123282   1.534   4.688   5.576
 7461SOL    HW223283   1.685   4.717   5.632
 7462SOL     OW23284   1.842   4.291   6.878
 7462SOL    HW123285   1.803   4.330   6.961
 7462SOL    HW223286   1.916   4.228   6.902
 7463SOL     OW23287   4.679   4.729   0.633
 7463SOL    HW123288   4.754   4.698   0.575
 7463SOL    HW223289   4.598   4.744   0.578
 7464SOL     OW23290   5.672   5.495   5.067
 7464SOL    HW123291   5.635   5.526   4.979
 7464SOL    HW223292   5.599   5.453   5.121
 7465SOL     OW23293   1.401   3.622   6.663
 7465SOL    HW123294   1.430   3.529   6.684
 7465SOL    HW223295   1.352   3.623   6.576
 7466SOL     OW23296   0.542   0.448   5.949
 7466SOL    HW123297   0.448   0.481   5.957
 7466SOL    HW223298   0.547   0.378   5.877
 7467SOL     OW23299   1.545   3.946   4.037
 7467SOL    HW123300   1.465   3.961   3.979
 7467SOL    HW223301   1.618   3.904   3.983
 7468SOL     OW23302   5.826   2.720   4.750
 7468SOL    HW123303   5.821   2.815   4.779
 7468SOL    HW223304   5.734   2.686   4.732
 7469SOL     OW23305   6.669   1.874   7.008
 7469SOL    HW123306   6.712   1.925   0.062
 7469SOL    HW223307   6.569   1.878   7.018
 7470SOL     OW23308   4.988   3.457   3.975
 7470SOL    HW123309   4.929   3.386   3.936
 7470SOL    HW223310   5.082   3.442   3.945
 7471SOL     OW23311   3.163   0.078   6.182
 7471SOL    HW123312   3.069   0.056   6.208
 7471SOL    HW223313   3.176   0.062   6.084
 7472SOL     OW23314   0.429   0.503   5.276
 7472SOL    HW123315   0.475   0.417   5.254
 7472SOL    HW223316   0.481   0.551   5.346
 7473SOL     OW23317   4.630   0.095   3.701
 7473SOL    HW123318   4.552   0.140   3.658
 7473SOL    HW223319   4.644   0.134   3.792
 7474SOL     OW23320   6.190   2.239   2.290
 7474SOL    HW123321   6.132   2.256   2.369
 7474SOL    HW223322   6.286   2.256   2.315
 7475SOL     OW23323   5.151   3.125   1.226
 7475SOL    HW123324   5.232   3.171   1.188
 7475SOL    HW223325   5.100   3.081   1.153
 7476SOL     OW23326   2.624   1.537   2.402
 7476SOL    HW123327   2.681   1.561   2.480
 7476SOL    HW223328   2.678   1.547   2.318
 7477SOL     OW23329   1.963   3.463   5.747
 7477SOL    HW123330   1.999   3.388   5.803
 7477SOL    HW223331   1.983   3.445   5.651
 7478SOL     OW23332   1.310   2.918   0.065
 7478SOL    HW123333   1.361   2.848   0.015
 7478SOL    HW223334   1.234   2.951   0.009
 7479SOL     OW23335   5.052   2.480   2.177
 7479SOL    HW123336   5.012   2.389   2.184
 7479SOL    HW223337   5.152   2.472   2.182
 7480SOL     OW23338   4.006   6.393   2.205
 7480SOL    HW123339   3.961   6.476   2.236
 7480SOL    HW223340   3.964   6.362   2.120
 7481SOL     OW23341   0.734   4.261   6.953
 7481SOL    HW123342   0.783   4.194   7.009
 7481SOL    HW223343   0.797   4.335   6.928
 7482SOL     OW23344   3.897   1.709   4.786
 7482SOL    HW123345   3.965   1.754   4.844
 7482SOL    HW223346   3.906   1.743   4.692
 7483SOL     OW23347   6.130   1.318   5.365
 7483SOL    HW123348   6.037   1.320   5.403
 7483SOL    HW223349   6.144   1.233   5.315
 7484SOL     OW23350   2.315   6.977   4.983
 7484SOL    HW123351   2.248   0.007   4.930
 7484SOL    HW223352   2.405   6.985   4.939
 7485SOL     OW23353   3.696   0.071   6.915
 7485SOL    HW123354   3.675   6.996   6.928
 7485SOL    HW223355   3.613   0.121   6.893
 7486SOL     OW23356   4.206   6.199   0.869
 7486SOL    HW123357   4.137   6.228   0.803
 7486SOL    HW223358   4.244   6.111   0.841
 7487SOL     OW23359   3.443   6.140   4.576
 7487SOL    HW123360   3.495   6.217   4.538
 7487SOL    HW223361   3.411   6.164   4.667
 7488SOL     OW23362   2.182   5.948   3.219
 7488SOL    HW123363   2.271   5.989   3.198
 7488SOL    HW223364   2.137   5.919   3.135
 7489SOL     OW23365   5.413   3.761   5.700
 7489SOL    HW123366   5.317   3.777   5.678
 7489SOL    HW223367   5.424   3.671   5.742
 7490SOL     OW23368   2.084   2.058   1.585
 7490SOL    HW123369   2.015   1.991   1.558
 7490SOL    HW223370   2.169   2.011   1.609
 7491SOL     OW23371   4.162   3.796   5.923
 7491SOL    HW123372   4.142   3.868   5.990
 7491SOL    HW223373   4.077   3.751   5.896
 7492SOL     OW23374   1.685   1.508   2.966
 7492SOL    HW123375   1.662   1.418   2.929
 7492SOL    HW223376   1.640   1.579   2.912
 7493SOL     OW23377   5.645   4.439   4.826
 7493SOL    HW123378   5.566   4.485   4.787
 7493SOL    HW223379   5.633   4.340   4.820
 7494SOL     OW23380   5.691   1.614   2.236
 7494SOL    HW123381   5.624   1.649   2.302
 7494SOL    HW223382   5.670   1.651   2.145
 7495SOL     OW23383   1.590   3.498   4.198
 7495SOL    HW123384   1.554   3.522   4.108
 7495SOL    HW223385   1.655   3.422   4.189
 7496SOL     OW23386   5.981   3.119   3.651
 7496SOL    HW123387   6.030   3.167   3.723
 7496SOL    HW223388   5.909   3.179   3.614
 7497SOL     OW23389   6.084   0.575   1.050
 7497SOL    HW123390   6.013   0.589   0.981
 7497SOL    HW223391   6.044   0.580   1.141
 7498SOL     OW23392   2.273   6.059   2.634
 7498SOL    HW123393   2.355   6.064   2.578
 7498SOL    HW223394   2.192   6.073   2.577
 7499SOL     OW23395   3.025   1.148   2.702
 7499SOL    HW123396   2.952   1.136   2.635
 7499SOL    HW223397   3.114   1.144   2.655
 7500SOL     OW23398   3.610   1.592   5.208
 7500SOL    HW123399   3.514   1.578   5.184
 7500SOL    HW223400   3.616   1.632   5.299
 7501SOL     OW23401   5.702   1.893   4.999
 7501SOL    HW123402   5.704   1.990   4.976
 7501SOL    HW223403   5.792   1.852   4.983
 7502SOL     OW23404   3.912   1.019   4.504
 7502SOL    HW123405   3.891   1.005   4.408
 7502SOL    HW223406   3.844   1.081   4.545
 7503SOL     OW23407   1.070   5.724   0.871
 7503SOL    HW123408   1.072   5.804   0.930
 7503SOL    HW223409   1.014   5.652   0.914
 7504SOL     OW23410   5.949   6.080   5.003
 7504SOL    HW123411   6.048   6.070   5.018
 7504SOL    HW223412   5.911   6.143   5.071
 7505SOL     OW23413   0.400   6.933   6.595
 7505SOL    HW123414   0.386   6.856   6.657
 7505SOL    HW223415   0.348   6.918   6.511
 7506SOL     OW23416   3.597   2.155   4.361
 7506SOL    HW123417   3.531   2.217   4.404
 7506SOL    HW223418   3.685   2.163   4.408
 7507SOL     OW23419   6.737   3.621   6.049
 7507SOL    HW123420   6.773   3.595   6.138
 7507SOL    HW223421   6.779   3.707   6.020
 7508SOL     OW23422   4.084   6.474   0.134
 7508SOL    HW123423   4.023   6.427   0.071
 7508SOL    HW223424   4.150   6.409   0.171
 7509SOL     OW23425   5.605   4.369   3.037
 7509SOL    HW123426   5.560   4.399   2.953
 7509SOL    HW223427   5.643   4.448   3.086
 7510SOL     OW23428   3.809   4.565   1.433
 7510SOL    HW123429   3.760   4.505   1.497
 7510SOL    HW223430   3.781   4.543   1.339
 7511SOL     OW23431   4.534   6.141   4.440
 7511SOL    HW123432   4.538   6.043   4.455
 7511SOL    HW223433   4.627   6.177   4.428
 7512SOL     OW23434   3.645   5.563   1.008
 7512SOL    HW123435   3.678   5.493   0.945
 7512SOL    HW223436   3.561   5.604   0.972
 7513SOL     OW23437   0.067   0.383   2.504
 7513SOL    HW123438   0.152   0.387   2.452
 7513SOL    HW223439   0.021   0.472   2.499
 7514SOL     OW23440   0.103   0.465   0.144
 7514SOL    HW123441   0.117   0.447   0.047
 7514SOL    HW223442   0.027   0.529   0.156
 7515SOL     OW23443   6.822   5.375   4.729
 7515SOL    HW123444   6.754   5.346   4.795
 7515SOL    HW223445   6.883   5.442   4.771
 7516SOL     OW23446   2.314   6.000   4.101
 7516SOL    HW123447   2.289   5.904   4.088
 7516SOL    HW223448   2.231   6.057   4.095
 7517SOL     OW23449   0.373   2.570   0.459
 7517SOL    HW123450   0.386   2.566   0.360
 7517SOL    HW223451   0.392   2.663   0.491
 7518SOL     OW23452   4.014   2.061   4.841
 7518SOL    HW123453   4.085   2.127   4.815
 7518SOL    HW223454   3.933   2.074   4.784
 7519SOL     OW23455   3.050   6.648   4.833
 7519SOL    HW123456   3.135   6.666   4.785
 7519SOL    HW223457   3.048   6.552   4.862
 7520SOL     OW23458   1.743   0.369   0.713
 7520SOL    HW123459   1.827   0.405   0.675
 7520SOL    HW223460   1.664   0.409   0.666
 7521SOL     OW23461   4.789   1.669   5.550
 7521SOL    HW123462   4.792   1.578   5.509
 7521SOL    HW223463   4.862   1.726   5.512
 7522SOL     OW23464   1.578   6.559   3.958
 7522SOL    HW123465   1.618   6.640   4.001
 7522SOL    HW223466   1.591   6.479   4.016
 7523SOL     OW23467   5.458   1.694   0.134
 7523SOL    HW123468   5.535   1.721   0.192
 7523SOL    HW223469   5.443   1.596   0.141
 7524SOL     OW23470   6.978   4.213   5.028
 7524SOL    HW123471   7.001   4.310   5.026
 7524SOL    HW223472   7.002   4.171   4.940
 7525SOL     OW23473   2.527   4.602   5.607
 7525SOL    HW123474   2.553   4.519   5.556
 7525SOL    HW223475   2.579   4.607   5.692
 7526SOL     OW23476   0.954   3.625   1.185
 7526SOL    HW123477   0.935   3.649   1.280
 7526SOL    HW223478   1.023   3.687   1.148
 7527SOL     OW23479   2.923   5.154   2.826
 7527SOL    HW123480   2.869   5.091   2.882
 7527SOL    HW223481   2.910   5.247   2.858
 7528SOL     OW23482   6.607   2.783   0.012
 7528SOL    HW123483   6.693   2.752   0.053
 7528SOL    HW223484   6.619   2.793   6.935
 7529SOL     OW23485   5.881   2.614   5.030
 7529SOL    HW123486   5.886   2.661   4.941
 7529SOL    HW223487   5.971   2.617   5.074
 7530SOL     OW23488   2.174   2.348   3.562
 7530SOL    HW123489   2.104   2.322   3.630
 7530SOL    HW223490   2.140   2.423   3.506
 7531SOL     OW23491   4.600   1.680   4.154
 7531SOL    HW123492   4.548   1.716   4.076
 7531SOL    HW223493   4.539   1.672   4.233
 7532SOL     OW23494   4.440   4.362   6.317
 7532SOL    HW123495   4.353   4.410   6.304
 7532SOL    HW223496   4.487   4.399   6.396
 7533SOL     OW23497   4.334   4.142   0.376
 7533SOL    HW123498   4.268   4.104   0.441
 7533SOL    HW223499   4.420   4.162   0.423
 7534SOL     OW23500   4.026   6.361   5.089
 7534SOL    HW123501   3.989   6.446   5.051
 7534SOL    HW223502   4.007   6.286   5.025
 7535SOL     OW23503   0.096   6.788   4.750
 7535SOL    HW123504   0.102   6.692   4.720
 7535SOL    HW223505   0.005   6.805   4.788
 7536SOL     OW23506   5.749   6.949   2.873
 7536SOL    HW123507   5.653   6.960   2.847
 7536SOL    HW223508   5.759   6.960   2.972
 7537SOL     OW23509   2.685   0.204   1.888
 7537SOL    HW123510   2.633   0.126   1.922
 7537SOL    HW223511   2.747   0.174   1.816
 7538SOL     OW23512   0.685   4.703   7.012
 7538SOL    HW123513   0.755   4.648   6.967
 7538SOL    HW223514   0.704   4.708   0.088
 7539SOL     OW23515   6.315   0.123   4.868
 7539SOL    HW123516   6.362   0.165   4.791
 7539SOL    HW223517   6.310   0.024   4.855
 7540SOL     OW23518   4.968   3.946   4.022
 7540SOL    HW123519   4.944   3.882   3.949
 7540SOL    HW223520   4.905   3.934   4.098
 7541SOL     OW23521   1.825   4.018   0.157
 7541SOL    HW123522   1.851   3.937   0.105
 7541SOL    HW223523   1.742   4.058   0.117
 7542SOL     OW23524   6.352   6.183   4.811
 7542SOL    HW123525   6.289   6.174   4.888
 7542SOL    HW223526   6.350   6.277   4.777
 7543SOL     OW23527   2.035   0.291   0.121
 7543SOL    HW123528   2.007   0.201   0.154
 7543SOL    HW223529   2.045   0.353   0.199
 7544SOL     OW23530   6.728   2.042   5.619
 7544SOL    HW123531   6.750   2.066   5.524
 7544SOL    HW223532   6.792   2.088   5.680
 7545SOL     OW23533   1.214   5.705   4.954
 7545SOL    HW123534   1.187   5.613   4.925
 7545SOL    HW223535   1.225   5.764   4.874
 7546SOL     OW23536   2.278   3.201   1.763
 7546SOL    HW123537   2.303   3.288   1.804
 7546SOL    HW223538   2.357   3.139   1.766
 7547SOL     OW23539   4.107   0.589   2.168
 7547SOL    HW123540   4.012   0.574   2.196
 7547SOL    HW223541   4.112   0.600   2.069
 7548SOL     OW23542   2.515   2.130   6.166
 7548SOL    HW123543   2.576   2.191   6.217
 7548SOL    HW223544   2.539   2.132   6.069
 7549SOL     OW23545   5.222   0.189   5.306
 7549SOL    HW123546   5.151   0.260   5.314
 7549SOL    HW223547   5.235   0.166   5.209
 7550SOL     OW23548   2.830   6.221   4.813
 7550SOL    HW123549   2.816   6.126   4.786
 7550SOL    HW223550   2.801   6.281   4.739
 7551SOL     OW23551   5.969   3.036   6.827
 7551SOL    HW123552   6.005   2.944   6.812
 7551SOL    HW223553   6.043   3.095   6.860
 7552SOL     OW23554   2.705   6.600   4.305
 7552SOL    HW123555   2.774   6.536   4.270
 7552SOL    HW223556   2.614   6.566   4.280
 7553SOL     OW23557   6.463   0.290   5.692
 7553SOL    HW123558   6.391   0.234   5.733
 7553SOL    HW223559   6.447   0.296   5.593
 7554SOL     OW23560   4.612   1.744   2.091
 7554SOL    HW123561   4.687   1.757   2.156
 7554SOL    HW223562   4.613   1.649   2.059
 7555SOL     OW23563   4.660   5.676   4.302
 7555SOL    HW123564   4.727   5.745   4.274
 7555SOL    HW223565   4.581   5.679   4.240
 7556SOL     OW23566   0.832   5.950   0.667
 7556SOL    HW123567   0.855   5.963   0.570
 7556SOL    HW223568   0.772   6.024   0.697
 7557SOL     OW23569   4.223   5.851   0.303
 7557SOL    HW123570   4.170   5.882   0.224
 7557SOL    HW223571   4.228   5.751   0.302
 7558SOL     OW23572   1.678   1.454   4.192
 7558SOL    HW123573   1.712   1.543   4.162
 7558SOL    HW223574   1.583   1.443   4.163
 7559SOL     OW23575   1.315   6.619   4.884
 7559SOL    HW123576   1.392   6.617   4.948
 7559SOL    HW223577   1.296   6.526   4.852
 7560SOL     OW23578   0.483   1.041   5.260
 7560SOL    HW123579   0.394   1.066   5.298
 7560SOL    HW223580   0.549   1.114   5.277
 7561SOL     OW23581   5.331   1.281   5.775
 7561SOL    HW123582   5.404   1.318   5.718
 7561SOL    HW223583   5.244   1.324   5.750
 7562SOL     OW23584   1.566   5.563   3.612
 7562SOL    HW123585   1.529   5.639   3.557
 7562SOL    HW223586   1.662   5.549   3.590
 7563SOL     OW23587   3.198   6.245   3.276
 7563SOL    HW123588   3.109   6.282   3.304
 7563SOL    HW223589   3.268   6.276   3.340
 7564SOL     OW23590   5.915   3.747   6.290
 7564SOL    HW123591   5.991   3.706   6.340
 7564SOL    HW223592   5.915   3.712   6.196
 7565SOL     OW23593   6.436   3.436   5.697
 7565SOL    HW123594   6.514   3.471   5.748
 7565SOL    HW223595   6.374   3.388   5.759
 7566SOL     OW23596   5.072   4.151   1.208
 7566SOL    HW123597   5.162   4.118   1.180
 7566SOL    HW223598   5.043   4.101   1.290
 7567SOL     OW23599   1.477   0.499   2.996
 7567SOL    HW123600   1.509   0.486   3.090
 7567SOL    HW223601   1.378   0.510   2.995
 7568SOL     OW23602   0.219   4.328   1.394
 7568SOL    HW123603   0.281   4.375   1.331
 7568SOL    HW223604   0.144   4.286   1.342
 7569SOL     OW23605   4.406   3.883   1.384
 7569SOL    HW123606   4.427   3.977   1.411
 7569SOL    HW223607   4.486   3.841   1.342
 7570SOL     OW23608   0.991   2.243   1.946
 7570SOL    HW123609   0.897   2.264   1.918
 7570SOL    HW223610   1.052   2.253   1.868
 7571SOL     OW23611   5.332   1.659   3.520
 7571SOL    HW123612   5.368   1.655   3.613
 7571SOL    HW223613   5.305   1.567   3.490
 7572SOL     OW23614   4.530   6.735   2.363
 7572SOL    HW123615   4.431   6.723   2.357
 7572SOL    HW223616   4.574   6.697   2.282
 7573SOL     OW23617   3.413   0.494   6.209
 7573SOL    HW123618   3.324   0.450   6.220
 7573SOL    HW223619   3.419   0.573   6.269
 7574SOL     OW23620   0.785   3.622   2.728
 7574SOL    HW123621   0.815   3.713   2.699
 7574SOL    HW223622   0.865   3.567   2.752
 7575SOL     OW23623   6.891   0.141   6.958
 7575SOL    HW123624   6.837   0.186   6.887
 7575SOL    HW223625   6.830   0.091   7.019
 7576SOL     OW23626   4.914   3.067   6.915
 7576SOL    HW123627   4.995   3.091   6.862
 7576SOL    HW223628   4.873   3.149   6.954
 7577SOL     OW23629   0.204   0.474   5.416
 7577SOL    HW123630   0.219   0.524   5.501
 7577SOL    HW223631   0.287   0.479   5.359
 7578SOL     OW23632   6.059   5.883   2.312
 7578SOL    HW123633   6.044   5.810   2.245
 7578SOL    HW223634   6.155   5.884   2.340
 7579SOL     OW23635   1.187   1.625   6.546
 7579SOL    HW123636   1.170   1.669   6.458
 7579SOL    HW223637   1.273   1.660   6.584
 7580SOL     OW23638   2.251   4.954   2.371
 7580SOL    HW123639   2.317   4.973   2.299
 7580SOL    HW223640   2.298   4.914   2.450
 7581SOL     OW23641   0.611   0.225   1.120
 7581SOL    HW123642   0.528   0.193   1.074
 7581SOL    HW223643   0.677   0.254   1.051
 7582SOL     OW23644   1.278   0.619   5.574
 7582SOL    HW123645   1.292   0.716   5.555
 7582SOL    HW223646   1.367   0.572   5.574
 7583SOL     OW23647   5.552   3.813   2.627
 7583SOL    HW123648   5.501   3.754   2.563
 7583SOL    HW223649   5.558   3.768   2.716
 7584SOL     OW23650   0.344   0.855   3.475
 7584SOL    HW123651   0.367   0.878   3.569
 7584SOL    HW223652   0.425   0.821   3.427
 7585SOL     OW23653   0.764   1.209   6.072
 7585SOL    HW123654   0.824   1.273   6.120
 7585SOL    HW223655   0.713   1.154   6.139
 7586SOL     OW23656   2.204   6.478   4.084
 7586SOL    HW123657   2.162   6.566   4.064
 7586SOL    HW223658   2.168   6.408   4.022
 7587SOL     OW23659   5.936   0.436   2.013
 7587SOL    HW123660   5.890   0.407   2.097
 7587SOL    HW223661   5.906   0.529   1.989
 7588SOL     OW23662   2.105   3.538   4.623
 7588SOL    HW123663   2.128   3.443   4.602
 7588SOL    HW223664   2.164   3.599   4.569
 7589SOL     OW23665   6.644   6.980   2.565
 7589SOL    HW123666   6.633   6.904   2.629
 7589SOL    HW223667   6.622   0.044   2.612
 7590SOL     OW23668   5.591   0.751   6.553
 7590SOL    HW123669   5.612   0.812   6.629
 7590SOL    HW223670   5.573   0.659   6.588
 7591SOL     OW23671   3.808   3.784   5.146
 7591SOL    HW123672   3.751   3.760   5.225
 7591SOL    HW223673   3.775   3.736   5.066
 7592SOL     OW23674   0.052   0.252   3.086
 7592SOL    HW123675   0.135   0.302   3.063
 7592SOL    HW223676   7.013   0.311   3.140
 7593SOL     OW23677   6.665   2.210   6.322
 7593SOL    HW123678   6.565   2.216   6.332
 7593SOL    HW223679   6.709   2.275   6.383
 7594SOL     OW23680   6.625   4.323   5.792
 7594SOL    HW123681   6.681   4.392   5.746
 7594SOL    HW223682   6.633   4.236   5.744
 7595SOL     OW23683   0.324   3.665   0.447
 7595SOL    HW123684   0.310   3.671   0.546
 7595SOL    HW223685   0.251   3.713   0.400
 7596SOL     OW23686   3.409   2.011   6.946
 7596SOL    HW123687   3.461   2.021   0.009
 7596SOL    HW223688   3.311   2.009   6.968
 7597SOL     OW23689   2.367   4.717   0.070
 7597SOL    HW123690   2.344   4.776   7.015
 7597SOL    HW223691   2.460   4.682   0.059
 7598SOL     OW23692   4.973   0.773   2.284
 7598SOL    HW123693   5.050   0.825   2.247
 7598SOL    HW223694   4.911   0.836   2.331
 7599SOL     OW23695   2.878   3.093   0.225
 7599SOL    HW123696   2.833   3.145   0.152
 7599SOL    HW223697   2.931   3.156   0.282
 7600SOL     OW23698   0.244   6.772   4.108
 7600SOL    HW123699   0.190   6.799   4.028
 7600SOL    HW223700   0.341   6.768   4.083
 7601SOL     OW23701   2.853   5.933   0.876
 7601SOL    HW123702   2.914   5.987   0.818
 7601SOL    HW223703   2.906   5.889   0.948
 7602SOL     OW23704   6.811   0.958   1.182
 7602SOL    HW123705   6.831   0.860   1.177
 7602SOL    HW223706   6.882   1.008   1.132
 7603SOL     OW23707   4.196   1.032   6.716
 7603SOL    HW123708   4.255   0.959   6.682
 7603SOL    HW223709   4.127   1.055   6.647
 7604SOL     OW23710   2.597   1.745   5.778
 7604SOL    HW123711   2.691   1.742   5.812
 7604SOL    HW223712   2.597   1.729   5.679
 7605SOL     OW23713   2.616   6.089   6.344
 7605SOL    HW123714   2.695   6.148   6.357
 7605SOL    HW223715   2.642   5.994   6.360
 7606SOL     OW23716   6.393   1.037   3.701
 7606SOL    HW123717   6.453   0.977   3.648
 7606SOL    HW223718   6.393   1.007   3.797
 7607SOL     OW23719   1.969   5.493   5.323
 7607SOL    HW123720   2.037   5.421   5.328
 7607SOL    HW223721   1.995   5.558   5.251
 7608SOL     OW23722   0.865   2.546   6.519
 7608SOL    HW123723   0.774   2.575   6.489
 7608SOL    HW223724   0.930   2.621   6.505
 7609SOL     OW23725   3.466   0.432   4.799
 7609SOL    HW123726   3.381   0.448   4.848
 7609SOL    HW223727   3.447   0.387   4.712
 7610SOL     OW23728   4.332   6.124   4.839
 7610SOL    HW123729   4.383   6.137   4.924
 7610SOL    HW223730   4.239   6.093   4.861
 7611SOL     OW23731   4.363   2.105   0.366
 7611SOL    HW123732   4.430   2.114   0.292
 7611SOL    HW223733   4.344   2.195   0.404
 7612SOL     OW23734   4.906   3.159   2.214
 7612SOL    HW123735   4.814   3.165   2.176
 7612SOL    HW223736   4.923   3.238   2.273
 7613SOL     OW23737   0.090   0.948   6.541
 7613SOL    HW123738   0.101   1.021   6.609
 7613SOL    HW223739   0.061   0.864   6.587
 7614SOL     OW23740   5.942   5.280   6.717
 7614SOL    HW123741   5.947   5.200   6.659
 7614SOL    HW223742   5.899   5.256   6.804
 7615SOL     OW23743   4.950   3.488   6.356
 7615SOL    HW123744   4.981   3.575   6.316
 7615SOL    HW223745   4.931   3.423   6.283
 7616SOL     OW23746   6.430   6.812   2.062
 7616SOL    HW123747   6.387   6.744   2.122
 7616SOL    HW223748   6.499   6.863   2.113
 7617SOL     OW23749   5.293   4.915   2.985
 7617SOL    HW123750   5.302   4.983   3.058
 7617SOL    HW223751   5.225   4.847   3.011
 7618SOL     OW23752   2.467   2.387   0.121
 7618SOL    HW123753   2.471   2.424   0.214
 7618SOL    HW223754   2.446   2.461   0.056
 7619SOL     OW23755   0.417   0.698   4.434
 7619SOL    HW123756   0.483   0.625   4.452
 7619SOL    HW223757   0.325   0.667   4.459
 7620SOL     OW23758   3.154   4.108   0.484
 7620SOL    HW123759   3.113   4.019   0.501
 7620SOL    HW223760   3.123   4.173   0.553
 7621SOL     OW23761   5.810   5.003   0.746
 7621SOL    HW123762   5.895   5.051   0.727
 7621SOL    HW223763   5.819   4.907   0.719
 7622SOL     OW23764   2.104   3.524   0.731
 7622SOL    HW123765   2.050   3.529   0.648
 7622SOL    HW223766   2.201   3.534   0.709
 7623SOL     OW23767   5.270   5.334   3.335
 7623SOL    HW123768   5.208   5.386   3.277
 7623SOL    HW223769   5.219   5.262   3.383
 7624SOL     OW23770   6.538   2.865   2.898
 7624SOL    HW123771   6.560   2.953   2.939
 7624SOL    HW223772   6.561   2.792   2.962
 7625SOL     OW23773   5.231   0.593   2.225
 7625SOL    HW123774   5.186   0.588   2.315
 7625SOL    HW223775   5.194   0.521   2.166
 7626SOL     OW23776   4.645   6.187   0.500
 7626SOL    HW123777   4.622   6.216   0.407
 7626SOL    HW223778   4.582   6.115   0.529
 7627SOL     OW23779   4.376   2.461   5.586
 7627SOL    HW123780   4.277   2.449   5.595
 7627SOL    HW223781   4.414   2.486   5.676
 7628SOL     OW23782   3.807   3.005   0.781
 7628SOL    HW123783   3.752   3.076   0.738
 7628SOL    HW223784   3.798   3.011   0.880
 7629SOL     OW23785   5.757   2.748   3.930
 7629SOL    HW123786   5.720   2.672   3.983
 7629SOL    HW223787   5.808   2.712   3.852
 7630SOL     OW23788   1.681   5.736   3.876
 7630SOL    HW123789   1.636   5.745   3.787
 7630SOL    HW223790   1.772   5.695   3.864
 7631SOL     OW23791   1.406   1.180   6.510
 7631SOL    HW123792   1.443   1.198   6.419
 7631SOL    HW223793   1.315   1.141   6.502
 7632SOL     OW23794   4.179   5.415   1.194
 7632SOL    HW123795   4.188   5.368   1.106
 7632SOL    HW223796   4.224   5.361   1.265
 7633SOL     OW23797   5.396   0.630   1.992
 7633SOL    HW123798   5.347   0.631   2.079
 7633SOL    HW223799   5.341   0.678   1.923
 7634SOL     OW23800   0.584   2.153   0.021
 7634SOL    HW123801   0.585   2.244   7.000
 7634SOL    HW223802   0.600   2.163   0.119
 7635SOL     OW23803   1.828   2.988   6.050
 7635SOL    HW123804   1.816   2.892   6.023
 7635SOL    HW223805   1.800   3.047   5.975
 7636SOL     OW23806   0.001   3.000   3.567
 7636SOL    HW123807   0.031   3.072   3.630
 7636SOL    HW223808   0.071   2.929   3.563
 7637SOL     OW23809   1.967   4.215   4.667
 7637SOL    HW123810   2.009   4.181   4.751
 7637SOL    HW223811   1.868   4.214   4.676
 7638SOL     OW23812   0.091   6.836   0.963
 7638SOL    HW123813   0.020   6.881   1.017
 7638SOL    HW223814   0.119   6.896   0.888
 7639SOL     OW23815   2.141   6.225   0.322
 7639SOL    HW123816   2.239   6.244   0.332
 7639SOL    HW223817   2.104   6.196   0.410
 7640SOL     OW23818   3.531   0.371   0.684
 7640SOL    HW123819   3.502   0.275   0.677
 7640SOL    HW223820   3.465   0.429   0.635
 7641SOL     OW23821   6.193   4.157   5.335
 7641SOL    HW123822   6.181   4.115   5.425
 7641SOL    HW223823   6.208   4.256   5.346
 7642SOL     OW23824   5.366   0.896   3.950
 7642SOL    HW123825   5.334   0.807   3.981
 7642SOL    HW223826   5.388   0.953   4.030
 7643SOL     OW23827   4.983   2.033   4.183
 7643SOL    HW123828   4.942   1.959   4.130
 7643SOL    HW223829   5.026   2.099   4.122
 7644SOL     OW23830   5.549   4.037   0.356
 7644SOL    HW123831   5.462   3.988   0.348
 7644SOL    HW223832   5.599   4.001   0.435
 7645SOL     OW23833   5.919   4.396   6.407
 7645SOL    HW123834   5.885   4.304   6.426
 7645SOL    HW223835   5.858   4.463   6.449
 7646SOL     OW23836   6.509   1.426   2.905
 7646SOL    HW123837   6.550   1.434   2.814
 7646SOL    HW223838   6.420   1.379   2.897
 7647SOL     OW23839   6.911   1.735   4.194
 7647SOL    HW123840   6.867   1.681   4.265
 7647SOL    HW223841   6.959   1.813   4.236
 7648SOL     OW23842   1.695   2.432   0.868
 7648SOL    HW123843   1.744   2.468   0.789
 7648SOL    HW223844   1.733   2.471   0.952
 7649SOL     OW23845   4.501   0.654   0.364
 7649SOL    HW123846   4.535   0.619   0.277
 7649SOL    HW223847   4.401   0.655   0.363
 7650SOL     OW23848   3.365   2.617   0.153
 7650SOL    HW123849   3.403   2.541   0.100
 7650SOL    HW223850   3.409   2.702   0.125
 7651SOL     OW23851   3.711   5.366   6.168
 7651SOL    HW123852   3.647   5.326   6.102
 7651SOL    HW223853   3.729   5.461   6.143
 7652SOL     OW23854   0.771   0.955   4.819
 7652SOL    HW123855   0.724   0.989   4.901
 7652SOL    HW223856   0.718   0.881   4.778
 7653SOL     OW23857   1.991   6.422   5.950
 7653SOL    HW123858   2.025   6.348   6.008
 7653SOL    HW223859   2.068   6.478   5.919
 7654SOL     OW23860   0.016   2.271   6.196
 7654SOL    HW123861   6.981   2.343   6.235
 7654SOL    HW223862   6.997   2.238   6.111
 7655SOL     OW23863   2.889   1.374   5.638
 7655SOL    HW123864   2.813   1.361   5.574
 7655SOL    HW223865   2.888   1.468   5.672
 7656SOL     OW23866   6.368   3.658   0.027
 7656SOL    HW123867   6.393   3.662   0.124
 7656SOL    HW223868   6.278   3.616   0.018
 7657SOL     OW23869   0.885   4.262   4.940
 7657SOL    HW123870   0.937   4.309   5.012
 7657SOL    HW223871   0.948   4.221   4.875
 7658SOL     OW23872   2.623   0.173   0.988
 7658SOL    HW123873   2.702   0.136   1.036
 7658SOL    HW223874   2.600   0.114   0.911
 7659SOL     OW23875   5.466   4.223   5.067
 7659SOL    HW123876   5.523   4.209   5.148
 7659SOL    HW223877   5.383   4.168   5.075
 7660SOL     OW23878   0.011   6.028   4.821
 7660SOL    HW123879   7.010   5.994   4.729
 7660SOL    HW223880   0.106   6.007   4.842
 7661SOL     OW23881   1.926   0.266   4.705
 7661SOL    HW123882   1.918   0.332   4.780
 7661SOL    HW223883   1.851   0.200   4.711
 7662SOL     OW23884   6.603   6.422   2.092
 7662SOL    HW123885   6.646   6.331   2.087
 7662SOL    HW223886   6.669   6.488   2.127
 7663SOL     OW23887   1.577   5.913   3.688
 7663SOL    HW123888   1.671   5.921   3.656
 7663SOL    HW223889   1.541   6.003   3.710
 7664SOL     OW23890   5.448   2.259   3.074
 7664SOL    HW123891   5.370   2.205   3.106
 7664SOL    HW223892   5.440   2.352   3.110
 7665SOL     OW23893   1.920   6.514   5.108
 7665SOL    HW123894   1.916   6.605   5.149
 7665SOL    HW223895   2.015   6.492   5.085
 7666SOL     OW23896   6.332   4.805   3.965
 7666SOL    HW123897   6.278   4.849   3.893
 7666SOL    HW223898   6.322   4.706   3.957
 7667SOL     OW23899   4.923   5.560   1.436
 7667SOL    HW123900   4.850   5.580   1.502
 7667SOL    HW223901   4.889   5.569   1.343
 7668SOL     OW23902   1.850   5.393   0.692
 7668SOL    HW123903   1.807   5.467   0.744
 7668SOL    HW223904   1.855   5.311   0.749
 7669SOL     OW23905   4.343   2.325   6.720
 7669SOL    HW123906   4.281   2.300   6.646
 7669SOL    HW223907   4.309   2.406   6.768
 7670SOL     OW23908   1.293   1.039   1.074
 7670SOL    HW123909   1.241   0.975   1.130
 7670SOL    HW223910   1.277   1.132   1.107
 7671SOL     OW23911   3.665   1.023   2.025
 7671SOL    HW123912   3.710   0.984   2.106
 7671SOL    HW223913   3.731   1.079   1.975
 7672SOL     OW23914   5.593   2.854   3.096
 7672SOL    HW123915   5.596   2.808   3.185
 7672SOL    HW223916   5.625   2.791   3.025
 7673SOL     OW23917   2.072   6.142   5.354
 7673SOL    HW123918   2.014   6.149   5.435
 7673SOL    HW223919   2.017   6.155   5.272
 7674SOL     OW23920   4.001   5.556   3.695
 7674SOL    HW123921   3.903   5.568   3.677
 7674SOL    HW223922   4.044   5.645   3.706
 7675SOL     OW23923   3.866   6.806   3.003
 7675SOL    HW123924   3.917   6.869   3.061
 7675SOL    HW223925   3.910   6.800   2.913
 7676SOL     OW23926   3.290   3.317   3.957
 7676SOL    HW123927   3.205   3.298   3.909
 7676SOL    HW223928   3.314   3.414   3.945
 7677SOL     OW23929   0.216   6.728   0.705
 7677SOL    HW123930   0.141   6.679   0.747
 7677SOL    HW223931   0.208   6.826   0.725
 7678SOL     OW23932   3.365   1.034   5.186
 7678SOL    HW123933   3.427   1.109   5.210
 7678SOL    HW223934   3.297   1.023   5.258
 7679SOL     OW23935   3.111   5.610   4.081
 7679SOL    HW123936   3.210   5.610   4.090
 7679SOL    HW223937   3.070   5.656   4.160
 7680SOL     OW23938   1.366   5.897   4.151
 7680SOL    HW123939   1.321   5.890   4.062
 7680SOL    HW223940   1.309   5.855   4.221
 7681SOL     OW23941   1.972   2.164   5.851
 7681SOL    HW123942   1.972   2.066   5.830
 7681SOL    HW223943   1.905   2.210   5.793
 7682SOL     OW23944   2.991   6.991   1.514
 7682SOL    HW123945   3.026   0.031   1.443
 7682SOL    HW223946   2.929   6.924   1.473
 7683SOL     OW23947   1.578   4.309   3.992
 7683SOL    HW123948   1.618   4.383   3.937
 7683SOL    HW223949   1.621   4.308   4.082
 7684SOL     OW23950   4.847   3.439   1.567
 7684SOL    HW123951   4.797   3.388   1.497
 7684SOL    HW223952   4.798   3.433   1.654
 7685SOL     OW23953   1.999   0.096   6.531
 7685SOL    HW123954   2.013   0.120   6.627
 7685SOL    HW223955   1.980   7.020   6.523
 7686SOL     OW23956   6.343   1.153   4.857
 7686SOL    HW123957   6.257   1.186   4.817
 7686SOL    HW223958   6.410   1.139   4.784
 7687SOL     OW23959   6.000   3.831   5.480
 7687SOL    HW123960   5.920   3.887   5.457
 7687SOL    HW223961   6.071   3.845   5.411
 7688SOL     OW23962   6.811   3.346   1.016
 7688SOL    HW123963   6.752   3.308   0.945
 7688SOL    HW223964   6.788   3.304   1.104
 7689SOL     OW23965   5.318   6.703   3.151
 7689SOL    HW123966   5.374   6.655   3.083
 7689SOL    HW223967   5.325   6.801   3.137
 7690SOL     OW23968   6.448   3.966   2.288
 7690SOL    HW123969   6.364   4.001   2.331
 7690SOL    HW223970   6.482   3.889   2.341
 7691SOL     OW23971   4.894   2.793   4.003
 7691SOL    HW123972   4.928   2.834   4.087
 7691SOL    HW223973   4.891   2.693   4.013
 7692SOL     OW23974   1.772   6.286   2.229
 7692SOL    HW123975   1.805   6.289   2.134
 7692SOL    HW223976   1.730   6.198   2.247
 7693SOL     OW23977   2.438   2.307   0.863
 7693SOL    HW123978   2.433   2.390   0.918
 7693SOL    HW223979   2.466   2.330   0.770
 7694SOL     OW23980   4.641   2.512   1.535
 7694SOL    HW123981   4.644   2.528   1.633
 7694SOL    HW223982   4.665   2.416   1.516
 7695SOL     OW23983   5.465   6.598   4.220
 7695SOL    HW123984   5.541   6.599   4.155
 7695SOL    HW223985   5.489   6.652   4.300
 7696SOL     OW23986   2.310   1.159   5.546
 7696SOL    HW123987   2.219   1.197   5.530
 7696SOL    HW223988   2.302   1.077   5.604
 7697SOL     OW23989   5.802   6.613   3.449
 7697SOL    HW123990   5.879   6.550   3.459
 7697SOL    HW223991   5.788   6.634   3.352
 7698SOL     OW23992   5.834   2.112   1.321
 7698SOL    HW123993   5.828   2.012   1.327
 7698SOL    HW223994   5.742   2.151   1.330
 7699SOL     OW23995   3.787   5.595   6.078
 7699SOL    HW123996   3.822   5.648   6.155
 7699SOL    HW223997   3.842   5.615   5.996
 7700SOL     OW23998   5.635   4.332   1.510
 7700SOL    HW123999   5.712   4.359   1.569
 7700SOL    HW224000   5.636   4.388   1.428
 7701SOL     OW24001   3.184   2.037   6.213
 7701SOL    HW124002   3.162   2.024   6.310
 7701SOL    HW224003   3.145   1.963   6.159
 7702SOL     OW24004   5.822   6.609   5.582
 7702SOL    HW124005   5.835   6.708   5.584
 7702SOL    HW224006   5.870   6.567   5.658
 7703SOL     OW24007   0.236   6.402   6.959
 7703SOL    HW124008   0.282   6.350   0.009
 7703SOL    HW224009   0.304   6.444   6.900
 7704SOL     OW24010   1.835   2.487   4.546
 7704SOL    HW124011   1.933   2.505   4.534
 7704SOL    HW224012   1.794   2.561   4.600
 7705SOL     OW24013   1.120   4.242   0.423
 7705SOL    HW124014   1.146   4.290   0.507
 7705SOL    HW224015   1.066   4.303   0.365
 7706SOL     OW24016   3.495   3.577   2.286
 7706SOL    HW124017   3.585   3.614   2.265
 7706SOL    HW224018   3.476   3.590   2.383
 7707SOL     OW24019   6.576   5.711   5.566
 7707SOL    HW124020   6.648   5.661   5.613
 7707SOL    HW224021   6.615   5.766   5.493
 7708SOL     OW24022   0.893   0.244   3.411
 7708SOL    HW124023   0.949   0.232   3.329
 7708SOL    HW224024   0.918   0.329   3.456
 7709SOL     OW24025   6.668   4.508   1.273
 7709SOL    HW124026   6.596   4.461   1.324
 7709SOL    HW224027   6.704   4.447   1.202
 7710SOL     OW24028   6.096   3.855   3.038
 7710SOL    HW124029   6.029   3.825   3.106
 7710SOL    HW224030   6.049   3.882   2.955
 7711SOL     OW24031   1.015   4.675   3.242
 7711SOL    HW124032   1.046   4.653   3.334
 7711SOL    HW224033   0.960   4.599   3.206
 7712SOL     OW24034   1.018   4.334   4.364
 7712SOL    HW124035   0.941   4.351   4.427
 7712SOL    HW224036   1.104   4.347   4.412
 7713SOL     OW24037   0.494   5.584   0.302
 7713SOL    HW124038   0.582   5.625   0.326
 7713SOL    HW224039   0.421   5.653   0.311
 7714SOL     OW24040   5.537   1.401   4.762
 7714SOL    HW124041   5.523   1.500   4.759
 7714SOL    HW224042   5.470   1.359   4.823
 7715SOL     OW24043   3.931   3.556   6.409
 7715SOL    HW124044   4.004   3.593   6.352
 7715SOL    HW224045   3.960   3.555   6.504
 7716SOL     OW24046   1.896   0.749   6.804
 7716SOL    HW124047   1.873   0.657   6.835
 7716SOL    HW224048   1.884   0.813   6.880
 7717SOL     OW24049   0.871   2.102   6.287
 7717SOL    HW124050   0.845   2.048   6.207
 7717SOL    HW224051   0.948   2.059   6.333
 7718SOL     OW24052   0.623   3.716   3.782
 7718SOL    HW124053   0.638   3.681   3.874
 7718SOL    HW224054   0.669   3.804   3.772
 7719SOL     OW24055   2.357   6.710   5.068
 7719SOL    HW124056   2.360   6.803   5.031
 7719SOL    HW224057   2.451   6.677   5.080
 7720SOL     OW24058   4.255   0.906   6.467
 7720SOL    HW124059   4.186   0.964   6.424
 7720SOL    HW224060   4.300   0.851   6.396
 7721SOL     OW24061   5.360   6.007   2.304
 7721SOL    HW124062   5.449   5.966   2.322
 7721SOL    HW224063   5.348   6.019   2.206
 7722SOL     OW24064   0.399   6.544   4.498
 7722SOL    HW124065   0.452   6.593   4.566
 7722SOL    HW224066   0.458   6.517   4.422
 7723SOL     OW24067   3.624   4.783   6.341
 7723SOL    HW124068   3.558   4.726   6.293
 7723SOL    HW224069   3.666   4.847   6.277
 7724SOL     OW24070   1.216   4.329   6.675
 7724SOL    HW124071   1.308   4.331   6.635
 7724SOL    HW224072   1.178   4.421   6.675
 7725SOL     OW24073   5.393   2.955   4.992
 7725SOL    HW124074   5.336   2.990   4.917
 7725SOL    HW224075   5.446   2.877   4.959
 7726SOL     OW24076   1.540   2.835   0.801
 7726SOL    HW124077   1.470   2.833   0.872
 7726SOL    HW224078   1.495   2.831   0.711
 7727SOL     OW24079   6.141   7.006   3.136
 7727SOL    HW124080   6.088   0.010   3.216
 7727SOL    HW224081   6.238   0.005   3.152
 7728SOL     OW24082   1.918   3.118   5.611
 7728SOL    HW124083   1.920   3.043   5.546
 7728SOL    HW224084   1.950   3.202   5.567
 7729SOL     OW24085   0.630   0.748   2.931
 7729SOL    HW124086   0.571   0.767   2.853
 7729SOL    HW224087   0.711   0.697   2.900
 7730SOL     OW24088   5.868   3.236   6.524
 7730SOL    HW124089   5.814   3.187   6.591
 7730SOL    HW224090   5.924   3.171   6.472
 7731SOL     OW24091   0.094   0.938   5.867
 7731SOL    HW124092   0.144   0.882   5.933
 7731SOL    HW224093   0.062   0.879   5.792
 7732SOL     OW24094   3.706   0.968   0.630
 7732SOL    HW124095   3.756   1.054   0.618
 7732SOL    HW224096   3.659   0.944   0.545
 7733SOL     OW24097   5.753   6.185   1.632
 7733SOL    HW124098   5.768   6.231   1.545
 7733SOL    HW224099   5.781   6.244   1.707
 7734SOL     OW24100   3.462   4.112   3.698
 7734SOL    HW124101   3.395   4.186   3.708
 7734SOL    HW224102   3.490   4.080   3.789
 7735SOL     OW24103   1.036   5.404   1.254
 7735SOL    HW124104   0.975   5.460   1.310
 7735SOL    HW224105   1.119   5.383   1.306
 7736SOL     OW24106   2.255   1.550   0.883
 7736SOL    HW124107   2.197   1.598   0.949
 7736SOL    HW224108   2.314   1.485   0.931
 7737SOL     OW24109   4.791   4.460   6.074
 7737SOL    HW124110   4.868   4.445   6.136
 7737SOL    HW224111   4.727   4.384   6.081
 7738SOL     OW24112   1.918   0.792   5.352
 7738SOL    HW124113   1.971   0.858   5.406
 7738SOL    HW224114   1.894   0.715   5.410
 7739SOL     OW24115   0.896   2.818   6.485
 7739SOL    HW124116   0.994   2.835   6.498
 7739SOL    HW224117   0.866   2.859   6.399
 7740SOL     OW24118   1.931   0.348   3.813
 7740SOL    HW124119   1.838   0.325   3.784
 7740SOL    HW224120   1.929   0.381   3.907
 7741SOL     OW24121   6.253   4.499   6.312
 7741SOL    HW124122   6.222   4.405   6.297
 7741SOL    HW224123   6.234   4.554   6.230
 7742SOL     OW24124   4.489   2.546   3.877
 7742SOL    HW124125   4.538   2.595   3.949
 7742SOL    HW224126   4.554   2.502   3.816
 7743SOL     OW24127   3.198   1.157   6.220
 7743SOL    HW124128   3.120   1.206   6.180
 7743SOL    HW224129   3.173   1.062   6.235
 7744SOL     OW24130   0.012   5.910   4.597
 7744SOL    HW124131   7.010   5.813   4.590
 7744SOL    HW224132   0.063   5.937   4.515
 7745SOL     OW24133   2.954   0.279   0.445
 7745SOL    HW124134   2.960   0.185   0.478
 7745SOL    HW224135   2.986   0.342   0.516
 7746SOL     OW24136   6.846   6.117   1.348
 7746SOL    HW124137   6.932   6.161   1.323
 7746SOL    HW224138   6.792   6.180   1.405
 7747SOL     OW24139   6.895   6.193   0.586
 7747SOL    HW124140   6.880   6.252   0.665
 7747SOL    HW224141   6.810   6.145   0.563
 7748SOL     OW24142   4.228   1.301   5.987
 7748SOL    HW124143   4.300   1.235   6.010
 7748SOL    HW224144   4.156   1.254   5.936
 7749SOL     OW24145   2.971   3.797   2.890
 7749SOL    HW124146   2.944   3.702   2.879
 7749SOL    HW224147   2.924   3.836   2.969
 7750SOL     OW24148   5.606   3.677   5.359
 7750SOL    HW124149   5.589   3.632   5.271
 7750SOL    HW224150   5.595   3.610   5.433
 7751SOL     OW24151   0.430   1.632   4.119
 7751SOL    HW124152   0.339   1.595   4.096
 7751SOL    HW224153   0.439   1.637   4.218
 7752SOL     OW24154   5.504   4.302   6.138
 7752SOL    HW124155   5.407   4.323   6.146
 7752SOL    HW224156   5.516   4.218   6.085
 7753SOL     OW24157   2.155   1.236   4.747
 7753SOL    HW124158   2.190   1.296   4.674
 7753SOL    HW224159   2.214   1.245   4.827
 7754SOL     OW24160   6.878   1.204   0.460
 7754SOL    HW124161   6.872   1.133   0.390
 7754SOL    HW224162   6.897   1.162   0.549
 7755SOL     OW24163   1.286   6.370   5.484
 7755SOL    HW124164   1.328   6.397   5.570
 7755SOL    HW224165   1.345   6.304   5.437
 7756SOL     OW24166   3.452   6.731   2.851
 7756SOL    HW124167   3.517   6.739   2.927
 7756SOL    HW224168   3.429   6.635   2.837
 7757SOL     OW24169   3.713   1.884   5.264
 7757SOL    HW124170   3.724   1.960   5.328
 7757SOL    HW224171   3.796   1.827   5.266
 7758SOL     OW24172   2.630   1.098   6.374
 7758SOL    HW124173   2.653   1.009   6.413
 7758SOL    HW224174   2.596   1.158   6.446
 7759SOL     OW24175   2.291   0.056   4.627
 7759SOL    HW124176   2.223   0.087   4.693
 7759SOL    HW224177   2.248   0.044   4.538
 7760SOL     OW24178   5.548   1.625   2.839
 7760SOL    HW124179   5.620   1.626   2.769
 7760SOL    HW224180   5.483   1.552   2.820
 7761SOL     OW24181   4.616   0.814   6.789
 7761SOL    HW124182   4.584   0.865   6.709
 7761SOL    HW224183   4.546   0.819   6.861
 7762SOL     OW24184   1.941   1.868   0.972
 7762SOL    HW124185   1.904   1.960   0.953
 7762SOL    HW224186   1.933   1.812   0.889
 7763SOL     OW24187   1.957   2.995   0.858
 7763SOL    HW124188   1.951   3.081   0.809
 7763SOL    HW224189   1.908   3.003   0.945
 7764SOL     OW24190   3.734   3.712   2.255
 7764SOL    HW124191   3.753   3.787   2.319
 7764SOL    HW224192   3.818   3.686   2.208
 7765SOL     OW24193   0.650   1.643   2.046
 7765SOL    HW124194   0.592   1.714   2.008
 7765SOL    HW224195   0.619   1.621   2.139
 7766SOL     OW24196   6.612   3.530   0.258
 7766SOL    HW124197   6.608   3.566   0.351
 7766SOL    HW224198   6.522   3.542   0.215
 7767SOL     OW24199   5.998   3.872   4.939
 7767SOL    HW124200   6.016   3.774   4.952
 7767SOL    HW224201   6.077   3.915   4.896
 7768SOL     OW24202   4.417   5.054   1.506
 7768SOL    HW124203   4.461   4.976   1.463
 7768SOL    HW224204   4.483   5.128   1.517
 7769SOL     OW24205   4.858   1.558   3.771
 7769SOL    HW124206   4.764   1.560   3.806
 7769SOL    HW224207   4.907   1.481   3.812
 7770SOL     OW24208   2.667   6.326   1.017
 7770SOL    HW124209   2.611   6.249   1.047
 7770SOL    HW224210   2.685   6.318   0.919
 7771SOL     OW24211   2.725   0.547   4.518
 7771SOL    HW124212   2.735   0.553   4.618
 7771SOL    HW224213   2.751   0.456   4.487
 7772SOL     OW24214   5.471   0.785   6.289
 7772SOL    HW124215   5.511   0.742   6.369
 7772SOL    HW224216   5.490   0.883   6.290
 7773SOL     OW24217   4.380   4.698   5.998
 7773SOL    HW124218   4.391   4.636   5.921
 7773SOL    HW224219   4.304   4.668   6.055
 7774SOL     OW24220   4.307   1.110   0.608
 7774SOL    HW124221   4.402   1.114   0.640
 7774SOL    HW224222   4.306   1.095   0.510
 7775SOL     OW24223   0.816   6.627   1.535
 7775SOL    HW124224   0.898   6.684   1.529
 7775SOL    HW224225   0.788   6.598   1.443
 7776SOL     OW24226   2.759   4.218   1.028
 7776SOL    HW124227   2.842   4.216   0.972
 7776SOL    HW224228   2.709   4.132   1.016
 7777SOL     OW24229   0.230   0.855   6.849
 7777SOL    HW124230   0.211   0.772   6.798
 7777SOL    HW224231   0.158   0.922   6.833
 7778SOL     OW24232   5.102   2.295   2.792
 7778SOL    HW124233   5.129   2.390   2.807
 7778SOL    HW224234   5.116   2.242   2.876
 7779SOL     OW24235   4.418   3.063   0.275
 7779SOL    HW124236   4.462   3.105   0.196
 7779SOL    HW224237   4.377   2.976   0.248
 7780SOL     OW24238   1.894   0.405   4.075
 7780SOL    HW124239   1.989   0.422   4.103
 7780SOL    HW224240   1.837   0.483   4.102
 7781SOL     OW24241   2.690   3.878   5.555
 7781SOL    HW124242   2.668   3.840   5.644
 7781SOL    HW224243   2.622   3.947   5.530
 7782SOL     OW24244   4.900   4.584   6.666
 7782SOL    HW124245   4.909   4.531   6.750
 7782SOL    HW224246   4.985   4.632   6.647
 7783SOL     OW24247   3.359   6.178   6.759
 7783SOL    HW124248   3.289   6.244   6.787
 7783SOL    HW224249   3.441   6.227   6.729
 7784SOL     OW24250   6.633   3.248   0.250
 7784SOL    HW124251   6.614   3.346   0.257
 7784SOL    HW224252   6.573   3.207   0.181
 7785SOL     OW24253   1.610   6.718   6.248
 7785SOL    HW124254   1.590   6.808   6.209
 7785SOL    HW224255   1.525   6.667   6.259
 7786SOL     OW24256   3.940   4.002   5.285
 7786SOL    HW124257   3.889   3.938   5.227
 7786SOL    HW224258   4.032   4.014   5.249
 7787SOL     OW24259   3.121   2.131   5.255
 7787SOL    HW124260   3.160   2.182   5.178
 7787SOL    HW224261   3.194   2.104   5.317
 7788SOL     OW24262   6.799   2.170   1.268
 7788SOL    HW124263   6.833   2.213   1.351
 7788SOL    HW224264   6.803   2.071   1.277
 7789SOL     OW24265   0.609   0.387   1.811
 7789SOL    HW124266   0.616   0.398   1.910
 7789SOL    HW224267   0.633   0.293   1.786
 7790SOL     OW24268   0.022   3.735   3.189
 7790SOL    HW124269   0.017   3.697   3.282
 7790SOL    HW224270   0.067   3.824   3.192
 7791SOL     OW24271   6.884   5.656   6.069
 7791SOL    HW124272   6.851   5.720   6.139
 7791SOL    HW224273   6.894   5.565   6.109
 7792SOL     OW24274   1.577   6.051   6.661
 7792SOL    HW124275   1.557   5.973   6.719
 7792SOL    HW224276   1.492   6.094   6.631
 7793SOL     OW24277   2.445   0.061   6.361
 7793SOL    HW124278   2.393   0.102   6.286
 7793SOL    HW224279   2.455   0.128   6.435
 7794SOL     OW24280   5.444   4.959   2.478
 7794SOL    HW124281   5.401   4.913   2.555
 7794SOL    HW224282   5.386   4.950   2.397
 7795SOL     OW24283   2.436   3.917   6.255
 7795SOL    HW124284   2.402   4.009   6.233
 7795SOL    HW224285   2.536   3.921   6.266
 7796SOL     OW24286   4.022   3.799   3.512
 7796SOL    HW124287   3.978   3.758   3.432
 7796SOL    HW224288   3.985   3.891   3.527
 7797SOL     OW24289   1.780   6.057   3.903
 7797SOL    HW124290   1.747   6.143   3.867
 7797SOL    HW224291   1.705   5.990   3.904
 7798SOL     OW24292   4.997   5.165   5.932
 7798SOL    HW124293   5.067   5.137   5.997
 7798SOL    HW224294   4.973   5.261   5.948
 7799SOL     OW24295   5.724   5.831   1.431
 7799SOL    HW124296   5.631   5.865   1.419
 7799SOL    HW224297   5.761   5.867   1.517
 7800SOL     OW24298   1.026   6.399   2.506
 7800SOL    HW124299   1.044   6.498   2.501
 7800SOL    HW224300   0.949   6.376   2.447
 7801SOL     OW24301   4.170   2.190   5.446
 7801SOL    HW124302   4.077   2.158   5.466
 7801SOL    HW224303   4.221   2.199   5.531
 7802SOL     OW24304   5.812   2.317   6.588
 7802SOL    HW124305   5.910   2.320   6.604
 7802SOL    HW224306   5.793   2.272   6.501
 7803SOL     OW24307   3.270   3.029   6.754
 7803SOL    HW124308   3.199   2.970   6.715
 7803SOL    HW224309   3.292   3.101   6.688
 7804SOL     OW24310   4.973   1.002   5.664
 7804SOL    HW124311   4.920   0.918   5.678
 7804SOL    HW224312   5.043   1.010   5.734
 7805SOL     OW24313   5.174   3.017   1.771
 7805SOL    HW124314   5.131   3.089   1.717
 7805SOL    HW224315   5.244   3.057   1.830
 7806SOL     OW24316   5.237   2.503   0.359
 7806SOL    HW124317   5.213   2.536   0.450
 7806SOL    HW224318   5.334   2.518   0.342
 7807SOL     OW24319   0.871   4.645   6.627
 7807SOL    HW124320   0.848   4.734   6.666
 7807SOL    HW224321   0.792   4.610   6.577
 7808SOL     OW24322   6.908   1.667   4.924
 7808SOL    HW124323   6.962   1.695   5.003
 7808SOL    HW224324   6.818   1.637   4.954
 7809SOL     OW24325   1.141   5.857   5.743
 7809SOL    HW124326   1.225   5.802   5.742
 7809SOL    HW224327   1.068   5.803   5.785
 7810SOL     OW24328   3.058   1.425   0.173
 7810SOL    HW124329   3.153   1.397   0.160
 7810SOL    HW224330   3.035   1.418   0.270
 7811SOL     OW24331   6.316   4.529   4.993
 7811SOL    HW124332   6.361   4.503   5.079
 7811SOL    HW224333   6.217   4.525   5.005
 7812SOL     OW24334   1.108   1.850   3.807
 7812SOL    HW124335   1.126   1.948   3.815
 7812SOL    HW224336   1.034   1.824   3.869
 7813SOL     OW24337   5.807   1.338   1.581
 7813SOL    HW124338   5.801   1.239   1.579
 7813SOL    HW224339   5.719   1.377   1.611
 7814SOL     OW24340   1.750   3.075   3.814
 7814SOL    HW124341   1.773   3.010   3.742
 7814SOL    HW224342   1.656   3.107   3.802
 7815SOL     OW24343   6.784   2.139   5.358
 7815SOL    HW124344   6.705   2.196   5.382
 7815SOL    HW224345   6.862   2.167   5.413
 7816SOL     OW24346   6.974   4.415   4.806
 7816SOL    HW124347   6.900   4.443   4.867
 7816SOL    HW224348   0.037   4.460   4.834
 7817SOL     OW24349   5.672   2.707   5.891
 7817SOL    HW124350   5.584   2.752   5.876
 7817SOL    HW224351   5.671   2.617   5.849
 7818SOL     OW24352   6.260   2.796   3.516
 7818SOL    HW124353   6.182   2.746   3.478
 7818SOL    HW224354   6.265   2.781   3.615
 7819SOL     OW24355   1.645   1.421   0.802
 7819SOL    HW124356   1.716   1.383   0.862
 7819SOL    HW224357   1.670   1.405   0.707
 7820SOL     OW24358   2.636   6.752   5.152
 7820SOL    HW124359   2.679   6.720   5.068
 7820SOL    HW224360   2.643   6.851   5.159
 7821SOL     OW24361   2.793   5.948   1.334
 7821SOL    HW124362   2.733   5.933   1.413
 7821SOL    HW224363   2.830   6.041   1.339
 7822SOL     OW24364   0.472   6.226   4.880
 7822SOL    HW124365   0.487   6.223   4.781
 7822SOL    HW224366   0.560   6.231   4.927
 7823SOL     OW24367   2.245   3.602   5.964
 7823SOL    HW124368   2.213   3.604   5.869
 7823SOL    HW224369   2.251   3.695   5.998
 7824SOL     OW24370   1.186   3.805   5.376
 7824SOL    HW124371   1.223   3.732   5.319
 7824SOL    HW224372   1.240   3.813   5.460
 7825SOL     OW24373   1.931   0.888   0.005
 7825SOL    HW124374   1.912   0.986   0.010
 7825SOL    HW224375   1.967   0.857   0.093
 7826SOL     OW24376   0.635   4.417   5.785
 7826SOL    HW124377   0.622   4.334   5.840
 7826SOL    HW224378   0.565   4.484   5.810
 7827SOL     OW24379   5.775   4.663   3.549
 7827SOL    HW124380   5.789   4.565   3.562
 7827SOL    HW224381   5.836   4.714   3.610
 7828SOL     OW24382   1.093   6.021   5.519
 7828SOL    HW124383   1.130   5.971   5.440
 7828SOL    HW224384   1.120   5.974   5.603
 7829SOL     OW24385   4.405   5.003   1.096
 7829SOL    HW124386   4.364   4.974   1.009
 7829SOL    HW224387   4.386   4.933   1.165
 7830SOL     OW24388   1.585   5.413   4.113
 7830SOL    HW124389   1.594   5.512   4.110
 7830SOL    HW224390   1.651   5.371   4.051
 7831SOL     OW24391   1.553   0.077   6.632
 7831SOL    HW124392   1.496   0.133   6.691
 7831SOL    HW224393   1.639   0.124   6.614
 7832SOL     OW24394   0.187   0.845   4.899
 7832SOL    HW124395   0.185   0.901   4.817
 7832SOL    HW224396   0.214   0.901   4.977
 7833SOL     OW24397   0.937   0.346   2.603
 7833SOL    HW124398   0.841   0.324   2.590
 7833SOL    HW224399   0.975   0.290   2.677
 7834SOL     OW24400   0.907   3.264   4.829
 7834SOL    HW124401   0.825   3.320   4.840
 7834SOL    HW224402   0.927   3.217   4.915
 7835SOL     OW24403   2.928   3.057   5.706
 7835SOL    HW124404   2.915   2.958   5.695
 7835SOL    HW224405   2.932   3.101   5.616
 7836SOL     OW24406   3.065   3.533   4.767
 7836SOL    HW124407   3.099   3.486   4.685
 7836SOL    HW224408   2.995   3.477   4.811
 7837SOL     OW24409   0.434   5.871   0.457
 7837SOL    HW124410   0.379   5.827   0.386
 7837SOL    HW224411   0.399   5.962   0.476
 7838SOL     OW24412   3.901   4.447   0.699
 7838SOL    HW124413   3.918   4.532   0.748
 7838SOL    HW224414   3.920   4.369   0.759
 7839SOL     OW24415   6.156   3.958   4.462
 7839SOL    HW124416   6.204   3.925   4.543
 7839SOL    HW224417   6.060   3.928   4.465
 7840SOL     OW24418   2.581   2.331   3.446
 7840SOL    HW124419   2.561   2.429   3.455
 7840SOL    HW224420   2.629   2.299   3.528
 7841SOL     OW24421   3.955   2.539   6.440
 7841SOL    HW124422   4.009   2.481   6.379
 7841SOL    HW224423   3.862   2.503   6.446
 7842SOL     OW24424   0.941   0.311   0.968
 7842SOL    HW124425   1.008   0.279   0.901
 7842SOL    HW224426   0.849   0.308   0.928
 7843SOL     OW24427   6.540   5.809   2.301
 7843SOL    HW124428   6.516   5.843   2.210
 7843SOL    HW224429   6.595   5.726   2.292
 7844SOL     OW24430   2.735   6.677   2.295
 7844SOL    HW124431   2.783   6.744   2.239
 7844SOL    HW224432   2.779   6.670   2.384
 7845SOL     OW24433   6.839   3.259   2.001
 7845SOL    HW124434   6.915   3.322   1.985
 7845SOL    HW224435   6.794   3.282   2.087
 7846SOL     OW24436   0.225   1.943   0.423
 7846SOL    HW124437   0.220   1.985   0.514
 7846SOL    HW224438   0.321   1.942   0.393
 7847SOL     OW24439   5.896   3.543   5.357
 7847SOL    HW124440   5.936   3.632   5.334
 7847SOL    HW224441   5.800   3.555   5.383
 7848SOL     OW24442   4.987   5.016   0.045
 7848SOL    HW124443   4.914   5.073   0.005
 7848SOL    HW224444   5.051   5.075   0.095
 7849SOL     OW24445   4.758   5.739   6.604
 7849SOL    HW124446   4.728   5.823   6.648
 7849SOL    HW224447   4.831   5.697   6.657
 7850SOL     OW24448   0.068   0.947   3.475
 7850SOL    HW124449   0.165   0.928   3.460
 7850SOL    HW224450   0.038   0.903   3.559
 7851SOL     OW24451   1.267   3.869   0.433
 7851SOL    HW124452   1.253   3.776   0.402
 7851SOL    HW224453   1.256   3.933   0.356
 7852SOL     OW24454   1.302   3.228   5.698
 7852SOL    HW124455   1.349   3.150   5.739
 7852SOL    HW224456   1.210   3.235   5.738
 7853SOL     OW24457   4.424   3.067   1.663
 7853SOL    HW124458   4.387   2.976   1.646
 7853SOL    HW224459   4.483   3.065   1.743
 7854SOL     OW24460   4.163   1.124   1.509
 7854SOL    HW124461   4.226   1.059   1.550
 7854SOL    HW224462   4.182   1.216   1.543
 7855SOL     OW24463   5.440   5.913   3.205
 7855SOL    HW124464   5.380   5.963   3.267
 7855SOL    HW224465   5.426   5.946   3.111
 7856SOL     OW24466   2.148   6.223   6.339
 7856SOL    HW124467   2.052   6.228   6.311
 7856SOL    HW224468   2.153   6.185   6.432
 7857SOL     OW24469   6.825   4.696   0.512
 7857SOL    HW124470   6.858   4.607   0.480
 7857SOL    HW224471   6.843   4.766   0.442
 7858SOL     OW24472   0.460   4.211   0.002
 7858SOL    HW124473   0.435   4.140   6.957
 7858SOL    HW224474   0.557   4.233   7.015
 7859SOL     OW24475   4.687   2.258   1.505
 7859SOL    HW124476   4.739   2.230   1.424
 7859SOL    HW224477   4.650   2.178   1.551
 7860SOL     OW24478   2.626   1.528   3.233
 7860SOL    HW124479   2.535   1.565   3.218
 7860SOL    HW224480   2.630   1.433   3.202
 7861SOL     OW24481   1.809   5.566   0.448
 7861SOL    HW124482   1.857   5.646   0.484
 7861SOL    HW224483   1.725   5.551   0.500
 7862SOL     OW24484   0.844   0.507   6.775
 7862SOL    HW124485   0.918   0.537   6.716
 7862SOL    HW224486   0.881   0.448   6.847
 7863SOL     OW24487   0.646   5.164   3.846
 7863SOL    HW124488   0.649   5.071   3.882
 7863SOL    HW224489   0.552   5.189   3.824
 7864SOL     OW24490   3.232   5.630   5.014
 7864SOL    HW124491   3.171   5.700   5.052
 7864SOL    HW224492   3.227   5.633   4.914
 7865SOL     OW24493   6.010   5.503   3.939
 7865SOL    HW124494   6.101   5.465   3.954
 7865SOL    HW224495   6.018   5.594   3.898
 7866SOL     OW24496   1.210   1.201   5.223
 7866SOL    HW124497   1.141   1.197   5.151
 7866SOL    HW224498   1.170   1.171   5.309
 7867SOL     OW24499   4.434   6.184   2.015
 7867SOL    HW124500   4.409   6.114   2.083
 7867SOL    HW224501   4.462   6.268   2.063
 7868SOL     OW24502   3.925   5.957   1.521
 7868SOL    HW124503   3.975   5.919   1.443
 7868SOL    HW224504   3.986   6.013   1.576
 7869SOL     OW24505   5.653   4.858   0.172
 7869SOL    HW124506   5.746   4.826   0.191
 7869SOL    HW224507   5.650   4.898   0.081
 7870SOL     OW24508   0.045   0.830   3.188
 7870SOL    HW124509   0.034   0.921   3.229
 7870SOL    HW224510   6.987   0.774   3.209
 7871SOL     OW24511   5.007   0.526   0.693
 7871SOL    HW124512   4.947   0.566   0.763
 7871SOL    HW224513   4.962   0.533   0.604
 7872SOL     OW24514   6.218   5.443   3.747
 7872SOL    HW124515   6.251   5.349   3.760
 7872SOL    HW224516   6.230   5.493   3.833
 7873SOL     OW24517   5.053   2.455   6.472
 7873SOL    HW124518   4.953   2.445   6.474
 7873SOL    HW224519   5.088   2.454   6.566
 7874SOL     OW24520   6.326   2.075   0.982
 7874SOL    HW124521   6.272   2.159   0.989
 7874SOL    HW224522   6.329   2.046   0.886
 7875SOL     OW24523   6.655   5.022   0.099
 7875SOL    HW124524   6.665   5.113   0.058
 7875SOL    HW224525   6.595   4.966   0.042
 7876SOL     OW24526   1.373   6.661   2.808
 7876SOL    HW124527   1.439   6.587   2.824
 7876SOL    HW224528   1.369   6.681   2.710
 7877SOL     OW24529   1.235   2.815   1.886
 7877SOL    HW124530   1.144   2.828   1.847
 7877SOL    HW224531   1.227   2.778   1.979
 7878SOL     OW24532   3.926   0.689   2.522
 7878SOL    HW124533   4.011   0.637   2.532
 7878SOL    HW224534   3.947   0.787   2.517
 7879SOL     OW24535   2.477   5.885   1.846
 7879SOL    HW124536   2.542   5.906   1.919
 7879SOL    HW224537   2.478   5.959   1.778
 7880SOL     OW24538   1.502   4.775   2.870
 7880SOL    HW124539   1.567   4.779   2.795
 7880SOL    HW224540   1.543   4.814   2.953
 7881SOL     OW24541   4.675   2.753   3.104
 7881SOL    HW124542   4.660   2.768   3.006
 7881SOL    HW224543   4.696   2.657   3.120
 7882SOL     OW24544   0.176   2.792   0.189
 7882SOL    HW124545   0.091   2.743   0.209
 7882SOL    HW224546   0.253   2.729   0.201
 7883SOL     OW24547   0.342   0.263   4.534
 7883SOL    HW124548   0.262   0.311   4.569
 7883SOL    HW224549   0.319   0.167   4.516
 7884SOL     OW24550   1.158   2.806   4.026
 7884SOL    HW124551   1.155   2.758   3.938
 7884SOL    HW224552   1.253   2.820   4.054
 7885SOL     OW24553   6.435   5.999   0.620
 7885SOL    HW124554   6.424   5.925   0.553
 7885SOL    HW224555   6.509   6.060   0.591
 7886SOL     OW24556   4.909   3.394   0.215
 7886SOL    HW124557   4.964   3.339   0.278
 7886SOL    HW224558   4.969   3.434   0.145
 7887SOL     OW24559   4.139   1.741   6.453
 7887SOL    HW124560   4.107   1.792   6.532
 7887SOL    HW224561   4.065   1.729   6.388
 7888SOL     OW24562   4.194   6.123   4.222
 7888SOL    HW124563   4.276   6.174   4.248
 7888SOL    HW224564   4.210   6.025   4.235
 7889SOL     OW24565   6.145   4.441   3.537
 7889SOL    HW124566   6.099   4.408   3.455
 7889SOL    HW224567   6.214   4.508   3.511
 7890SOL     OW24568   2.120   4.311   3.217
 7890SOL    HW124569   2.065   4.330   3.299
 7890SOL    HW224570   2.156   4.396   3.180
 7891SOL     OW24571   0.036   4.385   2.491
 7891SOL    HW124572   0.030   4.472   2.540
 7891SOL    HW224573   0.003   4.311   2.550
 7892SOL     OW24574   2.320   2.715   4.507
 7892SOL    HW124575   2.364   2.705   4.418
 7892SOL    HW224576   2.331   2.808   4.540
 7893SOL     OW24577   5.091   6.135   1.485
 7893SOL    HW124578   5.161   6.178   1.428
 7893SOL    HW224579   5.016   6.199   1.501
 7894SOL     OW24580   3.089   6.998   0.821
 7894SOL    HW124581   3.009   6.939   0.814
 7894SOL    HW224582   3.076   0.042   0.895
 7895SOL     OW24583   1.132   1.597   4.815
 7895SOL    HW124584   1.102   1.511   4.772
 7895SOL    HW224585   1.061   1.631   4.876
 7896SOL     OW24586   3.968   1.775   0.230
 7896SOL    HW124587   3.996   1.694   0.179
 7896SOL    HW224588   4.044   1.839   0.235
 7897SOL     OW24589   3.003   3.914   0.629
 7897SOL    HW124590   3.075   3.848   0.648
 7897SOL    HW224591   2.999   3.981   0.703
 7898SOL     OW24592   5.479   1.051   4.584
 7898SOL    HW124593   5.541   0.972   4.577
 7898SOL    HW224594   5.389   1.025   4.551
 7899SOL     OW24595   4.629   0.700   1.800
 7899SOL    HW124596   4.706   0.764   1.801
 7899SOL    HW224597   4.549   0.743   1.843
 7900SOL     OW24598   0.543   5.824   1.070
 7900SOL    HW124599   0.474   5.853   1.136
 7900SOL    HW224600   0.633   5.858   1.098
 7901SOL     OW24601   5.530   4.993   1.391
 7901SOL    HW124602   5.629   5.000   1.379
 7901SOL    HW224603   5.486   4.979   1.303
 7902SOL     OW24604   4.472   5.221   6.316
 7902SOL    HW124605   4.481   5.137   6.369
 7902SOL    HW224606   4.409   5.207   6.240
 7903SOL     OW24607   1.489   2.260   2.068
 7903SOL    HW124608   1.428   2.233   2.142
 7903SOL    HW224609   1.518   2.179   2.017
 7904SOL     OW24610   5.591   1.609   3.328
 7904SOL    HW124611   5.499   1.631   3.361
 7904SOL    HW224612   5.651   1.593   3.406
 7905SOL     OW24613   2.714   2.428   1.773
 7905SOL    HW124614   2.708   2.349   1.712
 7905SOL    HW224615   2.783   2.411   1.843
 7906SOL     OW24616   1.579   4.013   6.567
 7906SOL    HW124617   1.602   3.923   6.606
 7906SOL    HW224618   1.656   4.075   6.582
 7907SOL     OW24619   0.559   2.799   3.354
 7907SOL    HW124620   0.532   2.891   3.384
 7907SOL    HW224621   0.636   2.806   3.290
 7908SOL     OW24622   1.073   0.794   3.100
 7908SOL    HW124623   1.087   0.887   3.064
 7908SOL    HW224624   0.989   0.791   3.154
 7909SOL     OW24625   3.697   5.497   5.125
 7909SOL    HW124626   3.657   5.406   5.110
 7909SOL    HW224627   3.706   5.544   5.037
 7910SOL     OW24628   6.374   3.083   5.866
 7910SOL    HW124629   6.422   3.167   5.893
 7910SOL    HW224630   6.386   3.014   5.936
 7911SOL     OW24631   6.865   6.010   6.670
 7911SOL    HW124632   6.864   5.911   6.663
 7911SOL    HW224633   6.923   6.038   6.746
 7912SOL     OW24634   6.511   5.186   5.239
 7912SOL    HW124635   6.575   5.165   5.165
 7912SOL    HW224636   6.559   5.185   5.326
 7913SOL     OW24637   1.857   6.088   6.585
 7913SOL    HW124638   1.766   6.063   6.620
 7913SOL    HW224639   1.904   6.006   6.554
 7914SOL     OW24640   5.973   4.307   1.168
 7914SOL    HW124641   5.979   4.254   1.253
 7914SOL    HW224642   5.879   4.306   1.134
 7915SOL     OW24643   3.147   1.065   3.112
 7915SOL    HW124644   3.147   0.974   3.153
 7915SOL    HW224645   3.064   1.077   3.057
 7916SOL     OW24646   3.600   3.370   5.489
 7916SOL    HW124647   3.637   3.278   5.473
 7916SOL    HW224648   3.577   3.411   5.401
 7917SOL     OW24649   3.867   4.019   3.568
 7917SOL    HW124650   3.816   3.949   3.619
 7917SOL    HW224651   3.879   4.100   3.625
 7918SOL     OW24652   6.267   2.155   1.689
 7918SOL    HW124653   6.169   2.145   1.669
 7918SOL    HW224654   6.278   2.178   1.786
 7919SOL     OW24655   5.524   3.260   2.579
 7919SOL    HW124656   5.539   3.311   2.664
 7919SOL    HW224657   5.605   3.268   2.521
 7920SOL     OW24658   0.173   6.343   0.656
 7920SOL    HW124659   0.200   6.395   0.737
 7920SOL    HW224660   0.074   6.348   0.644
 7921SOL     OW24661   3.363   5.056   1.778
 7921SOL    HW124662   3.296   4.991   1.813
 7921SOL    HW224663   3.453   5.013   1.777
 7922SOL     OW24664   1.329   3.918   4.419
 7922SOL    HW124665   1.412   3.865   4.438
 7922SOL    HW224666   1.284   3.942   4.505
 7923SOL     OW24667   1.755   3.213   2.038
 7923SOL    HW124668   1.849   3.186   2.018
 7923SOL    HW224669   1.751   3.256   2.128
 7924SOL     OW24670   2.744   2.044   3.701
 7924SOL    HW124671   2.772   2.114   3.635
 7924SOL    HW224672   2.812   1.972   3.706
 7925SOL     OW24673   1.262   1.953   0.397
 7925SOL    HW124674   1.175   1.941   0.444
 7925SOL    HW224675   1.337   1.934   0.461
 7926SOL     OW24676   3.423   0.639   1.818
 7926SOL    HW124677   3.372   0.706   1.872
 7926SOL    HW224678   3.393   0.547   1.842
 7927SOL     OW24679   4.550   4.896   4.372
 7927SOL    HW124680   4.470   4.839   4.389
 7927SOL    HW224681   4.624   4.840   4.334
 7928SOL     OW24682   1.111   4.160   1.540
 7928SOL    HW124683   1.158   4.205   1.616
 7928SOL    HW224684   1.026   4.209   1.520
 7929SOL     OW24685   3.759   3.634   4.916
 7929SOL    HW124686   3.838   3.637   4.854
 7929SOL    HW224687   3.719   3.543   4.915
 7930SOL     OW24688   3.560   0.176   2.135
 7930SOL    HW124689   3.648   0.134   2.111
 7930SOL    HW224690   3.577   0.255   2.194
 7931SOL     OW24691   2.282   2.923   5.308
 7931SOL    HW124692   2.367   2.920   5.256
 7931SOL    HW224693   2.296   2.977   5.391
 7932SOL     OW24694   2.935   1.802   0.771
 7932SOL    HW124695   2.851   1.822   0.722
 7932SOL    HW224696   3.013   1.844   0.724
 7933SOL     OW24697   1.669   1.066   5.852
 7933SOL    HW124698   1.675   1.011   5.768
 7933SOL    HW224699   1.726   1.024   5.923
 7934SOL     OW24700   4.045   2.442   5.669
 7934SOL    HW124701   4.017   2.380   5.742
 7934SOL    HW224702   4.034   2.537   5.699
 7935SOL     OW24703   4.613   5.082   2.452
 7935SOL    HW124704   4.535   5.094   2.513
 7935SOL    HW224705   4.619   4.986   2.424
 7936SOL     OW24706   4.174   6.027   1.909
 7936SOL    HW124707   4.234   6.102   1.935
 7936SOL    HW224708   4.228   5.946   1.886
 7937SOL     OW24709   5.603   2.033   6.624
 7937SOL    HW124710   5.625   2.073   6.534
 7937SOL    HW224711   5.679   1.974   6.653
 7938SOL     OW24712   6.462   4.215   4.562
 7938SOL    HW124713   6.386   4.198   4.499
 7938SOL    HW224714   6.438   4.290   4.624
 7939SOL     OW24715   5.827   5.504   4.131
 7939SOL    HW124716   5.903   5.501   4.065
 7939SOL    HW224717   5.751   5.449   4.096
 7940SOL     OW24718   2.168   5.893   0.386
 7940SOL    HW124719   2.258   5.902   0.429
 7940SOL    HW224720   2.162   5.954   0.307
 7941SOL     OW24721   1.031   0.715   1.625
 7941SOL    HW124722   1.124   0.751   1.634
 7941SOL    HW224723   1.023   0.664   1.540
 7942SOL     OW24724   0.763   6.551   1.268
 7942SOL    HW124725   0.665   6.537   1.253
 7942SOL    HW224726   0.815   6.488   1.211
 7943SOL     OW24727   6.314   2.664   6.168
 7943SOL    HW124728   6.241   2.646   6.103
 7943SOL    HW224729   6.378   2.587   6.170
 7944SOL     OW24730   6.455   3.796   1.798
 7944SOL    HW124731   6.365   3.775   1.836
 7944SOL    HW224732   6.455   3.781   1.700
 7945SOL     OW24733   6.376   6.281   0.324
 7945SOL    HW124734   6.333   6.368   0.346
 7945SOL    HW224735   6.323   6.206   0.362
 7946SOL     OW24736   2.042   1.251   5.543
 7946SOL    HW124737   2.042   1.308   5.461
 7946SOL    HW224738   1.951   1.255   5.585
 7947SOL     OW24739   3.345   5.125   6.493
 7947SOL    HW124740   3.327   5.221   6.514
 7947SOL    HW224741   3.435   5.099   6.528
 7948SOL     OW24742   1.517   4.242   4.512
 7948SOL    HW124743   1.532   4.209   4.418
 7948SOL    HW224744   1.546   4.338   4.518
 7949SOL     OW24745   0.232   3.669   4.329
 7949SOL    HW124746   0.136   3.677   4.354
 7949SOL    HW224747   0.280   3.614   4.398
 7950SOL     OW24748   2.946   5.936   3.057
 7950SOL    HW124749   2.883   5.859   3.063
 7950SOL    HW224750   2.893   6.022   3.058
 7951SOL     OW24751   2.306   3.382   0.560
 7951SOL    HW124752   2.247   3.373   0.480
 7951SOL    HW224753   2.394   3.420   0.532
 7952SOL     OW24754   6.277   3.659   0.609
 7952SOL    HW124755   6.286   3.676   0.707
 7952SOL    HW224756   6.366   3.640   0.569
 7953SOL     OW24757   2.054   4.291   1.421
 7953SOL    HW124758   2.124   4.362   1.420
 7953SOL    HW224759   1.970   4.325   1.378
 7954SOL     OW24760   5.932   5.344   3.702
 7954SOL    HW124761   5.860   5.389   3.651
 7954SOL    HW224762   5.964   5.404   3.775
 7955SOL     OW24763   1.442   6.153   6.434
 7955SOL    HW124764   1.516   6.094   6.402
 7955SOL    HW224765   1.478   6.246   6.447
 7956SOL     OW24766   5.497   6.318   3.524
 7956SOL    HW124767   5.529   6.312   3.429
 7956SOL    HW224768   5.413   6.372   3.527
 7957SOL     OW24769   0.880   3.055   1.402
 7957SOL    HW124770   0.857   3.146   1.438
 7957SOL    HW224771   0.895   3.062   1.303
 7958SOL     OW24772   1.938   5.712   3.249
 7958SOL    HW124773   2.022   5.664   3.276
 7958SOL    HW224774   1.927   5.707   3.150
 7959SOL     OW24775   4.502   4.307   0.864
 7959SOL    HW124776   4.494   4.361   0.948
 7959SOL    HW224777   4.587   4.254   0.867
 7960SOL     OW24778   1.777   2.163   1.364
 7960SOL    HW124779   1.747   2.223   1.438
 7960SOL    HW224780   1.798   2.217   1.283
 7961SOL     OW24781   1.242   6.307   0.255
 7961SOL    HW124782   1.212   6.394   0.294
 7961SOL    HW224783   1.325   6.276   0.303
 7962SOL     OW24784   1.145   0.071   2.599
 7962SOL    HW124785   1.238   0.062   2.564
 7962SOL    HW224786   1.081   0.030   2.534
 7963SOL     OW24787   0.346   6.237   6.419
 7963SOL    HW124788   0.307   6.281   6.338
 7963SOL    HW224789   0.399   6.157   6.391
 7964SOL     OW24790   6.081   5.360   3.473
 7964SOL    HW124791   6.036   5.319   3.552
 7964SOL    HW224792   6.089   5.459   3.486
 7965SOL     OW24793   3.557   1.915   1.042
 7965SOL    HW124794   3.534   2.012   1.043
 7965SOL    HW224795   3.520   1.872   1.124
 7966SOL     OW24796   0.189   1.559   3.977
 7966SOL    HW124797   0.149   1.589   3.890
 7966SOL    HW224798   0.122   1.503   4.026
 7967SOL     OW24799   2.058   0.056   4.127
 7967SOL    HW124800   2.084   7.000   4.185
 7967SOL    HW224801   1.982   0.105   4.170
 7968SOL     OW24802   2.136   1.473   6.944
 7968SOL    HW124803   2.071   1.507   6.876
 7968SOL    HW224804   2.137   1.535   0.001
 7969SOL     OW24805   4.106   2.230   3.459
 7969SOL    HW124806   4.150   2.190   3.539
 7969SOL    HW224807   4.017   2.267   3.484
 7970SOL     OW24808   0.340   4.842   2.898
 7970SOL    HW124809   0.265   4.895   2.937
 7970SOL    HW224810   0.383   4.787   2.970
 7971SOL     OW24811   3.988   1.817   3.089
 7971SOL    HW124812   3.946   1.905   3.069
 7971SOL    HW224813   3.923   1.759   3.137
 7972SOL     OW24814   5.221   5.221   1.034
 7972SOL    HW124815   5.239   5.230   1.132
 7972SOL    HW224816   5.124   5.238   1.016
 7973SOL     OW24817   5.967   1.907   3.006
 7973SOL    HW124818   5.970   1.975   3.079
 7973SOL    HW224819   5.876   1.864   3.005
 7974SOL     OW24820   4.389   6.331   4.616
 7974SOL    HW124821   4.373   6.308   4.712
 7974SOL    HW224822   4.421   6.250   4.567
 7975SOL     OW24823   1.883   0.915   2.223
 7975SOL    HW124824   1.843   1.005   2.202
 7975SOL    HW224825   1.869   0.854   2.145
 7976SOL     OW24826   0.252   6.357   6.200
 7976SOL    HW124827   0.157   6.387   6.216
 7976SOL    HW224828   0.262   6.330   6.105
 7977SOL     OW24829   5.307   6.285   1.331
 7977SOL    HW124830   5.381   6.337   1.373
 7977SOL    HW224831   5.345   6.210   1.278
 7978SOL     OW24832   3.397   1.330   6.022
 7978SOL    HW124833   3.379   1.237   5.990
 7978SOL    HW224834   3.367   1.396   5.953
 7979SOL     OW24835   4.476   5.483   4.420
 7979SOL    HW124836   4.520   5.404   4.377
 7979SOL    HW224837   4.540   5.560   4.421
 7980SOL     OW24838   2.826   0.760   1.120
 7980SOL    HW124839   2.893   0.708   1.068
 7980SOL    HW224840   2.765   0.809   1.058
 7981SOL     OW24841   0.402   6.427   2.865
 7981SOL    HW124842   0.451   6.430   2.952
 7981SOL    HW224843   0.305   6.411   2.882
 7982SOL     OW24844   0.126   2.346   1.283
 7982SOL    HW124845   0.118   2.272   1.351
 7982SOL    HW224846   0.222   2.356   1.257
 7983SOL     OW24847   5.279   2.251   1.317
 7983SOL    HW124848   5.218   2.240   1.396
 7983SOL    HW224849   5.303   2.348   1.307
 7984SOL     OW24850   5.708   0.935   6.758
 7984SOL    HW124851   5.733   0.881   6.839
 7984SOL    HW224852   5.627   0.990   6.779
 7985SOL     OW24853   0.385   1.792   0.725
 7985SOL    HW124854   0.322   1.826   0.656
 7985SOL    HW224855   0.406   1.696   0.706
 7986SOL     OW24856   4.817   4.048   0.506
 7986SOL    HW124857   4.827   3.949   0.502
 7986SOL    HW224858   4.907   4.092   0.501
 7987SOL     OW24859   1.246   4.210   5.590
 7987SOL    HW124860   1.254   4.194   5.491
 7987SOL    HW224861   1.262   4.124   5.639
 7988SOL     OW24862   2.349   1.199   4.976
 7988SOL    HW124863   2.389   1.263   5.042
 7988SOL    HW224864   2.371   1.105   5.002
 7989SOL     OW24865   2.578   3.474   0.026
 7989SOL    HW124866   2.491   3.523   0.033
 7989SOL    HW224867   2.603   3.439   0.117
 7990SOL     OW24868   2.248   2.981   4.579
 7990SOL    HW124869   2.285   2.939   4.662
 7990SOL    HW224870   2.189   3.058   4.605
 7991SOL     OW24871   2.536   3.184   5.814
 7991SOL    HW124872   2.633   3.193   5.838
 7991SOL    HW224873   2.517   3.241   5.734
 7992SOL     OW24874   2.840   1.451   0.034
 7992SOL    HW124875   2.864   1.459   6.960
 7992SOL    HW224876   2.922   1.431   0.088
 7993SOL     OW24877   3.479   5.509   6.375
 7993SOL    HW124878   3.529   5.446   6.434
 7993SOL    HW224879   3.441   5.584   6.431
 7994SOL     OW24880   5.267   0.186   4.664
 7994SOL    HW124881   5.340   0.251   4.645
 7994SOL    HW224882   5.307   0.097   4.687
 7995SOL     OW24883   4.132   5.343   2.174
 7995SOL    HW124884   4.058   5.401   2.142
 7995SOL    HW224885   4.094   5.270   2.232
 7996SOL     OW24886   4.665   1.935   5.417
 7996SOL    HW124887   4.630   2.020   5.377
 7996SOL    HW224888   4.703   1.954   5.508
 7997SOL     OW24889   5.249   3.382   0.920
 7997SOL    HW124890   5.160   3.352   0.886
 7997SOL    HW224891   5.257   3.481   0.909
 7998SOL     OW24892   6.641   5.642   0.124
 7998SOL    HW124893   6.597   5.730   0.108
 7998SOL    HW224894   6.662   5.598   0.036
 7999SOL     OW24895   3.220   2.131   5.954
 7999SOL    HW124896   3.311   2.172   5.947
 7999SOL    HW224897   3.198   2.115   6.050
 8000SOL     OW24898   5.563   0.479   5.291
 8000SOL    HW124899   5.512   0.424   5.225
 8000SOL    HW224900   5.553   0.439   5.382
 8001SOL     OW24901   3.218   4.537   1.135
 8001SOL    HW124902   3.120   4.544   1.157
 8001SOL    HW224903   3.268   4.506   1.216
 8002SOL     OW24904   4.271   2.226   5.686
 8002SOL    HW124905   4.205   2.295   5.714
 8002SOL    HW224906   4.364   2.259   5.705
 8003SOL     OW24907   5.125   5.651   3.175
 8003SOL    HW124908   5.128   5.750   3.162
 8003SOL    HW224909   5.032   5.618   3.156
 8004SOL     OW24910   1.770   5.177   3.667
 8004SOL    HW124911   1.713   5.107   3.623
 8004SOL    HW224912   1.864   5.168   3.635
 8005SOL     OW24913   2.396   0.997   2.587
 8005SOL    HW124914   2.371   1.093   2.574
 8005SOL    HW224915   2.419   0.956   2.499
 8006SOL     OW24916   4.937   5.698   2.963
 8006SOL    HW124917   4.999   5.768   2.927
 8006SOL    HW224918   4.916   5.631   2.892
 8007SOL     OW24919   0.833   1.285   3.382
 8007SOL    HW124920   0.799   1.378   3.398
 8007SOL    HW224921   0.895   1.286   3.303
 8008SOL     OW24922   6.612   4.738   1.146
 8008SOL    HW124923   6.575   4.694   1.064
 8008SOL    HW224924   6.627   4.670   1.217
 8009SOL     OW24925   6.513   6.021   3.178
 8009SOL    HW124926   6.463   6.065   3.253
 8009SOL    HW224927   6.558   6.091   3.122
 8010SOL     OW24928   1.885   1.734   6.264
 8010SOL    HW124929   1.974   1.744   6.221
 8010SOL    HW224930   1.894   1.679   6.347
 8011SOL     OW24931   1.948   3.194   0.371
 8011SOL    HW124932   1.967   3.120   0.435
 8011SOL    HW224933   1.887   3.161   0.299
 8012SOL     OW24934   1.835   5.540   3.529
 8012SOL    HW124935   1.852   5.631   3.491
 8012SOL    HW224936   1.921   5.504   3.567
 8013SOL     OW24937   6.387   5.895   4.031
 8013SOL    HW124938   6.342   5.984   4.028
 8013SOL    HW224939   6.368   5.845   3.946
 8014SOL     OW24940   2.345   0.413   6.071
 8014SOL    HW124941   2.298   0.454   5.993
 8014SOL    HW224942   2.422   0.357   6.040
 8015SOL     OW24943   2.034   1.064   0.800
 8015SOL    HW124944   2.002   1.091   0.710
 8015SOL    HW224945   2.132   1.082   0.808
 8016SOL     OW24946   4.808   5.253   1.695
 8016SOL    HW124947   4.875   5.311   1.742
 8016SOL    HW224948   4.837   5.238   1.601
 8017SOL     OW24949   6.213   3.036   4.445
 8017SOL    HW124950   6.119   3.002   4.440
 8017SOL    HW224951   6.225   3.087   4.531
 8018SOL     OW24952   5.022   3.418   3.544
 8018SOL    HW124953   5.050   3.399   3.450
 8018SOL    HW224954   4.972   3.339   3.580
 8019SOL     OW24955   3.947   5.241   1.570
 8019SOL    HW124956   3.955   5.274   1.476
 8019SOL    HW224957   3.854   5.208   1.587
 8020SOL     OW24958   5.833   6.530   6.756
 8020SOL    HW124959   5.862   6.611   6.706
 8020SOL    HW224960   5.734   6.535   6.773
 8021SOL     OW24961   6.558   1.413   2.596
 8021SOL    HW124962   6.495   1.348   2.554
 8021SOL    HW224963   6.644   1.366   2.617
 8022SOL     OW24964   5.930   4.715   3.950
 8022SOL    HW124965   5.975   4.727   4.038
 8022SOL    HW224966   5.896   4.621   3.942
 8023SOL     OW24967   0.022   5.092   3.347
 8023SOL    HW124968   0.047   5.187   3.362
 8023SOL    HW224969   6.972   5.087   3.277
 8024SOL     OW24970   4.938   5.924   3.869
 8024SOL    HW124971   4.906   5.899   3.778
 8024SOL    HW224972   4.860   5.934   3.931
 8025SOL     OW24973   2.361   6.060   0.045
 8025SOL    HW124974   2.302   5.980   0.035
 8025SOL    HW224975   2.331   6.115   0.122
 8026SOL     OW24976   2.969   1.961   6.749
 8026SOL    HW124977   3.036   1.891   6.722
 8026SOL    HW224978   2.982   1.984   6.845
 8027SOL     OW24979   4.325   3.498   5.701
 8027SOL    HW124980   4.301   3.465   5.792
 8027SOL    HW224981   4.299   3.594   5.692
 8028SOL     OW24982   6.003   4.566   1.397
 8028SOL    HW124983   6.033   4.649   1.443
 8028SOL    HW224984   6.042   4.563   1.305
 8029SOL     OW24985   3.408   4.347   5.995
 8029SOL    HW124986   3.370   4.257   6.019
 8029SOL    HW224987   3.371   4.416   6.056
 8030SOL     OW24988   0.527   3.935   2.178
 8030SOL    HW124989   0.609   3.904   2.228
 8030SOL    HW224990   0.451   3.873   2.197
 8031SOL     OW24991   3.826   6.121   0.569
 8031SOL    HW124992   3.739   6.098   0.526
 8031SOL    HW224993   3.838   6.065   0.652
 8032SOL     OW24994   4.421   3.413   5.326
 8032SOL    HW124995   4.446   3.440   5.419
 8032SOL    HW224996   4.483   3.457   5.261
 8033SOL     OW24997   5.749   1.209   2.611
 8033SOL    HW124998   5.843   1.196   2.581
 8033SOL    HW224999   5.715   1.297   2.576
 8034SOL     OW25000   6.790   2.605   5.827
 8034SOL    HW125001   6.710   2.640   5.876
 8034SOL    HW225002   6.761   2.542   5.755
 8035SOL     OW25003   5.755   5.850   6.623
 8035SOL    HW125004   5.726   5.783   6.555
 8035SOL    HW225005   5.679   5.871   6.685
 8036SOL     OW25006   1.034   3.327   1.446
 8036SOL    HW125007   0.935   3.325   1.428
 8036SOL    HW225008   1.084   3.323   1.360
 8037SOL     OW25009   1.573   3.094   1.554
 8037SOL    HW125010   1.519   3.151   1.492
 8037SOL    HW225011   1.618   3.152   1.621
 8038SOL     OW25012   5.766   0.680   3.776
 8038SOL    HW125013   5.802   0.652   3.865
 8038SOL    HW225014   5.666   0.681   3.779
 8039SOL     OW25015   2.190   5.674   3.534
 8039SOL    HW125016   2.249   5.683   3.453
 8039SOL    HW225017   2.234   5.616   3.601
 8040SOL     OW25018   6.115   6.302   6.081
 8040SOL    HW125019   6.101   6.320   6.178
 8040SOL    HW225020   6.033   6.329   6.030
 8041SOL     OW25021   3.269   2.739   0.856
 8041SOL    HW125022   3.189   2.686   0.826
 8041SOL    HW225023   3.328   2.682   0.913
 8042SOL     OW25024   1.557   4.839   0.069
 8042SOL    HW125025   1.578   4.855   0.165
 8042SOL    HW225026   1.618   4.768   0.033
 8043SOL     OW25027   3.163   0.572   1.193
 8043SOL    HW125028   3.256   0.537   1.182
 8043SOL    HW225029   3.123   0.534   1.277
 8044SOL     OW25030   3.119   2.496   1.106
 8044SOL    HW125031   3.053   2.470   1.177
 8044SOL    HW225032   3.152   2.589   1.123
 8045SOL     OW25033   5.406   2.535   4.190
 8045SOL    HW125034   5.503   2.543   4.166
 8045SOL    HW225035   5.354   2.607   4.145
 8046SOL     OW25036   6.408   5.382   5.030
 8046SOL    HW125037   6.437   5.463   5.082
 8046SOL    HW225038   6.407   5.303   5.091
 8047SOL     OW25039   3.065   6.803   4.247
 8047SOL    HW125040   3.097   6.816   4.341
 8047SOL    HW225041   3.092   6.882   4.191
 8048SOL     OW25042   5.471   0.265   5.448
 8048SOL    HW125043   5.495   0.189   5.509
 8048SOL    HW225044   5.403   0.234   5.382
 8049SOL     OW25045   2.419   6.190   6.199
 8049SOL    HW125046   2.500   6.156   6.247
 8049SOL    HW225047   2.363   6.245   6.261
 8050SOL     OW25048   0.461   3.514   1.840
 8050SOL    HW125049   0.474   3.551   1.748
 8050SOL    HW225050   0.515   3.430   1.850
 8051SOL     OW25051   2.320   2.287   4.016
 8051SOL    HW125052   2.345   2.297   4.112
 8051SOL    HW225053   2.264   2.365   3.988
 8052SOL     OW25054   4.256   1.120   2.905
 8052SOL    HW125055   4.167   1.088   2.872
 8052SOL    HW225056   4.278   1.073   2.991
 8053SOL     OW25057   4.626   3.488   1.120
 8053SOL    HW125058   4.600   3.572   1.073
 8053SOL    HW225059   4.724   3.490   1.139
 8054SOL     OW25060   4.893   6.647   4.651
 8054SOL    HW125061   4.837   6.569   4.621
 8054SOL    HW225062   4.952   6.676   4.576
 8055SOL     OW25063   1.528   0.280   4.814
 8055SOL    HW125064   1.493   0.187   4.811
 8055SOL    HW225065   1.510   0.326   4.727
 8056SOL     OW25066   4.921   1.175   2.649
 8056SOL    HW125067   4.908   1.274   2.641
 8056SOL    HW225068   4.876   1.142   2.732
 8057SOL     OW25069   3.006   0.014   3.450
 8057SOL    HW125070   3.021   6.982   3.533
 8057SOL    HW225071   3.073   0.089   3.446
 8058SOL     OW25072   1.817   0.632   3.490
 8058SOL    HW125073   1.763   0.685   3.556
 8058SOL    HW225074   1.771   0.634   3.401
 8059SOL     OW25075   2.132   1.259   3.617
 8059SOL    HW125076   2.098   1.193   3.551
 8059SOL    HW225077   2.087   1.347   3.602
 8060SOL     OW25078   1.408   2.635   5.226
 8060SOL    HW125079   1.386   2.600   5.317
 8060SOL    HW225080   1.326   2.677   5.185
 8061SOL     OW25081   4.974   6.829   2.674
 8061SOL    HW125082   5.059   6.777   2.660
 8061SOL    HW225083   4.898   6.765   2.684
 8062SOL     OW25084   1.606   1.605   1.644
 8062SOL    HW125085   1.509   1.607   1.668
 8062SOL    HW225086   1.620   1.655   1.559
 8063SOL     OW25087   3.186   1.997   5.724
 8063SOL    HW125088   3.235   2.038   5.801
 8063SOL    HW225089   3.121   2.063   5.687
 8064SOL     OW25090   5.441   1.927   5.911
 8064SOL    HW125091   5.378   1.947   5.986
 8064SOL    HW225092   5.492   2.009   5.888
 8065SOL     OW25093   4.352   0.649   6.552
 8065SOL    HW125094   4.441   0.663   6.509
 8065SOL    HW225095   4.297   0.732   6.542
 8066SOL     OW25096   0.320   0.377   1.776
 8066SOL    HW125097   0.299   0.407   1.682
 8066SOL    HW225098   0.413   0.406   1.800
 8067SOL     OW25099   4.372   1.697   2.859
 8067SOL    HW125100   4.397   1.620   2.799
 8067SOL    HW225101   4.319   1.663   2.936
 8068SOL     OW25102   6.229   3.996   3.333
 8068SOL    HW125103   6.291   4.053   3.278
 8068SOL    HW225104   6.204   3.915   3.281
 8069SOL     OW25105   6.776   5.640   2.248
 8069SOL    HW125106   6.829   5.719   2.217
 8069SOL    HW225107   6.831   5.585   2.311
 8070SOL     OW25108   3.813   0.884   3.002
 8070SOL    HW125109   3.756   0.845   3.074
 8070SOL    HW225110   3.817   0.821   2.924
 8071SOL     OW25111   6.148   4.480   6.831
 8071SOL    HW125112   6.057   4.441   6.820
 8071SOL    HW225113   6.168   4.540   6.754
 8072SOL     OW25114   3.181   0.174   2.986
 8072SOL    HW125115   3.115   0.233   3.034
 8072SOL    HW225116   3.138   0.085   2.967
 8073SOL     OW25117   5.492   0.352   6.307
 8073SOL    HW125118   5.589   0.336   6.327
 8073SOL    HW225119   5.435   0.292   6.363
 8074SOL     OW25120   3.218   4.628   0.195
 8074SOL    HW125121   3.130   4.588   0.224
 8074SOL    HW225122   3.291   4.589   0.251
 8075SOL     OW25123   6.815   1.788   3.929
 8075SOL    HW125124   6.817   1.766   4.026
 8075SOL    HW225125   6.784   1.883   3.917
 8076SOL     OW25126   4.640   2.375   6.762
 8076SOL    HW125127   4.544   2.349   6.773
 8076SOL    HW225128   4.653   2.469   6.793
 8077SOL     OW25129   0.479   0.731   6.742
 8077SOL    HW125130   0.435   0.763   6.826
 8077SOL    HW225131   0.430   0.769   6.663
 8078SOL     OW25132   6.570   4.141   1.256
 8078SOL    HW125133   6.500   4.075   1.284
 8078SOL    HW225134   6.650   4.093   1.222
 8079SOL     OW25135   1.381   3.193   0.666
 8079SOL    HW125136   1.425   3.270   0.621
 8079SOL    HW225137   1.444   3.115   0.668
 8080SOL     OW25138   3.718   5.179   6.890
 8080SOL    HW125139   3.649   5.157   6.959
 8080SOL    HW225140   3.769   5.096   6.866
 8081SOL     OW25141   4.911   2.468   4.418
 8081SOL    HW125142   4.834   2.440   4.360
 8081SOL    HW225143   4.967   2.388   4.439
 8082SOL     OW25144   6.844   3.743   5.003
 8082SOL    HW125145   6.879   3.668   5.059
 8082SOL    HW225146   6.810   3.816   5.062
 8083SOL     OW25147   6.755   2.040   5.088
 8083SOL    HW125148   6.771   2.036   5.187
 8083SOL    HW225149   6.665   2.077   5.070
 8084SOL     OW25150   6.031   6.916   6.804
 8084SOL    HW125151   6.113   6.936   6.751
 8084SOL    HW225152   6.042   6.949   6.898
 8085SOL     OW25153   4.838   2.536   1.938
 8085SOL    HW125154   4.805   2.625   1.970
 8085SOL    HW225155   4.857   2.477   2.017
 8086SOL     OW25156   2.873   5.053   0.007
 8086SOL    HW125157   2.896   5.121   0.076
 8086SOL    HW225158   2.863   5.098   6.940
 8087SOL     OW25159   1.805   4.087   1.065
 8087SOL    HW125160   1.705   4.091   1.064
 8087SOL    HW225161   1.842   4.178   1.045
 8088SOL     OW25162   4.389   0.825   2.977
 8088SOL    HW125163   4.303   0.778   2.956
 8088SOL    HW225164   4.454   0.812   2.902
 8089SOL     OW25165   6.878   2.247   0.245
 8089SOL    HW125166   6.822   2.323   0.210
 8089SOL    HW225167   6.969   2.252   0.204
 8090SOL     OW25168   5.380   1.258   4.958
 8090SOL    HW125169   5.316   1.327   4.923
 8090SOL    HW225170   5.328   1.178   4.988
 8091SOL     OW25171   1.733   3.391   4.599
 8091SOL    HW125172   1.696   3.391   4.692
 8091SOL    HW225173   1.777   3.479   4.581
 8092SOL     OW25174   6.159   2.081   4.175
 8092SOL    HW125175   6.141   2.019   4.099
 8092SOL    HW225176   6.244   2.131   4.157
 8093SOL     OW25177   5.885   4.747   0.917
 8093SOL    HW125178   5.836   4.743   1.004
 8093SOL    HW225179   5.983   4.754   0.933
 8094SOL     OW25180   0.978   3.350   4.583
 8094SOL    HW125181   0.938   3.430   4.538
 8094SOL    HW225182   0.969   3.359   4.682
 8095SOL     OW25183   6.592   2.944   5.061
 8095SOL    HW125184   6.565   2.921   4.967
 8095SOL    HW225185   6.527   2.904   5.125
 8096SOL     OW25186   3.982   0.338   0.826
 8096SOL    HW125187   3.975   0.437   0.813
 8096SOL    HW225188   3.892   0.300   0.847
 8097SOL     OW25189   5.054   2.161   3.869
 8097SOL    HW125190   5.152   2.183   3.871
 8097SOL    HW225191   5.001   2.245   3.869
 8098SOL     OW25192   2.140   2.084   4.006
 8098SOL    HW125193   2.131   2.044   3.915
 8098SOL    HW225194   2.209   2.156   4.005
 8099SOL     OW25195   4.068   7.017   4.063
 8099SOL    HW125196   3.985   0.051   4.054
 8099SOL    HW225197   4.128   0.013   3.985
 8100SOL     OW25198   6.306   6.650   1.475
 8100SOL    HW125199   6.249   6.651   1.557
 8100SOL    HW225200   6.330   6.743   1.449
 8101SOL     OW25201   1.154   4.698   2.682
 8101SOL    HW125202   1.233   4.756   2.664
 8101SOL    HW225203   1.137   4.639   2.603
 8102SOL     OW25204   6.419   0.287   5.408
 8102SOL    HW125205   6.366   0.235   5.340
 8102SOL    HW225206   6.516   0.279   5.387
 8103SOL     OW25207   2.846   2.233   2.507
 8103SOL    HW125208   2.884   2.308   2.561
 8103SOL    HW225209   2.786   2.270   2.436
 8104SOL     OW25210   2.562   0.562   5.704
 8104SOL    HW125211   2.568   0.660   5.725
 8104SOL    HW225212   2.622   0.511   5.764
 8105SOL     OW25213   2.337   2.690   2.852
 8105SOL    HW125214   2.336   2.782   2.892
 8105SOL    HW225215   2.405   2.634   2.899
 8106SOL     OW25216   0.580   4.756   6.761
 8106SOL    HW125217   0.608   4.757   6.857
 8106SOL    HW225218   0.508   4.688   6.748
 8107SOL     OW25219   0.645   5.174   6.358
 8107SOL    HW125220   0.724   5.177   6.420
 8107SOL    HW225221   0.566   5.217   6.402
 8108SOL     OW25222   1.857   2.080   6.447
 8108SOL    HW125223   1.837   2.024   6.367
 8108SOL    HW225224   1.879   2.021   6.524
 8109SOL     OW25225   0.025   5.324   5.020
 8109SOL    HW125226   7.015   5.237   4.981
 8109SOL    HW225227   0.033   5.392   4.947
 8110SOL     OW25228   0.973   4.925   0.173
 8110SOL    HW125229   0.988   4.907   0.270
 8110SOL    HW225230   0.894   4.985   0.162
 8111SOL     OW25231   3.363   6.646   4.172
 8111SOL    HW125232   3.309   6.653   4.255
 8111SOL    HW225233   3.412   6.559   4.171
 8112SOL     OW25234   3.785   1.955   4.290
 8112SOL    HW125235   3.777   2.003   4.203
 8112SOL    HW225236   3.819   2.018   4.360
 8113SOL     OW25237   3.059   2.305   6.389
 8113SOL    HW125238   3.134   2.350   6.341
 8113SOL    HW225239   3.089   2.276   6.479
 8114SOL     OW25240   2.533   3.600   1.383
 8114SOL    HW125241   2.551   3.516   1.331
 8114SOL    HW225242   2.515   3.576   1.478
 8115SOL     OW25243   4.098   2.896   1.311
 8115SOL    HW125244   4.180   2.940   1.274
 8115SOL    HW225245   4.017   2.938   1.272
 8116SOL     OW25246   5.828   2.123   5.763
 8116SOL    HW125247   5.745   2.075   5.793
 8116SOL    HW225248   5.907   2.081   5.807
 8117SOL     OW25249   3.079   2.967   5.178
 8117SOL    HW125250   3.031   2.896   5.230
 8117SOL    HW225251   3.128   3.027   5.242
 8118SOL     OW25252   0.875   2.233   4.195
 8118SOL    HW125253   0.776   2.244   4.198
 8118SOL    HW225254   0.916   2.283   4.271
 8119SOL     OW25255   1.123   0.064   2.159
 8119SOL    HW125256   1.075   0.011   2.229
 8119SOL    HW225257   1.139   0.157   2.193
 8120SOL     OW25258   4.676   4.309   2.150
 8120SOL    HW125259   4.667   4.225   2.203
 8120SOL    HW225260   4.598   4.320   2.089
 8121SOL     OW25261   6.835   6.039   3.493
 8121SOL    HW125262   6.895   6.118   3.482
 8121SOL    HW225263   6.867   5.965   3.434
 8122SOL     OW25264   0.308   4.793   1.192
 8122SOL    HW125265   0.227   4.810   1.248
 8122SOL    HW225266   0.386   4.843   1.231
 8123SOL     OW25267   1.465   5.127   5.695
 8123SOL    HW125268   1.418   5.113   5.608
 8123SOL    HW225269   1.548   5.071   5.697
 8124SOL     OW25270   1.048   6.166   2.263
 8124SOL    HW125271   1.109   6.235   2.223
 8124SOL    HW225272   0.965   6.211   2.298
 8125SOL     OW25273   4.535   5.362   3.808
 8125SOL    HW125274   4.530   5.421   3.889
 8125SOL    HW225275   4.443   5.348   3.771
 8126SOL     OW25276   0.003   4.067   1.813
 8126SOL    HW125277   7.020   4.037   1.718
 8126SOL    HW225278   0.029   4.163   1.817
 8127SOL     OW25279   4.427   5.259   0.198
 8127SOL    HW125280   4.397   5.321   0.126
 8127SOL    HW225281   4.511   5.294   0.239
 8128SOL     OW25282   3.703   2.326   5.626
 8128SOL    HW125283   3.731   2.386   5.700
 8128SOL    HW225284   3.777   2.319   5.559
 8129SOL     OW25285   5.133   5.110   6.677
 8129SOL    HW125286   5.048   5.158   6.655
 8129SOL    HW225287   5.165   5.138   6.768
 8130SOL     OW25288   0.716   0.003   6.023
 8130SOL    HW125289   0.664   6.989   5.945
 8130SOL    HW225290   0.683   6.982   6.108
 8131SOL     OW25291   2.519   1.616   1.553
 8131SOL    HW125292   2.443   1.679   1.568
 8131SOL    HW225293   2.600   1.667   1.523
 8132SOL     OW25294   5.385   5.063   3.215
 8132SOL    HW125295   5.361   5.159   3.225
 8132SOL    HW225296   5.485   5.053   3.219
 8133SOL     OW25297   0.352   5.472   2.626
 8133SOL    HW125298   0.400   5.387   2.607
 8133SOL    HW225299   0.259   5.453   2.658
 8134SOL     OW25300   3.478   3.034   1.531
 8134SOL    HW125301   3.534   3.052   1.611
 8134SOL    HW225302   3.381   3.038   1.556
 8135SOL     OW25303   4.186   5.822   2.505
 8135SOL    HW125304   4.193   5.773   2.418
 8135SOL    HW225305   4.256   5.787   2.568
 8136SOL     OW25306   2.779   5.612   1.253
 8136SOL    HW125307   2.729   5.698   1.261
 8136SOL    HW225308   2.723   5.537   1.288
 8137SOL     OW25309   3.593   4.221   5.525
 8137SOL    HW125310   3.683   4.195   5.561
 8137SOL    HW225311   3.542   4.139   5.501
 8138SOL     OW25312   4.373   0.839   3.995
 8138SOL    HW125313   4.421   0.782   3.928
 8138SOL    HW225314   4.301   0.891   3.949
 8139SOL     OW25315   2.333   3.099   5.988
 8139SOL    HW125316   2.247   3.080   5.939
 8139SOL    HW225317   2.403   3.127   5.922
 8140SOL     OW25318   5.318   1.714   1.605
 8140SOL    HW125319   5.239   1.749   1.656
 8140SOL    HW225320   5.293   1.705   1.508
 8141SOL     OW25321   5.716   2.169   4.976
 8141SOL    HW125322   5.644   2.205   4.916
 8141SOL    HW225323   5.787   2.238   4.987
 8142SOL     OW25324   3.970   5.639   0.462
 8142SOL    HW125325   4.069   5.638   0.446
 8142SOL    HW225326   3.952   5.618   0.558
 8143SOL     OW25327   5.288   5.046   0.345
 8143SOL    HW125328   5.385   5.023   0.348
 8143SOL    HW225329   5.255   5.066   0.438
 8144SOL     OW25330   1.604   5.436   6.488
 8144SOL    HW125331   1.588   5.512   6.551
 8144SOL    HW225332   1.560   5.455   6.401
 8145SOL     OW25333   5.156   5.250   5.593
 8145SOL    HW125334   5.162   5.330   5.653
 8145SOL    HW225335   5.140   5.168   5.648
 8146SOL     OW25336   0.032   5.973   5.721
 8146SOL    HW125337   6.990   5.953   5.796
 8146SOL    HW225338   0.122   5.937   5.744
 8147SOL     OW25339   2.360   6.305   4.504
 8147SOL    HW125340   2.329   6.386   4.454
 8147SOL    HW225341   2.319   6.305   4.595
 8148SOL     OW25342   4.569   4.867   0.249
 8148SOL    HW125343   4.559   4.871   0.149
 8148SOL    HW225344   4.499   4.806   0.287
 8149SOL     OW25345   1.312   6.681   4.623
 8149SOL    HW125346   1.314   6.665   4.722
 8149SOL    HW225347   1.405   6.693   4.590
 8150SOL     OW25348   0.801   3.769   0.534
 8150SOL    HW125349   0.721   3.753   0.476
 8150SOL    HW225350   0.836   3.861   0.517
 8151SOL     OW25351   6.234   4.255   2.802
 8151SOL    HW125352   6.194   4.179   2.751
 8151SOL    HW225353   6.328   4.233   2.828
 8152SOL     OW25354   5.057   2.007   4.580
 8152SOL    HW125355   4.999   2.013   4.498
 8152SOL    HW225356   5.102   1.918   4.582
 8153SOL     OW25357   6.907   1.333   0.958
 8153SOL    HW125358   6.831   1.309   0.897
 8153SOL    HW225359   6.954   1.413   0.922
 8154SOL     OW25360   6.906   0.151   4.894
 8154SOL    HW125361   6.935   0.246   4.903
 8154SOL    HW225362   6.968   0.103   4.831
 8155SOL     OW25363   1.359   4.470   4.718
 8155SOL    HW125364   1.430   4.507   4.659
 8155SOL    HW225365   1.399   4.447   4.807
 8156SOL     OW25366   1.103   3.711   6.941
 8156SOL    HW125367   1.066   3.743   6.854
 8156SOL    HW225368   1.112   3.789   7.003
 8157SOL     OW25369   6.246   4.775   5.495
 8157SOL    HW125370   6.195   4.731   5.569
 8157SOL    HW225371   6.220   4.733   5.408
 8158SOL     OW25372   0.084   5.194   5.759
 8158SOL    HW125373   0.161   5.236   5.710
 8158SOL    HW225374   7.021   5.209   5.707
 8159SOL     OW25375   2.326   5.889   4.427
 8159SOL    HW125376   2.380   5.930   4.500
 8159SOL    HW225377   2.383   5.824   4.376
 8160SOL     OW25378   4.900   3.245   3.139
 8160SOL    HW125379   4.849   3.184   3.200
 8160SOL    HW225380   4.889   3.213   3.045
 8161SOL     OW25381   0.154   1.729   1.130
 8161SOL    HW125382   0.100   1.813   1.129
 8161SOL    HW225383   0.155   1.691   1.223
 8162SOL     OW25384   6.343   6.118   6.340
 8162SOL    HW125385   6.419   6.182   6.334
 8162SOL    HW225386   6.359   6.041   6.278
 8163SOL     OW25387   3.488   5.548   5.895
 8163SOL    HW125388   3.516   5.481   5.827
 8163SOL    HW225389   3.530   5.526   5.983
 8164SOL     OW25390   5.547   2.022   0.465
 8164SOL    HW125391   5.579   2.082   0.391
 8164SOL    HW225392   5.448   2.027   0.470
 8165SOL     OW25393   1.622   2.478   5.562
 8165SOL    HW125394   1.527   2.502   5.541
 8165SOL    HW225395   1.682   2.555   5.540
 8166SOL     OW25396   3.337   2.083   3.441
 8166SOL    HW125397   3.436   2.070   3.445
 8166SOL    HW225398   3.305   2.071   3.347
 8167SOL     OW25399   1.592   2.093   2.352
 8167SOL    HW125400   1.552   2.142   2.429
 8167SOL    HW225401   1.691   2.093   2.360
 8168SOL     OW25402   1.115   6.006   2.749
 8168SOL    HW125403   1.126   6.023   2.651
 8168SOL    HW225404   1.018   6.008   2.772
 8169SOL     OW25405   5.002   4.897   6.782
 8169SOL    HW125406   4.989   4.920   6.878
 8169SOL    HW225407   5.040   4.976   6.733
 8170SOL     OW25408   0.214   4.756   3.337
 8170SOL    HW125409   0.244   4.851   3.343
 8170SOL    HW225410   0.154   4.745   3.258
 8171SOL     OW25411   0.980   1.406   1.956
 8171SOL    HW125412   0.959   1.373   2.048
 8171SOL    HW225413   0.978   1.506   1.954
 8172SOL     OW25414   1.481   4.665   0.370
 8172SOL    HW125415   1.433   4.680   0.283
 8172SOL    HW225416   1.478   4.749   0.424
 8173SOL     OW25417   5.382   0.604   1.186
 8173SOL    HW125418   5.372   0.510   1.153
 8173SOL    HW225419   5.294   0.651   1.182
 8174SOL     OW25420   2.930   6.209   3.894
 8174SOL    HW125421   2.975   6.156   3.965
 8174SOL    HW225422   2.893   6.147   3.825
 8175SOL     OW25423   1.503   2.700   6.305
 8175SOL    HW125424   1.525   2.742   6.392
 8175SOL    HW225425   1.576   2.638   6.277
 8176SOL     OW25426   2.001   4.577   0.118
 8176SOL    HW125427   2.083   4.635   0.109
 8176SOL    HW225428   1.960   4.591   0.208
 8177SOL     OW25429   3.698   1.400   1.915
 8177SOL    HW125430   3.699   1.354   2.003
 8177SOL    HW225431   3.728   1.336   1.844
 8178SOL     OW25432   2.334   6.584   0.869
 8178SOL    HW125433   2.365   6.547   0.957
 8178SOL    HW225434   2.238   6.561   0.855
 8179SOL     OW25435   6.619   6.401   4.542
 8179SOL    HW125436   6.609   6.393   4.443
 8179SOL    HW225437   6.709   6.368   4.569
 8180SOL     OW25438   3.349   4.914   0.600
 8180SOL    HW125439   3.388   4.966   0.676
 8180SOL    HW225440   3.251   4.900   0.615
 8181SOL     OW25441   6.027   0.968   6.436
 8181SOL    HW125442   6.105   0.912   6.406
 8181SOL    HW225443   6.042   1.063   6.409
 8182SOL     OW25444   3.343   3.564   2.781
 8182SOL    HW125445   3.411   3.596   2.848
 8182SOL    HW225446   3.301   3.480   2.815
 8183SOL     OW25447   0.361   0.458   4.991
 8183SOL    HW125448   0.437   0.436   4.930
 8183SOL    HW225449   0.397   0.499   5.075
 8184SOL     OW25450   6.581   5.524   4.558
 8184SOL    HW125451   6.636   5.464   4.500
 8184SOL    HW225452   6.575   5.485   4.650
 8185SOL     OW25453   6.692   6.408   4.001
 8185SOL    HW125454   6.710   6.433   3.906
 8185SOL    HW225455   6.701   6.488   4.059
 8186SOL     OW25456   0.711   6.199   6.456
 8186SOL    HW125457   0.678   6.291   6.435
 8186SOL    HW225458   0.730   6.193   6.554
 8187SOL     OW25459   0.844   6.505   4.585
 8187SOL    HW125460   0.797   6.438   4.642
 8187SOL    HW225461   0.942   6.483   4.583
 8188SOL     OW25462   1.583   2.726   2.521
 8188SOL    HW125463   1.677   2.693   2.514
 8188SOL    HW225464   1.567   2.795   2.451
 8189SOL     OW25465   6.637   5.326   3.804
 8189SOL    HW125466   6.651   5.252   3.738
 8189SOL    HW225467   6.720   5.339   3.859
 8190SOL     OW25468   5.372   3.681   2.494
 8190SOL    HW125469   5.307   3.733   2.439
 8190SOL    HW225470   5.327   3.598   2.529
 8191SOL     OW25471   4.392   5.114   0.504
 8191SOL    HW125472   4.444   5.151   0.427
 8191SOL    HW225473   4.411   5.168   0.586
 8192SOL     OW25474   6.650   5.757   2.696
 8192SOL    HW125475   6.617   5.671   2.658
 8192SOL    HW225476   6.575   5.823   2.697
 8193SOL     OW25477   0.745   5.222   4.632
 8193SOL    HW125478   0.699   5.252   4.716
 8193SOL    HW225479   0.838   5.193   4.654
 8194SOL     OW25480   5.724   6.657   1.909
 8194SOL    HW125481   5.632   6.694   1.897
 8194SOL    HW225482   5.763   6.691   1.995
 8195SOL     OW25483   6.060   6.721   3.298
 8195SOL    HW125484   6.027   6.649   3.359
 8195SOL    HW225485   6.160   6.715   3.290
 8196SOL     OW25486   5.429   0.235   2.826
 8196SOL    HW125487   5.470   0.323   2.853
 8196SOL    HW225488   5.343   0.252   2.777
 8197SOL     OW25489   3.801   0.688   3.642
 8197SOL    HW125490   3.767   0.764   3.698
 8197SOL    HW225491   3.886   0.715   3.597
 8198SOL     OW25492   1.911   5.547   0.011
 8198SOL    HW125493   1.852   5.522   6.956
 8198SOL    HW225494   1.997   5.496   0.005
 8199SOL     OW25495   5.977   2.755   0.127
 8199SOL    HW125496   5.909   2.828   0.121
 8199SOL    HW225497   6.064   2.787   0.092
 8200SOL     OW25498   5.946   4.831   0.186
 8200SOL    HW125499   5.993   4.917   0.165
 8200SOL    HW225500   6.011   4.763   0.219
 8201SOL     OW25501   5.077   1.462   5.760
 8201SOL    HW125502   4.984   1.425   5.752
 8201SOL    HW225503   5.094   1.488   5.855
 8202SOL     OW25504   0.098   6.288   2.163
 8202SOL    HW125505   0.056   6.372   2.129
 8202SOL    HW225506   0.064   6.269   2.255
 8203SOL     OW25507   0.801   3.172   0.218
 8203SOL    HW125508   0.827   3.153   0.312
 8203SOL    HW225509   0.723   3.234   0.217
 8204SOL     OW25510   1.383   3.628   0.111
 8204SOL    HW125511   1.401   3.628   0.210
 8204SOL    HW225512   1.285   3.641   0.095
 8205SOL     OW25513   0.002   4.419   6.039
 8205SOL    HW125514   0.061   4.406   6.119
 8205SOL    HW225515   0.009   4.339   5.979
 8206SOL     OW25516   3.514   1.495   0.867
 8206SOL    HW125517   3.480   1.402   0.852
 8206SOL    HW225518   3.537   1.507   0.963
 8207SOL     OW25519   3.624   3.123   3.642
 8207SOL    HW125520   3.678   3.203   3.614
 8207SOL    HW225521   3.631   3.111   3.741
 8208SOL     OW25522   3.936   6.955   5.487
 8208SOL    HW125523   3.849   7.002   5.476
 8208SOL    HW225524   3.929   6.862   5.450
 8209SOL     OW25525   4.942   3.712   3.882
 8209SOL    HW125526   4.917   3.685   3.789
 8209SOL    HW225527   4.958   3.630   3.937
 8210SOL     OW25528   1.361   1.909   5.999
 8210SOL    HW125529   1.423   1.888   6.075
 8210SOL    HW225530   1.387   1.997   5.959
 8211SOL     OW25531   4.138   4.585   1.070
 8211SOL    HW125532   4.158   4.583   1.168
 8211SOL    HW225533   4.217   4.549   1.019
 8212SOL     OW25534   2.123   3.609   2.459
 8212SOL    HW125535   2.100   3.675   2.387
 8212SOL    HW225536   2.081   3.521   2.437
 8213SOL     OW25537   6.942   4.088   0.711
 8213SOL    HW125538   6.952   4.148   0.631
 8213SOL    HW225539   6.844   4.071   0.727
 8214SOL     OW25540   4.956   2.729   3.585
 8214SOL    HW125541   4.905   2.813   3.564
 8214SOL    HW225542   4.913   2.652   3.540
 8215SOL     OW25543   3.066   4.307   1.367
 8215SOL    HW125544   3.055   4.365   1.447
 8215SOL    HW225545   2.977   4.273   1.337
 8216SOL     OW25546   5.513   2.917   5.242
 8216SOL    HW125547   5.495   2.941   5.147
 8216SOL    HW225548   5.448   2.846   5.271
 8217SOL     OW25549   2.215   5.950   6.735
 8217SOL    HW125550   2.290   5.931   6.798
 8217SOL    HW225551   2.252   5.963   6.643
 8218SOL     OW25552   4.373   1.416   6.959
 8218SOL    HW125553   4.417   1.371   0.015
 8218SOL    HW225554   4.307   1.354   6.917
 8219SOL     OW25555   5.736   3.186   0.046
 8219SOL    HW125556   5.641   3.202   0.075
 8219SOL    HW225557   5.744   3.204   6.970
 8220SOL     OW25558   3.986   3.398   1.418
 8220SOL    HW125559   4.032   3.313   1.443
 8220SOL    HW225560   3.893   3.397   1.456
 8221SOL     OW25561   5.548   3.740   4.057
 8221SOL    HW125562   5.616   3.706   3.993
 8221SOL    HW225563   5.497   3.815   4.016
 8222SOL     OW25564   6.016   1.610   2.926
 8222SOL    HW125565   5.964   1.608   3.011
 8222SOL    HW225566   6.006   1.522   2.879
 8223SOL     OW25567   1.192   3.421   6.878
 8223SOL    HW125568   1.288   3.445   6.861
 8223SOL    HW225569   1.135   3.503   6.875
 8224SOL     OW25570   1.175   3.549   2.484
 8224SOL    HW125571   1.162   3.625   2.546
 8224SOL    HW225572   1.238   3.575   2.411
 8225SOL     OW25573   5.218   0.332   1.171
 8225SOL    HW125574   5.195   0.339   1.074
 8225SOL    HW225575   5.216   0.235   1.198
 8226SOL     OW25576   4.264   0.630   0.025
 8226SOL    HW125577   4.259   0.571   0.106
 8226SOL    HW225578   4.262   0.573   6.964
 8227SOL     OW25579   5.855   4.783   3.313
 8227SOL    HW125580   5.817   4.746   3.397
 8227SOL    HW225581   5.951   4.754   3.304
 8228SOL     OW25582   6.943   1.164   3.396
 8228SOL    HW125583   6.983   1.079   3.431
 8228SOL    HW225584   6.857   1.182   3.444
 8229SOL     OW25585   5.943   4.949   6.812
 8229SOL    HW125586   5.913   4.997   6.729
 8229SOL    HW225587   5.890   4.864   6.822
 8230SOL     OW25588   4.766   6.972   3.110
 8230SOL    HW125589   4.827   6.898   3.082
 8230SOL    HW225590   4.791   7.003   3.202
 8231SOL     OW25591   3.313   5.691   1.350
 8231SOL    HW125592   3.260   5.617   1.309
 8231SOL    HW225593   3.404   5.658   1.375
 8232SOL     OW25594   2.879   1.382   0.378
 8232SOL    HW125595   2.886   1.461   0.439
 8232SOL    HW225596   2.784   1.367   0.352
 8233SOL     OW25597   0.881   5.960   6.381
 8233SOL    HW125598   0.951   6.029   6.363
 8233SOL    HW225599   0.921   5.869   6.375
 8234SOL     OW25600   1.329   3.077   6.573
 8234SOL    HW125601   1.295   3.125   6.654
 8234SOL    HW225602   1.277   3.107   6.493
 8235SOL     OW25603   4.622   2.590   6.930
 8235SOL    HW125604   4.684   2.571   7.006
 8235SOL    HW225605   4.532   2.616   6.966
 8236SOL     OW25606   6.366   2.021   2.014
 8236SOL    HW125607   6.389   1.924   2.009
 8236SOL    HW225608   6.449   2.076   2.018
 8237SOL     OW25609   3.621   6.211   5.180
 8237SOL    HW125610   3.534   6.232   5.226
 8237SOL    HW225611   3.697   6.247   5.235
 8238SOL     OW25612   0.588   1.502   5.149
 8238SOL    HW125613   0.658   1.537   5.087
 8238SOL    HW225614   0.587   1.402   5.145
 8239SOL     OW25615   5.165   1.473   6.017
 8239SOL    HW125616   5.180   1.564   6.055
 8239SOL    HW225617   5.220   1.407   6.067
 8240SOL     OW25618   3.203   3.034   2.779
 8240SOL    HW125619   3.241   3.025   2.871
 8240SOL    HW225620   3.122   3.092   2.781
 8241SOL     OW25621   3.731   6.136   1.432
 8241SOL    HW125622   3.797   6.080   1.481
 8241SOL    HW225623   3.642   6.132   1.478
 8242SOL     OW25624   2.144   4.384   4.518
 8242SOL    HW125625   2.085   4.314   4.557
 8242SOL    HW225626   2.232   4.344   4.493
 8243SOL     OW25627   0.039   4.108   4.236
 8243SOL    HW125628   6.981   4.052   4.260
 8243SOL    HW225629   0.099   4.057   4.174
 8244SOL     OW25630   3.549   5.692   5.483
 8244SOL    HW125631   3.468   5.668   5.536
 8244SOL    HW225632   3.526   5.694   5.386
 8245SOL     OW25633   4.631   4.129   1.192
 8245SOL    HW125634   4.717   4.167   1.156
 8245SOL    HW225635   4.594   4.191   1.261
 8246SOL     OW25636   6.003   3.075   5.562
 8246SOL    HW125637   6.073   3.056   5.630
 8246SOL    HW225638   5.913   3.080   5.607
 8247SOL     OW25639   0.807   5.708   7.022
 8247SOL    HW125640   0.845   5.740   6.935
 8247SOL    HW225641   0.710   5.686   7.009
 8248SOL     OW25642   6.546   3.695   3.252
 8248SOL    HW125643   6.591   3.783   3.240
 8248SOL    HW225644   6.590   3.644   3.326
 8249SOL     OW25645   1.058   5.835   3.278
 8249SOL    HW125646   1.079   5.932   3.288
 8249SOL    HW225647   1.135   5.788   3.235
 8250SOL     OW25648   3.312   2.865   2.589
 8250SOL    HW125649   3.297   2.772   2.623
 8250SOL    HW225650   3.254   2.928   2.641
 8251SOL     OW25651   5.729   0.948   4.035
 8251SOL    HW125652   5.704   0.989   3.948
 8251SOL    HW225653   5.803   0.882   4.021
 8252SOL     OW25654   1.168   3.691   4.379
 8252SOL    HW125655   1.235   3.765   4.370
 8252SOL    HW225656   1.085   3.727   4.422
 8253SOL     OW25657   2.873   3.299   6.136
 8253SOL    HW125658   2.809   3.256   6.200
 8253SOL    HW225659   2.822   3.338   6.059
 8254SOL     OW25660   4.861   4.761   2.701
 8254SOL    HW125661   4.920   4.807   2.635
 8254SOL    HW225662   4.775   4.812   2.710
 8255SOL     OW25663   4.667   5.465   3.594
 8255SOL    HW125664   4.642   5.389   3.533
 8255SOL    HW225665   4.644   5.442   3.688
 8256SOL     OW25666   5.597   1.859   3.230
 8256SOL    HW125667   5.647   1.877   3.146
 8256SOL    HW225668   5.606   1.762   3.254
 8257SOL     OW25669   6.366   4.447   4.083
 8257SOL    HW125670   6.465   4.437   4.075
 8257SOL    HW225671   6.321   4.379   4.026
 8258SOL     OW25672   5.355   2.413   0.979
 8258SOL    HW125673   5.447   2.393   1.013
 8258SOL    HW225674   5.300   2.451   1.053
 8259SOL     OW25675   4.705   0.686   1.182
 8259SOL    HW125676   4.742   0.614   1.241
 8259SOL    HW225677   4.617   0.657   1.146
 8260SOL     OW25678   3.869   5.100   6.146
 8260SOL    HW125679   3.778   5.058   6.150
 8260SOL    HW225680   3.862   5.189   6.102
 8261SOL     OW25681   4.770   1.667   1.415
 8261SOL    HW125682   4.769   1.592   1.350
 8261SOL    HW225683   4.695   1.730   1.394
 8262SOL     OW25684   6.375   2.660   1.924
 8262SOL    HW125685   6.423   2.574   1.939
 8262SOL    HW225686   6.289   2.643   1.875
 8263SOL     OW25687   6.185   2.262   0.190
 8263SOL    HW125688   6.193   2.264   0.290
 8263SOL    HW225689   6.097   2.301   0.162
 8264SOL     OW25690   1.522   4.127   2.030
 8264SOL    HW125691   1.609   4.165   2.061
 8264SOL    HW225692   1.510   4.149   1.933
 8265SOL     OW25693   2.051   0.420   2.563
 8265SOL    HW125694   2.126   0.457   2.507
 8265SOL    HW225695   1.997   0.357   2.508
 8266SOL     OW25696   2.676   0.845   2.894
 8266SOL    HW125697   2.694   0.891   2.807
 8266SOL    HW225698   2.578   0.828   2.903
 8267SOL     OW25699   6.756   2.893   1.498
 8267SOL    HW125700   6.701   2.818   1.460
 8267SOL    HW225701   6.843   2.857   1.530
 8268SOL     OW25702   1.732   4.657   7.006
 8268SOL    HW125703   1.803   4.700   0.040
 8268SOL    HW225704   1.721   4.562   0.013
 8269SOL     OW25705   5.693   2.247   0.042
 8269SOL    HW125706   5.654   2.182   6.998
 8269SOL    HW225707   5.692   2.339   0.003
 8270SOL     OW25708   1.751   6.128   4.248
 8270SOL    HW125709   1.846   6.151   4.226
 8270SOL    HW225710   1.748   6.036   4.287
 8271SOL     OW25711   0.454   2.141   3.019
 8271SOL    HW125712   0.373   2.200   3.007
 8271SOL    HW225713   0.429   2.061   3.074
 8272SOL     OW25714   3.722   1.760   4.054
 8272SOL    HW125715   3.651   1.785   4.120
 8272SOL    HW225716   3.812   1.769   4.097
 8273SOL     OW25717   2.084   6.512   0.865
 8273SOL    HW125718   2.024   6.568   0.923
 8273SOL    HW225719   2.047   6.509   0.772
 8274SOL     OW25720   5.222   3.696   3.688
 8274SOL    HW125721   5.176   3.771   3.738
 8274SOL    HW225722   5.160   3.662   3.617
 8275SOL     OW25723   6.350   2.479   0.152
 8275SOL    HW125724   6.367   2.499   0.055
 8275SOL    HW225725   6.309   2.388   0.160
 8276SOL     OW25726   1.397   1.724   3.315
 8276SOL    HW125727   1.470   1.754   3.253
 8276SOL    HW225728   1.328   1.674   3.263
 8277SOL     OW25729   6.972   1.108   0.680
 8277SOL    HW125730   0.026   1.155   0.725
 8277SOL    HW225731   6.962   1.016   0.719
 8278SOL     OW25732   0.773   2.671   0.705
 8278SOL    HW125733   0.815   2.580   0.705
 8278SOL    HW225734   0.761   2.702   0.800
 8279SOL     OW25735   0.249   6.345   3.943
 8279SOL    HW125736   0.238   6.415   3.873
 8279SOL    HW225737   0.330   6.289   3.922
 8280SOL     OW25738   3.548   2.543   6.386
 8280SOL    HW125739   3.530   2.577   6.479
 8280SOL    HW225740   3.534   2.618   6.321
 8281SOL     OW25741   3.921   4.890   1.952
 8281SOL    HW125742   3.860   4.960   1.990
 8281SOL    HW225743   3.955   4.920   1.863
 8282SOL     OW25744   0.035   2.941   6.160
 8282SOL    HW125745   0.029   2.844   6.137
 8282SOL    HW225746   0.102   2.986   6.101
 8283SOL     OW25747   2.140   2.293   6.028
 8283SOL    HW125748   2.119   2.272   5.933
 8283SOL    HW225749   2.071   2.252   6.088
 8284SOL     OW25750   6.484   4.746   1.790
 8284SOL    HW125751   6.493   4.729   1.889
 8284SOL    HW225752   6.397   4.708   1.758
 8285SOL     OW25753   3.422   2.861   4.066
 8285SOL    HW125754   3.515   2.855   4.102
 8285SOL    HW225755   3.407   2.789   3.999
 8286SOL     OW25756   0.388   2.583   0.198
 8286SOL    HW125757   0.361   2.497   0.154
 8286SOL    HW225758   0.464   2.624   0.149
 8287SOL     OW25759   1.444   0.025   4.698
 8287SOL    HW125760   1.498   6.978   4.649
 8287SOL    HW225761   1.441   0.109   4.644
 8288SOL     OW25762   2.630   1.265   3.198
 8288SOL    HW125763   2.553   1.279   3.260
 8288SOL    HW225764   2.674   1.178   3.218
 8289SOL     OW25765   0.921   6.684   0.300
 8289SOL    HW125766   0.904   6.698   0.203
 8289SOL    HW225767   0.887   6.763   0.352
 8290SOL     OW25768   6.079   1.966   1.495
 8290SOL    HW125769   6.062   2.057   1.534
 8290SOL    HW225770   6.153   1.973   1.428
 8291SOL     OW25771   4.127   0.615   1.853
 8291SOL    HW125772   4.211   0.592   1.803
 8291SOL    HW225773   4.094   0.705   1.824
 8292SOL     OW25774   2.615   0.613   6.319
 8292SOL    HW125775   2.678   0.538   6.298
 8292SOL    HW225776   2.528   0.576   6.350
 8293SOL     OW25777   6.002   5.478   5.549
 8293SOL    HW125778   5.909   5.515   5.554
 8293SOL    HW225779   5.999   5.390   5.502
 8294SOL     OW25780   6.356   2.733   0.265
 8294SOL    HW125781   6.365   2.641   0.225
 8294SOL    HW225782   6.289   2.785   0.213
 8295SOL     OW25783   5.297   2.171   6.146
 8295SOL    HW125784   5.326   2.238   6.078
 8295SOL    HW225785   5.367   2.164   6.218
 8296SOL     OW25786   0.808   5.337   5.199
 8296SOL    HW125787   0.788   5.333   5.101
 8296SOL    HW225788   0.753   5.269   5.247
 8297SOL     OW25789   1.168   3.554   3.697
 8297SOL    HW125790   1.141   3.505   3.780
 8297SOL    HW225791   1.102   3.535   3.624
 8298SOL     OW25792   4.317   2.352   2.827
 8298SOL    HW125793   4.414   2.344   2.803
 8298SOL    HW225794   4.279   2.436   2.787
 8299SOL     OW25795   5.950   1.564   1.543
 8299SOL    HW125796   6.040   1.559   1.501
 8299SOL    HW225797   5.894   1.488   1.510
 8300SOL     OW25798   1.110   5.613   2.662
 8300SOL    HW125799   1.090   5.540   2.727
 8300SOL    HW225800   1.184   5.670   2.699
 8301SOL     OW25801   3.704   0.811   5.789
 8301SOL    HW125802   3.727   0.891   5.734
 8301SOL    HW225803   3.779   0.745   5.785
 8302SOL     OW25804   6.931   5.461   6.644
 8302SOL    HW125805   6.848   5.405   6.642
 8302SOL    HW225806   7.011   5.402   6.656
 8303SOL     OW25807   0.103   0.529   0.711
 8303SOL    HW125808   0.169   0.484   0.650
 8303SOL    HW225809   0.032   0.464   0.736
 8304SOL     OW25810   0.163   3.409   0.261
 8304SOL    HW125811   0.253   3.408   0.305
 8304SOL    HW225812   0.093   3.382   0.327
 8305SOL     OW25813   3.129   5.366   2.310
 8305SOL    HW125814   3.224   5.337   2.296
 8305SOL    HW225815   3.126   5.463   2.330
 8306SOL     OW25816   2.283   1.618   3.505
 8306SOL    HW125817   2.186   1.640   3.515
 8306SOL    HW225818   2.338   1.699   3.526
 8307SOL     OW25819   3.491   6.664   1.128
 8307SOL    HW125820   3.579   6.677   1.082
 8307SOL    HW225821   3.495   6.581   1.184
 8308SOL     OW25822   2.806   0.643   2.163
 8308SOL    HW125823   2.733   0.701   2.126
 8308SOL    HW225824   2.806   0.555   2.116
 8309SOL     OW25825   5.585   6.402   2.533
 8309SOL    HW125826   5.589   6.462   2.453
 8309SOL    HW225827   5.675   6.398   2.576
 8310SOL     OW25828   6.481   4.767   6.714
 8310SOL    HW125829   6.450   4.860   6.734
 8310SOL    HW225830   6.408   4.717   6.667
 8311SOL     OW25831   6.548   1.229   5.957
 8311SOL    HW125832   6.634   1.242   5.908
 8311SOL    HW225833   6.524   1.132   5.957
 8312SOL     OW25834   4.722   5.868   1.457
 8312SOL    HW125835   4.717   5.772   1.485
 8312SOL    HW225836   4.650   5.919   1.502
 8313SOL     OW25837   4.253   1.922   2.962
 8313SOL    HW125838   4.243   1.904   3.060
 8313SOL    HW225839   4.258   1.836   2.912
 8314SOL     OW25840   6.713   6.877   4.253
 8314SOL    HW125841   6.765   6.948   4.205
 8314SOL    HW225842   6.696   6.907   4.347
 8315SOL     OW25843   5.564   4.241   0.162
 8315SOL    HW125844   5.599   4.328   0.195
 8315SOL    HW225845   5.557   4.176   0.237
 8316SOL     OW25846   2.797   5.197   6.130
 8316SOL    HW125847   2.814   5.284   6.178
 8316SOL    HW225848   2.707   5.162   6.157
 8317SOL     OW25849   2.310   4.984   1.628
 8317SOL    HW125850   2.388   4.982   1.565
 8317SOL    HW225851   2.264   4.895   1.626
 8318SOL     OW25852   3.038   1.028   5.983
 8318SOL    HW125853   3.136   1.039   6.002
 8318SOL    HW225854   3.025   1.010   5.886
 8319SOL     OW25855   2.496   0.576   5.154
 8319SOL    HW125856   2.454   0.666   5.144
 8319SOL    HW225857   2.527   0.544   5.065
 8320SOL     OW25858   3.537   4.914   1.063
 8320SOL    HW125859   3.520   4.956   1.152
 8320SOL    HW225860   3.462   4.851   1.042
 8321SOL     OW25861   6.414   1.376   1.733
 8321SOL    HW125862   6.470   1.392   1.815
 8321SOL    HW225863   6.467   1.399   1.652
 8322SOL     OW25864   5.446   6.150   0.555
 8322SOL    HW125865   5.498   6.236   0.559
 8322SOL    HW225866   5.457   6.109   0.465
 8323SOL     OW25867   1.371   0.706   1.515
 8323SOL    HW125868   1.382   0.725   1.613
 8323SOL    HW225869   1.349   0.609   1.502
 8324SOL     OW25870   6.973   0.658   2.916
 8324SOL    HW125871   6.952   0.566   2.950
 8324SOL    HW225872   7.019   0.710   2.987
 8325SOL     OW25873   3.399   3.661   5.101
 8325SOL    HW125874   3.475   3.625   5.154
 8325SOL    HW225875   3.357   3.587   5.048
 8326SOL     OW25876   4.360   2.813   5.729
 8326SOL    HW125877   4.364   2.729   5.784
 8326SOL    HW225878   4.321   2.887   5.784
 8327SOL     OW25879   4.529   2.228   5.829
 8327SOL    HW125880   4.621   2.200   5.858
 8327SOL    HW225881   4.463   2.158   5.856
 8328SOL     OW25882   2.036   2.388   3.826
 8328SOL    HW125883   2.112   2.442   3.863
 8328SOL    HW225884   2.021   2.308   3.885
 8329SOL     OW25885   1.190   4.204   4.970
 8329SOL    HW125886   1.161   4.190   5.065
 8329SOL    HW225887   1.283   4.241   4.969
 8330SOL     OW25888   2.670   7.018   6.555
 8330SOL    HW125889   2.664   7.008   6.456
 8330SOL    HW225890   2.726   0.076   6.578
 8331SOL     OW25891   2.116   0.025   0.947
 8331SOL    HW125892   2.152   0.016   0.854
 8331SOL    HW225893   2.021   7.016   0.949
 8332SOL     OW25894   5.254   6.339   3.112
 8332SOL    HW125895   5.258   6.276   3.034
 8332SOL    HW225896   5.336   6.396   3.113
 8333SOL     OW25897   2.374   4.728   5.271
 8333SOL    HW125898   2.404   4.717   5.176
 8333SOL    HW225899   2.358   4.638   5.312
 8334SOL     OW25900   6.593   0.147   2.970
 8334SOL    HW125901   6.576   0.119   2.875
 8334SOL    HW225902   6.674   0.099   3.004
 8335SOL     OW25903   6.476   5.713   5.134
 8335SOL    HW125904   6.382   5.710   5.168
 8335SOL    HW225905   6.500   5.807   5.109
 8336SOL     OW25906   1.693   1.646   2.454
 8336SOL    HW125907   1.609   1.699   2.447
 8336SOL    HW225908   1.730   1.653   2.547
 8337SOL     OW25909   6.224   6.549   2.710
 8337SOL    HW125910   6.318   6.545   2.743
 8337SOL    HW225911   6.213   6.628   2.650
 8338SOL     OW25912   2.737   5.623   0.532
 8338SOL    HW125913   2.738   5.719   0.506
 8338SOL    HW225914   2.812   5.604   0.596
 8339SOL     OW25915   5.251   0.777   2.973
 8339SOL    HW125916   5.194   0.856   2.949
 8339SOL    HW225917   5.203   0.693   2.947
 8340SOL     OW25918   5.216   3.934   1.928
 8340SOL    HW125919   5.131   3.985   1.935
 8340SOL    HW225920   5.219   3.888   1.839
 8341SOL     OW25921   1.766   0.504   0.233
 8341SOL    HW125922   1.782   0.600   0.211
 8341SOL    HW225923   1.760   0.450   0.149
 8342SOL     OW25924   5.262   6.835   1.062
 8342SOL    HW125925   5.163   6.832   1.058
 8342SOL    HW225926   5.296   6.906   1.000
 8343SOL     OW25927   6.611   4.499   4.397
 8343SOL    HW125928   6.601   4.468   4.303
 8343SOL    HW225929   6.521   4.506   4.439
 8344SOL     OW25930   3.778   6.777   4.813
 8344SOL    HW125931   3.780   6.844   4.738
 8344SOL    HW225932   3.838   6.700   4.791
 8345SOL     OW25933   5.826   1.580   3.165
 8345SOL    HW125934   5.738   1.597   3.210
 8345SOL    HW225935   5.854   1.485   3.181
 8346SOL     OW25936   3.709   5.129   1.563
 8346SOL    HW125937   3.657   5.086   1.636
 8346SOL    HW225938   3.646   5.169   1.496
 8347SOL     OW25939   2.890   5.279   4.048
 8347SOL    HW125940   2.967   5.234   4.094
 8347SOL    HW225941   2.825   5.210   4.016
 8348SOL     OW25942   2.124   0.150   0.513
 8348SOL    HW125943   2.160   0.104   0.594
 8348SOL    HW225944   2.168   0.113   0.431
 8349SOL     OW25945   6.235   4.864   2.824
 8349SOL    HW125946   6.232   4.792   2.755
 8349SOL    HW225947   6.162   4.849   2.891
 8350SOL     OW25948   6.578   0.634   4.912
 8350SOL    HW125949   6.579   0.710   4.847
 8350SOL    HW225950   6.484   0.617   4.942
 8351SOL     OW25951   2.241   6.765   2.372
 8351SOL    HW125952   2.167   6.703   2.344
 8351SOL    HW225953   2.230   6.787   2.469
 8352SOL     OW25954   5.744   6.297   2.199
 8352SOL    HW125955   5.714   6.361   2.270
 8352SOL    HW225956   5.666   6.270   2.143
 8353SOL     OW25957   2.356   3.924   1.711
 8353SOL    HW125958   2.309   3.861   1.650
 8353SOL    HW225959   2.453   3.929   1.685
 8354SOL     OW25960   3.133   0.042   0.542
 8354SOL    HW125961   3.126   0.014   0.638
 8354SOL    HW225962   3.208   0.108   0.532
 8355SOL     OW25963   2.473   1.956   0.732
 8355SOL    HW125964   2.412   1.905   0.671
 8355SOL    HW225965   2.461   1.925   0.826
 8356SOL     OW25966   2.853   4.709   0.531
 8356SOL    HW125967   2.921   4.742   0.467
 8356SOL    HW225968   2.897   4.688   0.619
 8357SOL     OW25969   3.381   6.791   2.431
 8357SOL    HW125970   3.437   6.808   2.512
 8357SOL    HW225971   3.439   6.765   2.354
 8358SOL     OW25972   3.156   1.765   5.359
 8358SOL    HW125973   3.083   1.784   5.425
 8358SOL    HW225974   3.242   1.804   5.392
 8359SOL     OW25975   3.780   4.888   4.143
 8359SOL    HW125976   3.874   4.854   4.140
 8359SOL    HW225977   3.780   4.986   4.121
 8360SOL     OW25978   4.347   0.698   3.391
 8360SOL    HW125979   4.252   0.672   3.410
 8360SOL    HW225980   4.395   0.621   3.350
 8361SOL     OW25981   1.246   0.629   2.970
 8361SOL    HW125982   1.205   0.552   2.921
 8361SOL    HW225983   1.173   0.689   3.003
 8362SOL     OW25984   3.509   3.039   0.779
 8362SOL    HW125985   3.467   2.963   0.729
 8362SOL    HW225986   3.532   3.112   0.715
 8363SOL     OW25987   0.194   2.743   1.792
 8363SOL    HW125988   0.246   2.661   1.815
 8363SOL    HW225989   0.244   2.824   1.822
 8364SOL     OW25990   6.853   4.944   5.099
 8364SOL    HW125991   6.875   4.937   5.196
 8364SOL    HW225992   6.935   4.967   5.047
 8365SOL     OW25993   1.970   3.958   6.086
 8365SOL    HW125994   1.954   3.861   6.070
 8365SOL    HW225995   1.971   4.007   5.998
 8366SOL     OW25996   2.127   6.769   1.524
 8366SOL    HW125997   2.080   6.776   1.612
 8366SOL    HW225998   2.147   6.861   1.490
 8367SOL     OW25999   5.102   5.606   3.593
 8367SOL    HW126000   5.088   5.587   3.690
 8367SOL    HW226001   5.083   5.524   3.539
 8368SOL     OW26002   2.971   5.181   5.895
 8368SOL    HW126003   3.068   5.206   5.894
 8368SOL    HW226004   2.936   5.185   5.989
 8369SOL     OW26005   1.420   1.737   1.937
 8369SOL    HW126006   1.439   1.672   2.010
 8369SOL    HW226007   1.414   1.688   1.850
 8370SOL     OW26008   2.211   1.267   0.440
 8370SOL    HW126009   2.286   1.252   0.504
 8370SOL    HW226010   2.136   1.204   0.460
 8371SOL     OW26011   1.546   2.526   6.994
 8371SOL    HW126012   1.452   2.539   0.004
 8371SOL    HW226013   1.545   2.466   6.914
 8372SOL     OW26014   5.751   0.731   6.932
 8372SOL    HW126015   5.765   0.725   0.010
 8372SOL    HW226016   5.838   0.714   6.886
 8373SOL     OW26017   1.874   6.798   3.656
 8373SOL    HW126018   1.838   6.824   3.746
 8373SOL    HW226019   1.946   6.861   3.629
 8374SOL     OW26020   6.820   1.787   5.653
 8374SOL    HW126021   6.781   1.878   5.640
 8374SOL    HW226022   6.748   1.723   5.680
 8375SOL     OW26023   4.047   0.663   6.250
 8375SOL    HW126024   4.044   0.563   6.241
 8375SOL    HW226025   4.142   0.694   6.245
 8376SOL     OW26026   4.792   0.152   3.928
 8376SOL    HW126027   4.874   0.189   3.886
 8376SOL    HW226028   4.806   0.144   4.027
 8377SOL     OW26029   4.221   4.830   0.196
 8377SOL    HW126030   4.160   4.804   0.121
 8377SOL    HW226031   4.298   4.767   0.200
 8378SOL     OW26032   5.122   3.617   3.273
 8378SOL    HW126033   5.076   3.598   3.186
 8378SOL    HW226034   5.193   3.548   3.288
 8379SOL     OW26035   5.004   2.856   3.005
 8379SOL    HW126036   5.040   2.828   3.094
 8379SOL    HW226037   5.080   2.881   2.945
 8380SOL     OW26038   5.610   1.257   4.030
 8380SOL    HW126039   5.670   1.197   3.977
 8380SOL    HW226040   5.530   1.281   3.974
 8381SOL     OW26041   2.162   4.751   4.982
 8381SOL    HW126042   2.256   4.724   4.962
 8381SOL    HW226043   2.159   4.798   5.070
 8382SOL     OW26044   0.513   4.158   1.531
 8382SOL    HW126045   0.531   4.179   1.435
 8382SOL    HW226046   0.543   4.064   1.550
 8383SOL     OW26047   3.487   1.413   5.440
 8383SOL    HW126048   3.490   1.512   5.422
 8383SOL    HW226049   3.394   1.379   5.423
 8384SOL     OW26050   0.687   0.352   1.469
 8384SOL    HW126051   0.690   0.445   1.431
 8384SOL    HW226052   0.598   0.311   1.449
 8385SOL     OW26053   4.389   2.175   1.361
 8385SOL    HW126054   4.382   2.181   1.261
 8385SOL    HW226055   4.371   2.265   1.401
 8386SOL     OW26056   0.247   2.212   1.839
 8386SOL    HW126057   0.177   2.199   1.768
 8386SOL    HW226058   0.265   2.124   1.884
 8387SOL     OW26059   0.636   2.298   2.845
 8387SOL    HW126060   0.599   2.231   2.910
 8387SOL    HW226061   0.735   2.285   2.835
 8388SOL     OW26062   1.496   6.898   2.703
 8388SOL    HW126063   1.465   6.851   2.786
 8388SOL    HW226064   1.589   6.868   2.680
 8389SOL     OW26065   6.849   2.698   3.895
 8389SOL    HW126066   6.776   2.766   3.883
 8389SOL    HW226067   6.840   2.626   3.826
 8390SOL     OW26068   6.363   2.415   6.665
 8390SOL    HW126069   6.434   2.413   6.594
 8390SOL    HW226070   6.401   2.454   6.749
 8391SOL     OW26071   6.112   0.797   0.698
 8391SOL    HW126072   6.184   0.814   0.766
 8391SOL    HW226073   6.046   0.731   0.735
 8392SOL     OW26074   3.538   2.995   4.701
 8392SOL    HW126075   3.512   3.002   4.604
 8392SOL    HW226076   3.634   2.970   4.708
 8393SOL     OW26077   5.741   0.606   0.585
 8393SOL    HW126078   5.686   0.523   0.578
 8393SOL    HW226079   5.709   0.672   0.517
 8394SOL     OW26080   4.939   3.518   3.090
 8394SOL    HW126081   4.895   3.438   3.129
 8394SOL    HW226082   5.024   3.491   3.045
 8395SOL     OW26083   1.742   1.249   6.119
 8395SOL    HW126084   1.731   1.213   6.211
 8395SOL    HW226085   1.652   1.255   6.075
 8396SOL     OW26086   5.097   5.045   4.215
 8396SOL    HW126087   5.064   5.124   4.164
 8396SOL    HW226088   5.192   5.061   4.242
 8397SOL     OW26089   5.523   6.120   2.664
 8397SOL    HW126090   5.591   6.090   2.598
 8397SOL    HW226091   5.453   6.175   2.617
 8398SOL     OW26092   5.683   1.892   6.228
 8398SOL    HW126093   5.614   1.859   6.164
 8398SOL    HW226094   5.709   1.986   6.204
 8399SOL     OW26095   0.597   4.076   3.145
 8399SOL    HW126096   0.656   4.017   3.199
 8399SOL    HW226097   0.504   4.074   3.181
 8400SOL     OW26098   1.366   0.641   4.114
 8400SOL    HW126099   1.285   0.672   4.064
 8400SOL    HW226100   1.357   0.665   4.210
 8401SOL     OW26101   1.581   0.155   5.909
 8401SOL    HW126102   1.680   0.142   5.906
 8401SOL    HW226103   1.560   0.244   5.949
 8402SOL     OW26104   2.917   0.793   6.094
 8402SOL    HW126105   2.949   0.882   6.061
 8402SOL    HW226106   2.981   0.722   6.063
 8403SOL     OW26107   5.753   4.408   6.190
 8403SOL    HW126108   5.664   4.366   6.207
 8403SOL    HW226109   5.807   4.408   6.274
 8404SOL     OW26110   1.506   1.026   6.995
 8404SOL    HW126111   1.413   1.051   6.968
 8404SOL    HW226112   1.571   1.093   6.959
 8405SOL     OW26113   3.380   6.321   5.559
 8405SOL    HW126114   3.389   6.392   5.629
 8405SOL    HW226115   3.285   6.291   5.554
 8406SOL     OW26116   6.314   1.295   6.150
 8406SOL    HW126117   6.330   1.220   6.215
 8406SOL    HW226118   6.391   1.299   6.086
 8407SOL     OW26119   5.059   0.431   5.249
 8407SOL    HW126120   5.003   0.472   5.322
 8407SOL    HW226121   4.998   0.393   5.179
 8408SOL     OW26122   3.599   2.189   1.356
 8408SOL    HW126123   3.613   2.270   1.413
 8408SOL    HW226124   3.507   2.190   1.318
 8409SOL     OW26125   4.753   2.785   1.954
 8409SOL    HW126126   4.775   2.879   1.978
 8409SOL    HW226127   4.678   2.784   1.888
 8410SOL     OW26128   6.610   2.015   1.469
 8410SOL    HW126129   6.659   1.938   1.429
 8410SOL    HW226130   6.531   1.981   1.521
 8411SOL     OW26131   0.721   5.295   1.551
 8411SOL    HW126132   0.769   5.375   1.514
 8411SOL    HW226133   0.769   5.261   1.632
 8412SOL     OW26134   2.439   2.370   6.730
 8412SOL    HW126135   2.387   2.447   6.766
 8412SOL    HW226136   2.521   2.356   6.785
 8413SOL     OW26137   3.940   5.727   4.833
 8413SOL    HW126138   3.966   5.730   4.930
 8413SOL    HW226139   3.985   5.650   4.789
 8414SOL     OW26140   1.446   0.233   0.962
 8414SOL    HW126141   1.535   0.194   0.942
 8414SOL    HW226142   1.395   0.248   0.877
 8415SOL     OW26143   3.599   1.410   6.178
 8415SOL    HW126144   3.589   1.510   6.183
 8415SOL    HW226145   3.523   1.371   6.127
 8416SOL     OW26146   0.178   2.312   5.328
 8416SOL    HW126147   0.159   2.278   5.236
 8416SOL    HW226148   0.185   2.411   5.327
 8417SOL     OW26149   1.750   3.377   5.993
 8417SOL    HW126150   1.846   3.350   5.989
 8417SOL    HW226151   1.736   3.458   5.936
 8418SOL     OW26152   6.702   6.374   2.692
 8418SOL    HW126153   6.771   6.445   2.677
 8418SOL    HW226154   6.628   6.385   2.626
 8419SOL     OW26155   3.881   1.425   3.700
 8419SOL    HW126156   3.839   1.459   3.784
 8419SOL    HW226157   3.981   1.430   3.709
 8420SOL     OW26158   3.774   1.259   2.479
 8420SOL    HW126159   3.840   1.254   2.553
 8420SOL    HW226160   3.751   1.355   2.460
 8421SOL     OW26161   5.017   0.124   6.567
 8421SOL    HW126162   4.999   0.119   6.468
 8421SOL    HW226163   5.100   0.073   6.588
 8422SOL     OW26164   5.212   1.256   4.107
 8422SOL    HW126165   5.290   1.193   4.110
 8422SOL    HW226166   5.136   1.217   4.160
 8423SOL     OW26167   6.353   5.747   6.968
 8423SOL    HW126168   6.412   5.827   6.976
 8423SOL    HW226169   6.257   5.776   6.967
 8424SOL     OW26170   2.530   0.147   5.267
 8424SOL    HW126171   2.458   0.215   5.257
 8424SOL    HW226172   2.513   0.092   5.349
 8425SOL     OW26173   3.166   2.869   1.952
 8425SOL    HW126174   3.129   2.961   1.937
 8425SOL    HW226175   3.128   2.806   1.886
 8426SOL     OW26176   3.634   3.538   2.030
 8426SOL    HW126177   3.618   3.501   2.121
 8426SOL    HW226178   3.731   3.563   2.021
 8427SOL     OW26179   3.835   4.015   2.686
 8427SOL    HW126180   3.887   3.964   2.617
 8427SOL    HW226181   3.871   3.993   2.777
 8428SOL     OW26182   4.849   1.553   1.666
 8428SOL    HW126183   4.814   1.602   1.586
 8428SOL    HW226184   4.924   1.606   1.706
 8429SOL     OW26185   3.501   5.692   5.214
 8429SOL    HW126186   3.459   5.607   5.184
 8429SOL    HW226187   3.536   5.741   5.134
 8430SOL     OW26188   5.094   6.259   5.882
 8430SOL    HW126189   5.013   6.243   5.938
 8430SOL    HW226190   5.070   6.256   5.785
 8431SOL     OW26191   2.690   3.197   6.306
 8431SOL    HW126192   2.733   3.127   6.364
 8431SOL    HW226193   2.598   3.166   6.279
 8432SOL     OW26194   6.617   5.309   5.714
 8432SOL    HW126195   6.601   5.288   5.810
 8432SOL    HW226196   6.555   5.382   5.684
 8433SOL     OW26197   4.697   2.030   0.416
 8433SOL    HW126198   4.639   2.053   0.494
 8433SOL    HW226199   4.671   1.940   0.381
 8434SOL     OW26200   3.067   6.315   4.291
 8434SOL    HW126201   3.131   6.242   4.315
 8434SOL    HW226202   2.981   6.302   4.340
 8435SOL     OW26203   6.514   1.284   3.690
 8435SOL    HW126204   6.485   1.189   3.696
 8435SOL    HW226205   6.485   1.333   3.772
 8436SOL     OW26206   2.414   4.833   2.562
 8436SOL    HW126207   2.381   4.856   2.654
 8436SOL    HW226208   2.514   4.830   2.563
 8437SOL     OW26209   1.791   5.736   0.192
 8437SOL    HW126210   1.803   5.700   0.284
 8437SOL    HW226211   1.834   5.674   0.126
 8438SOL     OW26212   0.904   4.290   2.269
 8438SOL    HW126213   0.839   4.320   2.338
 8438SOL    HW226214   0.995   4.326   2.290
 8439SOL     OW26215   5.652   4.701   2.791
 8439SOL    HW126216   5.743   4.689   2.831
 8439SOL    HW226217   5.595   4.621   2.814
 8440SOL     OW26218   2.239   1.965   3.159
 8440SOL    HW126219   2.174   1.935   3.228
 8440SOL    HW226220   2.283   2.050   3.188
 8441SOL     OW26221   0.620   2.821   6.084
 8441SOL    HW126222   0.561   2.878   6.027
 8441SOL    HW226223   0.564   2.754   6.133
 8442SOL     OW26224   3.261   2.439   6.250
 8442SOL    HW126225   3.327   2.363   6.251
 8442SOL    HW226226   3.244   2.466   6.155
 8443SOL     OW26227   1.989   3.783   3.106
 8443SOL    HW126228   2.026   3.867   3.147
 8443SOL    HW226229   2.028   3.770   3.015
 8444SOL     OW26230   5.330   6.142   5.319
 8444SOL    HW126231   5.359   6.128   5.414
 8444SOL    HW226232   5.233   6.120   5.310
 8445SOL     OW26233   5.153   6.394   6.364
 8445SOL    HW126234   5.084   6.464   6.384
 8445SOL    HW226235   5.168   6.390   6.265
 8446SOL     OW26236   6.352   6.030   4.329
 8446SOL    HW126237   6.292   5.951   4.319
 8446SOL    HW226238   6.401   6.046   4.243
 8447SOL     OW26239   3.780   2.168   3.756
 8447SOL    HW126240   3.686   2.201   3.746
 8447SOL    HW226241   3.799   2.099   3.686
 8448SOL     OW26242   3.199   7.019   2.441
 8448SOL    HW126243   3.245   6.932   2.423
 8448SOL    HW226244   3.227   0.032   2.530
 8449SOL     OW26245   0.328   2.144   3.961
 8449SOL    HW126246   0.247   2.158   4.018
 8449SOL    HW226247   0.327   2.051   3.925
 8450SOL     OW26248   6.589   1.158   0.463
 8450SOL    HW126249   6.556   1.192   0.551
 8450SOL    HW226250   6.688   1.172   0.456
 8451SOL     OW26251   4.473   2.825   0.452
 8451SOL    HW126252   4.498   2.883   0.375
 8451SOL    HW226253   4.377   2.841   0.476
 8452SOL     OW26254   5.021   0.671   5.894
 8452SOL    HW126255   5.044   0.766   5.912
 8452SOL    HW226256   5.078   0.611   5.951
 8453SOL     OW26257   0.047   0.948   0.141
 8453SOL    HW126258   0.088   0.915   0.055
 8453SOL    HW226259   0.119   0.959   0.210
 8454SOL     OW26260   6.422   5.946   0.177
 8454SOL    HW126261   6.504   5.997   0.151
 8454SOL    HW226262   6.344   5.978   0.124
 8455SOL     OW26263   6.835   0.928   2.861
 8455SOL    HW126264   6.876   0.837   2.870
 8455SOL    HW226265   6.737   0.918   2.846
 8456SOL     OW26266   6.320   0.526   1.811
 8456SOL    HW126267   6.339   0.465   1.734
 8456SOL    HW226268   6.406   0.564   1.845
 8457SOL     OW26269   6.425   6.474   4.968
 8457SOL    HW126270   6.331   6.504   4.982
 8457SOL    HW226271   6.473   6.473   5.056
 8458SOL     OW26272   1.497   6.400   0.925
 8458SOL    HW126273   1.418   6.453   0.955
 8458SOL    HW226274   1.468   6.333   0.857
 8459SOL     OW26275   1.093   5.898   3.932
 8459SOL    HW126276   1.181   5.893   3.885
 8459SOL    HW226277   1.070   5.994   3.950
 8460SOL     OW26278   4.120   3.511   3.854
 8460SOL    HW126279   4.060   3.445   3.899
 8460SOL    HW226280   4.133   3.590   3.914
 8461SOL     OW26281   6.601   3.246   3.879
 8461SOL    HW126282   6.645   3.241   3.969
 8461SOL    HW226283   6.631   3.169   3.823
 8462SOL     OW26284   2.727   2.348   2.282
 8462SOL    HW126285   2.797   2.356   2.210
 8462SOL    HW226286   2.639   2.381   2.247
 8463SOL     OW26287   6.384   0.391   1.595
 8463SOL    HW126288   6.347   0.354   1.509
 8463SOL    HW226289   6.463   0.448   1.575
 8464SOL     OW26290   6.792   1.152   4.898
 8464SOL    HW126291   6.778   1.056   4.920
 8464SOL    HW226292   6.846   1.196   4.971
 8465SOL     OW26293   2.115   0.700   0.180
 8465SOL    HW126294   2.180   0.710   0.256
 8465SOL    HW226295   2.163   0.711   0.093
 8466SOL     OW26296   0.938   6.987   3.820
 8466SOL    HW126297   0.896   0.053   3.798
 8466SOL    HW226298   0.955   6.982   3.918
 8467SOL     OW26299   3.477   5.033   1.299
 8467SOL    HW126300   3.533   5.113   1.321
 8467SOL    HW226301   3.408   5.021   1.371
 8468SOL     OW26302   4.757   2.522   0.118
 8468SOL    HW126303   4.683   2.584   0.145
 8468SOL    HW226304   4.736   2.429   0.148
 8469SOL     OW26305   5.140   1.996   4.853
 8469SOL    HW126306   5.125   1.975   4.756
 8469SOL    HW226307   5.056   1.982   4.904
 8470SOL     OW26308   1.812   3.188   6.992
 8470SOL    HW126309   1.834   3.134   6.911
 8470SOL    HW226310   1.753   3.264   6.967
 8471SOL     OW26311   3.768   1.788   5.637
 8471SOL    HW126312   3.809   1.705   5.676
 8471SOL    HW226313   3.687   1.814   5.689
 8472SOL     OW26314   1.442   5.794   2.507
 8472SOL    HW126315   1.396   5.771   2.421
 8472SOL    HW226316   1.477   5.887   2.502
 8473SOL     OW26317   6.452   5.851   6.667
 8473SOL    HW126318   6.447   5.755   6.639
 8473SOL    HW226319   6.508   5.859   6.749
 8474SOL     OW26320   4.184   6.178   6.985
 8474SOL    HW126321   4.269   6.212   6.944
 8474SOL    HW226322   4.107   6.203   6.928
 8475SOL     OW26323   5.122   1.651   2.560
 8475SOL    HW126324   5.079   1.640   2.470
 8475SOL    HW226325   5.051   1.655   2.631
 8476SOL     OW26326   4.820   0.874   2.864
 8476SOL    HW126327   4.903   0.916   2.901
 8476SOL    HW226328   4.833   0.775   2.858
 8477SOL     OW26329   2.556   1.250   3.488
 8477SOL    HW126330   2.487   1.286   3.551
 8477SOL    HW226331   2.644   1.294   3.504
 8478SOL     OW26332   1.132   2.017   6.387
 8478SOL    HW126333   1.198   1.982   6.454
 8478SOL    HW226334   1.175   2.089   6.333
 8479SOL     OW26335   5.483   6.778   1.861
 8479SOL    HW126336   5.419   6.746   1.930
 8479SOL    HW226337   5.449   6.754   1.770
 8480SOL     OW26338   2.377   0.607   2.117
 8480SOL    HW126339   2.303   0.663   2.154
 8480SOL    HW226340   2.418   0.554   2.191
 8481SOL     OW26341   3.845   0.021   5.975
 8481SOL    HW126342   3.874   0.104   6.023
 8481SOL    HW226343   3.810   0.045   5.884
 8482SOL     OW26344   6.139   0.809   1.474
 8482SOL    HW126345   6.126   0.900   1.513
 8482SOL    HW226346   6.074   0.746   1.516
 8483SOL     OW26347   4.830   6.173   1.407
 8483SOL    HW126348   4.803   6.261   1.367
 8483SOL    HW226349   4.758   6.141   1.468
 8484SOL     OW26350   6.940   4.686   6.026
 8484SOL    HW126351   6.880   4.697   6.105
 8484SOL    HW226352   6.971   4.591   6.021
 8485SOL     OW26353   1.951   3.242   6.383
 8485SOL    HW126354   1.907   3.152   6.390
 8485SOL    HW226355   2.017   3.241   6.308
 8486SOL     OW26356   4.366   0.185   1.496
 8486SOL    HW126357   4.267   0.184   1.508
 8486SOL    HW226358   4.397   0.279   1.478
 8487SOL     OW26359   4.462   0.631   1.052
 8487SOL    HW126360   4.443   0.533   1.043
 8487SOL    HW226361   4.478   0.670   0.961
 8488SOL     OW26362   0.278   4.693   6.353
 8488SOL    HW126363   0.324   4.761   6.409
 8488SOL    HW226364   0.310   4.602   6.379
 8489SOL     OW26365   3.298   0.069   3.213
 8489SOL    HW126366   3.309   6.993   3.197
 8489SOL    HW226367   3.250   0.110   3.135
 8490SOL     OW26368   3.957   5.076   2.329
 8490SOL    HW126369   3.871   5.128   2.335
 8490SOL    HW226370   3.936   4.979   2.314
 8491SOL     OW26371   6.717   0.650   0.794
 8491SOL    HW126372   6.652   0.603   0.733
 8491SOL    HW226373   6.678   0.737   0.823
 8492SOL     OW26374   6.252   4.215   4.388
 8492SOL    HW126375   6.212   4.125   4.406
 8492SOL    HW226376   6.290   4.217   4.296
 8493SOL     OW26377   4.415   3.209   0.766
 8493SOL    HW126378   4.452   3.126   0.723
 8493SOL    HW226379   4.322   3.225   0.733
 8494SOL     OW26380   3.397   6.132   6.389
 8494SOL    HW126381   3.482   6.106   6.343
 8494SOL    HW226382   3.324   6.145   6.321
 8495SOL     OW26383   0.379   3.677   6.144
 8495SOL    HW126384   0.465   3.667   6.094
 8495SOL    HW226385   0.379   3.764   6.193
 8496SOL     OW26386   1.279   1.661   4.579
 8496SOL    HW126387   1.289   1.565   4.553
 8496SOL    HW226388   1.223   1.667   4.662
 8497SOL     OW26389   5.260   3.176   4.845
 8497SOL    HW126390   5.220   3.091   4.809
 8497SOL    HW226391   5.312   3.221   4.772
 8498SOL     OW26392   6.318   1.126   2.295
 8498SOL    HW126393   6.320   1.027   2.309
 8498SOL    HW226394   6.353   1.172   2.377
 8499SOL     OW26395   0.082   4.221   0.891
 8499SOL    HW126396   0.035   4.161   0.826
 8499SOL    HW226397   0.127   4.295   0.841
 8500SOL     OW26398   1.591   1.022   5.094
 8500SOL    HW126399   1.659   1.031   5.021
 8500SOL    HW226400   1.528   0.947   5.072
 8501SOL     OW26401   3.345   3.006   6.332
 8501SOL    HW126402   3.299   3.053   6.257
 8501SOL    HW226403   3.385   2.921   6.299
 8502SOL     OW26404   0.485   6.480   1.318
 8502SOL    HW126405   0.450   6.442   1.232
 8502SOL    HW226406   0.520   6.406   1.376
 8503SOL     OW26407   4.055   5.956   3.377
 8503SOL    HW126408   3.981   6.003   3.330
 8503SOL    HW226409   4.114   6.024   3.422
 8504SOL     OW26410   1.672   5.039   2.842
 8504SOL    HW126411   1.714   5.110   2.786
 8504SOL    HW226412   1.736   4.963   2.854
 8505SOL     OW26413   4.196   1.976   2.533
 8505SOL    HW126414   4.150   1.910   2.473
 8505SOL    HW226415   4.164   2.068   2.512
 8506SOL     OW26416   0.815   5.217   0.553
 8506SOL    HW126417   0.824   5.127   0.511
 8506SOL    HW226418   0.883   5.279   0.513
 8507SOL     OW26419   2.592   0.059   4.176
 8507SOL    HW126420   2.498   0.029   4.192
 8507SOL    HW226421   2.656   7.016   4.217
 8508SOL     OW26422   0.946   3.788   6.202
 8508SOL    HW126423   0.885   3.840   6.262
 8508SOL    HW226424   0.973   3.845   6.124
 8509SOL     OW26425   6.730   2.784   4.322
 8509SOL    HW126426   6.731   2.710   4.255
 8509SOL    HW226427   6.785   2.860   4.287
 8510SOL     OW26428   5.474   6.605   3.354
 8510SOL    HW126429   5.529   6.524   3.334
 8510SOL    HW226430   5.415   6.625   3.276
 8511SOL     OW26431   6.337   4.810   0.770
 8511SOL    HW126432   6.265   4.855   0.718
 8511SOL    HW226433   6.418   4.868   0.771
 8512SOL     OW26434   3.987   2.777   0.833
 8512SOL    HW126435   3.989   2.692   0.886
 8512SOL    HW226436   3.898   2.820   0.843
 8513SOL     OW26437   0.515   3.434   1.015
 8513SOL    HW126438   0.524   3.525   0.975
 8513SOL    HW226439   0.442   3.384   0.969
 8514SOL     OW26440   2.244   2.746   5.080
 8514SOL    HW126441   2.251   2.844   5.098
 8514SOL    HW226442   2.320   2.718   5.021
 8515SOL     OW26443   3.226   1.652   0.217
 8515SOL    HW126444   3.204   1.589   0.292
 8515SOL    HW226445   3.248   1.742   0.254
 8516SOL     OW26446   0.025   3.706   5.507
 8516SOL    HW126447   0.076   3.787   5.477
 8516SOL    HW226448   6.955   3.734   5.538
 8517SOL     OW26449   1.287   2.591   5.819
 8517SOL    HW126450   1.282   2.511   5.759
 8517SOL    HW226451   1.289   2.561   5.914
 8518SOL     OW26452   5.902   5.037   0.393
 8518SOL    HW126453   5.809   5.016   0.423
 8518SOL    HW226454   5.907   5.033   0.293
 8519SOL     OW26455   1.638   4.048   1.567
 8519SOL    HW126456   1.670   3.981   1.634
 8519SOL    HW226457   1.691   4.038   1.482
 8520SOL     OW26458   2.869   3.852   6.509
 8520SOL    HW126459   2.940   3.840   6.439
 8520SOL    HW226460   2.873   3.777   6.574
 8521SOL     OW26461   2.113   0.104   4.821
 8521SOL    HW126462   2.071   0.170   4.760
 8521SOL    HW226463   2.047   0.078   4.892
 8522SOL     OW26464   0.318   0.692   0.258
 8522SOL    HW126465   0.290   0.633   0.182
 8522SOL    HW226466   0.367   0.771   0.222
 8523SOL     OW26467   3.984   2.185   1.777
 8523SOL    HW126468   3.981   2.199   1.876
 8523SOL    HW226469   4.062   2.234   1.738
 8524SOL     OW26470   2.339   6.245   5.010
 8524SOL    HW126471   2.299   6.161   5.048
 8524SOL    HW226472   2.437   6.232   4.996
 8525SOL     OW26473   6.466   2.395   3.363
 8525SOL    HW126474   6.527   2.323   3.331
 8525SOL    HW226475   6.375   2.357   3.381
 8526SOL     OW26476   0.600   4.822   6.413
 8526SOL    HW126477   0.587   4.881   6.333
 8526SOL    HW226478   0.681   4.853   6.464
 8527SOL     OW26479   1.334   0.880   6.499
 8527SOL    HW126480   1.411   0.936   6.528
 8527SOL    HW226481   1.367   0.805   6.442
 8528SOL     OW26482   5.834   6.833   0.294
 8528SOL    HW126483   5.900   6.766   0.260
 8528SOL    HW226484   5.868   6.873   0.379
 8529SOL     OW26485   0.933   6.563   6.865
 8529SOL    HW126486   0.921   6.629   6.792
 8529SOL    HW226487   0.986   6.485   6.832
 8530SOL     OW26488   3.626   3.998   2.901
 8530SOL    HW126489   3.634   3.949   2.987
 8530SOL    HW226490   3.712   4.046   2.882
 8531SOL     OW26491   6.375   5.761   3.512
 8531SOL    HW126492   6.454   5.735   3.568
 8531SOL    HW226493   6.389   5.729   3.418
 8532SOL     OW26494   3.600   5.447   0.489
 8532SOL    HW126495   3.518   5.446   0.545
 8532SOL    HW226496   3.662   5.374   0.519
 8533SOL     OW26497   2.322   5.767   5.688
 8533SOL    HW126498   2.247   5.822   5.725
 8533SOL    HW226499   2.285   5.699   5.625
 8534SOL     OW26500   2.024   3.289   2.021
 8534SOL    HW126501   1.990   3.346   2.095
 8534SOL    HW226502   2.095   3.339   1.970
 8535SOL     OW26503   6.149   6.537   2.065
 8535SOL    HW126504   6.068   6.532   2.007
 8535SOL    HW226505   6.231   6.542   2.007
 8536SOL     OW26506   2.563   0.686   4.341
 8536SOL    HW126507   2.588   0.782   4.326
 8536SOL    HW226508   2.634   0.641   4.395
 8537SOL     OW26509   5.921   1.156   3.245
 8537SOL    HW126510   5.979   1.212   3.304
 8537SOL    HW226511   5.882   1.081   3.298
 8538SOL     OW26512   0.684   2.602   6.784
 8538SOL    HW126513   0.755   2.672   6.801
 8538SOL    HW226514   0.653   2.608   6.690
 8539SOL     OW26515   5.736   3.744   1.909
 8539SOL    HW126516   5.641   3.728   1.935
 8539SOL    HW226517   5.743   3.828   1.856
 8540SOL     OW26518   4.267   0.057   1.119
 8540SOL    HW126519   4.200   0.131   1.125
 8540SOL    HW226520   4.359   0.096   1.113
 8541SOL     OW26521   1.012   3.127   3.107
 8541SOL    HW126522   1.016   3.044   3.052
 8541SOL    HW226523   1.082   3.191   3.076
 8542SOL     OW26524   2.785   5.058   6.448
 8542SOL    HW126525   2.730   5.004   6.512
 8542SOL    HW226526   2.876   5.017   6.440
 8543SOL     OW26527   3.994   1.625   6.789
 8543SOL    HW126528   3.903   1.660   6.810
 8543SOL    HW226529   4.016   1.644   6.693
 8544SOL     OW26530   6.024   2.613   4.577
 8544SOL    HW126531   5.960   2.647   4.646
 8544SOL    HW226532   5.996   2.646   4.487
 8545SOL     OW26533   4.384   0.043   5.534
 8545SOL    HW126534   4.290   0.070   5.514
 8545SOL    HW226535   4.421   0.103   5.606
 8546SOL     OW26536   4.506   1.861   5.936
 8546SOL    HW126537   4.435   1.880   5.867
 8546SOL    HW226538   4.565   1.788   5.903
 8547SOL     OW26539   1.471   4.772   2.250
 8547SOL    HW126540   1.566   4.754   2.275
 8547SOL    HW226541   1.467   4.850   2.188
 8548SOL     OW26542   6.031   2.404   5.553
 8548SOL    HW126543   6.089   2.334   5.512
 8548SOL    HW226544   6.000   2.467   5.482
 8549SOL     OW26545   4.800   2.440   4.696
 8549SOL    HW126546   4.734   2.514   4.696
 8549SOL    HW226547   4.871   2.459   4.628
 8550SOL     OW26548   2.043   4.999   5.430
 8550SOL    HW126549   2.089   4.995   5.519
 8550SOL    HW226550   2.061   5.088   5.387
 8551SOL     OW26551   2.954   5.448   0.600
 8551SOL    HW126552   3.032   5.385   0.610
 8551SOL    HW226553   2.913   5.435   0.510
 8552SOL     OW26554   3.034   6.694   3.513
 8552SOL    HW126555   3.055   6.706   3.610
 8552SOL    HW226556   2.940   6.723   3.495
 8553SOL     OW26557   6.089   5.830   6.916
 8553SOL    HW126558   6.013   5.804   6.975
 8553SOL    HW226559   6.060   5.823   6.820
 8554SOL     OW26560   5.585   3.954   6.975
 8554SOL    HW126561   5.559   3.922   0.045
 8554SOL    HW226562   5.674   3.917   6.950
 8555SOL     OW26563   2.139   6.455   4.377
 8555SOL    HW126564   2.161   6.417   4.287
 8555SOL    HW226565   2.067   6.523   4.367
 8556SOL     OW26566   5.491   0.516   5.682
 8556SOL    HW126567   5.521   0.424   5.661
 8556SOL    HW226568   5.392   0.522   5.675
 8557SOL     OW26569   6.719   1.582   1.316
 8557SOL    HW126570   6.798   1.523   1.296
 8557SOL    HW226571   6.693   1.572   1.412
 8558SOL     OW26572   1.797   4.443   2.221
 8558SOL    HW126573   1.868   4.496   2.175
 8558SOL    HW226574   1.735   4.506   2.270
 8559SOL     OW26575   1.498   1.271   4.879
 8559SOL    HW126576   1.570   1.339   4.867
 8559SOL    HW226577   1.466   1.272   4.973
 8560SOL     OW26578   6.340   3.209   0.216
 8560SOL    HW126579   6.246   3.182   0.236
 8560SOL    HW226580   6.386   3.134   0.168
 8561SOL     OW26581   5.276   6.001   5.935
 8561SOL    HW126582   5.323   5.934   5.993
 8561SOL    HW226583   5.205   6.047   5.988
 8562SOL     OW26584   4.163   1.048   4.898
 8562SOL    HW126585   4.132   0.983   4.829
 8562SOL    HW226586   4.240   1.101   4.862
 8563SOL     OW26587   2.330   2.494   6.077
 8563SOL    HW126588   2.286   2.548   6.150
 8563SOL    HW226589   2.268   2.423   6.046
 8564SOL     OW26590   0.499   5.273   4.498
 8564SOL    HW126591   0.588   5.243   4.534
 8564SOL    HW226592   0.431   5.271   4.572
 8565SOL     OW26593   3.699   0.795   1.322
 8565SOL    HW126594   3.768   0.839   1.266
 8565SOL    HW226595   3.720   0.808   1.419
 8566SOL     OW26596   1.779   4.645   4.271
 8566SOL    HW126597   1.859   4.629   4.328
 8566SOL    HW226598   1.774   4.742   4.246
 8567SOL     OW26599   5.508   6.501   6.491
 8567SOL    HW126600   5.528   6.404   6.480
 8567SOL    HW226601   5.435   6.527   6.428
 8568SOL     OW26602   5.064   6.420   0.569
 8568SOL    HW126603   4.967   6.441   0.575
 8568SOL    HW226604   5.116   6.503   0.548
 8569SOL     OW26605   2.435   0.842   5.122
 8569SOL    HW126606   2.478   0.893   5.196
 8569SOL    HW226607   2.497   0.837   5.044
 8570SOL     OW26608   6.779   4.192   6.003
 8570SOL    HW126609   6.729   4.248   5.937
 8570SOL    HW226610   6.872   4.177   5.969
 8571SOL     OW26611   0.912   4.488   6.891
 8571SOL    HW126612   0.991   4.427   6.880
 8571SOL    HW226613   0.909   4.552   6.814
 8572SOL     OW26614   2.563   4.509   6.647
 8572SOL    HW126615   2.463   4.522   6.642
 8572SOL    HW226616   2.588   4.427   6.597
 8573SOL     OW26617   2.808   5.561   4.117
 8573SOL    HW126618   2.710   5.576   4.104
 8573SOL    HW226619   2.830   5.465   4.103
 8574SOL     OW26620   1.214   4.259   4.194
 8574SOL    HW126621   1.145   4.254   4.266
 8574SOL    HW226622   1.298   4.214   4.224
 8575SOL     OW26623   2.796   3.283   5.834
 8575SOL    HW126624   2.821   3.225   5.756
 8575SOL    HW226625   2.847   3.368   5.829
 8576SOL     OW26626   2.021   0.485   0.315
 8576SOL    HW126627   2.055   0.567   0.268
 8576SOL    HW226628   1.921   0.484   0.310
 8577SOL     OW26629   6.343   5.628   4.731
 8577SOL    HW126630   6.359   5.535   4.763
 8577SOL    HW226631   6.339   5.628   4.631
 8578SOL     OW26632   4.750   0.509   4.472
 8578SOL    HW126633   4.719   0.503   4.567
 8578SOL    HW226634   4.840   0.551   4.470
 8579SOL     OW26635   0.062   4.622   2.639
 8579SOL    HW126636   0.093   4.623   2.734
 8579SOL    HW226637   7.016   4.695   2.626
 8580SOL     OW26638   1.455   6.000   5.836
 8580SOL    HW126639   1.507   6.076   5.877
 8580SOL    HW226640   1.362   6.000   5.873
 8581SOL     OW26641   3.170   3.386   0.023
 8581SOL    HW126642   3.244   3.426   0.078
 8581SOL    HW226643   3.083   3.423   0.053
 8582SOL     OW26644   2.548   5.954   0.261
 8582SOL    HW126645   2.614   5.881   0.244
 8582SOL    HW226646   2.544   6.015   0.182
 8583SOL     OW26647   5.979   6.923   4.043
 8583SOL    HW126648   6.079   6.925   4.045
 8583SOL    HW226649   5.948   6.863   3.970
 8584SOL     OW26650   0.737   5.495   6.045
 8584SOL    HW126651   0.678   5.545   5.982
 8584SOL    HW226652   0.783   5.421   5.996
 8585SOL     OW26653   1.089   0.836   0.749
 8585SOL    HW126654   1.111   0.768   0.819
 8585SOL    HW226655   1.079   0.790   0.660
 8586SOL     OW26656   3.695   5.244   2.866
 8586SOL    HW126657   3.789   5.211   2.869
 8586SOL    HW226658   3.651   5.228   2.955
 8587SOL     OW26659   0.217   1.253   0.810
 8587SOL    HW126660   0.256   1.163   0.831
 8587SOL    HW226661   0.242   1.317   0.882
 8588SOL     OW26662   4.216   3.302   6.717
 8588SOL    HW126663   4.211   3.401   6.710
 8588SOL    HW226664   4.177   3.273   6.804
 8589SOL     OW26665   3.768   1.189   3.764
 8589SOL    HW126666   3.837   1.258   3.743
 8589SOL    HW226667   3.740   1.198   3.860
 8590SOL     OW26668   5.416   3.861   6.003
 8590SOL    HW126669   5.457   3.802   5.933
 8590SOL    HW226670   5.450   3.834   6.093
 8591SOL     OW26671   0.230   2.844   0.769
 8591SOL    HW126672   0.314   2.833   0.715
 8591SOL    HW226673   0.237   2.791   0.853
 8592SOL     OW26674   6.706   5.797   0.444
 8592SOL    HW126675   6.630   5.757   0.392
 8592SOL    HW226676   6.697   5.771   0.540
 8593SOL     OW26677   1.243   4.868   4.178
 8593SOL    HW126678   1.262   4.923   4.259
 8593SOL    HW226679   1.171   4.801   4.198
 8594SOL     OW26680   3.883   3.625   2.620
 8594SOL    HW126681   3.803   3.677   2.651
 8594SOL    HW226682   3.945   3.686   2.571
 8595SOL     OW26683   1.098   2.718   2.470
 8595SOL    HW126684   1.119   2.805   2.425
 8595SOL    HW226685   1.167   2.650   2.444
 8596SOL     OW26686   6.851   4.042   2.860
 8596SOL    HW126687   6.859   4.039   2.960
 8596SOL    HW226688   6.850   3.949   2.824
 8597SOL     OW26689   2.171   1.813   1.088
 8597SOL    HW126690   2.174   1.869   1.171
 8597SOL    HW226691   2.088   1.834   1.037
 8598SOL     OW26692   6.330   2.862   2.133
 8598SOL    HW126693   6.284   2.812   2.207
 8598SOL    HW226694   6.364   2.797   2.065
 8599SOL     OW26695   0.411   2.262   0.977
 8599SOL    HW126696   0.505   2.296   0.975
 8599SOL    HW226697   0.369   2.275   0.887
 8600SOL     OW26698   0.410   2.934   5.917
 8600SOL    HW126699   0.359   2.999   5.862
 8600SOL    HW226700   0.350   2.859   5.945
 8601SOL     OW26701   0.692   0.159   4.386
 8601SOL    HW126702   0.604   0.193   4.354
 8601SOL    HW226703   0.719   0.207   4.469
 8602SOL     OW26704   1.011   6.527   2.024
 8602SOL    HW126705   0.954   6.534   1.942
 8602SOL    HW226706   0.969   6.579   2.098
 8603SOL     OW26707   5.062   4.274   2.266
 8603SOL    HW126708   5.112   4.281   2.352
 8603SOL    HW226709   5.126   4.255   2.191
 8604SOL     OW26710   6.325   2.485   3.892
 8604SOL    HW126711   6.262   2.495   3.969
 8604SOL    HW226712   6.394   2.416   3.914
 8605SOL     OW26713   1.804   5.301   1.306
 8605SOL    HW126714   1.809   5.201   1.305
 8605SOL    HW226715   1.746   5.330   1.382
 8606SOL     OW26716   4.067   5.435   4.947
 8606SOL    HW126717   4.007   5.399   5.018
 8606SOL    HW226718   4.016   5.498   4.889
 8607SOL     OW26719   3.220   6.591   0.563
 8607SOL    HW126720   3.160   6.528   0.611
 8607SOL    HW226721   3.166   6.665   0.522
 8608SOL     OW26722   6.042   6.622   3.804
 8608SOL    HW126723   5.968   6.669   3.755
 8608SOL    HW226724   6.011   6.531   3.831
 8609SOL     OW26725   5.653   6.837   5.409
 8609SOL    HW126726   5.696   6.926   5.426
 8609SOL    HW226727   5.613   6.835   5.317
 8610SOL     OW26728   0.101   0.048   4.768
 8610SOL    HW126729   0.116   6.974   4.792
 8610SOL    HW226730   0.146   0.107   4.835
 8611SOL     OW26731   1.825   1.631   2.729
 8611SOL    HW126732   1.808   1.533   2.730
 8611SOL    HW226733   1.747   1.679   2.770
 8612SOL     OW26734   5.388   3.211   4.618
 8612SOL    HW126735   5.306   3.207   4.562
 8612SOL    HW226736   5.468   3.188   4.563
 8613SOL     OW26737   1.552   1.019   1.163
 8613SOL    HW126738   1.458   1.021   1.129
 8613SOL    HW226739   1.553   0.983   1.256
 8614SOL     OW26740   1.365   2.769   3.754
 8614SOL    HW126741   1.294   2.701   3.774
 8614SOL    HW226742   1.455   2.727   3.766
 8615SOL     OW26743   4.343   2.012   6.343
 8615SOL    HW126744   4.328   1.914   6.332
 8615SOL    HW226745   4.440   2.032   6.332
 8616SOL     OW26746   0.348   3.104   0.717
 8616SOL    HW126747   0.273   3.039   0.734
 8616SOL    HW226748   0.432   3.053   0.699
 8617SOL     OW26749   6.522   3.589   0.512
 8617SOL    HW126750   6.525   3.504   0.563
 8617SOL    HW226751   6.580   3.657   0.557
 8618SOL     OW26752   2.802   1.053   3.211
 8618SOL    HW126753   2.829   0.976   3.153
 8618SOL    HW226754   2.883   1.089   3.257
 8619SOL     OW26755   3.721   5.820   0.705
 8619SOL    HW126756   3.697   5.827   0.609
 8619SOL    HW226757   3.639   5.830   0.761
 8620SOL     OW26758   5.549   5.706   4.213
 8620SOL    HW126759   5.582   5.690   4.305
 8620SOL    HW226760   5.626   5.713   4.150
 8621SOL     OW26761   5.037   1.366   3.862
 8621SOL    HW126762   5.026   1.267   3.852
 8621SOL    HW226763   5.116   1.386   3.920
 8622SOL     OW26764   5.070   4.987   5.705
 8622SOL    HW126765   5.044   5.038   5.788
 8622SOL    HW226766   5.009   4.909   5.693
 8623SOL     OW26767   5.817   1.470   3.978
 8623SOL    HW126768   5.834   1.411   3.899
 8623SOL    HW226769   5.860   1.429   4.059
 8624SOL     OW26770   6.814   2.963   3.360
 8624SOL    HW126771   6.873   2.976   3.440
 8624SOL    HW226772   6.871   2.960   3.278
 8625SOL     OW26773   3.118   1.458   6.792
 8625SOL    HW126774   3.198   1.484   6.737
 8625SOL    HW226775   3.137   1.372   6.840
 8626SOL     OW26776   3.287   3.675   1.752
 8626SOL    HW126777   3.312   3.740   1.680
 8626SOL    HW226778   3.277   3.723   1.839
 8627SOL     OW26779   3.210   0.353   6.320
 8627SOL    HW126780   3.125   0.396   6.291
 8627SOL    HW226781   3.201   0.254   6.313
 8628SOL     OW26782   6.130   0.695   1.881
 8628SOL    HW126783   6.172   0.778   1.918
 8628SOL    HW226784   6.201   0.633   1.849
 8629SOL     OW26785   1.454   6.181   3.673
 8629SOL    HW126786   1.477   6.277   3.687
 8629SOL    HW226787   1.357   6.172   3.651
 8630SOL     OW26788   5.340   4.996   4.401
 8630SOL    HW126789   5.313   5.061   4.471
 8630SOL    HW226790   5.431   5.020   4.366
 8631SOL     OW26791   3.905   0.018   3.179
 8631SOL    HW126792   3.911   0.118   3.172
 8631SOL    HW226793   3.810   7.014   3.198
 8632SOL     OW26794   2.391   0.804   2.921
 8632SOL    HW126795   2.307   0.765   2.959
 8632SOL    HW226796   2.393   0.902   2.942
 8633SOL     OW26797   5.986   6.408   2.826
 8633SOL    HW126798   6.007   6.491   2.776
 8633SOL    HW226799   6.026   6.413   2.918
 8634SOL     OW26800   4.889   6.855   1.175
 8634SOL    HW126801   4.947   6.885   1.099
 8634SOL    HW226802   4.796   6.886   1.159
 8635SOL     OW26803   5.811   4.021   5.371
 8635SOL    HW126804   5.871   4.101   5.377
 8635SOL    HW226805   5.811   3.986   5.277
 8636SOL     OW26806   5.622   4.688   1.497
 8636SOL    HW126807   5.696   4.750   1.524
 8636SOL    HW226808   5.550   4.690   1.566
 8637SOL     OW26809   0.247   0.779   1.800
 8637SOL    HW126810   0.219   0.722   1.722
 8637SOL    HW226811   0.319   0.842   1.772
 8638SOL     OW26812   6.147   4.731   0.977
 8638SOL    HW126813   6.187   4.730   0.886
 8638SOL    HW226814   6.186   4.806   1.030
 8639SOL     OW26815   5.644   2.507   4.014
 8639SOL    HW126816   5.668   2.413   4.039
 8639SOL    HW226817   5.608   2.508   3.920
 8640SOL     OW26818   5.229   5.679   1.167
 8640SOL    HW126819   5.285   5.597   1.163
 8640SOL    HW226820   5.257   5.742   1.094
 8641SOL     OW26821   5.033   5.242   4.031
 8641SOL    HW126822   5.099   5.287   3.971
 8641SOL    HW226823   4.941   5.264   4.001
 8642SOL     OW26824   4.447   1.077   0.914
 8642SOL    HW126825   4.436   1.163   0.964
 8642SOL    HW226826   4.490   1.095   0.826
 8643SOL     OW26827   5.004   0.259   0.456
 8643SOL    HW126828   4.924   0.314   0.478
 8643SOL    HW226829   5.017   0.189   0.527
 8644SOL     OW26830   6.319   2.602   5.597
 8644SOL    HW126831   6.328   2.544   5.678
 8644SOL    HW226832   6.235   2.657   5.604
 8645SOL     OW26833   6.411   3.591   2.097
 8645SOL    HW126834   6.484   3.645   2.140
 8645SOL    HW226835   6.422   3.495   2.121
 8646SOL     OW26836   4.447   6.027   0.282
 8646SOL    HW126837   4.451   6.052   0.186
 8646SOL    HW226838   4.369   5.966   0.298
 8647SOL     OW26839   4.989   4.788   2.072
 8647SOL    HW126840   4.983   4.833   1.982
 8647SOL    HW226841   5.046   4.707   2.065
 8648SOL     OW26842   6.499   0.628   4.602
 8648SOL    HW126843   6.540   0.547   4.645
 8648SOL    HW226844   6.401   0.615   4.593
 8649SOL     OW26845   6.675   3.003   5.454
 8649SOL    HW126846   6.753   3.067   5.460
 8649SOL    HW226847   6.644   2.979   5.546
 8650SOL     OW26848   0.313   5.467   1.777
 8650SOL    HW126849   0.304   5.565   1.793
 8650SOL    HW226850   0.222   5.426   1.768
 8651SOL     OW26851   4.805   3.202   1.008
 8651SOL    HW126852   4.819   3.280   1.068
 8651SOL    HW226853   4.750   3.231   0.929
 8652SOL     OW26854   0.910   2.918   4.762
 8652SOL    HW126855   0.938   2.908   4.667
 8652SOL    HW226856   0.825   2.970   4.767
 8653SOL     OW26857   5.361   3.870   6.366
 8653SOL    HW126858   5.378   3.860   6.464
 8653SOL    HW226859   5.373   3.781   6.321
 8654SOL     OW26860   2.025   4.551   1.841
 8654SOL    HW126861   2.043   4.537   1.939
 8654SOL    HW226862   2.057   4.471   1.790
 8655SOL     OW26863   5.156   6.547   2.914
 8655SOL    HW126864   5.074   6.533   2.970
 8655SOL    HW226865   5.216   6.468   2.922
 8656SOL     OW26866   6.647   2.113   2.107
 8656SOL    HW126867   6.687   2.142   2.194
 8656SOL    HW226868   6.651   2.188   2.041
 8657SOL     OW26869   2.469   5.281   0.803
 8657SOL    HW126870   2.379   5.238   0.811
 8657SOL    HW226871   2.458   5.380   0.799
 8658SOL     OW26872   0.933   6.677   5.430
 8658SOL    HW126873   0.833   6.686   5.430
 8658SOL    HW226874   0.962   6.635   5.344
 8659SOL     OW26875   3.557   6.905   3.904
 8659SOL    HW126876   3.630   6.905   3.972
 8659SOL    HW226877   3.475   6.947   3.942
 8660SOL     OW26878   5.103   4.220   7.013
 8660SOL    HW126879   5.043   4.142   6.995
 8660SOL    HW226880   5.189   4.187   0.029
 8661SOL     OW26881   6.406   2.453   2.517
 8661SOL    HW126882   6.363   2.540   2.492
 8661SOL    HW226883   6.355   2.410   2.591
 8662SOL     OW26884   0.287   0.995   0.311
 8662SOL    HW126885   0.267   1.088   0.343
 8662SOL    HW226886   0.384   0.988   0.287
 8663SOL     OW26887   2.932   5.738   6.900
 8663SOL    HW126888   2.901   5.727   6.806
 8663SOL    HW226889   2.914   5.654   6.951
 8664SOL     OW26890   4.758   3.961   1.404
 8664SOL    HW126891   4.793   3.868   1.391
 8664SOL    HW226892   4.709   3.989   1.321
 8665SOL     OW26893   5.445   5.359   3.783
 8665SOL    HW126894   5.486   5.335   3.871
 8665SOL    HW226895   5.502   5.429   3.738
 8666SOL     OW26896   6.865   4.967   4.672
 8666SOL    HW126897   6.818   5.000   4.590
 8666SOL    HW226898   6.803   4.908   4.724
 8667SOL     OW26899   5.188   3.012   3.302
 8667SOL    HW126900   5.157   3.101   3.335
 8667SOL    HW226901   5.110   2.958   3.270
 8668SOL     OW26902   3.191   0.674   4.695
 8668SOL    HW126903   3.255   0.749   4.678
 8668SOL    HW226904   3.222   0.621   4.774
 8669SOL     OW26905   3.396   6.554   6.651
 8669SOL    HW126906   3.301   6.542   6.621
 8669SOL    HW226907   3.404   6.528   6.747
 8670SOL     OW26908   3.959   5.159   2.876
 8670SOL    HW126909   3.973   5.241   2.822
 8670SOL    HW226910   4.040   5.142   2.932
 8671SOL     OW26911   5.938   5.031   1.037
 8671SOL    HW126912   5.917   5.026   0.940
 8671SOL    HW226913   6.037   5.022   1.050
 8672SOL     OW26914   3.955   5.484   4.710
 8672SOL    HW126915   3.917   5.393   4.728
 8672SOL    HW226916   3.991   5.487   4.617
 8673SOL     OW26917   4.910   2.059   0.002
 8673SOL    HW126918   5.001   2.081   0.037
 8673SOL    HW226919   4.884   2.127   6.955
 8674SOL     OW26920   6.789   0.075   2.353
 8674SOL    HW126921   6.755   0.027   2.434
 8674SOL    HW226922   6.861   0.020   2.310
 8675SOL     OW26923   2.727   2.141   1.953
 8675SOL    HW126924   2.799   2.203   1.985
 8675SOL    HW226925   2.674   2.108   2.032
 8676SOL     OW26926   5.307   1.516   3.824
 8676SOL    HW126927   5.229   1.541   3.881
 8676SOL    HW226928   5.390   1.556   3.862
 8677SOL     OW26929   2.328   3.913   5.431
 8677SOL    HW126930   2.296   3.848   5.361
 8677SOL    HW226931   2.413   3.955   5.401
 8678SOL     OW26932   1.202   1.698   6.043
 8678SOL    HW126933   1.283   1.755   6.029
 8678SOL    HW226934   1.202   1.624   5.975
 8679SOL     OW26935   6.307   2.297   4.896
 8679SOL    HW126936   6.247   2.246   4.835
 8679SOL    HW226937   6.265   2.304   4.987
 8680SOL     OW26938   0.835   2.865   5.940
 8680SOL    HW126939   0.767   2.851   6.011
 8680SOL    HW226940   0.790   2.870   5.850
 8681SOL     OW26941   4.052   4.116   1.489
 8681SOL    HW126942   4.106   4.055   1.547
 8681SOL    HW226943   4.009   4.186   1.545
 8682SOL     OW26944   1.553   5.558   2.576
 8682SOL    HW126945   1.513   5.646   2.552
 8682SOL    HW226946   1.620   5.532   2.507
 8683SOL     OW26947   4.544   3.664   6.301
 8683SOL    HW126948   4.477   3.738   6.301
 8683SOL    HW226949   4.546   3.621   6.392
 8684SOL     OW26950   6.545   2.295   3.870
 8684SOL    HW126951   6.551   2.195   3.874
 8684SOL    HW226952   6.578   2.327   3.781
 8685SOL     OW26953   0.490   2.481   5.460
 8685SOL    HW126954   0.577   2.483   5.510
 8685SOL    HW226955   0.449   2.391   5.469
 8686SOL     OW26956   6.029   0.913   4.684
 8686SOL    HW126957   6.042   0.850   4.608
 8686SOL    HW226958   5.940   0.896   4.726
 8687SOL     OW26959   3.442   1.362   2.712
 8687SOL    HW126960   3.473   1.457   2.710
 8687SOL    HW226961   3.364   1.354   2.773
 8688SOL     OW26962   7.011   6.528   1.884
 8688SOL    HW126963   6.933   6.465   1.879
 8688SOL    HW226964   0.053   6.507   1.810
 8689SOL     OW26965   5.069   4.652   1.806
 8689SOL    HW126966   5.008   4.573   1.804
 8689SOL    HW226967   5.042   4.716   1.734
 8690SOL     OW26968   1.401   0.568   2.024
 8690SOL    HW126969   1.452   0.646   2.061
 8690SOL    HW226970   1.385   0.501   2.097
 8691SOL     OW26971   5.439   1.193   6.579
 8691SOL    HW126972   5.470   1.243   6.660
 8691SOL    HW226973   5.342   1.171   6.589
 8692SOL     OW26974   1.557   1.532   3.458
 8692SOL    HW126975   1.527   1.619   3.418
 8692SOL    HW226976   1.501   1.511   3.539
 8693SOL     OW26977   5.253   2.679   6.478
 8693SOL    HW126978   5.231   2.588   6.442
 8693SOL    HW226979   5.173   2.739   6.470
 8694SOL     OW26980   3.275   0.782   5.947
 8694SOL    HW126981   3.263   0.782   6.046
 8694SOL    HW226982   3.200   0.733   5.904
 8695SOL     OW26983   4.140   3.654   4.852
 8695SOL    HW126984   4.074   3.686   4.784
 8695SOL    HW226985   4.232   3.683   4.827
 8696SOL     OW26986   2.280   5.409   6.755
 8696SOL    HW126987   2.356   5.375   6.700
 8696SOL    HW226988   2.207   5.441   6.695
 8697SOL     OW26989   5.351   5.455   6.763
 8697SOL    HW126990   5.259   5.418   6.748
 8697SOL    HW226991   5.346   5.554   6.772
 8698SOL     OW26992   6.218   5.920   5.838
 8698SOL    HW126993   6.254   5.873   5.757
 8698SOL    HW226994   6.158   5.857   5.889
 8699SOL     OW26995   2.425   1.299   4.235
 8699SOL    HW126996   2.330   1.271   4.219
 8699SOL    HW226997   2.448   1.375   4.173
 8700SOL     OW26998   2.745   0.396   5.810
 8700SOL    HW126999   2.843   0.399   5.832
 8700SOL    HW227000   2.697   0.340   5.879
 8701SOL     OW27001   1.029   0.427   3.225
 8701SOL    HW127002   0.931   0.427   3.204
 8701SOL    HW227003   1.056   0.517   3.256
 8702SOL     OW27004   4.137   0.376   6.241
 8702SOL    HW127005   4.207   0.326   6.191
 8702SOL    HW227006   4.171   0.399   6.332
 8703SOL     OW27007   1.423   4.197   1.467
 8703SOL    HW127008   1.498   4.143   1.505
 8703SOL    HW227009   1.348   4.136   1.440
 8704SOL     OW27010   1.022   4.576   2.488
 8704SOL    HW127011   1.001   4.638   2.412
 8704SOL    HW227012   1.045   4.486   2.451
 8705SOL     OW27013   4.196   6.527   4.563
 8705SOL    HW127014   4.261   6.452   4.561
 8705SOL    HW227015   4.230   6.603   4.508
 8706SOL     OW27016   5.283   6.997   6.633
 8706SOL    HW127017   5.279   6.924   6.565
 8706SOL    HW227018   5.259   6.960   6.723
 8707SOL     OW27019   3.874   1.528   5.354
 8707SOL    HW127020   3.811   1.468   5.304
 8707SOL    HW227021   3.890   1.611   5.301
 8708SOL     OW27022   3.541   1.575   1.147
 8708SOL    HW127023   3.454   1.551   1.188
 8708SOL    HW227024   3.590   1.640   1.206
 8709SOL     OW27025   5.156   3.479   6.654
 8709SOL    HW127026   5.210   3.445   6.730
 8709SOL    HW227027   5.186   3.435   6.569
 8710SOL     OW27028   6.498   3.805   4.160
 8710SOL    HW127029   6.493   3.886   4.218
 8710SOL    HW227030   6.410   3.756   4.164
 8711SOL     OW27031   2.211   1.536   4.096
 8711SOL    HW127032   2.196   1.534   4.195
 8711SOL    HW227033   2.290   1.593   4.075
 8712SOL     OW27034   3.068   0.111   6.628
 8712SOL    HW127035   3.035   0.065   6.711
 8712SOL    HW227036   3.058   0.051   6.549
 8713SOL     OW27037   6.090   5.151   3.166
 8713SOL    HW127038   6.091   5.087   3.244
 8713SOL    HW227039   6.037   5.232   3.190
 8714SOL     OW27040   1.981   0.961   3.696
 8714SOL    HW127041   1.962   1.032   3.764
 8714SOL    HW227042   2.000   1.004   3.607
 8715SOL     OW27043   5.170   0.237   2.751
 8715SOL    HW127044   5.110   0.185   2.690
 8715SOL    HW227045   5.116   0.303   2.803
 8716SOL     OW27046   1.338   0.945   2.430
 8716SOL    HW127047   1.260   0.902   2.476
 8716SOL    HW227048   1.409   0.877   2.412
 8717SOL     OW27049   4.496   3.821   0.504
 8717SOL    HW127050   4.553   3.903   0.500
 8717SOL    HW227051   4.511   3.766   0.422
 8718SOL     OW27052   6.990   2.700   6.111
 8718SOL    HW127053   7.002   2.617   6.056
 8718SOL    HW227054   6.893   2.724   6.115
 8719SOL     OW27055   6.564   0.803   5.520
 8719SOL    HW127056   6.605   0.800   5.611
 8719SOL    HW227057   6.636   0.794   5.451
 8720SOL     OW27058   4.905   3.070   5.512
 8720SOL    HW127059   4.934   3.059   5.417
 8720SOL    HW227060   4.963   3.138   5.558
 8721SOL     OW27061   6.952   0.411   4.909
 8721SOL    HW127062   6.927   0.435   5.002
 8721SOL    HW227063   7.021   0.475   4.875
 8722SOL     OW27064   3.870   2.639   0.317
 8722SOL    HW127065   3.933   2.672   0.247
 8722SOL    HW227066   3.881   2.695   0.400
 8723SOL     OW27067   0.199   5.798   0.739
 8723SOL    HW127068   0.278   5.761   0.788
 8723SOL    HW227069   0.176   5.738   0.663
 8724SOL     OW27070   4.531   6.009   6.291
 8724SOL    HW127071   4.554   6.062   6.372
 8724SOL    HW227072   4.435   5.982   6.295
 8725SOL     OW27073   2.360   6.700   0.181
 8725SOL    HW127074   2.384   6.787   0.225
 8725SOL    HW227075   2.349   6.715   0.082
 8726SOL     OW27076   0.197   6.555   0.476
 8726SOL    HW127077   0.205   6.626   0.547
 8726SOL    HW227078   0.179   6.467   0.519
 8727SOL     OW27079   5.284   6.522   1.783
 8727SOL    HW127080   5.229   6.485   1.707
 8727SOL    HW227081   5.223   6.550   1.857
 8728SOL     OW27082   2.316   5.637   5.439
 8728SOL    HW127083   2.403   5.598   5.409
 8728SOL    HW227084   2.254   5.562   5.465
 8729SOL     OW27085   4.769   5.798   4.548
 8729SOL    HW127086   4.705   5.754   4.611
 8729SOL    HW227087   4.724   5.812   4.460
 8730SOL     OW27088   6.089   6.841   1.185
 8730SOL    HW127089   6.077   6.792   1.271
 8730SOL    HW227090   6.186   6.841   1.160
 8731SOL     OW27091   0.822   1.947   3.429
 8731SOL    HW127092   0.810   2.010   3.506
 8731SOL    HW227093   0.893   1.880   3.450
 8732SOL     OW27094   6.511   6.399   2.515
 8732SOL    HW127095   6.484   6.335   2.444
 8732SOL    HW227096   6.479   6.491   2.491
 8733SOL     OW27097   6.600   0.179   0.315
 8733SOL    HW127098   6.669   0.191   0.387
 8733SOL    HW227099   6.646   0.154   0.230
 8734SOL     OW27100   5.956   6.994   0.768
 8734SOL    HW127101   5.951   6.982   0.867
 8734SOL    HW227102   6.039   0.023   0.744
 8735SOL     OW27103   0.274   3.085   5.730
 8735SOL    HW127104   0.260   3.181   5.755
 8735SOL    HW227105   0.271   3.077   5.630
 8736SOL     OW27106   0.466   5.095   5.847
 8736SOL    HW127107   0.407   5.027   5.891
 8736SOL    HW227108   0.544   5.049   5.804
 8737SOL     OW27109   4.007   5.840   6.881
 8737SOL    HW127110   4.033   5.889   6.964
 8737SOL    HW227111   4.000   5.905   6.805
 8738SOL     OW27112   0.904   3.768   5.071
 8738SOL    HW127113   0.940   3.837   5.134
 8738SOL    HW227114   0.978   3.712   5.036
 8739SOL     OW27115   1.435   3.053   5.247
 8739SOL    HW127116   1.448   2.961   5.210
 8739SOL    HW227117   1.398   3.112   5.176
 8740SOL     OW27118   1.184   6.068   0.413
 8740SOL    HW127119   1.201   6.154   0.365
 8740SOL    HW227120   1.193   5.991   0.349
 8741SOL     OW27121   1.373   3.112   1.856
 8741SOL    HW127122   1.410   3.022   1.877
 8741SOL    HW227123   1.315   3.106   1.775
 8742SOL     OW27124   4.727   4.972   1.715
 8742SOL    HW127125   4.670   5.052   1.698
 8742SOL    HW227126   4.757   4.934   1.628
 8743SOL     OW27127   3.528   5.576   2.341
 8743SOL    HW127128   3.459   5.577   2.269
 8743SOL    HW227129   3.597   5.506   2.321
 8744SOL     OW27130   2.777   3.609   5.555
 8744SOL    HW127131   2.876   3.614   5.546
 8744SOL    HW227132   2.734   3.636   5.469
 8745SOL     OW27133   5.355   1.855   5.633
 8745SOL    HW127134   5.368   1.881   5.728
 8745SOL    HW227135   5.311   1.765   5.629
 8746SOL     OW27136   5.192   3.424   4.929
 8746SOL    HW127137   5.097   3.408   4.955
 8746SOL    HW227138   5.232   3.340   4.892
 8747SOL     OW27139   1.099   1.750   4.209
 8747SOL    HW127140   1.017   1.777   4.160
 8747SOL    HW227141   1.180   1.776   4.157
 8748SOL     OW27142   2.842   1.406   6.784
 8748SOL    HW127143   2.936   1.417   6.753
 8748SOL    HW227144   2.788   1.485   6.754
 8749SOL     OW27145   4.095   0.993   3.961
 8749SOL    HW127146   4.096   0.926   3.887
 8749SOL    HW227147   4.152   1.072   3.936
 8750SOL     OW27148   2.204   6.550   4.799
 8750SOL    HW127149   2.240   6.546   4.893
 8750SOL    HW227150   2.155   6.636   4.786
 8751SOL     OW27151   1.374   6.121   2.722
 8751SOL    HW127152   1.391   6.153   2.629
 8751SOL    HW227153   1.285   6.076   2.726
 8752SOL     OW27154   2.214   0.637   6.635
 8752SOL    HW127155   2.189   0.728   6.668
 8752SOL    HW227156   2.142   0.604   6.573
 8753SOL     OW27157   5.136   2.333   5.129
 8753SOL    HW127158   5.099   2.382   5.050
 8753SOL    HW227159   5.074   2.259   5.155
 8754SOL     OW27160   1.577   0.999   5.388
 8754SOL    HW127161   1.585   1.010   5.289
 8754SOL    HW227162   1.629   1.072   5.433
 8755SOL     OW27163   2.089   2.506   0.823
 8755SOL    HW127164   2.173   2.547   0.789
 8755SOL    HW227165   2.024   2.495   0.747
 8756SOL     OW27166   3.310   4.852   5.025
 8756SOL    HW127167   3.369   4.832   5.104
 8756SOL    HW227168   3.263   4.939   5.040
 8757SOL     OW27169   3.110   5.564   3.269
 8757SOL    HW127170   3.152   5.490   3.323
 8757SOL    HW227171   3.181   5.613   3.219
 8758SOL     OW27172   4.748   6.823   2.089
 8758SOL    HW127173   4.755   6.914   2.048
 8758SOL    HW227174   4.837   6.777   2.085
 8759SOL     OW27175   5.280   0.145   5.758
 8759SOL    HW127176   5.357   0.128   5.821
 8759SOL    HW227177   5.267   0.243   5.747
 8760SOL     OW27178   1.552   2.661   3.449
 8760SOL    HW127179   1.570   2.563   3.444
 8760SOL    HW227180   1.455   2.679   3.434
 8761SOL     OW27181   5.111   5.868   1.596
 8761SOL    HW127182   5.186   5.831   1.540
 8761SOL    HW227183   5.146   5.940   1.655
 8762SOL     OW27184   2.079   5.144   1.467
 8762SOL    HW127185   2.101   5.238   1.495
 8762SOL    HW227186   2.146   5.082   1.507
 8763SOL     OW27187   6.901   5.715   6.856
 8763SOL    HW127188   6.940   5.720   6.764
 8763SOL    HW227189   6.957   5.655   6.913
 8764SOL     OW27190   2.528   2.213   6.518
 8764SOL    HW127191   2.545   2.238   6.613
 8764SOL    HW227192   2.464   2.136   6.515
 8765SOL     OW27193   5.570   0.160   4.897
 8765SOL    HW127194   5.540   0.244   4.853
 8765SOL    HW227195   5.668   0.147   4.880
 8766SOL     OW27196   2.274   4.514   2.919
 8766SOL    HW127197   2.319   4.502   2.830
 8766SOL    HW227198   2.317   4.591   2.967
 8767SOL     OW27199   3.992   0.648   5.527
 8767SOL    HW127200   4.069   0.586   5.545
 8767SOL    HW227201   4.004   0.732   5.579
 8768SOL     OW27202   0.969   4.401   0.894
 8768SOL    HW127203   0.983   4.308   0.861
 8768SOL    HW227204   0.883   4.406   0.945
 8769SOL     OW27205   1.766   0.238   6.512
 8769SOL    HW127206   1.801   0.299   6.583
 8769SOL    HW227207   1.828   0.160   6.500
 8770SOL     OW27208   6.129   2.132   3.283
 8770SOL    HW127209   6.141   2.192   3.204
 8770SOL    HW227210   6.034   2.100   3.287
 8771SOL     OW27211   3.056   3.170   4.988
 8771SOL    HW127212   3.041   3.088   5.044
 8771SOL    HW227213   3.089   3.143   4.898
 8772SOL     OW27214   0.201   0.196   6.752
 8772SOL    HW127215   0.154   0.111   6.776
 8772SOL    HW227216   0.298   0.188   6.775
 8773SOL     OW27217   3.130   1.758   3.238
 8773SOL    HW127218   3.045   1.732   3.192
 8773SOL    HW227219   3.108   1.801   3.326
 8774SOL     OW27220   1.429   1.486   0.672
 8774SOL    HW127221   1.495   1.447   0.736
 8774SOL    HW227222   1.477   1.517   0.590
 8775SOL     OW27223   6.267   6.412   4.034
 8775SOL    HW127224   6.272   6.313   4.050
 8775SOL    HW227225   6.176   6.445   4.057
 8776SOL     OW27226   3.357   3.149   5.644
 8776SOL    HW127227   3.431   3.108   5.696
 8776SOL    HW227228   3.357   3.248   5.658
 8777SOL     OW27229   6.104   5.491   2.899
 8777SOL    HW127230   6.131   5.492   2.995
 8777SOL    HW227231   6.005   5.496   2.892
 8778SOL     OW27232   1.158   2.927   2.955
 8778SOL    HW127233   1.255   2.908   2.938
 8778SOL    HW227234   1.106   2.912   2.871
 8779SOL     OW27235   1.993   4.711   0.895
 8779SOL    HW127236   1.961   4.637   0.837
 8779SOL    HW227237   1.922   4.782   0.902
 8780SOL     OW27238   2.252   6.038   5.134
 8780SOL    HW127239   2.321   5.980   5.177
 8780SOL    HW227240   2.205   6.092   5.204
 8781SOL     OW27241   0.598   2.951   2.656
 8781SOL    HW127242   0.546   3.020   2.604
 8781SOL    HW227243   0.534   2.890   2.703
 8782SOL     OW27244   5.430   1.059   4.146
 8782SOL    HW127245   5.475   1.028   4.230
 8782SOL    HW227246   5.473   1.143   4.115
 8783SOL     OW27247   6.126   2.456   6.351
 8783SOL    HW127248   6.047   2.478   6.295
 8783SOL    HW227249   6.170   2.373   6.316
 8784SOL     OW27250   5.152   4.014   6.335
 8784SOL    HW127251   5.142   4.013   6.236
 8784SOL    HW227252   5.232   3.960   6.361
 8785SOL     OW27253   5.616   4.051   6.000
 8785SOL    HW127254   5.620   4.044   6.100
 8785SOL    HW227255   5.527   4.020   5.968
 8786SOL     OW27256   2.080   5.471   6.584
 8786SOL    HW127257   2.093   5.443   6.489
 8786SOL    HW227258   2.016   5.548   6.587
 8787SOL     OW27259   1.246   2.349   6.785
 8787SOL    HW127260   1.203   2.336   6.696
 8787SOL    HW227261   1.345   2.355   6.773
 8788SOL     OW27262   1.511   1.589   5.065
 8788SOL    HW127263   1.482   1.499   5.095
 8788SOL    HW227264   1.443   1.657   5.093
 8789SOL     OW27265   6.696   1.769   0.367
 8789SOL    HW127266   6.740   1.688   0.328
 8789SOL    HW227267   6.738   1.789   0.456
 8790SOL     OW27268   4.307   1.108   0.326
 8790SOL    HW127269   4.393   1.120   0.276
 8790SOL    HW227270   4.232   1.148   0.273
 8791SOL     OW27271   6.311   6.160   5.889
 8791SOL    HW127272   6.268   6.071   5.879
 8791SOL    HW227273   6.257   6.216   5.952
 8792SOL     OW27274   5.871   6.655   2.501
 8792SOL    HW127275   5.886   6.561   2.469
 8792SOL    HW227276   5.944   6.714   2.468
 8793SOL     OW27277   1.050   5.400   2.829
 8793SOL    HW127278   1.142   5.376   2.796
 8793SOL    HW227279   1.054   5.424   2.926
 8794SOL     OW27280   2.358   6.653   1.938
 8794SOL    HW127281   2.417   6.680   2.015
 8794SOL    HW227282   2.265   6.687   1.954
 8795SOL     OW27283   3.797   6.950   4.583
 8795SOL    HW127284   3.701   6.959   4.556
 8795SOL    HW227285   3.848   0.008   4.551
 8796SOL     OW27286   3.942   1.821   4.523
 8796SOL    HW127287   4.041   1.814   4.533
 8796SOL    HW227288   3.920   1.869   4.438
 8797SOL     OW27289   6.825   5.456   0.448
 8797SOL    HW127290   6.738   5.468   0.495
 8797SOL    HW227291   6.838   5.531   0.382
 8798SOL     OW27292   3.675   3.459   5.739
 8798SOL    HW127293   3.664   3.418   5.649
 8798SOL    HW227294   3.773   3.466   5.761
 8799SOL     OW27295   4.085   0.990   2.266
 8799SOL    HW127296   4.066   1.069   2.208
 8799SOL    HW227297   4.128   0.918   2.212
 8800SOL     OW27298   4.235   3.599   0.710
 8800SOL    HW127299   4.322   3.628   0.750
 8800SOL    HW227300   4.180   3.553   0.780
 8801SOL     OW27301   3.014   0.091   5.662
 8801SOL    HW127302   3.073   0.018   5.628
 8801SOL    HW227303   3.059   0.180   5.649
 8802SOL     OW27304   1.299   6.797   0.736
 8802SOL    HW127305   1.223   6.751   0.782
 8802SOL    HW227306   1.380   6.793   0.795
 8803SOL     OW27307   3.598   6.002   2.339
 8803SOL    HW127308   3.626   6.015   2.433
 8803SOL    HW227309   3.608   6.087   2.288
 8804SOL     OW27310   3.459   0.787   1.231
 8804SOL    HW127311   3.557   0.784   1.250
 8804SOL    HW227312   3.417   0.699   1.254
 8805SOL     OW27313   6.879   0.707   3.655
 8805SOL    HW127314   6.957   0.726   3.715
 8805SOL    HW227315   6.799   0.684   3.710
 8806SOL     OW27316   1.932   5.119   6.547
 8806SOL    HW127317   1.980   5.205   6.536
 8806SOL    HW227318   1.894   5.090   6.459
 8807SOL     OW27319   1.420   5.105   6.311
 8807SOL    HW127320   1.351   5.032   6.315
 8807SOL    HW227321   1.488   5.082   6.241
 8808SOL     OW27322   5.539   2.671   1.157
 8808SOL    HW127323   5.489   2.750   1.122
 8808SOL    HW227324   5.610   2.703   1.220
 8809SOL     OW27325   5.710   4.328   6.937
 8809SOL    HW127326   5.632   4.374   6.894
 8809SOL    HW227327   5.679   4.281   7.020
 8810SOL     OW27328   5.530   1.700   4.241
 8810SOL    HW127329   5.434   1.716   4.266
 8810SOL    HW227330   5.550   1.602   4.249
 8811SOL     OW27331   0.628   0.764   3.420
 8811SOL    HW127332   0.598   0.670   3.408
 8811SOL    HW227333   0.640   0.784   3.517
 8812SOL     OW27334   2.344   0.696   0.333
 8812SOL    HW127335   2.344   0.717   0.431
 8812SOL    HW227336   2.395   0.612   0.317
 8813SOL     OW27337   0.636   5.540   1.189
 8813SOL    HW127338   0.592   5.618   1.145
 8813SOL    HW227339   0.572   5.497   1.253
 8814SOL     OW27340   6.033   0.062   6.121
 8814SOL    HW127341   6.132   0.054   6.114
 8814SOL    HW227342   6.000   0.008   6.198
 8815SOL     OW27343   6.123   4.727   3.281
 8815SOL    HW127344   6.200   4.687   3.231
 8815SOL    HW227345   6.139   4.825   3.293
 8816SOL     OW27346   0.645   5.643   2.229
 8816SOL    HW127347   0.681   5.627   2.321
 8816SOL    HW227348   0.557   5.597   2.219
 8817SOL     OW27349   1.747   4.003   5.051
 8817SOL    HW127350   1.841   3.972   5.067
 8817SOL    HW227351   1.702   3.941   4.987
 8818SOL     OW27352   6.848   4.863   5.391
 8818SOL    HW127353   6.929   4.808   5.414
 8818SOL    HW227354   6.860   4.955   5.427
 8819SOL     OW27355   0.478   1.677   4.400
 8819SOL    HW127356   0.571   1.661   4.366
 8819SOL    HW227357   0.464   1.627   4.485
 8820SOL     OW27358   1.634   2.395   3.443
 8820SOL    HW127359   1.601   2.300   3.441
 8820SOL    HW227360   1.710   2.402   3.507
 8821SOL     OW27361   1.256   6.276   6.995
 8821SOL    HW127362   1.281   6.283   0.070
 8821SOL    HW227363   1.320   6.330   6.940
 8822SOL     OW27364   1.430   1.806   3.606
 8822SOL    HW127365   1.356   1.775   3.546
 8822SOL    HW227366   1.439   1.905   3.600
 8823SOL     OW27367   2.870   5.491   0.317
 8823SOL    HW127368   2.960   5.535   0.319
 8823SOL    HW227369   2.803   5.551   0.360
 8824SOL     OW27370   5.040   4.025   1.483
 8824SOL    HW127371   5.059   4.071   1.570
 8824SOL    HW227372   4.943   4.037   1.461
 8825SOL     OW27373   2.370   1.883   6.447
 8825SOL    HW127374   2.277   1.865   6.479
 8825SOL    HW227375   2.425   1.801   6.457
 8826SOL     OW27376   5.587   7.019   1.224
 8826SOL    HW127377   5.584   0.052   1.140
 8826SOL    HW227378   5.566   0.055   1.303
 8827SOL     OW27379   0.051   1.111   4.299
 8827SOL    HW127380   6.985   1.138   4.259
 8827SOL    HW227381   0.114   1.188   4.297
 8828SOL     OW27382   1.379   5.443   2.774
 8828SOL    HW127383   1.459   5.463   2.717
 8828SOL    HW227384   1.339   5.530   2.805
 8829SOL     OW27385   0.190   0.684   1.283
 8829SOL    HW127386   0.280   0.706   1.322
 8829SOL    HW227387   0.202   0.646   1.191
 8830SOL     OW27388   1.027   1.605   1.441
 8830SOL    HW127389   1.077   1.532   1.488
 8830SOL    HW227390   0.988   1.570   1.356
 8831SOL     OW27391   0.417   0.074   0.985
 8831SOL    HW127392   0.330   0.042   1.023
 8831SOL    HW227393   0.399   0.139   0.912
 8832SOL     OW27394   6.361   0.663   1.386
 8832SOL    HW127395   6.344   0.603   1.464
 8832SOL    HW227396   6.291   0.734   1.384
 8833SOL     OW27397   6.822   5.495   1.062
 8833SOL    HW127398   6.803   5.490   0.964
 8833SOL    HW227399   6.754   5.554   1.106
 8834SOL     OW27400   6.677   4.432   4.869
 8834SOL    HW127401   6.580   4.456   4.876
 8834SOL    HW227402   6.711   4.458   4.778
 8835SOL     OW27403   1.020   2.020   0.644
 8835SOL    HW127404   1.070   2.002   0.729
 8835SOL    HW227405   0.958   2.097   0.659
 8836SOL     OW27406   4.889   2.172   1.315
 8836SOL    HW127407   4.951   2.216   1.380
 8836SOL    HW227408   4.942   2.120   1.248
 8837SOL     OW27409   0.757   2.837   2.205
 8837SOL    HW127410   0.667   2.794   2.205
 8837SOL    HW227411   0.746   2.936   2.195
 8838SOL     OW27412   1.706   6.419   3.176
 8838SOL    HW127413   1.661   6.366   3.247
 8838SOL    HW227414   1.703   6.516   3.199
 8839SOL     OW27415   5.692   5.165   5.110
 8839SOL    HW127416   5.645   5.077   5.118
 8839SOL    HW227417   5.675   5.220   5.192
 8840SOL     OW27418   4.491   0.661   2.111
 8840SOL    HW127419   4.469   0.586   2.173
 8840SOL    HW227420   4.590   0.662   2.095
 8841SOL     OW27421   4.241   0.316   3.104
 8841SOL    HW127422   4.241   0.301   3.202
 8841SOL    HW227423   4.218   0.231   3.057
 8842SOL     OW27424   1.479   1.527   2.111
 8842SOL    HW127425   1.561   1.514   2.055
 8842SOL    HW227426   1.439   1.438   2.131
 8843SOL     OW27427   0.270   2.501   3.680
 8843SOL    HW127428   0.242   2.596   3.663
 8843SOL    HW227429   0.242   2.474   3.772
 8844SOL     OW27430   6.016   1.871   0.047
 8844SOL    HW127431   6.016   1.773   0.026
 8844SOL    HW227432   6.014   1.924   6.984
 8845SOL     OW27433   5.505   2.986   0.243
 8845SOL    HW127434   5.518   3.085   0.238
 8845SOL    HW227435   5.409   2.964   0.224
 8846SOL     OW27436   3.130   4.990   4.339
 8846SOL    HW127437   3.227   4.998   4.363
 8846SOL    HW227438   3.075   4.987   4.422
 8847SOL     OW27439   1.857   1.911   3.862
 8847SOL    HW127440   1.903   1.823   3.872
 8847SOL    HW227441   1.848   1.955   3.952
 8848SOL     OW27442   0.418   1.349   3.964
 8848SOL    HW127443   0.433   1.346   4.063
 8848SOL    HW227444   0.372   1.434   3.940
 8849SOL     OW27445   2.810   6.534   1.810
 8849SOL    HW127446   2.808   6.620   1.760
 8849SOL    HW227447   2.763   6.545   1.898
 8850SOL     OW27448   3.677   1.824   0.347
 8850SOL    HW127449   3.767   1.817   0.389
 8850SOL    HW227450   3.609   1.780   0.406
 8851SOL     OW27451   2.276   3.928   1.103
 8851SOL    HW127452   2.326   3.852   1.059
 8851SOL    HW227453   2.200   3.955   1.045
 8852SOL     OW27454   1.020   2.804   4.991
 8852SOL    HW127455   1.028   2.866   4.913
 8852SOL    HW227456   0.924   2.789   5.012
 8853SOL     OW27457   5.161   0.208   1.975
 8853SOL    HW127458   5.132   0.112   1.976
 8853SOL    HW227459   5.085   0.266   1.943
 8854SOL     OW27460   6.896   3.051   4.847
 8854SOL    HW127461   6.825   3.120   4.832
 8854SOL    HW227462   6.958   3.049   4.768
 8855SOL     OW27463   5.093   4.789   1.254
 8855SOL    HW127464   5.174   4.754   1.206
 8855SOL    HW227465   5.062   4.873   1.209
 8856SOL     OW27466   6.422   0.879   5.005
 8856SOL    HW127467   6.391   0.921   4.920
 8856SOL    HW227468   6.344   0.847   5.057
 8857SOL     OW27469   6.771   2.475   0.115
 8857SOL    HW127470   6.697   2.471   0.182
 8857SOL    HW227471   6.809   2.567   0.112
 8858SOL     OW27472   0.626   5.143   5.271
 8858SOL    HW127473   0.656   5.070   5.211
 8858SOL    HW227474   0.528   5.136   5.288
 8859SOL     OW27475   0.426   6.145   3.676
 8859SOL    HW127476   0.339   6.160   3.628
 8859SOL    HW227477   0.433   6.210   3.752
 8860SOL     OW27478   0.142   2.474   3.261
 8860SOL    HW127479   0.062   2.523   3.228
 8860SOL    HW227480   0.144   2.476   3.361
 8861SOL     OW27481   3.633   2.941   1.011
 8861SOL    HW127482   3.570   2.981   1.077
 8861SOL    HW227483   3.606   2.969   0.919
 8862SOL     OW27484   4.561   4.876   4.823
 8862SOL    HW127485   4.565   4.942   4.749
 8862SOL    HW227486   4.641   4.887   4.882
 8863SOL     OW27487   1.910   3.680   1.638
 8863SOL    HW127488   1.982   3.627   1.684
 8863SOL    HW227489   1.830   3.622   1.624
 8864SOL     OW27490   6.885   2.270   4.700
 8864SOL    HW127491   6.893   2.251   4.798
 8864SOL    HW227492   6.794   2.245   4.668
 8865SOL     OW27493   2.604   1.396   0.748
 8865SOL    HW127494   2.629   1.463   0.819
 8865SOL    HW227495   2.683   1.338   0.728
 8866SOL     OW27496   6.073   1.208   2.179
 8866SOL    HW127497   6.143   1.180   2.244
 8866SOL    HW227498   5.988   1.158   2.198
 8867SOL     OW27499   5.739   2.143   4.339
 8867SOL    HW127500   5.690   2.193   4.268
 8867SOL    HW227501   5.828   2.187   4.354
 8868SOL     OW27502   0.528   2.918   3.972
 8868SOL    HW127503   0.569   2.937   3.883
 8868SOL    HW227504   0.476   2.832   3.967
 8869SOL     OW27505   3.418   0.322   3.263
 8869SOL    HW127506   3.419   0.337   3.164
 8869SOL    HW227507   3.390   0.227   3.281
 8870SOL     OW27508   1.005   0.969   1.373
 8870SOL    HW127509   0.973   0.940   1.283
 8870SOL    HW227510   0.996   1.069   1.381
 8871SOL     OW27511   6.740   6.508   0.088
 8871SOL    HW127512   6.755   6.473   0.180
 8871SOL    HW227513   6.819   6.486   0.030
 8872SOL     OW27514   6.306   5.390   3.335
 8872SOL    HW127515   6.234   5.349   3.392
 8872SOL    HW227516   6.369   5.318   3.305
 8873SOL     OW27517   1.851   1.789   3.353
 8873SOL    HW127518   1.808   1.771   3.442
 8873SOL    HW227519   1.781   1.816   3.287
 8874SOL     OW27520   2.374   6.256   0.920
 8874SOL    HW127521   2.318   6.213   0.990
 8874SOL    HW227522   2.439   6.189   0.883
 8875SOL     OW27523   6.731   2.589   4.134
 8875SOL    HW127524   6.729   2.491   4.114
 8875SOL    HW227525   6.803   2.632   4.080
 8876SOL     OW27526   5.040   0.057   0.701
 8876SOL    HW127527   4.956   0.105   0.728
 8876SOL    HW227528   5.017   6.984   0.677
 8877SOL     OW27529   1.063   4.581   2.003
 8877SOL    HW127530   0.975   4.536   1.990
 8877SOL    HW227531   1.092   4.623   1.917
 8878SOL     OW27532   4.830   4.083   2.256
 8878SOL    HW127533   4.826   4.000   2.201
 8878SOL    HW227534   4.922   4.122   2.250
 8879SOL     OW27535   6.425   4.729   3.610
 8879SOL    HW127536   6.423   4.666   3.532
 8879SOL    HW227537   6.499   4.703   3.672
 8880SOL     OW27538   3.937   1.497   2.679
 8880SOL    HW127539   3.966   1.541   2.764
 8880SOL    HW227540   3.893   1.564   2.619
 8881SOL     OW27541   3.821   6.361   2.853
 8881SOL    HW127542   3.869   6.321   2.775
 8881SOL    HW227543   3.735   6.313   2.867
 8882SOL     OW27544   3.931   1.242   6.996
 8882SOL    HW127545   3.839   1.263   0.007
 8882SOL    HW227546   3.943   1.143   6.989
 8883SOL     OW27547   0.426   6.821   3.066
 8883SOL    HW127548   0.352   6.888   3.079
 8883SOL    HW227549   0.413   6.773   2.979
 8884SOL     OW27550   4.387   1.736   6.147
 8884SOL    HW127551   4.313   1.684   6.103
 8884SOL    HW227552   4.443   1.780   6.077
 8885SOL     OW27553   4.884   5.414   0.626
 8885SOL    HW127554   4.979   5.444   0.622
 8885SOL    HW227555   4.872   5.332   0.571
 8886SOL     OW27556   4.367   6.773   1.060
 8886SOL    HW127557   4.324   6.859   1.031
 8886SOL    HW227558   4.406   6.727   0.981
 8887SOL     OW27559   4.156   0.579   2.626
 8887SOL    HW127560   4.199   0.492   2.649
 8887SOL    HW227561   4.217   0.654   2.652
 8888SOL     OW27562   3.970   1.835   2.111
 8888SOL    HW127563   3.907   1.765   2.144
 8888SOL    HW227564   3.920   1.920   2.095
 8889SOL     OW27565   2.008   4.519   6.824
 8889SOL    HW127566   1.943   4.513   6.749
 8889SOL    HW227567   1.971   4.472   6.904
 8890SOL     OW27568   2.211   5.830   0.068
 8890SOL    HW127569   2.115   5.839   0.093
 8890SOL    HW227570   2.223   5.751   0.008
 8891SOL     OW27571   5.529   3.814   4.955
 8891SOL    HW127572   5.479   3.861   5.027
 8891SOL    HW227573   5.553   3.721   4.985
 8892SOL     OW27574   2.494   5.059   5.747
 8892SOL    HW127575   2.581   5.045   5.795
 8892SOL    HW227576   2.420   5.069   5.814
 8893SOL     OW27577   0.719   4.649   5.021
 8893SOL    HW127578   0.658   4.594   5.079
 8893SOL    HW227579   0.810   4.654   5.063
 8894SOL     OW27580   6.073   2.470   1.850
 8894SOL    HW127581   5.975   2.485   1.867
 8894SOL    HW227582   6.101   2.384   1.892
 8895SOL     OW27583   0.511   3.262   2.166
 8895SOL    HW127584   0.412   3.261   2.148
 8895SOL    HW227585   0.529   3.319   2.247
 8896SOL     OW27586   0.778   0.576   3.741
 8896SOL    HW127587   0.824   0.572   3.830
 8896SOL    HW227588   0.710   0.503   3.735
 8897SOL     OW27589   1.340   4.468   3.901
 8897SOL    HW127590   1.275   4.502   3.968
 8897SOL    HW227591   1.410   4.413   3.947
 8898SOL     OW27592   6.253   5.012   2.191
 8898SOL    HW127593   6.252   4.980   2.286
 8898SOL    HW227594   6.161   5.007   2.153
 8899SOL     OW27595   1.707   4.702   2.354
 8899SOL    HW127596   1.791   4.753   2.340
 8899SOL    HW227597   1.708   4.660   2.445
 8900SOL     OW27598   4.545   1.827   5.005
 8900SOL    HW127599   4.618   1.853   4.941
 8900SOL    HW227600   4.586   1.800   5.092
 8901SOL     OW27601   0.782   5.352   5.629
 8901SOL    HW127602   0.789   5.266   5.580
 8901SOL    HW227603   0.854   5.414   5.598
 8902SOL     OW27604   1.312   3.894   6.677
 8902SOL    HW127605   1.346   3.805   6.709
 8902SOL    HW227606   1.328   3.902   6.579
 8903SOL     OW27607   0.519   1.298   3.715
 8903SOL    HW127608   0.483   1.311   3.807
 8903SOL    HW227609   0.451   1.327   3.648
 8904SOL     OW27610   5.948   0.706   2.285
 8904SOL    HW127611   5.875   0.739   2.345
 8904SOL    HW227612   6.025   0.770   2.288
 8905SOL     OW27613   1.562   5.045   1.502
 8905SOL    HW127614   1.660   5.033   1.515
 8905SOL    HW227615   1.538   5.021   1.408
 8906SOL     OW27616   6.748   1.705   6.515
 8906SOL    HW127617   6.758   1.607   6.496
 8906SOL    HW227618   6.828   1.754   6.481
 8907SOL     OW27619   2.692   2.997   5.407
 8907SOL    HW127620   2.623   2.986   5.335
 8907SOL    HW227621   2.687   3.090   5.444
 8908SOL     OW27622   2.101   6.419   5.395
 8908SOL    HW127623   2.115   6.326   5.362
 8908SOL    HW227624   2.061   6.416   5.487
 8909SOL     OW27625   2.265   6.264   1.836
 8909SOL    HW127626   2.342   6.326   1.855
 8909SOL    HW227627   2.206   6.260   1.916
 8910SOL     OW27628   1.203   0.910   3.891
 8910SOL    HW127629   1.161   0.819   3.894
 8910SOL    HW227630   1.300   0.901   3.865
 8911SOL     OW27631   5.051   2.696   4.389
 8911SOL    HW127632   4.976   2.632   4.370
 8911SOL    HW227633   5.126   2.647   4.433
 8912SOL     OW27634   3.741   3.572   3.428
 8912SOL    HW127635   3.824   3.575   3.371
 8912SOL    HW227636   3.698   3.662   3.428
 8913SOL     OW27637   4.781   5.818   0.368
 8913SOL    HW127638   4.714   5.784   0.434
 8913SOL    HW227639   4.758   5.785   0.277
 8914SOL     OW27640   5.283   4.764   4.859
 8914SOL    HW127641   5.295   4.863   4.867
 8914SOL    HW227642   5.221   4.731   4.931
 8915SOL     OW27643   2.787   1.714   2.893
 8915SOL    HW127644   2.707   1.666   2.929
 8915SOL    HW227645   2.768   1.745   2.800
 8916SOL     OW27646   6.387   6.659   2.482
 8916SOL    HW127647   6.322   6.732   2.505
 8916SOL    HW227648   6.366   6.624   2.391
 8917SOL     OW27649   5.547   2.797   6.948
 8917SOL    HW127650   5.631   2.814   7.000
 8917SOL    HW227651   5.549   2.850   6.863
 8918SOL     OW27652   1.524   3.253   3.028
 8918SOL    HW127653   1.528   3.300   2.940
 8918SOL    HW227654   1.576   3.168   3.023
 8919SOL     OW27655   0.280   2.345   3.025
 8919SOL    HW127656   0.248   2.421   2.967
 8919SOL    HW227657   0.264   2.368   3.121
 8920SOL     OW27658   1.519   1.790   0.363
 8920SOL    HW127659   1.492   1.844   0.443
 8920SOL    HW227660   1.550   1.851   0.290
 8921SOL     OW27661   1.885   1.717   2.276
 8921SOL    HW127662   1.832   1.685   2.354
 8921SOL    HW227663   1.983   1.706   2.295
 8922SOL     OW27664   3.751   5.595   3.635
 8922SOL    HW127665   3.788   5.612   3.544
 8922SOL    HW227666   3.656   5.564   3.628
 8923SOL     OW27667   2.827   2.281   3.911
 8923SOL    HW127668   2.810   2.292   4.009
 8923SOL    HW227669   2.746   2.312   3.860
 8924SOL     OW27670   6.332   4.976   4.388
 8924SOL    HW127671   6.232   4.972   4.400
 8924SOL    HW227672   6.369   4.883   4.389
 8925SOL     OW27673   0.834   6.208   3.992
 8925SOL    HW127674   0.768   6.187   4.064
 8925SOL    HW227675   0.880   6.294   4.013
 8926SOL     OW27676   6.007   2.539   6.886
 8926SOL    HW127677   6.024   2.489   6.802
 8926SOL    HW227678   6.081   2.605   6.901
 8927SOL     OW27679   1.435   1.308   6.249
 8927SOL    HW127680   1.337   1.295   6.267
 8927SOL    HW227681   1.454   1.406   6.238
 8928SOL     OW27682   6.838   6.442   4.838
 8928SOL    HW127683   6.911   6.510   4.834
 8928SOL    HW227684   6.750   6.488   4.843
 8929SOL     OW27685   0.650   1.115   3.321
 8929SOL    HW127686   0.614   1.057   3.394
 8929SOL    HW227687   0.716   1.180   3.360
 8930SOL     OW27688   2.523   5.273   2.358
 8930SOL    HW127689   2.567   5.196   2.310
 8930SOL    HW227690   2.590   5.346   2.372
 8931SOL     OW27691   4.805   3.722   7.009
 8931SOL    HW127692   4.792   3.760   6.918
 8931SOL    HW227693   4.833   3.794   0.050
 8932SOL     OW27694   0.712   3.105   2.159
 8932SOL    HW127695   0.784   3.172   2.137
 8932SOL    HW227696   0.624   3.152   2.162
 8933SOL     OW27697   4.936   2.557   5.689
 8933SOL    HW127698   4.862   2.493   5.668
 8933SOL    HW227699   4.899   2.650   5.690
 8934SOL     OW27700   2.881   6.011   2.481
 8934SOL    HW127701   2.939   5.943   2.525
 8934SOL    HW227702   2.829   6.061   2.550
 8935SOL     OW27703   0.407   5.633   6.736
 8935SOL    HW127704   0.458   5.663   6.655
 8935SOL    HW227705   0.383   5.713   6.791
 8936SOL     OW27706   4.384   3.415   7.003
 8936SOL    HW127707   4.427   3.504   7.011
 8936SOL    HW227708   4.339   3.407   6.915
 8937SOL     OW27709   0.439   1.984   6.699
 8937SOL    HW127710   0.438   1.885   6.692
 8937SOL    HW227711   0.424   2.024   6.609
 8938SOL     OW27712   5.285   5.267   1.670
 8938SOL    HW127713   5.277   5.265   1.770
 8938SOL    HW227714   5.236   5.347   1.634
 8939SOL     OW27715   6.267   1.697   4.705
 8939SOL    HW127716   6.364   1.720   4.721
 8939SOL    HW227717   6.230   1.760   4.636
 8940SOL     OW27718   5.342   6.758   1.621
 8940SOL    HW127719   5.309   6.664   1.627
 8940SOL    HW227720   5.269   6.822   1.644
 8941SOL     OW27721   4.289   1.519   0.295
 8941SOL    HW127722   4.301   1.615   0.270
 8941SOL    HW227723   4.219   1.478   0.236
 8942SOL     OW27724   0.919   2.042   5.652
 8942SOL    HW127725   0.996   2.079   5.600
 8942SOL    HW227726   0.945   2.036   5.748
 8943SOL     OW27727   4.806   3.083   0.304
 8943SOL    HW127728   4.713   3.051   0.289
 8943SOL    HW227729   4.862   3.060   0.225
 8944SOL     OW27730   4.554   5.347   0.697
 8944SOL    HW127731   4.591   5.259   0.667
 8944SOL    HW227732   4.628   5.403   0.735
 8945SOL     OW27733   2.255   0.342   3.813
 8945SOL    HW127734   2.218   0.430   3.783
 8945SOL    HW227735   2.253   0.337   3.913
 8946SOL     OW27736   3.714   0.111   5.446
 8946SOL    HW127737   3.656   0.029   5.439
 8946SOL    HW227738   3.696   0.158   5.532
 8947SOL     OW27739   3.118   3.650   5.799
 8947SOL    HW127740   3.084   3.586   5.868
 8947SOL    HW227741   3.140   3.737   5.842
 8948SOL     OW27742   5.168   5.373   3.799
 8948SOL    HW127743   5.122   5.344   3.716
 8948SOL    HW227744   5.264   5.342   3.797
 8949SOL     OW27745   1.489   5.538   6.196
 8949SOL    HW127746   1.519   5.621   6.149
 8949SOL    HW227747   1.551   5.463   6.174
 8950SOL     OW27748   5.167   2.527   5.334
 8950SOL    HW127749   5.160   2.445   5.277
 8950SOL    HW227750   5.078   2.572   5.340
 8951SOL     OW27751   2.688   1.300   5.451
 8951SOL    HW127752   2.605   1.247   5.467
 8951SOL    HW227753   2.709   1.302   5.354
 8952SOL     OW27754   5.119   6.647   3.347
 8952SOL    HW127755   5.150   6.700   3.426
 8952SOL    HW227756   5.170   6.676   3.266
 8953SOL     OW27757   1.251   5.464   6.449
 8953SOL    HW127758   1.307   5.466   6.367
 8953SOL    HW227759   1.252   5.372   6.488
 8954SOL     OW27760   2.586   6.549   5.934
 8954SOL    HW127761   2.644   6.550   6.015
 8954SOL    HW227762   2.568   6.454   5.907
 8955SOL     OW27763   0.372   3.156   3.972
 8955SOL    HW127764   0.407   3.063   3.988
 8955SOL    HW227765   0.342   3.194   4.059
 8956SOL     OW27766   1.652   0.501   3.828
 8956SOL    HW127767   1.726   0.517   3.893
 8956SOL    HW227768   1.658   0.408   3.791
 8957SOL     OW27769   3.138   5.643   1.837
 8957SOL    HW127770   3.147   5.698   1.920
 8957SOL    HW227771   3.149   5.701   1.757
 8958SOL     OW27772   2.772   0.319   4.888
 8958SOL    HW127773   2.833   0.240   4.893
 8958SOL    HW227774   2.823   0.399   4.858
 8959SOL     OW27775   3.097   5.710   6.613
 8959SOL    HW127776   3.117   5.636   6.549
 8959SOL    HW227777   3.176   5.772   6.617
 8960SOL     OW27778   4.185   5.681   1.096
 8960SOL    HW127779   4.094   5.715   1.070
 8960SOL    HW227780   4.178   5.584   1.118
 8961SOL     OW27781   0.281   2.856   4.704
 8961SOL    HW127782   0.304   2.794   4.629
 8961SOL    HW227783   0.325   2.945   4.687
 8962SOL     OW27784   4.462   0.710   3.759
 8962SOL    HW127785   4.535   0.670   3.703
 8962SOL    HW227786   4.374   0.680   3.724
 8963SOL     OW27787   1.330   0.601   4.397
 8963SOL    HW127788   1.397   0.674   4.390
 8963SOL    HW227789   1.360   0.534   4.465
 8964SOL     OW27790   0.987   2.391   3.509
 8964SOL    HW127791   0.986   2.345   3.421
 8964SOL    HW227792   1.080   2.422   3.530
 8965SOL     OW27793   1.511   4.710   1.393
 8965SOL    HW127794   1.538   4.696   1.488
 8965SOL    HW227795   1.437   4.647   1.370
 8966SOL     OW27796   3.432   2.109   4.615
 8966SOL    HW127797   3.517   2.151   4.645
 8966SOL    HW227798   3.416   2.025   4.666
 8967SOL     OW27799   5.294   6.628   0.607
 8967SOL    HW127800   5.337   6.714   0.636
 8967SOL    HW227801   5.314   6.612   0.511
 8968SOL     OW27802   6.251   4.291   3.757
 8968SOL    HW127803   6.195   4.332   3.684
 8968SOL    HW227804   6.336   4.342   3.766
 8969SOL     OW27805   6.488   0.402   3.977
 8969SOL    HW127806   6.433   0.461   3.918
 8969SOL    HW227807   6.498   0.313   3.934
 8970SOL     OW27808   3.212   3.103   1.629
 8970SOL    HW127809   3.285   3.147   1.681
 8970SOL    HW227810   3.149   3.172   1.594
 8971SOL     OW27811   3.074   6.683   2.808
 8971SOL    HW127812   3.117   6.680   2.718
 8971SOL    HW227813   3.017   6.602   2.821
 8972SOL     OW27814   5.468   0.052   5.954
 8972SOL    HW127815   5.520   0.110   6.016
 8972SOL    HW227816   5.530   7.010   5.908
 8973SOL     OW27817   1.634   4.388   6.343
 8973SOL    HW127818   1.591   4.478   6.344
 8973SOL    HW227819   1.628   4.347   6.434
 8974SOL     OW27820   0.984   2.746   4.251
 8974SOL    HW127821   0.904   2.690   4.228
 8974SOL    HW227822   1.044   2.754   4.172
 8975SOL     OW27823   3.526   0.965   6.489
 8975SOL    HW127824   3.607   0.992   6.541
 8975SOL    HW227825   3.503   1.036   6.423
 8976SOL     OW27826   1.393   6.174   4.216
 8976SOL    HW127827   1.415   6.167   4.313
 8976SOL    HW227828   1.368   6.083   4.181
 8977SOL     OW27829   6.166   2.176   0.455
 8977SOL    HW127830   6.129   2.239   0.522
 8977SOL    HW227831   6.102   2.100   0.441
 8978SOL     OW27832   5.548   4.241   2.577
 8978SOL    HW127833   5.643   4.261   2.602
 8978SOL    HW227834   5.528   4.280   2.487
 8979SOL     OW27835   0.656   4.979   4.910
 8979SOL    HW127836   0.694   4.950   4.998
 8979SOL    HW227837   0.579   4.919   4.886
 8980SOL     OW27838   3.060   3.076   3.895
 8980SOL    HW127839   3.136   3.037   3.843
 8980SOL    HW227840   3.088   3.088   3.990
 8981SOL     OW27841   3.218   2.599   5.362
 8981SOL    HW127842   3.126   2.618   5.397
 8981SOL    HW227843   3.211   2.534   5.286
 8982SOL     OW27844   2.615   4.635   0.097
 8982SOL    HW127845   2.683   4.596   0.034
 8982SOL    HW227846   2.651   4.720   0.136
 8983SOL     OW27847   4.814   4.425   0.926
 8983SOL    HW127848   4.755   4.505   0.916
 8983SOL    HW227849   4.793   4.378   1.011
 8984SOL     OW27850   1.599   6.407   2.376
 8984SOL    HW127851   1.665   6.382   2.305
 8984SOL    HW227852   1.611   6.348   2.456
 8985SOL     OW27853   2.983   3.188   6.518
 8985SOL    HW127854   3.020   3.232   6.436
 8985SOL    HW227855   3.021   3.096   6.526
 8986SOL     OW27856   2.182   6.047   2.236
 8986SOL    HW127857   2.101   6.002   2.198
 8986SOL    HW227858   2.260   6.031   2.176
 8987SOL     OW27859   5.308   6.324   2.590
 8987SOL    HW127860   5.311   6.294   2.495
 8987SOL    HW227861   5.384   6.386   2.608
 8988SOL     OW27862   0.504   4.504   5.205
 8988SOL    HW127863   0.515   4.442   5.126
 8988SOL    HW227864   0.487   4.450   5.287
 8989SOL     OW27865   1.783   2.499   0.108
 8989SOL    HW127866   1.851   2.549   0.054
 8989SOL    HW227867   1.700   2.486   0.053
 8990SOL     OW27868   0.302   4.494   4.449
 8990SOL    HW127869   0.279   4.407   4.405
 8990SOL    HW227870   0.241   4.509   4.526
 8991SOL     OW27871   1.153   2.233   4.912
 8991SOL    HW127872   1.197   2.156   4.959
 8991SOL    HW227873   1.202   2.317   4.932
 8992SOL     OW27874   6.164   1.435   1.768
 8992SOL    HW127875   6.254   1.401   1.741
 8992SOL    HW227876   6.172   1.530   1.797
 8993SOL     OW27877   4.628   2.906   0.888
 8993SOL    HW127878   4.620   2.807   0.895
 8993SOL    HW227879   4.627   2.946   0.980
 8994SOL     OW27880   2.144   5.628   2.269
 8994SOL    HW127881   2.230   5.615   2.219
 8994SOL    HW227882   2.068   5.593   2.214
 8995SOL     OW27883   0.887   0.587   0.960
 8995SOL    HW127884   0.937   0.501   0.969
 8995SOL    HW227885   0.928   0.656   1.021
 8996SOL     OW27886   4.335   6.187   5.921
 8996SOL    HW127887   4.388   6.107   5.893
 8996SOL    HW227888   4.254   6.157   5.973
 8997SOL     OW27889   5.546   6.634   4.689
 8997SOL    HW127890   5.596   6.595   4.612
 8997SOL    HW227891   5.558   6.733   4.689
 8998SOL     OW27892   0.273   4.148   5.322
 8998SOL    HW127893   0.265   4.166   5.224
 8998SOL    HW227894   0.369   4.150   5.348
 8999SOL     OW27895   4.317   6.112   6.572
 8999SOL    HW127896   4.359   6.041   6.628
 8999SOL    HW227897   4.260   6.070   6.501
 9000SOL     OW27898   1.570   3.691   1.215
 9000SOL    HW127899   1.628   3.762   1.254
 9000SOL    HW227900   1.484   3.686   1.265
 9001SOL     OW27901   2.061   5.197   1.015
 9001SOL    HW127902   1.974   5.247   1.020
 9001SOL    HW227903   2.057   5.118   1.076
 9002SOL     OW27904   6.559   6.542   6.438
 9002SOL    HW127905   6.467   6.580   6.449
 9002SOL    HW227906   6.626   6.616   6.433
 9003SOL     OW27907   4.826   6.537   0.812
 9003SOL    HW127908   4.802   6.440   0.815
 9003SOL    HW227909   4.898   6.556   0.879
 9004SOL     OW27910   6.195   4.462   2.022
 9004SOL    HW127911   6.290   4.432   2.029
 9004SOL    HW227912   6.144   4.433   2.104
 9005SOL     OW27913   4.709   1.117   4.973
 9005SOL    HW127914   4.722   1.018   4.969
 9005SOL    HW227915   4.793   1.161   5.007
 9006SOL     OW27916   3.736   6.188   6.686
 9006SOL    HW127917   3.818   6.210   6.738
 9006SOL    HW227918   3.672   6.264   6.691
 9007SOL     OW27919   0.102   0.424   3.513
 9007SOL    HW127920   0.034   0.385   3.451
 9007SOL    HW227921   0.130   0.514   3.479
 9008SOL     OW27922   6.883   4.957   1.945
 9008SOL    HW127923   6.821   5.027   1.910
 9008SOL    HW227924   6.972   4.998   1.966
 9009SOL     OW27925   3.265   6.407   2.473
 9009SOL    HW127926   3.252   6.308   2.463
 9009SOL    HW227927   3.335   6.438   2.410
 9010SOL     OW27928   2.349   4.651   4.545
 9010SOL    HW127929   2.415   4.670   4.619
 9010SOL    HW227930   2.288   4.578   4.573
 9011SOL     OW27931   2.503   1.768   2.113
 9011SOL    HW127932   2.594   1.810   2.106
 9011SOL    HW227933   2.503   1.682   2.062
 9012SOL     OW27934   2.432   6.255   0.333
 9012SOL    HW127935   2.500   6.271   0.404
 9012SOL    HW227936   2.451   6.315   0.255
 9013SOL     OW27937   2.335   0.550   4.643
 9013SOL    HW127938   2.312   0.542   4.546
 9013SOL    HW227939   2.326   0.461   4.687
 9014SOL     OW27940   5.466   3.199   3.073
 9014SOL    HW127941   5.415   3.122   3.035
 9014SOL    HW227942   5.564   3.186   3.057
 9015SOL     OW27943   3.839   6.298   6.452
 9015SOL    HW127944   3.789   6.251   6.525
 9015SOL    HW227945   3.775   6.328   6.381
 9016SOL     OW27946   4.855   4.901   5.955
 9016SOL    HW127947   4.832   4.992   5.990
 9016SOL    HW227948   4.889   4.844   6.030
 9017SOL     OW27949   3.299   0.430   5.690
 9017SOL    HW127950   3.277   0.401   5.784
 9017SOL    HW227951   3.214   0.437   5.638
 9018SOL     OW27952   2.944   5.216   0.228
 9018SOL    HW127953   2.905   5.308   0.226
 9018SOL    HW227954   3.043   5.222   0.237
 9019SOL     OW27955   0.127   4.521   5.050
 9019SOL    HW127956   0.093   4.501   5.142
 9019SOL    HW227957   0.075   4.597   5.011
 9020SOL     OW27958   5.285   5.785   3.544
 9020SOL    HW127959   5.195   5.742   3.546
 9020SOL    HW227960   5.300   5.827   3.454
 9021SOL     OW27961   6.977   1.583   4.477
 9021SOL    HW127962   0.048   1.603   4.445
 9021SOL    HW227963   6.932   1.669   4.504
 9022SOL     OW27964   4.910   3.046   6.574
 9022SOL    HW127965   4.844   3.044   6.649
 9022SOL    HW227966   4.866   3.079   6.491
 9023SOL     OW27967   0.376   4.493   1.240
 9023SOL    HW127968   0.364   4.582   1.283
 9023SOL    HW227969   0.364   4.500   1.142
 9024SOL     OW27970   2.029   4.693   6.301
 9024SOL    HW127971   2.023   4.757   6.225
 9024SOL    HW227972   1.976   4.611   6.281
 9025SOL     OW27973   0.507   6.139   1.879
 9025SOL    HW127974   0.598   6.178   1.862
 9025SOL    HW227975   0.461   6.192   1.950
 9026SOL     OW27976   5.850   1.809   6.723
 9026SOL    HW127977   5.823   1.752   6.645
 9026SOL    HW227978   5.927   1.766   6.770
 9027SOL     OW27979   0.106   4.227   2.874
 9027SOL    HW127980   0.034   4.268   2.817
 9027SOL    HW227981   0.079   4.232   2.970
 9028SOL     OW27982   2.696   4.892   0.127
 9028SOL    HW127983   2.774   4.941   0.089
 9028SOL    HW227984   2.617   4.953   0.131
 9029SOL     OW27985   3.938   6.215   4.839
 9029SOL    HW127986   3.892   6.128   4.859
 9029SOL    HW227987   4.007   6.200   4.768
 9030SOL     OW27988   2.979   2.112   2.188
 9030SOL    HW127989   3.061   2.076   2.143
 9030SOL    HW227990   2.955   2.201   2.149
 9031SOL     OW27991   5.279   6.609   4.679
 9031SOL    HW127992   5.232   6.642   4.761
 9031SOL    HW227993   5.378   6.618   4.692
 9032SOL     OW27994   4.994   3.003   1.038
 9032SOL    HW127995   4.922   3.071   1.031
 9032SOL    HW227996   4.966   2.919   0.991
 9033SOL     OW27997   0.624   5.956   2.641
 9033SOL    HW127998   0.587   5.898   2.714
 9033SOL    HW227999   0.646   5.900   2.562
 9034SOL     OW28000   4.529   6.832   4.838
 9034SOL    HW128001   4.525   6.884   4.753
 9034SOL    HW228002   4.490   6.741   4.823
 9035SOL     OW28003   2.095   5.828   5.809
 9035SOL    HW128004   2.076   5.763   5.884
 9035SOL    HW228005   2.013   5.842   5.755
 9036SOL     OW28006   0.224   4.984   4.569
 9036SOL    HW128007   0.166   4.907   4.594
 9036SOL    HW228008   0.312   4.950   4.535
 9037SOL     OW28009   6.774   0.877   2.504
 9037SOL    HW128010   6.702   0.842   2.444
 9037SOL    HW228011   6.733   0.915   2.587
 9038SOL     OW28012   3.308   3.961   5.722
 9038SOL    HW128013   3.262   4.033   5.669
 9038SOL    HW228014   3.243   3.921   5.787
 9039SOL     OW28015   4.889   6.476   6.180
 9039SOL    HW128016   4.888   6.385   6.139
 9039SOL    HW228017   4.796   6.503   6.204
 9040SOL     OW28018   2.696   2.096   1.205
 9040SOL    HW128019   2.782   2.096   1.153
 9040SOL    HW228020   2.619   2.096   1.142
 9041SOL     OW28021   6.880   2.368   3.682
 9041SOL    HW128022   6.927   2.291   3.639
 9041SOL    HW228023   6.781   2.354   3.674
 9042SOL     OW28024   6.730   5.307   6.565
 9042SOL    HW128025   6.694   5.274   6.477
 9042SOL    HW228026   6.799   5.242   6.599
 9043SOL     OW28027   2.886   2.887   1.632
 9043SOL    HW128028   2.952   2.832   1.684
 9043SOL    HW228029   2.858   2.966   1.687
 9044SOL     OW28030   2.148   1.572   0.179
 9044SOL    HW128031   2.108   1.633   0.247
 9044SOL    HW228032   2.246   1.565   0.193
 9045SOL     OW28033   3.550   0.691   4.421
 9045SOL    HW128034   3.525   0.767   4.481
 9045SOL    HW228035   3.477   0.674   4.356
 9046SOL     OW28036   4.194   3.674   1.822
 9046SOL    HW128037   4.113   3.709   1.775
 9046SOL    HW228038   4.191   3.703   1.918
 9047SOL     OW28039   0.671   4.207   5.596
 9047SOL    HW128040   0.646   4.287   5.651
 9047SOL    HW228041   0.692   4.130   5.656
 9048SOL     OW28042   1.038   2.993   5.373
 9048SOL    HW128043   1.103   3.063   5.404
 9048SOL    HW228044   1.000   2.945   5.452
 9049SOL     OW28045   0.225   6.372   4.880
 9049SOL    HW128046   0.196   6.430   4.803
 9049SOL    HW228047   0.303   6.315   4.852
 9050SOL     OW28048   1.280   4.103   6.838
 9050SOL    HW128049   1.283   4.036   6.763
 9050SOL    HW228050   1.275   4.195   6.800
 9051SOL     OW28051   1.662   0.966   1.677
 9051SOL    HW128052   1.756   0.944   1.702
 9051SOL    HW228053   1.600   0.935   1.749
 9052SOL     OW28054   1.985   2.582   6.931
 9052SOL    HW128055   1.983   2.639   6.849
 9052SOL    HW228056   1.965   2.487   6.907
 9053SOL     OW28057   0.485   1.288   0.528
 9053SOL    HW128058   0.474   1.343   0.610
 9053SOL    HW228059   0.544   1.337   0.463
 9054SOL     OW28060   1.266   5.241   3.202
 9054SOL    HW128061   1.357   5.275   3.176
 9054SOL    HW228062   1.266   5.141   3.203
 9055SOL     OW28063   1.068   2.925   6.930
 9055SOL    HW128064   1.014   2.858   6.880
 9055SOL    HW228065   1.012   3.005   6.950
 9056SOL     OW28066   4.937   1.154   4.187
 9056SOL    HW128067   4.927   1.131   4.284
 9056SOL    HW228068   4.930   1.071   4.132
 9057SOL     OW28069   4.999   1.088   3.831
 9057SOL    HW128070   4.960   1.031   3.903
 9057SOL    HW228071   4.941   1.083   3.750
 9058SOL     OW28072   1.522   6.678   5.883
 9058SOL    HW128073   1.522   6.759   5.941
 9058SOL    HW228074   1.430   6.661   5.848
 9059SOL     OW28075   2.373   2.161   3.472
 9059SOL    HW128076   2.459   2.204   3.442
 9059SOL    HW228077   2.313   2.230   3.513
 9060SOL     OW28078   5.896   2.054   5.513
 9060SOL    HW128079   5.867   2.091   5.602
 9060SOL    HW228080   5.836   2.089   5.441
 9061SOL     OW28081   2.654   4.609   4.116
 9061SOL    HW128082   2.607   4.617   4.204
 9061SOL    HW228083   2.594   4.561   4.051
 9062SOL     OW28084   1.426   6.629   1.241
 9062SOL    HW128085   1.366   6.668   1.171
 9062SOL    HW228086   1.402   6.668   1.330
 9063SOL     OW28087   2.760   1.626   1.960
 9063SOL    HW128088   2.757   1.725   1.947
 9063SOL    HW228089   2.668   1.593   1.981
 9064SOL     OW28090   4.037   3.647   0.518
 9064SOL    HW128091   4.098   3.644   0.597
 9064SOL    HW228092   4.055   3.731   0.466
 9065SOL     OW28093   2.990   1.203   0.571
 9065SOL    HW128094   2.925   1.192   0.646
 9065SOL    HW228095   2.957   1.272   0.507
 9066SOL     OW28096   5.211   6.861   0.390
 9066SOL    HW128097   5.202   6.960   0.389
 9066SOL    HW228098   5.143   6.821   0.452
 9067SOL     OW28099   0.048   0.778   1.992
 9067SOL    HW128100   0.066   0.732   2.078
 9067SOL    HW228101   0.133   0.790   1.941
 9068SOL     OW28102   0.321   6.588   5.891
 9068SOL    HW128103   0.310   6.489   5.895
 9068SOL    HW228104   0.329   6.625   5.983
 9069SOL     OW28105   1.458   2.972   5.523
 9069SOL    HW128106   1.386   2.929   5.577
 9069SOL    HW228107   1.417   3.015   5.443
 9070SOL     OW28108   1.696   4.215   4.748
 9070SOL    HW128109   1.612   4.228   4.695
 9070SOL    HW228110   1.673   4.203   4.845
 9071SOL     OW28111   4.958   5.583   0.084
 9071SOL    HW128112   5.024   5.656   0.097
 9071SOL    HW228113   4.865   5.620   0.092
 9072SOL     OW28114   5.423   4.430   1.007
 9072SOL    HW128115   5.462   4.521   1.022
 9072SOL    HW228116   5.345   4.418   1.068
 9073SOL     OW28117   1.673   6.955   1.249
 9073SOL    HW128118   1.754   7.010   1.229
 9073SOL    HW228119   1.692   6.859   1.225
 9074SOL     OW28120   0.747   1.251   0.717
 9074SOL    HW128121   0.802   1.288   0.642
 9074SOL    HW228122   0.662   1.304   0.725
 9075SOL     OW28123   6.217   0.134   0.785
 9075SOL    HW128124   6.298   0.127   0.727
 9075SOL    HW228125   6.241   0.108   0.878
 9076SOL     OW28126   1.709   2.573   5.873
 9076SOL    HW128127   1.661   2.536   5.794
 9076SOL    HW228128   1.717   2.672   5.864
 9077SOL     OW28129   5.489   5.702   2.125
 9077SOL    HW128130   5.535   5.620   2.160
 9077SOL    HW228131   5.538   5.735   2.044
 9078SOL     OW28132   4.882   2.735   5.142
 9078SOL    HW128133   4.834   2.736   5.054
 9078SOL    HW228134   4.953   2.806   5.142
 9079SOL     OW28135   1.032   0.601   5.697
 9079SOL    HW128136   1.107   0.619   5.634
 9079SOL    HW228137   0.946   0.598   5.646
 9080SOL     OW28138   4.334   1.362   0.714
 9080SOL    HW128139   4.411   1.387   0.773
 9080SOL    HW228140   4.346   1.267   0.683
 9081SOL     OW28141   5.840   6.167   3.999
 9081SOL    HW128142   5.792   6.081   4.011
 9081SOL    HW228143   5.844   6.216   4.086
 9082SOL     OW28144   1.732   0.225   2.002
 9082SOL    HW128145   1.720   0.234   1.904
 9082SOL    HW228146   1.645   0.196   2.044
 9083SOL     OW28147   3.846   4.884   3.086
 9083SOL    HW128148   3.913   4.947   3.046
 9083SOL    HW228149   3.770   4.873   3.022
 9084SOL     OW28150   3.666   3.778   2.688
 9084SOL    HW128151   3.678   3.872   2.719
 9084SOL    HW228152   3.626   3.723   2.762
 9085SOL     OW28153   1.917   1.651   0.757
 9085SOL    HW128154   1.869   1.678   0.674
 9085SOL    HW228155   1.996   1.595   0.732
 9086SOL     OW28156   6.715   3.813   1.163
 9086SOL    HW128157   6.762   3.725   1.160
 9086SOL    HW228158   6.624   3.803   1.123
 9087SOL     OW28159   5.116   4.511   2.104
 9087SOL    HW128160   5.025   4.484   2.136
 9087SOL    HW228161   5.132   4.472   2.014
 9088SOL     OW28162   6.122   4.768   2.101
 9088SOL    HW128163   6.147   4.783   2.196
 9088SOL    HW228164   6.185   4.703   2.059
 9089SOL     OW28165   5.310   0.726   5.815
 9089SOL    HW128166   5.243   0.675   5.760
 9089SOL    HW228167   5.401   0.711   5.778
 9090SOL     OW28168   0.044   2.407   3.885
 9090SOL    HW128169   0.073   2.319   3.923
 9090SOL    HW228170   6.977   2.396   3.840
 9091SOL     OW28171   4.371   2.816   6.136
 9091SOL    HW128172   4.414   2.779   6.218
 9091SOL    HW228173   4.402   2.910   6.121
 9092SOL     OW28174   0.153   3.745   6.007
 9092SOL    HW128175   0.116   3.823   6.058
 9092SOL    HW228176   0.245   3.724   6.042
 9093SOL     OW28177   2.811   6.349   4.449
 9093SOL    HW128178   2.729   6.294   4.431
 9093SOL    HW228179   2.802   6.393   4.539
 9094SOL     OW28180   1.516   4.214   0.323
 9094SOL    HW128181   1.467   4.294   0.357
 9094SOL    HW228182   1.527   4.147   0.396
 9095SOL     OW28183   0.636   0.539   6.396
 9095SOL    HW128184   0.574   0.565   6.322
 9095SOL    HW228185   0.711   0.605   6.401
 9096SOL     OW28186   6.528   4.939   4.101
 9096SOL    HW128187   6.610   4.947   4.044
 9096SOL    HW228188   6.454   4.897   4.048
 9097SOL     OW28189   0.661   3.917   1.228
 9097SOL    HW128190   0.745   3.906   1.282
 9097SOL    HW228191   0.604   3.835   1.238
 9098SOL     OW28192   1.854   5.678   4.177
 9098SOL    HW128193   1.770   5.713   4.135
 9098SOL    HW228194   1.837   5.587   4.215
 9099SOL     OW28195   1.642   0.696   6.390
 9099SOL    HW128196   1.707   0.735   6.456
 9099SOL    HW228197   1.647   0.747   6.305
 9100SOL     OW28198   1.905   5.196   4.404
 9100SOL    HW128199   1.982   5.197   4.468
 9100SOL    HW228200   1.914   5.117   4.343
 9101SOL     OW28201   5.848   2.421   1.320
 9101SOL    HW128202   5.859   2.465   1.230
 9101SOL    HW228203   5.844   2.322   1.308
 9102SOL     OW28204   3.609   1.263   3.127
 9102SOL    HW128205   3.546   1.194   3.093
 9102SOL    HW228206   3.620   1.253   3.226
 9103SOL     OW28207   5.732   1.060   1.558
 9103SOL    HW128208   5.652   1.007   1.532
 9103SOL    HW228209   5.760   1.034   1.651
 9104SOL     OW28210   5.067   2.864   5.646
 9104SOL    HW128211   5.042   2.866   5.742
 9104SOL    HW228212   4.992   2.824   5.592
 9105SOL     OW28213   2.746   0.755   0.397
 9105SOL    HW128214   2.781   0.734   0.306
 9105SOL    HW228215   2.788   0.694   0.464
 9106SOL     OW28216   2.707   2.609   6.130
 9106SOL    HW128217   2.770   2.534   6.148
 9106SOL    HW228218   2.733   2.655   6.045
 9107SOL     OW28219   4.090   0.492   1.246
 9107SOL    HW128220   4.145   0.489   1.330
 9107SOL    HW228221   4.086   0.586   1.212
 9108SOL     OW28222   5.893   6.931   5.170
 9108SOL    HW128223   5.860   6.865   5.238
 9108SOL    HW228224   5.992   6.920   5.159
 9109SOL     OW28225   5.496   3.651   2.863
 9109SOL    HW128226   5.479   3.698   2.949
 9109SOL    HW228227   5.417   3.664   2.802
 9110SOL     OW28228   0.789   6.233   1.866
 9110SOL    HW128229   0.880   6.232   1.825
 9110SOL    HW228230   0.785   6.169   1.942
 9111SOL     OW28231   4.974   3.624   5.498
 9111SOL    HW128232   4.910   3.558   5.538
 9111SOL    HW228233   4.927   3.674   5.425
 9112SOL     OW28234   0.286   4.544   1.571
 9112SOL    HW128235   0.327   4.498   1.651
 9112SOL    HW228236   0.251   4.475   1.508
 9113SOL     OW28237   5.357   6.966   4.762
 9113SOL    HW128238   5.456   6.971   4.749
 9113SOL    HW228239   5.335   6.880   4.809
 9114SOL     OW28240   6.840   1.391   6.186
 9114SOL    HW128241   6.879   1.306   6.150
 9114SOL    HW228242   6.901   1.467   6.163
 9115SOL     OW28243   5.210   3.637   4.753
 9115SOL    HW128244   5.217   3.551   4.803
 9115SOL    HW228245   5.272   3.635   4.675
 9116SOL     OW28246   0.658   5.315   3.189
 9116SOL    HW128247   0.669   5.387   3.121
 9116SOL    HW228248   0.714   5.335   3.270
 9117SOL     OW28249   1.924   6.700   0.019
 9117SOL    HW128250   1.828   6.694   0.045
 9117SOL    HW228251   1.978   6.639   0.078
 9118SOL     OW28252   0.580   5.172   0.924
 9118SOL    HW128253   0.555   5.075   0.934
 9118SOL    HW228254   0.565   5.199   0.829
 9119SOL     OW28255   3.703   2.331   0.855
 9119SOL    HW128256   3.627   2.392   0.834
 9119SOL    HW228257   3.727   2.339   0.952
 9120SOL     OW28258   6.759   4.737   4.758
 9120SOL    HW128259   6.680   4.719   4.816
 9120SOL    HW228260   6.745   4.697   4.668
 9121SOL     OW28261   4.338   1.415   5.449
 9121SOL    HW128262   4.259   1.474   5.430
 9121SOL    HW228263   4.406   1.427   5.377
 9122SOL     OW28264   0.369   1.546   2.218
 9122SOL    HW128265   0.288   1.601   2.199
 9122SOL    HW228266   0.417   1.584   2.297
 9123SOL     OW28267   0.702   6.381   4.769
 9123SOL    HW128268   0.658   6.425   4.847
 9123SOL    HW228269   0.655   6.295   4.749
 9124SOL     OW28270   2.629   5.303   6.948
 9124SOL    HW128271   2.724   5.280   6.969
 9124SOL    HW228272   2.624   5.396   6.911
 9125SOL     OW28273   4.651   6.999   1.728
 9125SOL    HW128274   4.556   6.969   1.738
 9125SOL    HW228275   4.701   6.931   1.674
 9126SOL     OW28276   3.503   5.647   6.776
 9126SOL    HW128277   3.586   5.601   6.743
 9126SOL    HW228278   3.520   5.745   6.782
 9127SOL     OW28279   6.262   4.051   6.549
 9127SOL    HW128280   6.223   4.137   6.580
 9127SOL    HW228281   6.260   4.047   6.449
 9128SOL     OW28282   5.133   3.131   6.744
 9128SOL    HW128283   5.178   3.042   6.743
 9128SOL    HW228284   5.087   3.146   6.657
 9129SOL     OW28285   0.642   2.063   1.381
 9129SOL    HW128286   0.688   2.152   1.379
 9129SOL    HW228287   0.704   1.994   1.417
 9130SOL     OW28288   3.360   4.026   6.524
 9130SOL    HW128289   3.352   3.991   6.617
 9130SOL    HW228290   3.274   4.012   6.475
 9131SOL     OW28291   6.486   3.132   1.231
 9131SOL    HW128292   6.452   3.133   1.325
 9131SOL    HW228293   6.473   3.222   1.190
 9132SOL     OW28294   0.894   4.780   3.901
 9132SOL    HW128295   0.815   4.809   3.954
 9132SOL    HW228296   0.969   4.845   3.914
 9133SOL     OW28297   5.570   6.469   0.479
 9133SOL    HW128298   5.516   6.455   0.396
 9133SOL    HW228299   5.619   6.556   0.474
 9134SOL     OW28300   4.772   3.957   6.475
 9134SOL    HW128301   4.795   3.912   6.389
 9134SOL    HW228302   4.852   4.008   6.508
 9135SOL     OW28303   6.924   4.978   2.455
 9135SOL    HW128304   6.886   5.064   2.488
 9135SOL    HW228305   6.883   4.953   2.368
 9136SOL     OW28306   7.022   5.237   0.466
 9136SOL    HW128307   6.951   5.306   0.449
 9136SOL    HW228308   7.009   5.197   0.557
 9137SOL     OW28309   5.924   5.459   6.516
 9137SOL    HW128310   5.954   5.393   6.447
 9137SOL    HW228311   5.902   5.410   6.600
 9138SOL     OW28312   1.862   4.117   5.407
 9138SOL    HW128313   1.763   4.126   5.393
 9138SOL    HW228314   1.909   4.196   5.369
 9139SOL     OW28315   0.511   6.888   1.409
 9139SOL    HW128316   0.432   6.912   1.465
 9139SOL    HW228317   0.483   6.823   1.338
 9140SOL     OW28318   0.487   4.220   2.759
 9140SOL    HW128319   0.405   4.168   2.737
 9140SOL    HW228320   0.508   4.284   2.684
 9141SOL     OW28321   6.892   5.448   3.979
 9141SOL    HW128322   6.959   5.453   4.053
 9141SOL    HW228323   6.888   5.536   3.931
 9142SOL     OW28324   2.055   5.843   2.989
 9142SOL    HW128325   2.141   5.840   2.938
 9142SOL    HW228326   2.004   5.925   2.962
 9143SOL     OW28327   5.283   3.432   2.555
 9143SOL    HW128328   5.207   3.410   2.617
 9143SOL    HW228329   5.358   3.368   2.571
 9144SOL     OW28330   2.628   4.813   5.384
 9144SOL    HW128331   2.528   4.816   5.387
 9144SOL    HW228332   2.662   4.745   5.448
 9145SOL     OW28333   2.860   5.401   6.339
 9145SOL    HW128334   2.960   5.398   6.332
 9145SOL    HW228335   2.828   5.492   6.312
 9146SOL     OW28336   5.228   0.984   4.471
 9146SOL    HW128337   5.219   0.981   4.570
 9146SOL    HW228338   5.214   1.078   4.439
 9147SOL     OW28339   4.009   0.086   6.696
 9147SOL    HW128340   3.959   0.047   6.619
 9147SOL    HW228341   3.962   0.064   6.781
 9148SOL     OW28342   3.360   6.235   1.741
 9148SOL    HW128343   3.283   6.172   1.742
 9148SOL    HW228344   3.333   6.322   1.782
 9149SOL     OW28345   1.133   3.883   2.273
 9149SOL    HW128346   1.054   3.911   2.218
 9149SOL    HW228347   1.147   3.950   2.346
 9150SOL     OW28348   3.714   3.470   0.164
 9150SOL    HW128349   3.700   3.558   0.119
 9150SOL    HW228350   3.811   3.460   0.188
 9151SOL     OW28351   2.324   4.752   3.499
 9151SOL    HW128352   2.401   4.791   3.549
 9151SOL    HW228353   2.259   4.825   3.477
 9152SOL     OW28354   1.531   5.072   2.454
 9152SOL    HW128355   1.494   5.161   2.481
 9152SOL    HW228356   1.545   5.069   2.355
 9153SOL     OW28357   0.596   3.039   1.295
 9153SOL    HW128358   0.612   3.113   1.231
 9153SOL    HW228359   0.657   3.049   1.374
 9154SOL     OW28360   4.377   5.468   2.246
 9154SOL    HW128361   4.291   5.420   2.231
 9154SOL    HW228362   4.359   5.566   2.255
 9155SOL     OW28363   0.184   0.398   2.067
 9155SOL    HW128364   0.204   0.446   1.982
 9155SOL    HW228365   0.088   0.412   2.092
 9156SOL     OW28366   6.689   4.505   5.593
 9156SOL    HW128367   6.705   4.593   5.548
 9156SOL    HW228368   6.617   4.455   5.544
 9157SOL     OW28369   2.557   4.714   4.708
 9157SOL    HW128370   2.639   4.660   4.725
 9157SOL    HW228371   2.583   4.809   4.690
 9158SOL     OW28372   6.931   2.593   3.534
 9158SOL    HW128373   6.921   2.510   3.589
 9158SOL    HW228374   6.956   2.669   3.593
 9159SOL     OW28375   1.552   0.444   3.255
 9159SOL    HW128376   1.613   0.371   3.286
 9159SOL    HW228377   1.466   0.440   3.306
 9160SOL     OW28378   0.121   3.266   0.027
 9160SOL    HW128379   0.104   3.298   0.120
 9160SOL    HW228380   0.165   3.176   0.030
 9161SOL     OW28381   6.068   3.266   3.294
 9161SOL    HW128382   6.163   3.252   3.324
 9161SOL    HW228383   6.025   3.177   3.278
 9162SOL     OW28384   5.695   2.302   2.073
 9162SOL    HW128385   5.617   2.363   2.091
 9162SOL    HW228386   5.765   2.318   2.143
 9163SOL     OW28387   0.615   3.494   2.932
 9163SOL    HW128388   0.671   3.557   2.878
 9163SOL    HW228389   0.671   3.418   2.964
 9164SOL     OW28390   4.281   0.848   1.011
 9164SOL    HW128391   4.353   0.786   1.039
 9164SOL    HW228392   4.318   0.940   1.000
 9165SOL     OW28393   6.738   0.009   0.107
 9165SOL    HW128394   6.799   0.005   0.187
 9165SOL    HW228395   6.656   6.977   0.125
 9166SOL     OW28396   4.113   5.623   1.418
 9166SOL    HW128397   4.137   5.600   1.324
 9166SOL    HW228398   4.181   5.584   1.480
 9167SOL     OW28399   0.598   3.339   5.393
 9167SOL    HW128400   0.694   3.368   5.401
 9167SOL    HW228401   0.594   3.239   5.393
 9168SOL     OW28402   6.261   6.829   4.864
 9168SOL    HW128403   6.336   6.762   4.865
 9168SOL    HW228404   6.201   6.810   4.786
 9169SOL     OW28405   5.828   5.420   0.326
 9169SOL    HW128406   5.734   5.451   0.319
 9169SOL    HW228407   5.886   5.472   0.263
 9170SOL     OW28408   1.103   6.460   4.564
 9170SOL    HW128409   1.134   6.365   4.555
 9170SOL    HW228410   1.179   6.517   4.596
 9171SOL     OW28411   4.388   5.500   6.383
 9171SOL    HW128412   4.473   5.554   6.377
 9171SOL    HW228413   4.405   5.407   6.350
 9172SOL     OW28414   5.319   0.062   6.221
 9172SOL    HW128415   5.309   6.989   6.191
 9172SOL    HW228416   5.276   0.123   6.154
 9173SOL     OW28417   5.456   4.182   6.901
 9173SOL    HW128418   5.470   4.255   6.968
 9173SOL    HW228419   5.515   4.104   6.924
 9174SOL     OW28420   5.147   5.202   0.150
 9174SOL    HW128421   5.107   5.268   0.214
 9174SOL    HW228422   5.201   5.135   0.202
 9175SOL     OW28423   2.482   0.697   1.661
 9175SOL    HW128424   2.426   0.779   1.653
 9175SOL    HW228425   2.435   0.619   1.620
 9176SOL     OW28426   1.199   6.730   2.088
 9176SOL    HW128427   1.151   6.644   2.070
 9176SOL    HW228428   1.164   6.770   2.173
 9177SOL     OW28429   0.298   5.803   3.338
 9177SOL    HW128430   0.242   5.720   3.335
 9177SOL    HW228431   0.282   5.850   3.425
 9178SOL     OW28432   0.642   2.781   1.185
 9178SOL    HW128433   0.695   2.720   1.244
 9178SOL    HW228434   0.656   2.876   1.214
 9179SOL     OW28435   3.915   6.228   2.629
 9179SOL    HW128436   3.922   6.224   2.529
 9179SOL    HW228437   4.002   6.199   2.670
 9180SOL     OW28438   0.835   1.520   3.864
 9180SOL    HW128439   0.851   1.425   3.837
 9180SOL    HW228440   0.816   1.524   3.962
 9181SOL     OW28441   3.226   1.827   2.332
 9181SOL    HW128442   3.188   1.817   2.424
 9181SOL    HW228443   3.289   1.904   2.329
 9182SOL     OW28444   6.212   0.439   2.461
 9182SOL    HW128445   6.170   0.350   2.478
 9182SOL    HW228446   6.279   0.459   2.532
 9183SOL     OW28447   2.537   1.322   5.729
 9183SOL    HW128448   2.508   1.334   5.824
 9183SOL    HW228449   2.457   1.328   5.669
 9184SOL     OW28450   2.836   6.465   0.105
 9184SOL    HW128451   2.853   6.395   0.174
 9184SOL    HW228452   2.741   6.494   0.109
 9185SOL     OW28453   0.609   1.449   4.806
 9185SOL    HW128454   0.603   1.356   4.842
 9185SOL    HW228455   0.690   1.495   4.845
 9186SOL     OW28456   5.230   6.481   6.052
 9186SOL    HW128457   5.314   6.427   6.064
 9186SOL    HW228458   5.175   6.442   5.979
 9187SOL     OW28459   4.328   3.120   1.292
 9187SOL    HW128460   4.357   3.214   1.274
 9187SOL    HW228461   4.405   3.068   1.330
 9188SOL     OW28462   1.606   0.796   2.479
 9188SOL    HW128463   1.546   0.782   2.559
 9188SOL    HW228464   1.690   0.744   2.491
 9189SOL     OW28465   3.074   0.418   0.226
 9189SOL    HW128466   3.016   0.371   0.292
 9189SOL    HW228467   3.169   0.388   0.237
 9190SOL     OW28468   3.235   0.807   6.221
 9190SOL    HW128469   3.290   0.757   6.288
 9190SOL    HW228470   3.162   0.856   6.268
 9191SOL     OW28471   5.432   0.484   1.744
 9191SOL    HW128472   5.431   0.509   1.841
 9191SOL    HW228473   5.388   0.396   1.731
 9192SOL     OW28474   4.436   4.585   3.065
 9192SOL    HW128475   4.338   4.566   3.076
 9192SOL    HW228476   4.470   4.633   3.146
 9193SOL     OW28477   3.537   3.791   1.896
 9193SOL    HW128478   3.458   3.792   1.957
 9193SOL    HW228479   3.603   3.723   1.927
 9194SOL     OW28480   3.016   5.283   3.124
 9194SOL    HW128481   3.025   5.364   3.181
 9194SOL    HW228482   3.091   5.220   3.143
 9195SOL     OW28483   0.342   3.850   3.434
 9195SOL    HW128484   0.350   3.752   3.420
 9195SOL    HW228485   0.266   3.869   3.496
 9196SOL     OW28486   5.879   5.831   3.094
 9196SOL    HW128487   5.868   5.732   3.104
 9196SOL    HW228488   5.967   5.859   3.133
 9197SOL     OW28489   4.789   2.440   6.501
 9197SOL    HW128490   4.721   2.434   6.428
 9197SOL    HW228491   4.742   2.449   6.589
 9198SOL     OW28492   6.779   4.065   5.144
 9198SOL    HW128493   6.849   4.135   5.133
 9198SOL    HW228494   6.782   4.029   5.238
 9199SOL     OW28495   0.513   3.336   6.741
 9199SOL    HW128496   0.419   3.367   6.753
 9199SOL    HW228497   0.550   3.373   6.655
 9200SOL     OW28498   4.342   5.812   2.041
 9200SOL    HW128499   4.438   5.815   2.069
 9200SOL    HW228500   4.335   5.769   1.951
 9201SOL     OW28501   0.222   3.014   2.814
 9201SOL    HW128502   0.262   2.943   2.755
 9201SOL    HW228503   0.228   2.986   2.909
 9202SOL     OW28504   2.053   6.245   3.287
 9202SOL    HW128505   2.041   6.147   3.300
 9202SOL    HW228506   2.074   6.264   3.191
 9203SOL     OW28507   5.736   2.451   0.431
 9203SOL    HW128508   5.772   2.397   0.507
 9203SOL    HW228509   5.767   2.546   0.440
 9204SOL     OW28510   5.290   3.807   1.691
 9204SOL    HW128511   5.221   3.796   1.620
 9204SOL    HW228512   5.378   3.830   1.648
 9205SOL     OW28513   4.693   2.656   0.514
 9205SOL    HW128514   4.776   2.633   0.462
 9205SOL    HW228515   4.637   2.719   0.460
 9206SOL     OW28516   0.149   0.585   4.864
 9206SOL    HW128517   0.134   0.682   4.882
 9206SOL    HW228518   0.218   0.549   4.927
 9207SOL     OW28519   6.134   6.385   0.430
 9207SOL    HW128520   6.068   6.318   0.464
 9207SOL    HW228521   6.112   6.475   0.468
 9208SOL     OW28522   6.121   3.782   1.467
 9208SOL    HW128523   6.049   3.851   1.462
 9208SOL    HW228524   6.083   3.696   1.500
 9209SOL     OW28525   5.003   0.624   4.417
 9209SOL    HW128526   5.041   0.701   4.366
 9209SOL    HW228527   5.023   0.539   4.368
 9210SOL     OW28528   1.395   6.597   0.553
 9210SOL    HW128529   1.309   6.546   0.556
 9210SOL    HW228530   1.391   6.673   0.617
 9211SOL     OW28531   4.779   0.800   6.349
 9211SOL    HW128532   4.836   0.839   6.422
 9211SOL    HW228533   4.818   0.823   6.260
 9212SOL     OW28534   5.867   3.314   6.108
 9212SOL    HW128535   5.850   3.323   6.010
 9212SOL    HW228536   5.810   3.380   6.158
 9213SOL     OW28537   0.199   6.980   3.136
 9213SOL    HW128538   0.177   0.043   3.184
 9213SOL    HW228539   0.191   6.994   3.038
 9214SOL     OW28540   1.677   1.279   5.313
 9214SOL    HW128541   1.736   1.200   5.297
 9214SOL    HW228542   1.720   1.361   5.274
 9215SOL     OW28543   6.729   4.284   3.882
 9215SOL    HW128544   6.695   4.191   3.889
 9215SOL    HW228545   6.820   4.283   3.841
 9216SOL     OW28546   1.748   6.690   3.230
 9216SOL    HW128547   1.745   6.718   3.326
 9216SOL    HW228548   1.740   6.771   3.172
 9217SOL     OW28549   4.259   1.850   0.382
 9217SOL    HW128550   4.291   1.940   0.412
 9217SOL    HW228551   4.303   1.826   0.295
 9218SOL     OW28552   5.345   5.672   6.229
 9218SOL    HW128553   5.281   5.640   6.298
 9218SOL    HW228554   5.302   5.745   6.175
 9219SOL     OW28555   3.520   2.910   5.603
 9219SOL    HW128556   3.558   2.982   5.546
 9219SOL    HW228557   3.425   2.892   5.575
 9220SOL     OW28558   6.970   6.666   3.474
 9220SOL    HW128559   0.036   6.632   3.439
 9220SOL    HW228560   6.985   6.745   3.532
 9221SOL     OW28561   2.898   1.199   2.257
 9221SOL    HW128562   2.945   1.132   2.200
 9221SOL    HW228563   2.811   1.223   2.214
 9222SOL     OW28564   2.356   6.304   2.769
 9222SOL    HW128565   2.332   6.378   2.706
 9222SOL    HW228566   2.317   6.218   2.737
 9223SOL     OW28567   5.717   3.178   5.170
 9223SOL    HW128568   5.760   3.099   5.128
 9223SOL    HW228569   5.631   3.199   5.123
 9224SOL     OW28570   2.033   5.843   2.420
 9224SOL    HW128571   2.067   5.753   2.394
 9224SOL    HW228572   2.102   5.889   2.477
 9225SOL     OW28573   0.098   5.990   5.205
 9225SOL    HW128574   0.153   6.070   5.182
 9225SOL    HW228575   0.027   5.977   5.136
 9226SOL     OW28576   6.862   6.250   4.649
 9226SOL    HW128577   6.855   6.319   4.722
 9226SOL    HW228578   6.936   6.187   4.670
 9227SOL     OW28579   4.923   2.847   0.819
 9227SOL    HW128580   4.887   2.770   0.766
 9227SOL    HW228581   4.861   2.926   0.810
 9228SOL     OW28582   3.478   3.775   3.811
 9228SOL    HW128583   3.488   3.848   3.878
 9228SOL    HW228584   3.497   3.811   3.719
 9229SOL     OW28585   6.873   5.758   1.712
 9229SOL    HW128586   6.841   5.665   1.695
 9229SOL    HW228587   6.891   5.804   1.624
 9230SOL     OW28588   3.126   6.347   5.353
 9230SOL    HW128589   3.214   6.321   5.315
 9230SOL    HW228590   3.116   6.306   5.444
 9231SOL     OW28591   4.935   5.438   1.850
 9231SOL    HW128592   4.933   5.524   1.800
 9231SOL    HW228593   4.923   5.456   1.948
 9232SOL     OW28594   1.214   4.888   1.350
 9232SOL    HW128595   1.120   4.905   1.379
 9232SOL    HW228596   1.264   4.843   1.423
 9233SOL     OW28597   1.099   0.853   6.372
 9233SOL    HW128598   1.088   0.780   6.305
 9233SOL    HW228599   1.182   0.837   6.425
 9234SOL     OW28600   2.730   3.880   0.708
 9234SOL    HW128601   2.798   3.845   0.771
 9234SOL    HW228602   2.685   3.960   0.748
 9235SOL     OW28603   1.117   2.151   2.852
 9235SOL    HW128604   1.163   2.198   2.927
 9235SOL    HW228605   1.173   2.074   2.821
 9236SOL     OW28606   2.467   3.619   6.269
 9236SOL    HW128607   2.442   3.716   6.277
 9236SOL    HW228608   2.392   3.563   6.302
 9237SOL     OW28609   6.631   5.747   3.869
 9237SOL    HW128610   6.588   5.664   3.904
 9237SOL    HW228611   6.644   5.740   3.770
 9238SOL     OW28612   2.197   2.019   5.688
 9238SOL    HW128613   2.244   2.036   5.775
 9238SOL    HW228614   2.205   1.923   5.664
 9239SOL     OW28615   1.893   6.335   6.686
 9239SOL    HW128616   1.887   6.242   6.651
 9239SOL    HW228617   1.822   6.391   6.644
 9240SOL     OW28618   3.544   1.700   5.467
 9240SOL    HW128619   3.613   1.763   5.502
 9240SOL    HW228620   3.453   1.741   5.477
 9241SOL     OW28621   5.535   5.487   6.983
 9241SOL    HW128622   5.467   5.468   6.913
 9241SOL    HW228623   5.616   5.526   6.941
 9242SOL     OW28624   1.901   3.030   0.167
 9242SOL    HW128625   1.862   2.938   0.167
 9242SOL    HW228626   1.863   3.082   0.091
 9243SOL     OW28627   1.968   6.881   6.835
 9243SOL    HW128628   1.901   6.955   6.842
 9243SOL    HW228629   1.938   6.802   6.889
 9244SOL     OW28630   3.570   5.907   6.330
 9244SOL    HW128631   3.532   5.891   6.239
 9244SOL    HW228632   3.562   5.824   6.385
 9245SOL     OW28633   0.540   4.246   3.539
 9245SOL    HW128634   0.469   4.226   3.607
 9245SOL    HW228635   0.625   4.269   3.585
 9246SOL     OW28636   4.673   1.818   0.048
 9246SOL    HW128637   4.722   1.795   6.986
 9246SOL    HW228638   4.678   1.916   0.064
 9247SOL     OW28639   3.054   6.252   1.956
 9247SOL    HW128640   3.137   6.225   2.006
 9247SOL    HW228641   3.034   6.349   1.975
 9248SOL     OW28642   2.909   0.351   6.852
 9248SOL    HW128643   2.981   0.283   6.861
 9248SOL    HW228644   2.943   0.441   6.880
 9249SOL     OW28645   2.874   1.723   0.083
 9249SOL    HW128646   2.970   1.714   0.057
 9249SOL    HW228647   2.833   1.632   0.092
 9250SOL     OW28648   0.824   3.561   1.694
 9250SOL    HW128649   0.826   3.461   1.692
 9250SOL    HW228650   0.731   3.592   1.715
 9251SOL     OW28651   3.861   1.605   1.158
 9251SOL    HW128652   3.792   1.609   1.230
 9251SOL    HW228653   3.827   1.654   1.077
 9252SOL     OW28654   6.016   1.368   4.790
 9252SOL    HW128655   5.938   1.317   4.754
 9252SOL    HW228656   5.990   1.412   4.876
 9253SOL     OW28657   2.849   5.365   3.787
 9253SOL    HW128658   2.855   5.361   3.887
 9253SOL    HW228659   2.892   5.283   3.747
 9254SOL     OW28660   6.478   5.912   2.061
 9254SOL    HW128661   6.555   5.875   2.009
 9254SOL    HW228662   6.392   5.889   2.014
 9255SOL     OW28663   0.390   2.738   1.562
 9255SOL    HW128664   0.381   2.837   1.552
 9255SOL    HW228665   0.393   2.695   1.471
 9256SOL     OW28666   1.177   6.567   0.323
 9256SOL    HW128667   1.084   6.598   0.343
 9256SOL    HW228668   1.201   6.591   0.229
 9257SOL     OW28669   6.192   6.580   5.533
 9257SOL    HW128670   6.285   6.617   5.539
 9257SOL    HW228671   6.167   6.538   5.620
 9258SOL     OW28672   4.936   3.862   3.529
 9258SOL    HW128673   4.902   3.775   3.566
 9258SOL    HW228674   4.920   3.863   3.430
 9259SOL     OW28675   1.684   3.055   6.276
 9259SOL    HW128676   1.588   3.059   6.246
 9259SOL    HW228677   1.741   3.027   6.198
 9260SOL     OW28678   5.719   4.444   5.195
 9260SOL    HW128679   5.713   4.377   5.120
 9260SOL    HW228680   5.782   4.411   5.264
 9261SOL     OW28681   0.798   3.218   0.704
 9261SOL    HW128682   0.803   3.314   0.676
 9261SOL    HW228683   0.757   3.212   0.794
 9262SOL     OW28684   6.746   6.541   5.884
 9262SOL    HW128685   6.703   6.452   5.868
 9262SOL    HW228686   6.782   6.577   5.798
 9263SOL     OW28687   1.672   4.387   2.926
 9263SOL    HW128688   1.724   4.466   2.894
 9263SOL    HW228689   1.592   4.418   2.978
 9264SOL     OW28690   6.121   4.031   5.598
 9264SOL    HW128691   6.060   3.957   5.571
 9264SOL    HW228692   6.071   4.094   5.658
 9265SOL     OW28693   3.854   0.546   2.207
 9265SOL    HW128694   3.837   0.631   2.256
 9265SOL    HW228695   3.812   0.470   2.256
 9266SOL     OW28696   6.963   4.745   0.963
 9266SOL    HW128697   6.987   4.664   1.018
 9266SOL    HW228698   6.941   4.821   1.024
 9267SOL     OW28699   6.540   1.074   3.984
 9267SOL    HW128700   6.480   0.995   3.989
 9267SOL    HW228701   6.611   1.059   3.914
 9268SOL     OW28702   6.862   0.041   0.366
 9268SOL    HW128703   6.901   6.983   0.413
 9268SOL    HW228704   6.874   0.122   0.423
 9269SOL     OW28705   3.647   0.133   1.582
 9269SOL    HW128706   3.716   0.070   1.547
 9269SOL    HW228707   3.596   0.090   1.656
 9270SOL     OW28708   2.187   0.924   5.041
 9270SOL    HW128709   2.121   0.870   5.093
 9270SOL    HW228710   2.280   0.897   5.066
 9271SOL     OW28711   1.160   5.443   5.711
 9271SOL    HW128712   1.160   5.372   5.781
 9271SOL    HW228713   1.252   5.453   5.674
 9272SOL     OW28714   6.623   0.104   6.290
 9272SOL    HW128715   6.527   0.107   6.263
 9272SOL    HW228716   6.632   0.136   6.384
 9273SOL     OW28717   5.770   3.891   3.476
 9273SOL    HW128718   5.796   3.865   3.569
 9273SOL    HW228719   5.718   3.976   3.478
 9274SOL     OW28720   6.724   2.592   1.964
 9274SOL    HW128721   6.813   2.636   1.978
 9274SOL    HW228722   6.681   2.630   1.882
 9275SOL     OW28723   4.507   1.596   0.787
 9275SOL    HW128724   4.468   1.646   0.710
 9275SOL    HW228725   4.604   1.581   0.771
 9276SOL     OW28726   1.644   3.419   1.210
 9276SOL    HW128727   1.632   3.519   1.211
 9276SOL    HW228728   1.579   3.379   1.146
 9277SOL     OW28729   3.360   5.660   2.808
 9277SOL    HW128730   3.332   5.568   2.836
 9277SOL    HW228731   3.293   5.727   2.843
 9278SOL     OW28732   1.023   6.899   4.439
 9278SOL    HW128733   1.113   6.900   4.395
 9278SOL    HW228734   1.034   6.899   4.538
 9279SOL     OW28735   3.905   5.859   2.566
 9279SOL    HW128736   3.997   5.827   2.543
 9279SOL    HW228737   3.847   5.852   2.485
 9280SOL     OW28738   1.161   4.344   2.381
 9280SOL    HW128739   1.183   4.388   2.468
 9280SOL    HW228740   1.239   4.354   2.319
 9281SOL     OW28741   1.556   5.513   0.571
 9281SOL    HW128742   1.457   5.527   0.564
 9281SOL    HW228743   1.581   5.427   0.526
 9282SOL     OW28744   1.690   0.281   3.673
 9282SOL    HW128745   1.621   0.308   3.605
 9282SOL    HW228746   1.693   0.182   3.681
 9283SOL     OW28747   5.503   4.779   6.435
 9283SOL    HW128748   5.423   4.839   6.430
 9283SOL    HW228749   5.494   4.705   6.369
 9284SOL     OW28750   3.820   6.069   1.178
 9284SOL    HW128751   3.790   6.125   1.255
 9284SOL    HW228752   3.756   5.995   1.163
 9285SOL     OW28753   6.713   5.691   3.099
 9285SOL    HW128754   6.715   5.773   3.042
 9285SOL    HW228755   6.803   5.648   3.099
 9286SOL     OW28756   5.246   5.663   1.873
 9286SOL    HW128757   5.276   5.747   1.829
 9286SOL    HW228758   5.325   5.604   1.890
 9287SOL     OW28759   4.454   4.554   6.797
 9287SOL    HW128760   4.496   4.499   6.869
 9287SOL    HW228761   4.525   4.604   6.748
 9288SOL     OW28762   3.148   0.970   4.414
 9288SOL    HW128763   3.100   0.938   4.332
 9288SOL    HW228764   3.107   1.056   4.444
 9289SOL     OW28765   4.380   6.043   2.243
 9289SOL    HW128766   4.318   5.973   2.207
 9289SOL    HW228767   4.342   6.080   2.329
 9290SOL     OW28768   5.517   0.767   3.467
 9290SOL    HW128769   5.418   0.767   3.453
 9290SOL    HW228770   5.558   0.693   3.414
 9291SOL     OW28771   0.174   5.345   5.262
 9291SOL    HW128772   0.124   5.332   5.176
 9291SOL    HW228773   0.111   5.373   5.334
 9292SOL     OW28774   2.396   1.545   0.638
 9292SOL    HW128775   2.327   1.549   0.710
 9292SOL    HW228776   2.478   1.498   0.673
 9293SOL     OW28777   3.481   1.142   6.273
 9293SOL    HW128778   3.393   1.150   6.226
 9293SOL    HW228779   3.548   1.202   6.229
 9294SOL     OW28780   5.444   6.259   6.141
 9294SOL    HW128781   5.482   6.222   6.056
 9294SOL    HW228782   5.509   6.246   6.215
 9295SOL     OW28783   6.586   0.901   2.733
 9295SOL    HW128784   6.556   0.838   2.661
 9295SOL    HW228785   6.520   0.900   2.808
 9296SOL     OW28786   2.035   2.708   5.700
 9296SOL    HW128787   1.951   2.759   5.716
 9296SOL    HW228788   2.058   2.653   5.781
 9297SOL     OW28789   0.427   5.149   1.935
 9297SOL    HW128790   0.457   5.243   1.922
 9297SOL    HW228791   0.461   5.091   1.861
 9298SOL     OW28792   6.413   3.947   0.573
 9298SOL    HW128793   6.424   3.870   0.511
 9298SOL    HW228794   6.317   3.971   0.580
 9299SOL     OW28795   4.043   2.212   3.818
 9299SOL    HW128796   3.945   2.209   3.799
 9299SOL    HW228797   4.092   2.153   3.753
 9300SOL     OW28798   2.753   6.389   5.470
 9300SOL    HW128799   2.789   6.302   5.504
 9300SOL    HW228800   2.653   6.388   5.477
 9301SOL     OW28801   0.781   3.449   4.256
 9301SOL    HW128802   0.739   3.493   4.177
 9301SOL    HW228803   0.840   3.515   4.303
 9302SOL     OW28804   3.462   6.220   3.746
 9302SOL    HW128805   3.514   6.175   3.674
 9302SOL    HW228806   3.366   6.190   3.742
 9303SOL     OW28807   2.764   4.001   0.474
 9303SOL    HW128808   2.832   3.968   0.540
 9303SOL    HW228809   2.676   4.014   0.520
 9304SOL     OW28810   5.988   5.710   6.662
 9304SOL    HW128811   5.905   5.766   6.661
 9304SOL    HW228812   5.971   5.624   6.613
 9305SOL     OW28813   2.640   1.856   1.405
 9305SOL    HW128814   2.714   1.845   1.471
 9305SOL    HW228815   2.602   1.948   1.412
 9306SOL     OW28816   6.103   6.467   3.066
 9306SOL    HW128817   6.168   6.395   3.092
 9306SOL    HW228818   6.153   6.552   3.051
 9307SOL     OW28819   2.269   3.453   1.043
 9307SOL    HW128820   2.208   3.498   1.109
 9307SOL    HW228821   2.217   3.385   0.992
 9308SOL     OW28822   2.542   2.987   0.829
 9308SOL    HW128823   2.573   3.043   0.752
 9308SOL    HW228824   2.479   3.041   0.885
 9309SOL     OW28825   3.576   4.952   5.905
 9309SOL    HW128826   3.605   4.857   5.900
 9309SOL    HW228827   3.578   4.993   5.814
 9310SOL     OW28828   6.054   0.293   5.778
 9310SOL    HW128829   6.062   0.336   5.867
 9310SOL    HW228830   6.096   0.352   5.709
 9311SOL     OW28831   5.030   4.326   0.315
 9311SOL    HW128832   5.007   4.286   0.226
 9311SOL    HW228833   5.086   4.408   0.301
 9312SOL     OW28834   6.265   2.737   4.183
 9312SOL    HW128835   6.315   2.724   4.269
 9312SOL    HW228836   6.313   2.804   4.127
 9313SOL     OW28837   6.985   0.155   1.886
 9313SOL    HW128838   6.947   0.086   1.948
 9313SOL    HW228839   6.969   0.129   1.791
 9314SOL     OW28840   5.334   4.224   2.066
 9314SOL    HW128841   5.353   4.276   1.983
 9314SOL    HW228842   5.376   4.134   2.059
 9315SOL     OW28843   5.140   5.518   5.133
 9315SOL    HW128844   5.114   5.509   5.229
 9315SOL    HW228845   5.228   5.565   5.127
 9316SOL     OW28846   5.424   6.103   6.582
 9316SOL    HW128847   5.355   6.172   6.606
 9316SOL    HW228848   5.508   6.148   6.553
 9317SOL     OW28849   2.636   6.290   3.480
 9317SOL    HW128850   2.713   6.225   3.480
 9317SOL    HW228851   2.567   6.259   3.414
 9318SOL     OW28852   3.321   0.042   3.929
 9318SOL    HW128853   3.266   0.107   3.876
 9318SOL    HW228854   3.264   7.019   3.997
 9319SOL     OW28855   3.672   2.672   0.635
 9319SOL    HW128856   3.676   2.619   0.550
 9319SOL    HW228857   3.657   2.610   0.712
 9320SOL     OW28858   6.714   1.027   6.749
 9320SOL    HW128859   6.771   1.109   6.753
 9320SOL    HW228860   6.723   0.976   6.835
 9321SOL     OW28861   1.164   2.414   3.963
 9321SOL    HW128862   1.140   2.437   4.057
 9321SOL    HW228863   1.142   2.491   3.903
 9322SOL     OW28864   5.228   3.408   0.584
 9322SOL    HW128865   5.173   3.335   0.624
 9322SOL    HW228866   5.168   3.479   0.549
 9323SOL     OW28867   0.339   3.165   5.197
 9323SOL    HW128868   0.374   3.083   5.151
 9323SOL    HW228869   0.328   3.238   5.130
 9324SOL     OW28870   0.598   3.648   1.349
 9324SOL    HW128871   0.658   3.571   1.329
 9324SOL    HW228872   0.569   3.644   1.445
 9325SOL     OW28873   0.241   3.251   3.093
 9325SOL    HW128874   0.188   3.289   3.018
 9325SOL    HW228875   0.336   3.279   3.085
 9326SOL     OW28876   4.037   4.970   1.353
 9326SOL    HW128877   4.034   5.070   1.351
 9326SOL    HW228878   3.969   4.936   1.418
 9327SOL     OW28879   1.890   2.179   3.114
 9327SOL    HW128880   1.881   2.248   3.041
 9327SOL    HW228881   1.864   2.089   3.079
 9328SOL     OW28882   0.882   0.228   3.716
 9328SOL    HW128883   0.845   0.186   3.633
 9328SOL    HW228884   0.942   0.304   3.690
 9329SOL     OW28885   1.267   5.202   6.532
 9329SOL    HW128886   1.314   5.181   6.617
 9329SOL    HW228887   1.319   5.166   6.455
 9330SOL     OW28888   0.650   6.249   1.104
 9330SOL    HW128889   0.689   6.300   1.027
 9330SOL    HW228890   0.711   6.253   1.182
 9331SOL     OW28891   2.808   5.691   5.046
 9331SOL    HW128892   2.829   5.656   5.137
 9331SOL    HW228893   2.794   5.615   4.983
 9332SOL     OW28894   6.582   6.308   0.805
 9332SOL    HW128895   6.521   6.296   0.883
 9332SOL    HW228896   6.677   6.315   0.838
 9333SOL     OW28897   0.868   5.911   1.517
 9333SOL    HW128898   0.848   5.934   1.422
 9333SOL    HW228899   0.960   5.873   1.524
 9334SOL     OW28900   0.273   5.861   6.960
 9334SOL    HW128901   0.203   5.923   6.996
 9334SOL    HW228902   0.329   5.909   6.893
 9335SOL     OW28903   6.887   3.593   1.120
 9335SOL    HW128904   6.866   3.503   1.081
 9335SOL    HW228905   6.969   3.586   1.177
 9336SOL     OW28906   4.868   5.684   5.636
 9336SOL    HW128907   4.921   5.753   5.684
 9336SOL    HW228908   4.923   5.646   5.561
 9337SOL     OW28909   3.028   1.947   4.909
 9337SOL    HW128910   3.099   1.897   4.860
 9337SOL    HW228911   3.022   1.913   5.003
 9338SOL     OW28912   4.395   0.135   2.068
 9338SOL    HW128913   4.406   0.221   2.118
 9338SOL    HW228914   4.391   0.153   1.970
 9339SOL     OW28915   0.557   3.347   4.402
 9339SOL    HW128916   0.637   3.387   4.359
 9339SOL    HW228917   0.562   3.247   4.397
 9340SOL     OW28918   3.064   4.788   1.943
 9340SOL    HW128919   3.016   4.703   1.917
 9340SOL    HW228920   3.160   4.781   1.915
 9341SOL     OW28921   4.979   5.701   1.780
 9341SOL    HW128922   5.063   5.704   1.833
 9341SOL    HW228923   4.993   5.748   1.693
 9342SOL     OW28924   2.952   0.949   4.714
 9342SOL    HW128925   3.047   0.975   4.727
 9342SOL    HW228926   2.946   0.879   4.642
 9343SOL     OW28927   5.603   3.825   1.140
 9343SOL    HW128928   5.629   3.918   1.116
 9343SOL    HW228929   5.678   3.781   1.189
 9344SOL     OW28930   5.242   6.085   5.007
 9344SOL    HW128931   5.329   6.117   5.044
 9344SOL    HW228932   5.192   6.033   5.077
 9345SOL     OW28933   0.166   4.862   6.767
 9345SOL    HW128934   0.115   4.783   6.733
 9345SOL    HW228935   0.108   4.916   6.827
 9346SOL     OW28936   5.494   0.536   2.536
 9346SOL    HW128937   5.591   0.528   2.559
 9346SOL    HW228938   5.448   0.594   2.603
 9347SOL     OW28939   5.048   6.988   1.974
 9347SOL    HW128940   5.099   6.955   2.053
 9347SOL    HW228941   4.953   7.007   2.000
 9348SOL     OW28942   2.464   4.941   2.189
 9348SOL    HW128943   2.438   4.845   2.175
 9348SOL    HW228944   2.552   4.945   2.237
 9349SOL     OW28945   1.347   4.480   1.359
 9349SOL    HW128946   1.334   4.456   1.263
 9349SOL    HW228947   1.407   4.412   1.403
 9350SOL     OW28948   6.796   0.745   7.002
 9350SOL    HW128949   6.727   0.791   0.037
 9350SOL    HW228950   6.877   0.725   0.036
 9351SOL     OW28951   3.850   4.331   6.455
 9351SOL    HW128952   3.913   4.256   6.476
 9351SOL    HW228953   3.900   4.417   6.454
 9352SOL     OW28954   2.532   1.964   6.788
 9352SOL    HW128955   2.567   1.936   6.878
 9352SOL    HW228956   2.599   1.942   6.718
 9353SOL     OW28957   1.379   3.231   2.332
 9353SOL    HW128958   1.294   3.197   2.293
 9353SOL    HW228959   1.445   3.249   2.258
 9354SOL     OW28960   5.594   2.499   2.295
 9354SOL    HW128961   5.692   2.485   2.308
 9354SOL    HW228962   5.544   2.458   2.372
 9355SOL     OW28963   0.610   2.458   2.249
 9355SOL    HW128964   0.563   2.499   2.170
 9355SOL    HW228965   0.704   2.436   2.223
 9356SOL     OW28966   4.491   2.404   1.976
 9356SOL    HW128967   4.528   2.423   2.067
 9356SOL    HW228968   4.524   2.472   1.912
 9357SOL     OW28969   1.815   4.099   6.648
 9357SOL    HW128970   1.830   4.160   6.727
 9357SOL    HW228971   1.883   4.119   6.577
 9358SOL     OW28972   5.166   5.083   3.421
 9358SOL    HW128973   5.243   5.082   3.485
 9358SOL    HW228974   5.094   5.022   3.453
 9359SOL     OW28975   4.246   5.770   5.721
 9359SOL    HW128976   4.242   5.696   5.654
 9359SOL    HW228977   4.334   5.767   5.768
 9360SOL     OW28978   0.800   0.443   5.184
 9360SOL    HW128979   0.888   0.397   5.187
 9360SOL    HW228980   0.727   0.375   5.183
 9361SOL     OW28981   1.667   1.386   2.652
 9361SOL    HW128982   1.669   1.378   2.552
 9361SOL    HW228983   1.573   1.390   2.683
 9362SOL     OW28984   1.658   1.970   2.682
 9362SOL    HW128985   1.748   1.928   2.676
 9362SOL    HW228986   1.668   2.070   2.689
 9363SOL     OW28987   0.444   6.454   2.377
 9363SOL    HW128988   0.475   6.359   2.364
 9363SOL    HW228989   0.438   6.499   2.288
 9364SOL     OW28990   5.680   4.057   0.991
 9364SOL    HW128991   5.679   4.149   1.032
 9364SOL    HW228992   5.774   4.027   0.979
 9365SOL     OW28993   2.845   1.298   4.397
 9365SOL    HW128994   2.751   1.304   4.428
 9365SOL    HW228995   2.851   1.229   4.324
 9366SOL     OW28996   2.548   1.714   1.187
 9366SOL    HW128997   2.586   1.778   1.254
 9366SOL    HW228998   2.534   1.761   1.100
 9367SOL     OW28999   5.021   6.518   4.253
 9367SOL    HW129000   4.930   6.496   4.217
 9367SOL    HW229001   5.064   6.435   4.287
 9368SOL     OW29002   6.232   2.993   1.009
 9368SOL    HW129003   6.231   2.896   0.983
 9368SOL    HW229004   6.326   3.027   1.008
 9369SOL     OW29005   0.698   2.495   6.047
 9369SOL    HW129006   0.695   2.396   6.032
 9369SOL    HW229007   0.657   2.541   5.968
 9370SOL     OW29008   6.127   5.434   2.239
 9370SOL    HW129009   6.070   5.364   2.282
 9370SOL    HW229010   6.070   5.500   2.192
 9371SOL     OW29011   1.648   0.392   0.451
 9371SOL    HW129012   1.692   0.428   0.369
 9371SOL    HW229013   1.649   0.292   0.449
 9372SOL     OW29014   5.159   5.421   0.586
 9372SOL    HW129015   5.257   5.402   0.579
 9372SOL    HW229016   5.121   5.433   0.494
 9373SOL     OW29017   4.848   2.821   4.886
 9373SOL    HW129018   4.884   2.782   4.801
 9373SOL    HW229019   4.832   2.919   4.875
 9374SOL     OW29020   4.794   4.481   6.439
 9374SOL    HW129021   4.859   4.504   6.511
 9374SOL    HW229022   4.705   4.522   6.461
 9375SOL     OW29023   6.376   6.403   3.777
 9375SOL    HW129024   6.358   6.306   3.760
 9375SOL    HW229025   6.337   6.429   3.865
 9376SOL     OW29026   2.707   3.361   1.657
 9376SOL    HW129027   2.735   3.440   1.712
 9376SOL    HW229028   2.607   3.354   1.657
 9377SOL     OW29029   6.880   4.380   3.660
 9377SOL    HW129030   6.968   4.408   3.701
 9377SOL    HW229031   6.818   4.458   3.658
 9378SOL     OW29032   3.826   5.651   1.418
 9378SOL    HW129033   3.801   5.748   1.411
 9378SOL    HW229034   3.924   5.644   1.439
 9379SOL     OW29035   4.554   4.717   5.154
 9379SOL    HW129036   4.462   4.754   5.141
 9379SOL    HW229037   4.556   4.622   5.124
 9380SOL     OW29038   0.052   5.539   5.778
 9380SOL    HW129039   7.016   5.459   5.798
 9380SOL    HW229040   0.133   5.537   5.836
 9381SOL     OW29041   0.542   1.002   0.239
 9381SOL    HW129042   0.569   1.062   0.164
 9381SOL    HW229043   0.611   1.008   0.312
 9382SOL     OW29044   6.241   2.641   2.422
 9382SOL    HW129045   6.158   2.667   2.471
 9382SOL    HW229046   6.224   2.647   2.323
 9383SOL     OW29047   0.547   5.175   0.633
 9383SOL    HW129048   0.635   5.222   0.620
 9383SOL    HW229049   0.476   5.221   0.580
 9384SOL     OW29050   3.062   6.792   2.050
 9384SOL    HW129051   2.977   6.795   2.103
 9384SOL    HW229052   3.114   6.877   2.065
 9385SOL     OW29053   4.422   6.709   3.453
 9385SOL    HW129054   4.420   6.806   3.430
 9385SOL    HW229055   4.435   6.655   3.370
 9386SOL     OW29056   3.530   6.917   4.455
 9386SOL    HW129057   3.463   6.947   4.523
 9386SOL    HW229058   3.500   6.948   4.364
 9387SOL     OW29059   4.431   6.006   0.830
 9387SOL    HW129060   4.493   6.040   0.901
 9387SOL    HW229061   4.475   6.015   0.740
 9388SOL     OW29062   6.658   0.161   1.047
 9388SOL    HW129063   6.745   0.198   1.081
 9388SOL    HW229064   6.622   0.096   1.113
 9389SOL     OW29065   2.832   1.125   1.035
 9389SOL    HW129066   2.804   1.202   1.092
 9389SOL    HW229067   2.915   1.084   1.074
 9390SOL     OW29068   3.742   6.662   1.036
 9390SOL    HW129069   3.782   6.653   0.945
 9390SOL    HW229070   3.768   6.583   1.092
 9391SOL     OW29071   5.375   0.351   3.605
 9391SOL    HW129072   5.363   0.363   3.704
 9391SOL    HW229073   5.416   0.433   3.566
 9392SOL     OW29074   0.890   0.283   4.773
 9392SOL    HW129075   0.904   0.313   4.678
 9392SOL    HW229076   0.954   0.330   4.833
 9393SOL     OW29077   4.897   1.989   5.011
 9393SOL    HW129078   4.899   2.043   5.095
 9393SOL    HW229079   4.809   2.002   4.965
 9394SOL     OW29080   6.585   1.538   2.331
 9394SOL    HW129081   6.677   1.559   2.298
 9394SOL    HW229082   6.588   1.519   2.429
 9395SOL     OW29083   1.484   2.886   0.543
 9395SOL    HW129084   1.390   2.877   0.510
 9395SOL    HW229085   1.547   2.856   0.471
 9396SOL     OW29086   0.818   1.611   4.993
 9396SOL    HW129087   0.840   1.705   4.967
 9396SOL    HW229088   0.900   1.566   5.028
 9397SOL     OW29089   1.800   1.830   1.209
 9397SOL    HW129090   1.875   1.831   1.143
 9397SOL    HW229091   1.720   1.786   1.168
 9398SOL     OW29092   2.643   2.151   1.669
 9398SOL    HW129093   2.549   2.173   1.645
 9398SOL    HW229094   2.652   2.147   1.768
 9399SOL     OW29095   0.488   0.696   5.463
 9399SOL    HW129096   0.390   0.707   5.482
 9399SOL    HW229097   0.541   0.728   5.542
 9400SOL     OW29098   4.302   1.305   4.302
 9400SOL    HW129099   4.266   1.219   4.267
 9400SOL    HW229100   4.240   1.342   4.372
 9401SOL     OW29101   4.563   0.210   4.179
 9401SOL    HW129102   4.652   0.207   4.225
 9401SOL    HW229103   4.558   0.292   4.122
 9402SOL     OW29104   2.607   4.702   6.261
 9402SOL    HW129105   2.564   4.757   6.333
 9402SOL    HW229106   2.697   4.739   6.240
 9403SOL     OW29107   6.434   0.169   3.455
 9403SOL    HW129108   6.475   0.250   3.497
 9403SOL    HW229109   6.489   0.089   3.476
 9404SOL     OW29110   2.430   4.353   4.543
 9404SOL    HW129111   2.529   4.357   4.551
 9404SOL    HW229112   2.389   4.348   4.634
 9405SOL     OW29113   0.412   0.751   1.054
 9405SOL    HW129114   0.368   0.833   1.091
 9405SOL    HW229115   0.508   0.750   1.081
 9406SOL     OW29116   6.416   1.817   5.603
 9406SOL    HW129117   6.494   1.800   5.663
 9406SOL    HW229118   6.426   1.762   5.520
 9407SOL     OW29119   3.490   5.572   3.559
 9407SOL    HW129120   3.464   5.475   3.560
 9407SOL    HW229121   3.409   5.629   3.568
 9408SOL     OW29122   3.855   1.331   0.392
 9408SOL    HW129123   3.844   1.431   0.393
 9408SOL    HW229124   3.764   1.288   0.394
 9409SOL     OW29125   6.333   4.028   3.759
 9409SOL    HW129126   6.311   4.125   3.760
 9409SOL    HW229127   6.323   3.992   3.667
 9410SOL     OW29128   4.241   6.758   1.422
 9410SOL    HW129129   4.327   6.801   1.396
 9410SOL    HW229130   4.244   6.661   1.398
 9411SOL     OW29131   5.225   4.358   2.486
 9411SOL    HW129132   5.213   4.456   2.503
 9411SOL    HW229133   5.311   4.343   2.438
 9412SOL     OW29134   6.935   1.453   3.166
 9412SOL    HW129135   7.014   1.445   3.105
 9412SOL    HW229136   6.851   1.446   3.112
 9413SOL     OW29137   4.229   5.465   3.813
 9413SOL    HW129138   4.234   5.503   3.905
 9413SOL    HW229139   4.152   5.507   3.764
 9414SOL     OW29140   2.411   7.011   1.777
 9414SOL    HW129141   2.431   6.981   1.683
 9414SOL    HW229142   2.399   0.088   1.778
 9415SOL     OW29143   0.917   6.490   1.754
 9415SOL    HW129144   0.943   6.400   1.720
 9415SOL    HW229145   0.909   6.553   1.677
 9416SOL     OW29146   1.349   1.689   2.302
 9416SOL    HW129147   1.408   1.660   2.226
 9416SOL    HW229148   1.406   1.718   2.379
 9417SOL     OW29149   1.017   0.460   4.065
 9417SOL    HW129150   0.942   0.402   4.097
 9417SOL    HW229151   1.103   0.430   4.106
 9418SOL     OW29152   4.256   4.493   0.445
 9418SOL    HW129153   4.250   4.418   0.379
 9418SOL    HW229154   4.174   4.549   0.439
 9419SOL     OW29155   3.069   5.990   3.300
 9419SOL    HW129156   3.150   6.046   3.284
 9419SOL    HW229157   3.034   5.954   3.213
 9420SOL     OW29158   1.339   0.624   2.674
 9420SOL    HW129159   1.355   0.554   2.604
 9420SOL    HW229160   1.241   0.631   2.692
 9421SOL     OW29161   1.680   4.263   5.036
 9421SOL    HW129162   1.703   4.166   5.028
 9421SOL    HW229163   1.637   4.281   5.124
 9422SOL     OW29164   3.294   1.124   2.605
 9422SOL    HW129165   3.346   1.209   2.611
 9422SOL    HW229166   3.353   1.052   2.568
 9423SOL     OW29167   4.799   0.201   5.408
 9423SOL    HW129168   4.830   0.133   5.341
 9423SOL    HW229169   4.730   0.260   5.365
 9424SOL     OW29170   3.523   5.850   3.692
 9424SOL    HW129171   3.608   5.798   3.683
 9424SOL    HW229172   3.477   5.855   3.602
 9425SOL     OW29173   0.121   5.688   2.260
 9425SOL    HW129174   0.081   5.762   2.313
 9425SOL    HW229175   0.092   5.695   2.165
 9426SOL     OW29176   3.403   6.220   0.818
 9426SOL    HW129177   3.342   6.263   0.884
 9426SOL    HW229178   3.356   6.210   0.730
 9427SOL     OW29179   3.782   4.937   4.646
 9427SOL    HW129180   3.863   4.892   4.683
 9427SOL    HW229181   3.712   4.945   4.717
 9428SOL     OW29182   4.230   6.730   1.975
 9428SOL    HW129183   4.186   6.711   1.887
 9428SOL    HW229184   4.238   6.646   2.027
 9429SOL     OW29185   0.719   3.219   2.723
 9429SOL    HW129186   0.764   3.130   2.726
 9429SOL    HW229187   0.726   3.256   2.631
 9430SOL     OW29188   6.346   6.629   1.880
 9430SOL    HW129189   6.390   6.714   1.910
 9430SOL    HW229190   6.416   6.561   1.859
 9431SOL     OW29191   6.049   4.495   0.615
 9431SOL    HW129192   6.077   4.591   0.626
 9431SOL    HW229193   5.966   4.491   0.559
 9432SOL     OW29194   5.851   6.211   2.973
 9432SOL    HW129195   5.862   6.117   2.939
 9432SOL    HW229196   5.862   6.275   2.897
 9433SOL     OW29197   2.224   5.135   4.383
 9433SOL    HW129198   2.201   5.222   4.340
 9433SOL    HW229199   2.209   5.141   4.482
 9434SOL     OW29200   5.715   4.535   3.237
 9434SOL    HW129201   5.770   4.614   3.265
 9434SOL    HW229202   5.621   4.549   3.268
 9435SOL     OW29203   3.137   2.568   5.994
 9435SOL    HW129204   3.200   2.534   5.923
 9435SOL    HW229205   3.120   2.665   5.979
 9436SOL     OW29206   3.557   2.449   5.439
 9436SOL    HW129207   3.602   2.401   5.514
 9436SOL    HW229208   3.475   2.398   5.412
 9437SOL     OW29209   0.592   6.145   4.638
 9437SOL    HW129210   0.637   6.056   4.644
 9437SOL    HW229211   0.534   6.148   4.556
 9438SOL     OW29212   0.149   6.423   1.448
 9438SOL    HW129213   0.122   6.472   1.365
 9438SOL    HW229214   0.102   6.335   1.451
 9439SOL     OW29215   1.553   2.481   1.892
 9439SOL    HW129216   1.653   2.483   1.897
 9439SOL    HW229217   1.519   2.403   1.944
 9440SOL     OW29218   3.431   6.134   3.101
 9440SOL    HW129219   3.332   6.126   3.090
 9440SOL    HW229220   3.469   6.045   3.127
 9441SOL     OW29221   1.291   5.424   6.076
 9441SOL    HW129222   1.380   5.441   6.118
 9441SOL    HW229223   1.250   5.511   6.048
 9442SOL     OW29224   1.556   1.970   1.936
 9442SOL    HW129225   1.610   1.989   2.018
 9442SOL    HW229226   1.535   1.872   1.932
 9443SOL     OW29227   0.871   1.834   0.987
 9443SOL    HW129228   0.805   1.840   1.063
 9443SOL    HW229229   0.956   1.794   1.020
 9444SOL     OW29230   1.436   4.388   4.973
 9444SOL    HW129231   1.407   4.421   5.063
 9444SOL    HW229232   1.532   4.361   4.977
 9445SOL     OW29233   5.624   1.978   2.475
 9445SOL    HW129234   5.525   1.987   2.482
 9445SOL    HW229235   5.646   1.916   2.399
 9446SOL     OW29236   4.968   5.194   0.462
 9446SOL    HW129237   4.906   5.117   0.444
 9446SOL    HW229238   5.046   5.162   0.514
 9447SOL     OW29239   5.897   1.132   1.884
 9447SOL    HW129240   5.834   1.192   1.934
 9447SOL    HW229241   5.848   1.052   1.852
 9448SOL     OW29242   6.646   6.836   0.509
 9448SOL    HW129243   6.723   6.874   0.561
 9448SOL    HW229244   6.627   6.743   0.541
 9449SOL     OW29245   5.881   5.114   4.630
 9449SOL    HW129246   5.787   5.121   4.594
 9449SOL    HW229247   5.913   5.204   4.658
 9450SOL     OW29248   1.584   6.315   4.091
 9450SOL    HW129249   1.511   6.258   4.128
 9450SOL    HW229250   1.671   6.292   4.135
 9451SOL     OW29251   4.050   3.360   4.740
 9451SOL    HW129252   3.980   3.327   4.804
 9451SOL    HW229253   4.084   3.449   4.771
 9452SOL     OW29254   3.409   4.202   0.495
 9452SOL    HW129255   3.323   4.165   0.459
 9452SOL    HW229256   3.391   4.290   0.540
 9453SOL     OW29257   2.908   6.392   1.138
 9453SOL    HW129258   2.821   6.378   1.090
 9453SOL    HW229259   2.980   6.413   1.072
 9454SOL     OW29260   2.421   1.668   6.151
 9454SOL    HW129261   2.481   1.748   6.145
 9454SOL    HW229262   2.459   1.593   6.097
 9455SOL     OW29263   1.583   1.951   1.493
 9455SOL    HW129264   1.549   2.033   1.541
 9455SOL    HW229265   1.680   1.939   1.512
 9456SOL     OW29266   1.281   2.834   0.382
 9456SOL    HW129267   1.322   2.847   0.291
 9456SOL    HW229268   1.219   2.756   0.379
 9457SOL     OW29269   6.188   3.796   0.275
 9457SOL    HW129270   6.136   3.711   0.280
 9457SOL    HW229271   6.277   3.783   0.317
 9458SOL     OW29272   1.574   5.716   4.118
 9458SOL    HW129273   1.511   5.790   4.141
 9458SOL    HW229274   1.620   5.737   4.032
 9459SOL     OW29275   3.479   5.960   0.868
 9459SOL    HW129276   3.398   5.953   0.926
 9459SOL    HW229277   3.478   6.048   0.821
 9460SOL     OW29278   1.373   3.438   5.411
 9460SOL    HW129279   1.468   3.458   5.434
 9460SOL    HW229280   1.347   3.489   5.329
 9461SOL     OW29281   1.152   0.335   2.303
 9461SOL    HW129282   1.102   0.409   2.259
 9461SOL    HW229283   1.128   0.330   2.400
 9462SOL     OW29284   0.337   3.381   3.571
 9462SOL    HW129285   0.339   3.293   3.618
 9462SOL    HW229286   0.374   3.369   3.478
 9463SOL     OW29287   5.542   2.173   5.842
 9463SOL    HW129288   5.444   2.170   5.826
 9463SOL    HW229289   5.589   2.197   5.756
 9464SOL     OW29290   3.813   6.847   6.137
 9464SOL    HW129291   3.728   6.852   6.190
 9464SOL    HW229292   3.814   6.921   6.069
 9465SOL     OW29293   4.560   6.968   4.115
 9465SOL    HW129294   4.636   6.940   4.173
 9465SOL    HW229295   4.553   0.046   4.116
 9466SOL     OW29296   3.554   2.061   0.185
 9466SOL    HW129297   3.615   2.128   0.143
 9466SOL    HW229298   3.598   1.971   0.183
 9467SOL     OW29299   0.941   3.227   2.484
 9467SOL    HW129300   1.017   3.220   2.548
 9467SOL    HW229301   0.880   3.148   2.495
 9468SOL     OW29302   0.839   2.936   6.223
 9468SOL    HW129303   0.746   2.902   6.211
 9468SOL    HW229304   0.841   3.035   6.214
 9469SOL     OW29305   0.623   4.090   2.473
 9469SOL    HW129306   0.649   4.028   2.399
 9469SOL    HW229307   0.591   4.036   2.551
 9470SOL     OW29308   6.017   3.524   1.569
 9470SOL    HW129309   5.967   3.540   1.654
 9470SOL    HW229310   6.083   3.450   1.583
 9471SOL     OW29311   0.332   2.205   5.828
 9471SOL    HW129312   0.338   2.221   5.926
 9471SOL    HW229313   0.271   2.273   5.787
 9472SOL     OW29314   6.096   2.197   5.120
 9472SOL    HW129315   6.119   2.103   5.093
 9472SOL    HW229316   6.078   2.200   5.219
 9473SOL     OW29317   2.848   4.623   5.438
 9473SOL    HW129318   2.862   4.594   5.343
 9473SOL    HW229319   2.844   4.543   5.498
 9474SOL     OW29320   3.540   5.752   4.281
 9474SOL    HW129321   3.491   5.687   4.339
 9474SOL    HW229322   3.580   5.824   4.338
 9475SOL     OW29323   2.816   3.284   1.408
 9475SOL    HW129324   2.775   3.363   1.454
 9475SOL    HW229325   2.912   3.276   1.434
 9476SOL     OW29326   2.984   3.303   5.548
 9476SOL    HW129327   3.010   3.400   5.545
 9476SOL    HW229328   2.891   3.293   5.512
 9477SOL     OW29329   0.917   2.421   0.717
 9477SOL    HW129330   0.982   2.403   0.791
 9477SOL    HW229331   0.915   2.343   0.654
 9478SOL     OW29332   5.742   3.678   6.529
 9478SOL    HW129333   5.788   3.719   6.449
 9478SOL    HW229334   5.737   3.579   6.517
 9479SOL     OW29335   5.842   4.744   5.194
 9479SOL    HW129336   5.835   4.799   5.112
 9479SOL    HW229337   5.803   4.653   5.176
 9480SOL     OW29338   0.226   3.516   6.317
 9480SOL    HW129339   0.277   3.430   6.321
 9480SOL    HW229340   0.248   3.565   6.233
 9481SOL     OW29341   0.993   2.864   3.664
 9481SOL    HW129342   0.917   2.843   3.602
 9481SOL    HW229343   1.077   2.876   3.610
 9482SOL     OW29344   4.323   1.605   2.055
 9482SOL    HW129345   4.419   1.576   2.054
 9482SOL    HW229346   4.311   1.685   1.996
 9483SOL     OW29347   1.517   1.055   0.781
 9483SOL    HW129348   1.428   1.016   0.758
 9483SOL    HW229349   1.505   1.128   0.848
 9484SOL     OW29350   6.545   0.388   3.559
 9484SOL    HW129351   6.636   0.362   3.593
 9484SOL    HW229352   6.508   0.462   3.615
 9485SOL     OW29353   6.619   0.199   2.678
 9485SOL    HW129354   6.571   0.287   2.672
 9485SOL    HW229355   6.714   0.211   2.651
 9486SOL     OW29356   2.568   6.700   1.544
 9486SOL    HW129357   2.572   6.696   1.444
 9486SOL    HW229358   2.643   6.645   1.582
 9487SOL     OW29359   3.486   2.877   3.555
 9487SOL    HW129360   3.539   2.825   3.488
 9487SOL    HW229361   3.538   2.958   3.584
 9488SOL     OW29362   2.012   0.082   1.699
 9488SOL    HW129363   2.090   0.112   1.644
 9488SOL    HW229364   2.022   0.116   1.793
 9489SOL     OW29365   2.728   4.890   0.837
 9489SOL    HW129366   2.696   4.984   0.824
 9489SOL    HW229367   2.745   4.875   0.935
 9490SOL     OW29368   4.454   1.751   0.552
 9490SOL    HW129369   4.369   1.762   0.501
 9490SOL    HW229370   4.531   1.760   0.489
 9491SOL     OW29371   5.682   6.177   6.605
 9491SOL    HW129372   5.758   6.118   6.578
 9491SOL    HW229373   5.673   6.177   6.704
 9492SOL     OW29374   2.954   5.759   1.058
 9492SOL    HW129375   2.920   5.704   1.134
 9492SOL    HW229376   2.975   5.700   0.980
 9493SOL     OW29377   4.710   5.834   2.696
 9493SOL    HW129378   4.763   5.919   2.697
 9493SOL    HW229379   4.771   5.758   2.672
 9494SOL     OW29380   3.599   2.909   6.545
 9494SOL    HW129381   3.655   2.958   6.478
 9494SOL    HW229382   3.502   2.925   6.525
 9495SOL     OW29383   5.282   2.561   4.497
 9495SOL    HW129384   5.303   2.513   4.412
 9495SOL    HW229385   5.329   2.517   4.573
 9496SOL     OW29386   0.362   4.452   6.477
 9496SOL    HW129387   0.368   4.354   6.456
 9496SOL    HW229388   0.334   4.464   6.572
 9497SOL     OW29389   0.903   6.456   6.203
 9497SOL    HW129390   0.917   6.514   6.283
 9497SOL    HW229391   0.823   6.489   6.152
 9498SOL     OW29392   4.314   6.441   6.485
 9498SOL    HW129393   4.261   6.460   6.402
 9498SOL    HW229394   4.409   6.422   6.460
 9499SOL     OW29395   4.844   3.750   5.290
 9499SOL    HW129396   4.821   3.692   5.213
 9499SOL    HW229397   4.926   3.804   5.268
 9500SOL     OW29398   3.711   5.831   1.055
 9500SOL    HW129399   3.677   5.889   0.981
 9500SOL    HW229400   3.680   5.737   1.042
 9501SOL     OW29401   3.408   1.774   4.780
 9501SOL    HW129402   3.464   1.833   4.839
 9501SOL    HW229403   3.469   1.718   4.723
 9502SOL     OW29404   4.183   2.995   6.236
 9502SOL    HW129405   4.123   2.945   6.298
 9502SOL    HW229406   4.247   2.931   6.193
 9503SOL     OW29407   0.950   6.376   1.110
 9503SOL    HW129408   0.972   6.354   1.015
 9503SOL    HW229409   0.947   6.292   1.164
 9504SOL     OW29410   0.024   3.038   0.858
 9504SOL    HW129411   6.989   3.012   0.937
 9504SOL    HW229412   0.112   2.991   0.863
 9505SOL     OW29413   5.096   3.273   3.319
 9505SOL    HW129414   5.025   3.262   3.250
 9505SOL    HW229415   5.178   3.312   3.277
 9506SOL     OW29416   6.455   1.871   1.038
 9506SOL    HW129417   6.420   1.811   1.110
 9506SOL    HW229418   6.406   1.958   1.042
 9507SOL     OW29419   1.652   3.191   5.399
 9507SOL    HW129420   1.601   3.142   5.328
 9507SOL    HW229421   1.750   3.181   5.383
 9508SOL     OW29422   3.849   1.371   5.565
 9508SOL    HW129423   3.751   1.350   5.574
 9508SOL    HW229424   3.863   1.427   5.483
 9509SOL     OW29425   3.611   6.809   5.754
 9509SOL    HW129426   3.552   6.850   5.823
 9509SOL    HW229427   3.685   6.759   5.798
 9510SOL     OW29428   6.934   4.230   2.665
 9510SOL    HW129429   6.855   4.285   2.640
 9510SOL    HW229430   6.906   4.158   2.728
 9511SOL     OW29431   2.284   1.753   1.488
 9511SOL    HW129432   2.265   1.816   1.413
 9511SOL    HW229433   2.199   1.711   1.519
 9512SOL     OW29434   1.555   3.293   5.637
 9512SOL    HW129435   1.598   3.259   5.553
 9512SOL    HW229436   1.465   3.251   5.647
 9513SOL     OW29437   3.291   4.900   3.608
 9513SOL    HW129438   3.282   4.908   3.508
 9513SOL    HW229439   3.384   4.925   3.634
 9514SOL     OW29440   3.046   3.566   5.538
 9514SOL    HW129441   3.082   3.597   5.625
 9514SOL    HW229442   3.097   3.609   5.463
 9515SOL     OW29443   1.575   5.846   5.664
 9515SOL    HW129444   1.671   5.874   5.668
 9515SOL    HW229445   1.521   5.907   5.721
 9516SOL     OW29446   6.368   4.424   4.718
 9516SOL    HW129447   6.360   4.508   4.665
 9516SOL    HW229448   6.323   4.437   4.807
 9517SOL     OW29449   0.373   5.586   2.313
 9517SOL    HW129450   0.342   5.549   2.400
 9517SOL    HW229451   0.301   5.644   2.274
 9518SOL     OW29452   0.775   3.170   5.589
 9518SOL    HW129453   0.822   3.257   5.582
 9518SOL    HW229454   0.757   3.135   5.497
 9519SOL     OW29455   3.150   3.089   3.533
 9519SOL    HW129456   3.236   3.139   3.525
 9519SOL    HW229457   3.155   3.025   3.610
 9520SOL     OW29458   4.652   1.106   5.959
 9520SOL    HW129459   4.662   1.200   5.928
 9520SOL    HW229460   4.617   1.049   5.885
 9521SOL     OW29461   3.775   1.307   1.398
 9521SOL    HW129462   3.774   1.264   1.308
 9521SOL    HW229463   3.690   1.358   1.412
 9522SOL     OW29464   3.722   6.395   1.318
 9522SOL    HW129465   3.755   6.406   1.224
 9522SOL    HW229466   3.739   6.301   1.348
 9523SOL     OW29467   2.505   4.587   4.330
 9523SOL    HW129468   2.454   4.517   4.281
 9523SOL    HW229469   2.448   4.628   4.401
 9524SOL     OW29470   1.520   3.402   0.908
 9524SOL    HW129471   1.548   3.312   0.876
 9524SOL    HW229472   1.596   3.466   0.897
 9525SOL     OW29473   2.549   2.426   6.247
 9525SOL    HW129474   2.594   2.499   6.195
 9525SOL    HW229475   2.470   2.393   6.196
 9526SOL     OW29476   5.221   4.286   6.098
 9526SOL    HW129477   5.145   4.317   6.155
 9526SOL    HW229478   5.217   4.187   6.086
 9527SOL     OW29479   4.357   5.699   4.805
 9527SOL    HW129480   4.425   5.753   4.757
 9527SOL    HW229481   4.347   5.610   4.760
 9528SOL     OW29482   5.002   2.562   1.101
 9528SOL    HW129483   4.911   2.600   1.120
 9528SOL    HW229484   5.049   2.546   1.188
 9529SOL     OW29485   5.821   0.231   1.493
 9529SOL    HW129486   5.888   0.297   1.462
 9529SOL    HW229487   5.804   0.243   1.591
 9530SOL     OW29488   1.025   5.993   3.596
 9530SOL    HW129489   0.956   5.988   3.668
 9530SOL    HW229490   1.065   5.902   3.582
 9531SOL     OW29491   3.598   5.840   2.005
 9531SOL    HW129492   3.657   5.790   1.942
 9531SOL    HW229493   3.610   5.939   1.991
 9532SOL     OW29494   6.806   5.189   4.018
 9532SOL    HW129495   6.857   5.150   4.095
 9532SOL    HW229496   6.806   5.289   4.026
 9533SOL     OW29497   1.165   4.510   4.112
 9533SOL    HW129498   1.174   4.414   4.141
 9533SOL    HW229499   1.115   4.561   4.182
 9534SOL     OW29500   4.798   6.212   4.405
 9534SOL    HW129501   4.855   6.145   4.452
 9534SOL    HW229502   4.831   6.224   4.311
 9535SOL     OW29503   6.969   1.476   4.098
 9535SOL    HW129504   6.872   1.450   4.101
 9535SOL    HW229505   6.980   1.568   4.134
 9536SOL     OW29506   3.387   3.481   6.058
 9536SOL    HW129507   3.387   3.544   6.136
 9536SOL    HW229508   3.413   3.530   5.975
 9537SOL     OW29509   6.931   0.626   4.591
 9537SOL    HW129510   6.917   0.721   4.619
 9537SOL    HW229511   6.884   0.565   4.655
 9538SOL     OW29512   6.015   0.590   5.355
 9538SOL    HW129513   5.965   0.521   5.303
 9538SOL    HW229514   5.952   0.638   5.416
 9539SOL     OW29515   3.516   4.201   1.996
 9539SOL    HW129516   3.516   4.294   2.034
 9539SOL    HW229517   3.534   4.136   2.070
 9540SOL     OW29518   4.161   5.187   3.066
 9540SOL    HW129519   4.215   5.106   3.089
 9540SOL    HW229520   4.212   5.269   3.091
 9541SOL     OW29521   1.735   5.371   5.880
 9541SOL    HW129522   1.722   5.459   5.835
 9541SOL    HW229523   1.814   5.375   5.941
 9542SOL     OW29524   6.316   3.589   3.386
 9542SOL    HW129525   6.248   3.567   3.316
 9542SOL    HW229526   6.397   3.628   3.342
 9543SOL     OW29527   1.955   0.736   5.915
 9543SOL    HW129528   1.944   0.767   5.820
 9543SOL    HW229529   2.049   0.751   5.944
 9544SOL     OW29530   6.070   2.932   4.971
 9544SOL    HW129531   6.003   2.960   4.902
 9544SOL    HW229532   6.114   3.013   5.010
 9545SOL     OW29533   6.291   4.066   1.615
 9545SOL    HW129534   6.248   4.136   1.673
 9545SOL    HW229535   6.278   3.976   1.657
 9546SOL     OW29536   3.107   2.619   0.210
 9546SOL    HW129537   3.058   2.707   0.205
 9546SOL    HW229538   3.205   2.635   0.196
 9547SOL     OW29539   4.099   0.617   3.435
 9547SOL    HW129540   4.109   0.536   3.493
 9547SOL    HW229541   4.027   0.601   3.368
 9548SOL     OW29542   0.792   5.095   5.478
 9548SOL    HW129543   0.884   5.085   5.442
 9548SOL    HW229544   0.729   5.119   5.404
 9549SOL     OW29545   4.901   1.282   1.663
 9549SOL    HW129546   4.890   1.381   1.660
 9549SOL    HW229547   4.969   1.254   1.595
 9550SOL     OW29548   7.018   1.951   1.991
 9550SOL    HW129549   0.095   1.962   2.002
 9550SOL    HW229550   6.998   1.927   1.896
 9551SOL     OW29551   6.491   3.378   6.978
 9551SOL    HW129552   6.515   3.399   6.883
 9551SOL    HW229553   6.416   3.438   7.007
 9552SOL     OW29554   3.456   2.000   0.459
 9552SOL    HW129555   3.506   2.078   0.420
 9552SOL    HW229556   3.388   1.968   0.394
 9553SOL     OW29557   5.284   1.478   0.044
 9553SOL    HW129558   5.292   1.564   7.015
 9553SOL    HW229559   5.190   1.467   0.077
 9554SOL     OW29560   2.661   0.935   4.410
 9554SOL    HW129561   2.583   0.967   4.465
 9554SOL    HW229562   2.722   0.880   4.467
 9555SOL     OW29563   0.304   6.403   2.599
 9555SOL    HW129564   0.356   6.427   2.517
 9555SOL    HW229565   0.362   6.417   2.680
 9556SOL     OW29566   2.425   4.981   6.451
 9556SOL    HW129567   2.465   5.014   6.537
 9556SOL    HW229568   2.376   4.895   6.469
 9557SOL     OW29569   5.288   1.121   0.257
 9557SOL    HW129570   5.231   1.143   0.178
 9557SOL    HW229571   5.307   1.205   0.309
 9558SOL     OW29572   5.841   5.717   5.265
 9558SOL    HW129573   5.887   5.786   5.208
 9558SOL    HW229574   5.781   5.662   5.208
 9559SOL     OW29575   2.291   4.266   0.144
 9559SOL    HW129576   2.275   4.332   0.218
 9559SOL    HW229577   2.363   4.301   0.084
 9560SOL     OW29578   2.146   0.002   1.406
 9560SOL    HW129579   2.236   7.021   1.362
 9560SOL    HW229580   2.134   0.089   1.452
 9561SOL     OW29581   6.835   1.196   6.539
 9561SOL    HW129582   6.753   1.141   6.553
 9561SOL    HW229583   6.887   1.159   6.463
 9562SOL     OW29584   1.913   6.038   2.916
 9562SOL    HW129585   1.935   6.088   2.832
 9562SOL    HW229586   1.874   6.102   2.983
 9563SOL     OW29587   0.315   5.446   0.116
 9563SOL    HW129588   0.278   5.388   0.188
 9563SOL    HW229589   0.401   5.488   0.146
 9564SOL     OW29590   0.670   1.700   0.163
 9564SOL    HW129591   0.600   1.739   0.102
 9564SOL    HW229592   0.749   1.671   0.108
 9565SOL     OW29593   2.331   2.335   4.749
 9565SOL    HW129594   2.285   2.394   4.682
 9565SOL    HW229595   2.422   2.372   4.768
 9566SOL     OW29596   3.424   0.453   6.523
 9566SOL    HW129597   3.343   0.410   6.562
 9566SOL    HW229598   3.461   0.396   6.450
 9567SOL     OW29599   6.705   4.373   0.752
 9567SOL    HW129600   6.623   4.324   0.722
 9567SOL    HW229601   6.781   4.350   0.692
 9568SOL     OW29602   4.560   2.447   5.389
 9568SOL    HW129603   4.495   2.478   5.459
 9568SOL    HW229604   4.605   2.527   5.349
 9569SOL     OW29605   5.810   0.440   2.288
 9569SOL    HW129606   5.850   0.524   2.324
 9569SOL    HW229607   5.814   0.369   2.359
 9570SOL     OW29608   0.735   3.818   2.305
 9570SOL    HW129609   0.725   3.719   2.293
 9570SOL    HW229610   0.818   3.849   2.259
 9571SOL     OW29611   1.522   0.887   6.697
 9571SOL    HW129612   1.453   0.937   6.748
 9571SOL    HW229613   1.520   0.791   6.723
 9572SOL     OW29614   2.968   4.852   4.896
 9572SOL    HW129615   2.985   4.786   4.970
 9572SOL    HW229616   2.931   4.803   4.817
 9573SOL     OW29617   5.789   6.729   4.285
 9573SOL    HW129618   5.852   6.786   4.337
 9573SOL    HW229619   5.746   6.784   4.213
 9574SOL     OW29620   4.796   2.731   1.216
 9574SOL    HW129621   4.727   2.659   1.229
 9574SOL    HW229622   4.756   2.820   1.240
 9575SOL     OW29623   5.176   1.100   1.707
 9575SOL    HW129624   5.265   1.115   1.665
 9575SOL    HW229625   5.150   1.181   1.760
 9576SOL     OW29626   1.244   1.447   5.872
 9576SOL    HW129627   1.284   1.505   5.801
 9576SOL    HW229628   1.314   1.384   5.906
 9577SOL     OW29629   0.205   5.475   3.017
 9577SOL    HW129630   0.298   5.510   3.028
 9577SOL    HW229631   0.208   5.390   2.964
 9578SOL     OW29632   1.820   3.236   2.853
 9578SOL    HW129633   1.814   3.305   2.925
 9578SOL    HW229634   1.894   3.261   2.790
 9579SOL     OW29635   5.453   5.412   2.530
 9579SOL    HW129636   5.404   5.401   2.444
 9579SOL    HW229637   5.402   5.368   2.604
 9580SOL     OW29638   4.796   4.262   3.907
 9580SOL    HW129639   4.761   4.170   3.887
 9580SOL    HW229640   4.775   4.286   4.002
 9581SOL     OW29641   4.892   1.813   6.163
 9581SOL    HW129642   4.859   1.814   6.257
 9581SOL    HW229643   4.988   1.841   6.161
 9582SOL     OW29644   4.611   6.507   5.304
 9582SOL    HW129645   4.557   6.549   5.377
 9582SOL    HW229646   4.573   6.533   5.215
 9583SOL     OW29647   2.660   4.531   1.220
 9583SOL    HW129648   2.590   4.602   1.209
 9583SOL    HW229649   2.617   4.445   1.246
 9584SOL     OW29650   2.294   5.534   4.176
 9584SOL    HW129651   2.233   5.511   4.251
 9584SOL    HW229652   2.303   5.456   4.115
 9585SOL     OW29653   4.412   6.641   0.833
 9585SOL    HW129654   4.354   6.636   0.752
 9585SOL    HW229655   4.448   6.550   0.854
 9586SOL     OW29656   3.700   5.248   3.397
 9586SOL    HW129657   3.658   5.277   3.311
 9586SOL    HW229658   3.799   5.263   3.393
 9587SOL     OW29659   3.868   6.345   0.037
 9587SOL    HW129660   3.836   6.259   0.078
 9587SOL    HW229661   3.793   6.411   0.037
 9588SOL     OW29662   6.443   5.927   1.292
 9588SOL    HW129663   6.434   5.842   1.343
 9588SOL    HW229664   6.508   5.914   1.217
 9589SOL     OW29665   1.010   1.195   5.497
 9589SOL    HW129666   0.967   1.249   5.424
 9589SOL    HW229667   1.018   1.251   5.580
 9590SOL     OW29668   5.279   0.467   0.390
 9590SOL    HW129669   5.353   0.535   0.393
 9590SOL    HW229670   5.198   0.504   0.434
 9591SOL     OW29671   4.895   0.946   6.581
 9591SOL    HW129672   4.933   0.855   6.594
 9591SOL    HW229673   4.918   1.004   6.659
 9592SOL     OW29674   1.555   5.659   5.241
 9592SOL    HW129675   1.624   5.724   5.274
 9592SOL    HW229676   1.488   5.707   5.185
 9593SOL     OW29677   2.767   2.273   4.624
 9593SOL    HW129678   2.708   2.201   4.586
 9593SOL    HW229679   2.862   2.243   4.623
 9594SOL     OW29680   0.345   6.381   3.530
 9594SOL    HW129681   0.427   6.437   3.518
 9594SOL    HW229682   0.334   6.322   3.450
 9595SOL     OW29683   0.567   4.580   3.823
 9595SOL    HW129684   0.665   4.568   3.842
 9595SOL    HW229685   0.554   4.597   3.725
 9596SOL     OW29686   1.339   6.363   1.277
 9596SOL    HW129687   1.388   6.317   1.351
 9596SOL    HW229688   1.381   6.452   1.260
 9597SOL     OW29689   0.647   3.307   1.913
 9597SOL    HW129690   0.582   3.309   1.989
 9597SOL    HW229691   0.740   3.321   1.948
 9598SOL     OW29692   2.596   4.927   3.390
 9598SOL    HW129693   2.560   4.888   3.476
 9598SOL    HW229694   2.643   4.855   3.339
 9599SOL     OW29695   4.793   0.126   5.680
 9599SOL    HW129696   4.822   0.156   5.590
 9599SOL    HW229697   4.729   0.051   5.671
 9600SOL     OW29698   3.961   1.370   0.840
 9600SOL    HW129699   3.896   1.430   0.792
 9600SOL    HW229700   4.045   1.420   0.859
 9601SOL     OW29701   0.988   4.123   0.855
 9601SOL    HW129702   0.944   4.047   0.903
 9601SOL    HW229703   0.951   4.130   0.763
 9602SOL     OW29704   3.979   4.364   5.803
 9602SOL    HW129705   4.043   4.315   5.862
 9602SOL    HW229706   4.030   4.427   5.745
 9603SOL     OW29707   5.571   6.521   5.672
 9603SOL    HW129708   5.653   6.568   5.639
 9603SOL    HW229709   5.555   6.547   5.767
 9604SOL     OW29710   4.573   6.632   1.398
 9604SOL    HW129711   4.560   6.730   1.414
 9604SOL    HW229712   4.492   6.596   1.351
 9605SOL     OW29713   5.033   4.824   1.590
 9605SOL    HW129714   4.970   4.856   1.519
 9605SOL    HW229715   5.126   4.852   1.568
 9606SOL     OW29716   1.631   1.562   6.899
 9606SOL    HW129717   1.580   1.563   6.985
 9606SOL    HW229718   1.568   1.551   6.822
 9607SOL     OW29719   1.523   2.343   6.794
 9607SOL    HW129720   1.552   2.399   6.716
 9607SOL    HW229721   1.593   2.274   6.813
 9608SOL     OW29722   6.497   2.447   4.533
 9608SOL    HW129723   6.487   2.540   4.567
 9608SOL    HW229724   6.411   2.397   4.546
 9609SOL     OW29725   4.823   3.585   0.852
 9609SOL    HW129726   4.808   3.503   0.908
 9609SOL    HW229727   4.749   3.593   0.786
 9610SOL     OW29728   1.129   5.048   2.676
 9610SOL    HW129729   1.067   4.975   2.648
 9610SOL    HW229730   1.221   5.027   2.645
 9611SOL     OW29731   2.464   0.434   0.241
 9611SOL    HW129732   2.557   0.409   0.267
 9611SOL    HW229733   2.447   0.405   0.147
 9612SOL     OW29734   0.085   1.499   3.699
 9612SOL    HW129735   0.175   1.542   3.698
 9612SOL    HW229736   0.047   1.499   3.606
 9613SOL     OW29737   5.876   4.427   4.528
 9613SOL    HW129738   5.863   4.368   4.608
 9613SOL    HW229739   5.842   4.519   4.548
 9614SOL     OW29740   3.907   1.378   3.368
 9614SOL    HW129741   3.901   1.346   3.273
 9614SOL    HW229742   4.003   1.397   3.390
 9615SOL     OW29743   1.807   3.319   1.436
 9615SOL    HW129744   1.772   3.324   1.342
 9615SOL    HW229745   1.865   3.239   1.445
 9616SOL     OW29746   3.511   3.650   5.838
 9616SOL    HW129747   3.549   3.742   5.838
 9616SOL    HW229748   3.585   3.583   5.825
 9617SOL     OW29749   0.985   3.150   2.795
 9617SOL    HW129750   1.061   3.086   2.800
 9617SOL    HW229751   0.911   3.119   2.853
 9618SOL     OW29752   2.283   2.664   0.669
 9618SOL    HW129753   2.243   2.740   0.720
 9618SOL    HW229754   2.379   2.683   0.651
 9619SOL     OW29755   2.395   6.999   6.716
 9619SOL    HW129756   2.435   0.033   6.643
 9619SOL    HW229757   2.303   6.972   6.690
 9620SOL     OW29758   5.557   1.057   4.852
 9620SOL    HW129759   5.541   1.086   4.758
 9620SOL    HW229760   5.478   1.081   4.908
 9621SOL     OW29761   1.610   3.838   3.777
 9621SOL    HW129762   1.542   3.856   3.706
 9621SOL    HW229763   1.609   3.741   3.800
 9622SOL     OW29764   4.308   6.962   0.101
 9622SOL    HW129765   4.321   6.911   0.186
 9622SOL    HW229766   4.361   6.919   0.027
 9623SOL     OW29767   0.816   3.356   6.390
 9623SOL    HW129768   0.911   3.379   6.410
 9623SOL    HW229769   0.785   3.409   6.312
 9624SOL     OW29770   6.329   3.076   3.771
 9624SOL    HW129771   6.270   2.996   3.772
 9624SOL    HW229772   6.390   3.072   3.692
 9625SOL     OW29773   5.220   6.142   1.752
 9625SOL    HW129774   5.315   6.172   1.754
 9625SOL    HW229775   5.194   6.122   1.657
 9626SOL     OW29776   3.758   0.583   0.185
 9626SOL    HW129777   3.720   0.595   0.277
 9626SOL    HW229778   3.776   0.673   0.145
 9627SOL     OW29779   0.556   0.417   0.682
 9627SOL    HW129780   0.566   0.431   0.583
 9627SOL    HW229781   0.520   0.500   0.724
 9628SOL     OW29782   3.415   6.858   2.024
 9628SOL    HW129783   3.407   6.842   1.926
 9628SOL    HW229784   3.329   6.895   2.060
 9629SOL     OW29785   2.354   0.345   0.477
 9629SOL    HW129786   2.375   0.397   0.394
 9629SOL    HW229787   2.270   0.293   0.463
 9630SOL     OW29788   0.817   2.342   6.689
 9630SOL    HW129789   0.841   2.428   6.644
 9630SOL    HW229790   0.777   2.279   6.622
 9631SOL     OW29791   6.715   5.474   0.802
 9631SOL    HW129792   6.773   5.542   0.758
 9631SOL    HW229793   6.621   5.483   0.768
 9632SOL     OW29794   1.863   5.580   2.713
 9632SOL    HW129795   1.778   5.541   2.678
 9632SOL    HW229796   1.843   5.667   2.758
 9633SOL     OW29797   0.575   4.626   0.561
 9633SOL    HW129798   0.631   4.648   0.641
 9633SOL    HW229799   0.502   4.693   0.552
 9634SOL     OW29800   6.905   5.930   5.944
 9634SOL    HW129801   6.811   5.949   5.916
 9634SOL    HW229802   6.907   5.844   5.996
 9635SOL     OW29803   6.187   5.869   6.156
 9635SOL    HW129804   6.182   5.860   6.255
 9635SOL    HW229805   6.281   5.892   6.129
 9636SOL     OW29806   3.623   1.420   0.600
 9636SOL    HW129807   3.620   1.335   0.653
 9636SOL    HW229808   3.681   1.486   0.647
 9637SOL     OW29809   2.423   1.601   0.039
 9637SOL    HW129810   2.506   1.607   0.093
 9637SOL    HW229811   2.400   1.505   0.023
 9638SOL     OW29812   6.735   2.822   6.582
 9638SOL    HW129813   6.637   2.819   6.563
 9638SOL    HW229814   6.766   2.916   6.586
 9639SOL     OW29815   3.501   0.144   2.427
 9639SOL    HW129816   3.488   0.168   2.523
 9639SOL    HW229817   3.412   0.135   2.382
 9640SOL     OW29818   2.487   1.688   2.881
 9640SOL    HW129819   2.483   1.770   2.823
 9640SOL    HW229820   2.509   1.608   2.825
 9641SOL     OW29821   4.934   5.712   6.859
 9641SOL    HW129822   5.029   5.699   6.831
 9641SOL    HW229823   4.914   5.652   6.937
 9642SOL     OW29824   3.205   6.899   2.938
 9642SOL    HW129825   3.174   6.819   2.887
 9642SOL    HW229826   3.280   6.873   2.999
 9643SOL     OW29827   3.749   4.882   2.281
 9643SOL    HW129828   3.764   4.805   2.219
 9643SOL    HW229829   3.689   4.949   2.238
 9644SOL     OW29830   2.412   1.106   0.233
 9644SOL    HW129831   2.338   1.167   0.263
 9644SOL    HW229832   2.430   1.038   0.304
 9645SOL     OW29833   2.690   5.063   5.464
 9645SOL    HW129834   2.642   4.976   5.451
 9645SOL    HW229835   2.787   5.047   5.476
 9646SOL     OW29836   3.412   4.938   4.208
 9646SOL    HW129837   3.418   4.944   4.307
 9646SOL    HW229838   3.440   4.847   4.178
 9647SOL     OW29839   6.158   2.973   5.756
 9647SOL    HW129840   6.093   2.974   5.831
 9647SOL    HW229841   6.245   3.013   5.786
 9648SOL     OW29842   4.361   4.037   1.048
 9648SOL    HW129843   4.294   4.099   1.089
 9648SOL    HW229844   4.449   4.048   1.093
 9649SOL     OW29845   1.806   4.547   0.739
 9649SOL    HW129846   1.861   4.529   0.658
 9649SOL    HW229847   1.757   4.464   0.765
 9650SOL     OW29848   1.598   0.700   1.177
 9650SOL    HW129849   1.659   0.640   1.125
 9650SOL    HW229850   1.653   0.765   1.230
 9651SOL     OW29851   0.755   2.081   0.284
 9651SOL    HW129852   0.747   2.180   0.271
 9651SOL    HW229853   0.840   2.049   0.241
 9652SOL     OW29854   1.777   4.458   1.147
 9652SOL    HW129855   1.729   4.545   1.141
 9652SOL    HW229856   1.747   4.408   1.228
 9653SOL     OW29857   6.457   6.481   4.274
 9653SOL    HW129858   6.392   6.457   4.347
 9653SOL    HW229859   6.407   6.523   4.198
 9654SOL     OW29860   2.205   2.805   2.421
 9654SOL    HW129861   2.149   2.754   2.355
 9654SOL    HW229862   2.273   2.744   2.461
 9655SOL     OW29863   6.505   2.911   0.410
 9655SOL    HW129864   6.475   2.827   0.364
 9655SOL    HW229865   6.521   2.892   0.507
 9656SOL     OW29866   2.596   2.028   2.363
 9656SOL    HW129867   2.534   2.086   2.415
 9656SOL    HW229868   2.658   1.981   2.425
 9657SOL     OW29869   0.546   0.472   4.591
 9657SOL    HW129870   0.471   0.413   4.562
 9657SOL    HW229871   0.633   0.423   4.581
 9658SOL     OW29872   6.184   0.690   3.219
 9658SOL    HW129873   6.235   0.728   3.297
 9658SOL    HW229874   6.247   0.639   3.161
 9659SOL     OW29875   1.844   5.630   6.622
 9659SOL    HW129876   1.880   5.713   6.665
 9659SOL    HW229877   1.764   5.598   6.673
 9660SOL     OW29878   1.267   4.094   0.223
 9660SOL    HW129879   1.201   4.138   0.285
 9660SOL    HW229880   1.357   4.134   0.238
 9661SOL     OW29881   4.078   0.735   1.143
 9661SOL    HW129882   4.166   0.765   1.107
 9661SOL    HW229883   4.009   0.805   1.123
 9662SOL     OW29884   4.713   2.392   4.265
 9662SOL    HW129885   4.672   2.301   4.270
 9662SOL    HW229886   4.641   2.459   4.247
 9663SOL     OW29887   3.308   5.718   2.527
 9663SOL    HW129888   3.310   5.677   2.618
 9663SOL    HW229889   3.401   5.724   2.491
 9664SOL     OW29890   2.375   5.757   1.236
 9664SOL    HW129891   2.451   5.747   1.300
 9664SOL    HW229892   2.328   5.844   1.254
 9665SOL     OW29893   5.576   4.845   3.645
 9665SOL    HW129894   5.575   4.924   3.584
 9665SOL    HW229895   5.637   4.775   3.607
 9666SOL     OW29896   5.230   5.158   4.589
 9666SOL    HW129897   5.187   5.090   4.648
 9666SOL    HW229898   5.185   5.247   4.601
 9667SOL     OW29899   3.002   3.241   2.853
 9667SOL    HW129900   2.932   3.264   2.920
 9667SOL    HW229901   3.080   3.303   2.862
 9668SOL     OW29902   0.160   1.638   4.802
 9668SOL    HW129903   0.180   1.736   4.793
 9668SOL    HW229904   0.080   1.626   4.861
 9669SOL     OW29905   1.032   6.961   6.934
 9669SOL    HW129906   1.011   6.956   6.836
 9669SOL    HW229907   0.982   6.890   6.983
 9670SOL     OW29908   6.232   3.804   6.625
 9670SOL    HW129909   6.236   3.900   6.596
 9670SOL    HW229910   6.178   3.797   6.709
 9671SOL     OW29911   6.682   1.635   6.843
 9671SOL    HW129912   6.759   1.577   6.818
 9671SOL    HW229913   6.707   1.692   6.922
 9672SOL     OW29914   0.341   7.007   5.534
 9672SOL    HW129915   0.318   6.912   5.555
 9672SOL    HW229916   0.288   0.016   5.456
 9673SOL     OW29917   2.004   2.189   6.249
 9673SOL    HW129918   2.089   2.137   6.262
 9673SOL    HW229919   1.944   2.174   6.327
 9674SOL     OW29920   2.555   6.109   2.249
 9674SOL    HW129921   2.634   6.157   2.289
 9674SOL    HW229922   2.478   6.172   2.243
 9675SOL     OW29923   6.991   2.281   2.303
 9675SOL    HW129924   7.009   2.284   2.205
 9675SOL    HW229925   6.997   2.374   2.341
 9676SOL     OW29926   6.567   2.764   4.011
 9676SOL    HW129927   6.550   2.719   3.924
 9676SOL    HW229928   6.617   2.702   4.072
 9677SOL     OW29929   1.813   4.062   6.264
 9677SOL    HW129930   1.878   4.024   6.198
 9677SOL    HW229931   1.740   4.110   6.215
 9678SOL     OW29932   3.229   3.421   3.360
 9678SOL    HW129933   3.285   3.346   3.395
 9678SOL    HW229934   3.210   3.405   3.263
 9679SOL     OW29935   0.265   3.562   2.068
 9679SOL    HW129936   0.232   3.470   2.093
 9679SOL    HW229937   0.325   3.555   1.989
 9680SOL     OW29938   4.597   5.460   2.784
 9680SOL    HW129939   4.593   5.484   2.687
 9680SOL    HW229940   4.678   5.403   2.800
 9681SOL     OW29941   1.142   0.618   3.857
 9681SOL    HW129942   1.111   0.545   3.919
 9681SOL    HW229943   1.167   0.579   3.769
 9682SOL     OW29944   0.438   4.435   2.285
 9682SOL    HW129945   0.459   4.369   2.214
 9682SOL    HW229946   0.467   4.526   2.255
 9683SOL     OW29947   4.621   0.016   5.021
 9683SOL    HW129948   4.559   0.058   5.086
 9683SOL    HW229949   4.575   6.963   4.973
 9684SOL     OW29950   1.744   4.132   2.922
 9684SOL    HW129951   1.706   4.098   3.007
 9684SOL    HW229952   1.735   4.232   2.919
 9685SOL     OW29953   1.686   1.104   6.669
 9685SOL    HW129954   1.626   1.175   6.706
 9685SOL    HW229955   1.645   1.014   6.685
 9686SOL     OW29956   6.277   2.682   3.126
 9686SOL    HW129957   6.370   2.648   3.139
 9686SOL    HW229958   6.280   2.771   3.079
 9687SOL     OW29959   2.940   1.150   5.123
 9687SOL    HW129960   2.969   1.154   5.027
 9687SOL    HW229961   2.981   1.071   5.167
 9688SOL     OW29962   5.670   2.134   4.609
 9688SOL    HW129963   5.748   2.091   4.654
 9688SOL    HW229964   5.692   2.152   4.513
 9689SOL     OW29965   2.852   5.425   5.630
 9689SOL    HW129966   2.771   5.398   5.681
 9689SOL    HW229967   2.885   5.348   5.575
 9690SOL     OW29968   6.077   3.488   0.014
 9690SOL    HW129969   5.983   3.497   7.003
 9690SOL    HW229970   6.080   3.503   0.112
 9691SOL     OW29971   1.343   4.412   1.041
 9691SOL    HW129972   1.425   4.362   1.014
 9691SOL    HW229973   1.262   4.354   1.028
 9692SOL     OW29974   3.224   5.251   0.327
 9692SOL    HW129975   3.205   5.273   0.422
 9692SOL    HW229976   3.296   5.311   0.293
 9693SOL     OW29977   6.008   5.857   1.529
 9693SOL    HW129978   6.015   5.897   1.438
 9693SOL    HW229979   6.086   5.886   1.585
 9694SOL     OW29980   0.866   0.809   0.114
 9694SOL    HW129981   0.812   0.788   0.032
 9694SOL    HW229982   0.863   0.731   0.177
 9695SOL     OW29983   5.594   4.474   0.355
 9695SOL    HW129984   5.514   4.455   0.412
 9695SOL    HW229985   5.675   4.477   0.413
 9696SOL     OW29986   4.218   4.172   6.925
 9696SOL    HW129987   4.194   4.258   6.880
 9696SOL    HW229988   4.137   4.134   6.970
 9697SOL     OW29989   0.110   5.632   0.022
 9697SOL    HW129990   0.159   5.547   0.042
 9697SOL    HW229991   0.157   5.680   6.969
 9698SOL     OW29992   4.813   1.451   5.408
 9698SOL    HW129993   4.826   1.463   5.310
 9698SOL    HW229994   4.843   1.359   5.434
 9699SOL     OW29995   1.575   2.195   6.403
 9699SOL    HW129996   1.572   2.235   6.495
 9699SOL    HW229997   1.629   2.111   6.405
 9700SOL     OW29998   3.983   3.210   3.321
 9700SOL    HW129999   3.923   3.130   3.329
 9700SOL    HW230000   4.004   3.245   3.412
 9701SOL     OW30001   4.064   4.892   4.181
 9701SOL    HW130002   4.019   4.942   4.256
 9701SOL    HW230003   4.116   4.957   4.125
 9702SOL     OW30004   5.217   0.357   6.615
 9702SOL    HW130005   5.247   0.278   6.562
 9702SOL    HW230006   5.291   0.388   6.674
 9703SOL     OW30007   1.998   6.023   4.524
 9703SOL    HW130008   2.076   6.056   4.472
 9703SOL    HW230009   1.937   5.972   4.464
 9704SOL     OW30010   3.092   1.216   4.492
 9704SOL    HW130011   3.065   1.211   4.588
 9704SOL    HW230012   3.022   1.267   4.441
 9705SOL     OW30013   2.610   4.005   0.949
 9705SOL    HW130014   2.611   3.911   0.982
 9705SOL    HW230015   2.517   4.042   0.958
 9706SOL     OW30016   0.007   2.087   3.731
 9706SOL    HW130017   0.053   2.065   3.645
 9706SOL    HW230018   0.031   2.019   3.800
 9707SOL     OW30019   2.561   5.743   1.441
 9707SOL    HW130020   2.571   5.827   1.494
 9707SOL    HW230021   2.563   5.664   1.502
 9708SOL     OW30022   1.234   1.938   1.836
 9708SOL    HW130023   1.315   1.883   1.854
 9708SOL    HW230024   1.198   1.917   1.745
 9709SOL     OW30025   1.702   6.313   3.840
 9709SOL    HW130026   1.650   6.357   3.766
 9709SOL    HW230027   1.656   6.329   3.927
 9710SOL     OW30028   2.100   6.658   3.871
 9710SOL    HW130029   2.016   6.607   3.884
 9710SOL    HW230030   2.171   6.597   3.835
 9711SOL     OW30031   2.044   2.967   6.453
 9711SOL    HW130032   2.102   2.898   6.496
 9711SOL    HW230033   2.064   2.971   6.355
 9712SOL     OW30034   5.267   3.850   4.466
 9712SOL    HW130035   5.176   3.814   4.443
 9712SOL    HW230036   5.326   3.775   4.495
 9713SOL     OW30037   0.771   5.733   3.718
 9713SOL    HW130038   0.761   5.670   3.796
 9713SOL    HW230039   0.791   5.825   3.752
 9714SOL     OW30040   2.073   2.138   2.091
 9714SOL    HW130041   2.122   2.053   2.106
 9714SOL    HW230042   2.037   2.141   1.998
 9715SOL     OW30043   5.714   5.428   5.807
 9715SOL    HW130044   5.769   5.354   5.768
 9715SOL    HW230045   5.727   5.431   5.907
 9716SOL     OW30046   3.456   0.568   5.912
 9716SOL    HW130047   3.401   0.501   5.862
 9716SOL    HW230048   3.407   0.655   5.916
 9717SOL     OW30049   5.924   5.357   3.236
 9717SOL    HW130050   5.879   5.434   3.190
 9717SOL    HW230051   5.960   5.387   3.324
 9718SOL     OW30052   5.850   2.664   2.364
 9718SOL    HW130053   5.762   2.707   2.384
 9718SOL    HW230054   5.923   2.717   2.408
 9719SOL     OW30055   0.415   1.332   0.016
 9719SOL    HW130056   0.353   1.317   6.960
 9719SOL    HW230057   0.369   1.389   0.085
 9720SOL     OW30058   0.230   1.459   0.627
 9720SOL    HW130059   0.211   1.386   0.692
 9720SOL    HW230060   0.328   1.479   0.627
 9721SOL     OW30061   0.830   2.457   3.731
 9721SOL    HW130062   0.806   2.375   3.784
 9721SOL    HW230063   0.882   2.429   3.650
 9722SOL     OW30064   6.998   6.979   4.525
 9722SOL    HW130065   7.018   6.996   4.621
 9722SOL    HW230066   6.952   6.891   4.515
 9723SOL     OW30067   6.090   0.946   4.957
 9723SOL    HW130068   5.993   0.944   4.981
 9723SOL    HW230069   6.100   0.952   4.857
 9724SOL     OW30070   4.010   2.526   1.257
 9724SOL    HW130071   4.006   2.448   1.320
 9724SOL    HW230072   3.960   2.603   1.296
 9725SOL     OW30073   4.068   3.066   5.972
 9725SOL    HW130074   4.086   3.045   6.067
 9725SOL    HW230075   3.982   3.024   5.944
 9726SOL     OW30076   5.108   5.931   5.328
 9726SOL    HW130077   5.066   6.000   5.269
 9726SOL    HW230078   5.064   5.934   5.418
 9727SOL     OW30079   0.337   0.802   6.530
 9727SOL    HW130080   0.320   0.704   6.522
 9727SOL    HW230081   0.251   0.852   6.518
 9728SOL     OW30082   2.519   5.610   6.126
 9728SOL    HW130083   2.562   5.551   6.194
 9728SOL    HW230084   2.541   5.577   6.034
 9729SOL     OW30085   3.385   5.917   2.182
 9729SOL    HW130086   3.440   5.925   2.264
 9729SOL    HW230087   3.442   5.886   2.106
 9730SOL     OW30088   4.874   3.563   2.691
 9730SOL    HW130089   4.864   3.627   2.767
 9730SOL    HW230090   4.797   3.573   2.628
 9731SOL     OW30091   5.443   4.257   0.774
 9731SOL    HW130092   5.429   4.159   0.789
 9731SOL    HW230093   5.429   4.307   0.859
 9732SOL     OW30094   5.514   6.110   4.417
 9732SOL    HW130095   5.445   6.082   4.350
 9732SOL    HW230096   5.512   6.210   4.427
 9733SOL     OW30097   4.739   4.293   4.160
 9733SOL    HW130098   4.728   4.213   4.219
 9733SOL    HW230099   4.679   4.367   4.192
 9734SOL     OW30100   6.374   2.462   5.874
 9734SOL    HW130101   6.373   2.365   5.849
 9734SOL    HW230102   6.279   2.495   5.882
 9735SOL     OW30103   3.583   4.732   1.324
 9735SOL    HW130104   3.589   4.815   1.269
 9735SOL    HW230105   3.632   4.658   1.277
 9736SOL     OW30106   3.865   2.085   2.104
 9736SOL    HW130107   3.795   2.127   2.045
 9736SOL    HW230108   3.927   2.157   2.138
 9737SOL     OW30109   5.088   1.487   4.506
 9737SOL    HW130110   5.181   1.452   4.518
 9737SOL    HW230111   5.039   1.481   4.593
 9738SOL     OW30112   2.572   0.253   2.273
 9738SOL    HW130113   2.559   0.187   2.348
 9738SOL    HW230114   2.529   0.218   2.190
 9739SOL     OW30115   5.129   4.605   2.556
 9739SOL    HW130116   5.127   4.705   2.552
 9739SOL    HW230117   5.096   4.574   2.645
 9740SOL     OW30118   6.590   3.487   3.761
 9740SOL    HW130119   6.680   3.531   3.772
 9740SOL    HW230120   6.591   3.399   3.809
 9741SOL     OW30121   3.982   1.575   2.963
 9741SOL    HW130122   3.989   1.674   2.970
 9741SOL    HW230123   3.931   1.539   3.041
 9742SOL     OW30124   3.702   1.525   2.464
 9742SOL    HW130125   3.747   1.607   2.498
 9742SOL    HW230126   3.620   1.550   2.412
 9743SOL     OW30127   1.478   1.266   5.917
 9743SOL    HW130128   1.442   1.240   6.006
 9743SOL    HW230129   1.549   1.201   5.889
 9744SOL     OW30130   2.422   0.319   1.089
 9744SOL    HW130131   2.327   0.304   1.062
 9744SOL    HW230132   2.483   0.274   1.024
 9745SOL     OW30133   0.422   1.072   3.968
 9745SOL    HW130134   0.438   1.171   3.962
 9745SOL    HW230135   0.460   1.037   4.053
 9746SOL     OW30136   6.058   6.704   4.672
 9746SOL    HW130137   6.034   6.758   4.591
 9746SOL    HW230138   6.079   6.610   4.644
 9747SOL     OW30139   0.138   0.222   5.492
 9747SOL    HW130140   0.092   0.257   5.573
 9747SOL    HW230141   0.174   0.298   5.438
 9748SOL     OW30142   1.551   4.566   4.538
 9748SOL    HW130143   1.605   4.648   4.558
 9748SOL    HW230144   1.509   4.575   4.448
 9749SOL     OW30145   0.920   5.320   4.876
 9749SOL    HW130146   0.966   5.231   4.874
 9749SOL    HW230147   0.821   5.307   4.878
 9750SOL     OW30148   2.695   5.500   2.359
 9750SOL    HW130149   2.753   5.555   2.420
 9750SOL    HW230150   2.617   5.555   2.328
 9751SOL     OW30151   1.377   1.799   1.025
 9751SOL    HW130152   1.468   1.758   1.021
 9751SOL    HW230153   1.377   1.885   0.973
 9752SOL     OW30154   3.220   6.782   5.934
 9752SOL    HW130155   3.270   6.705   5.975
 9752SOL    HW230156   3.123   6.771   5.951
 9753SOL     OW30157   0.181   0.603   6.760
 9753SOL    HW130158   0.138   0.540   6.824
 9753SOL    HW230159   0.239   0.551   6.697
 9754SOL     OW30160   0.134   2.900   6.434
 9754SOL    HW130161   0.179   2.810   6.437
 9754SOL    HW230162   0.071   2.903   6.357
 9755SOL     OW30163   4.268   5.979   4.621
 9755SOL    HW130164   4.194   6.036   4.587
 9755SOL    HW230165   4.313   6.025   4.698
 9756SOL     OW30166   4.525   2.815   6.573
 9756SOL    HW130167   4.515   2.848   6.667
 9756SOL    HW230168   4.620   2.787   6.557
 9757SOL     OW30169   5.587   0.693   4.105
 9757SOL    HW130170   5.523   0.683   4.181
 9757SOL    HW230171   5.594   0.790   4.080
 9758SOL     OW30172   3.567   0.207   0.384
 9758SOL    HW130173   3.506   0.170   0.454
 9758SOL    HW230174   3.660   0.214   0.421
 9759SOL     OW30175   2.748   6.290   1.690
 9759SOL    HW130176   2.674   6.321   1.630
 9759SOL    HW230177   2.781   6.368   1.744
 9760SOL     OW30178   5.020   3.678   6.148
 9760SOL    HW130179   5.118   3.667   6.165
 9760SOL    HW230180   5.004   3.681   6.049
 9761SOL     OW30181   5.348   5.564   3.036
 9761SOL    HW130182   5.429   5.589   3.089
 9761SOL    HW230183   5.268   5.566   3.095
 9762SOL     OW30184   3.381   1.014   2.075
 9762SOL    HW130185   3.374   1.022   2.174
 9762SOL    HW230186   3.477   1.016   2.048
 9763SOL     OW30187   2.322   2.241   1.898
 9763SOL    HW130188   2.375   2.183   1.960
 9763SOL    HW230189   2.244   2.191   1.863
 9764SOL     OW30190   1.344   3.080   4.279
 9764SOL    HW130191   1.274   3.150   4.294
 9764SOL    HW230192   1.392   3.062   4.364
 9765SOL     OW30193   0.258   1.799   5.463
 9765SOL    HW130194   0.282   1.703   5.453
 9765SOL    HW230195   0.335   1.856   5.433
 9766SOL     OW30196   3.032   0.333   1.783
 9766SOL    HW130197   3.044   0.393   1.704
 9766SOL    HW230198   3.115   0.333   1.839
 9767SOL     OW30199   4.476   0.573   5.099
 9767SOL    HW130200   4.467   0.664   5.058
 9767SOL    HW230201   4.414   0.567   5.178
 9768SOL     OW30202   4.630   1.727   3.064
 9768SOL    HW130203   4.682   1.642   3.057
 9768SOL    HW230204   4.557   1.727   2.996
 9769SOL     OW30205   6.852   2.779   0.139
 9769SOL    HW130206   6.891   2.871   0.127
 9769SOL    HW230207   6.867   2.748   0.232
 9770SOL     OW30208   0.197   3.093   4.930
 9770SOL    HW130209   0.247   3.089   4.843
 9770SOL    HW230210   0.176   3.000   4.960
 9771SOL     OW30211   1.926   6.666   4.280
 9771SOL    HW130212   1.879   6.694   4.197
 9771SOL    HW230213   1.863   6.670   4.357
 9772SOL     OW30214   5.730   6.336   1.187
 9772SOL    HW130215   5.775   6.247   1.181
 9772SOL    HW230216   5.796   6.409   1.169
 9773SOL     OW30217   4.977   4.992   3.176
 9773SOL    HW130218   5.017   4.996   3.084
 9773SOL    HW230219   5.020   5.061   3.234
 9774SOL     OW30220   6.198   6.114   4.066
 9774SOL    HW130221   6.155   6.169   4.138
 9774SOL    HW230222   6.136   6.041   4.038
 9775SOL     OW30223   2.832   1.509   4.230
 9775SOL    HW130224   2.928   1.531   4.212
 9775SOL    HW230225   2.824   1.458   4.316
 9776SOL     OW30226   0.582   4.457   4.631
 9776SOL    HW130227   0.641   4.508   4.694
 9776SOL    HW230228   0.551   4.518   4.558
 9777SOL     OW30229   5.138   5.388   6.513
 9777SOL    HW130230   5.166   5.292   6.514
 9777SOL    HW230231   5.040   5.394   6.497
 9778SOL     OW30232   3.585   0.240   4.325
 9778SOL    HW130233   3.654   0.207   4.260
 9778SOL    HW230234   3.630   0.298   4.393
 9779SOL     OW30235   3.212   2.193   6.612
 9779SOL    HW130236   3.276   2.183   6.689
 9779SOL    HW230237   3.191   2.103   6.575
 9780SOL     OW30238   1.424   2.983   1.212
 9780SOL    HW130239   1.376   2.949   1.131
 9780SOL    HW230240   1.387   2.938   1.294
 9781SOL     OW30241   0.077   0.131   4.303
 9781SOL    HW130242   0.088   0.073   4.383
 9781SOL    HW230243   7.021   0.097   4.248
 9782SOL     OW30244   5.460   0.093   0.266
 9782SOL    HW130245   5.468   0.169   0.202
 9782SOL    HW230246   5.381   0.107   0.326
 9783SOL     OW30247   6.073   0.113   4.369
 9783SOL    HW130248   6.027   0.200   4.349
 9783SOL    HW230249   6.155   0.106   4.313
 9784SOL     OW30250   4.756   0.846   4.947
 9784SOL    HW130251   4.768   0.816   4.852
 9784SOL    HW230252   4.842   0.831   4.997
 9785SOL     OW30253   1.102   2.578   0.947
 9785SOL    HW130254   1.082   2.482   0.970
 9785SOL    HW230255   1.079   2.636   1.025
 9786SOL     OW30256   1.077   6.975   3.324
 9786SOL    HW130257   1.022   7.012   3.399
 9786SOL    HW230258   1.150   0.018   3.301
 9787SOL     OW30259   6.002   3.759   1.108
 9787SOL    HW130260   5.940   3.756   1.186
 9787SOL    HW230261   6.086   3.710   1.131
 9788SOL     OW30262   6.952   0.013   6.315
 9788SOL    HW130263   6.914   0.012   6.222
 9788SOL    HW230264   0.029   0.001   6.310
 9789SOL     OW30265   2.411   4.407   4.037
 9789SOL    HW130266   2.397   4.321   3.987
 9789SOL    HW230267   2.414   4.388   4.135
 9790SOL     OW30268   0.595   1.408   3.219
 9790SOL    HW130269   0.639   1.324   3.249
 9790SOL    HW230270   0.578   1.404   3.120
 9791SOL     OW30271   1.259   2.310   0.693
 9791SOL    HW130272   1.178   2.362   0.664
 9791SOL    HW230273   1.304   2.357   0.769
 9792SOL     OW30274   4.582   5.694   2.903
 9792SOL    HW130275   4.596   5.747   2.819
 9792SOL    HW230276   4.584   5.597   2.882
 9793SOL     OW30277   4.815   5.837   1.982
 9793SOL    HW130278   4.856   5.769   1.922
 9793SOL    HW230279   4.886   5.879   2.039
 9794SOL     OW30280   3.547   4.411   0.165
 9794SOL    HW130281   3.497   4.446   0.244
 9794SOL    HW230282   3.510   4.321   0.139
 9795SOL     OW30283   2.041   5.046   2.713
 9795SOL    HW130284   2.102   5.121   2.734
 9795SOL    HW230285   1.955   5.082   2.676
 9796SOL     OW30286   4.071   4.943   6.049
 9796SOL    HW130287   4.147   4.977   5.994
 9796SOL    HW230288   4.003   5.016   6.061
 9797SOL     OW30289   6.490   3.477   4.988
 9797SOL    HW130290   6.405   3.530   4.986
 9797SOL    HW230291   6.556   3.523   5.048
 9798SOL     OW30292   3.227   1.552   1.463
 9798SOL    HW130293   3.214   1.510   1.553
 9798SOL    HW230294   3.297   1.624   1.470
 9799SOL     OW30295   3.949   3.624   3.059
 9799SOL    HW130296   3.994   3.644   2.973
 9799SOL    HW230297   4.004   3.559   3.111
 9800SOL     OW30298   4.220   6.144   0.485
 9800SOL    HW130299   4.270   6.217   0.531
 9800SOL    HW230300   4.126   6.174   0.466
 9801SOL     OW30301   5.793   5.434   1.866
 9801SOL    HW130302   5.815   5.473   1.955
 9801SOL    HW230303   5.727   5.360   1.877
 9802SOL     OW30304   0.804   6.292   2.329
 9802SOL    HW130305   0.804   6.338   2.241
 9802SOL    HW230306   0.764   6.201   2.319
 9803SOL     OW30307   5.645   6.915   5.805
 9803SOL    HW130308   5.597   6.831   5.780
 9803SOL    HW230309   5.744   6.898   5.803
 9804SOL     OW30310   5.201   6.052   3.801
 9804SOL    HW130311   5.195   6.119   3.726
 9804SOL    HW230312   5.115   6.001   3.807
 9805SOL     OW30313   2.930   4.678   0.812
 9805SOL    HW130314   2.870   4.603   0.841
 9805SOL    HW230315   2.879   4.764   0.817
 9806SOL     OW30316   0.883   0.984   3.027
 9806SOL    HW130317   0.832   0.901   3.050
 9806SOL    HW230318   0.910   1.031   3.111
 9807SOL     OW30319   2.126   3.906   0.666
 9807SOL    HW130320   2.181   3.852   0.730
 9807SOL    HW230321   2.180   3.928   0.585
 9808SOL     OW30322   1.941   2.400   3.437
 9808SOL    HW130323   1.975   2.404   3.343
 9808SOL    HW230324   1.980   2.321   3.484
 9809SOL     OW30325   0.461   0.269   4.276
 9809SOL    HW130326   0.396   0.224   4.214
 9809SOL    HW230327   0.417   0.285   4.364
 9810SOL     OW30328   4.911   1.737   2.741
 9810SOL    HW130329   4.894   1.665   2.808
 9810SOL    HW230330   4.824   1.770   2.704
 9811SOL     OW30331   1.542   0.158   2.984
 9811SOL    HW130332   1.561   0.251   3.014
 9811SOL    HW230333   1.492   0.160   2.898
 9812SOL     OW30334   5.740   2.921   0.079
 9812SOL    HW130335   5.765   3.007   0.036
 9812SOL    HW230336   5.659   2.934   0.137
 9813SOL     OW30337   5.984   4.310   0.249
 9813SOL    HW130338   6.062   4.267   0.294
 9813SOL    HW230339   5.965   4.264   0.163
 9814SOL     OW30340   6.634   1.118   5.526
 9814SOL    HW130341   6.615   1.064   5.444
 9814SOL    HW230342   6.632   1.058   5.606
 9815SOL     OW30343   6.884   5.255   2.548
 9815SOL    HW130344   6.788   5.238   2.524
 9815SOL    HW230345   6.919   5.331   2.493
 9816SOL     OW30346   6.809   2.435   5.071
 9816SOL    HW130347   6.874   2.508   5.093
 9816SOL    HW230348   6.744   2.425   5.146
 9817SOL     OW30349   2.044   1.984   0.444
 9817SOL    HW130350   2.107   2.042   0.495
 9817SOL    HW230351   2.002   2.036   0.370
 9818SOL     OW30352   0.097   7.021   2.430
 9818SOL    HW130353   0.116   0.080   2.374
 9818SOL    HW230354   0.029   6.963   2.385
 9819SOL     OW30355   6.128   1.103   5.178
 9819SOL    HW130356   6.130   1.076   5.082
 9819SOL    HW230357   6.079   1.033   5.231
 9820SOL     OW30358   3.439   0.692   6.391
 9820SOL    HW130359   3.452   0.776   6.445
 9820SOL    HW230360   3.435   0.613   6.452
 9821SOL     OW30361   4.325   3.866   6.242
 9821SOL    HW130362   4.333   3.846   6.339
 9821SOL    HW230363   4.382   3.945   6.219
 9822SOL     OW30364   2.993   0.037   3.782
 9822SOL    HW130365   2.899   0.066   3.803
 9822SOL    HW230366   3.054   0.116   3.785
 9823SOL     OW30367   3.819   6.584   2.677
 9823SOL    HW130368   3.817   6.520   2.754
 9823SOL    HW230369   3.889   6.653   2.694
 9824SOL     OW30370   1.720   5.792   5.405
 9824SOL    HW130371   1.814   5.806   5.436
 9824SOL    HW230372   1.658   5.795   5.483
 9825SOL     OW30373   0.477   6.658   4.723
 9825SOL    HW130374   0.537   6.627   4.797
 9825SOL    HW230375   0.422   6.735   4.756
 9826SOL     OW30376   1.522   6.629   5.045
 9826SOL    HW130377   1.515   6.705   5.109
 9826SOL    HW230378   1.533   6.544   5.095
 9827SOL     OW30379   2.059   4.674   1.446
 9827SOL    HW130380   1.984   4.611   1.465
 9827SOL    HW230381   2.036   4.731   1.367
 9828SOL     OW30382   4.981   1.816   4.357
 9828SOL    HW130383   4.905   1.751   4.347
 9828SOL    HW230384   4.975   1.885   4.285
 9829SOL     OW30385   5.559   3.887   5.522
 9829SOL    HW130386   5.517   3.829   5.592
 9829SOL    HW230387   5.600   3.829   5.452
 9830SOL     OW30388   5.905   0.269   3.383
 9830SOL    HW130389   5.978   0.220   3.335
 9830SOL    HW230390   5.883   0.220   3.468
 9831SOL     OW30391   0.931   4.713   1.625
 9831SOL    HW130392   0.887   4.627   1.650
 9831SOL    HW230393   1.020   4.694   1.584
 9832SOL     OW30394   6.198   5.687   5.176
 9832SOL    HW130395   6.131   5.710   5.105
 9832SOL    HW230396   6.161   5.713   5.266
 9833SOL     OW30397   3.940   3.173   4.278
 9833SOL    HW130398   3.882   3.119   4.338
 9833SOL    HW230399   4.006   3.225   4.333
 9834SOL     OW30400   2.737   5.888   6.137
 9834SOL    HW130401   2.714   5.984   6.121
 9834SOL    HW230402   2.754   5.842   6.050
 9835SOL     OW30403   3.807   2.950   3.804
 9835SOL    HW130404   3.716   2.913   3.824
 9835SOL    HW230405   3.838   3.005   3.881
 9836SOL     OW30406   6.853   3.176   6.604
 9836SOL    HW130407   6.919   3.106   6.633
 9836SOL    HW230408   6.901   3.263   6.592
 9837SOL     OW30409   6.235   0.662   4.917
 9837SOL    HW130410   6.208   0.658   5.012
 9837SOL    HW230411   6.206   0.750   4.877
 9838SOL     OW30412   0.426   5.703   0.879
 9838SOL    HW130413   0.482   5.748   0.948
 9838SOL    HW230414   0.481   5.686   0.797
 9839SOL     OW30415   4.362   7.003   3.371
 9839SOL    HW130416   4.271   6.963   3.375
 9839SOL    HW230417   4.392   7.009   3.276
 9840SOL     OW30418   6.342   1.993   5.398
 9840SOL    HW130419   6.383   1.953   5.480
 9840SOL    HW230420   6.338   1.923   5.326
 9841SOL     OW30421   0.017   5.300   2.116
 9841SOL    HW130422   0.052   5.222   2.064
 9841SOL    HW230423   0.071   5.312   2.199
 9842SOL     OW30424   4.247   0.640   0.721
 9842SOL    HW130425   4.171   0.613   0.780
 9842SOL    HW230426   4.297   0.715   0.763
 9843SOL     OW30427   0.345   0.202   0.764
 9843SOL    HW130428   0.383   0.132   0.704
 9843SOL    HW230429   0.407   0.280   0.767
 9844SOL     OW30430   5.581   0.806   4.491
 9844SOL    HW130431   5.529   0.738   4.439
 9844SOL    HW230432   5.653   0.845   4.433
 9845SOL     OW30433   0.731   3.508   2.473
 9845SOL    HW130434   0.806   3.448   2.446
 9845SOL    HW230435   0.756   3.557   2.557
 9846SOL     OW30436   5.864   2.115   3.210
 9846SOL    HW130437   5.779   2.141   3.258
 9846SOL    HW230438   5.885   2.184   3.141
 9847SOL     OW30439   4.218   3.321   0.193
 9847SOL    HW130440   4.254   3.318   0.286
 9847SOL    HW230441   4.283   3.369   0.134
 9848SOL     OW30442   3.158   3.567   6.426
 9848SOL    HW130443   3.119   3.584   6.516
 9848SOL    HW230444   3.131   3.475   6.395
 9849SOL     OW30445   1.876   2.288   2.193
 9849SOL    HW130446   1.839   2.221   2.257
 9849SOL    HW230447   1.946   2.245   2.136
 9850SOL     OW30448   2.318   0.149   3.634
 9850SOL    HW130449   2.293   0.212   3.709
 9850SOL    HW230450   2.235   0.117   3.589
 9851SOL     OW30451   3.952   6.715   3.416
 9851SOL    HW130452   4.028   6.665   3.458
 9851SOL    HW230453   3.877   6.652   3.398
 9852SOL     OW30454   2.515   0.719   6.659
 9852SOL    HW130455   2.418   0.695   6.657
 9852SOL    HW230456   2.530   0.795   6.722
 9853SOL     OW30457   0.077   3.789   3.866
 9853SOL    HW130458   0.118   3.699   3.874
 9853SOL    HW230459   6.999   3.781   3.868
 9854SOL     OW30460   6.379   4.354   6.899
 9854SOL    HW130461   6.379   4.274   6.959
 9854SOL    HW230462   6.288   4.394   6.897
 9855SOL     OW30463   0.404   6.340   1.088
 9855SOL    HW130464   0.355   6.255   1.070
 9855SOL    HW230465   0.502   6.324   1.082
 9856SOL     OW30466   4.523   4.550   3.476
 9856SOL    HW130467   4.426   4.567   3.461
 9856SOL    HW230468   4.535   4.484   3.550
 9857SOL     OW30469   3.898   6.499   5.531
 9857SOL    HW130470   3.898   6.590   5.492
 9857SOL    HW230471   3.969   6.493   5.602
 9858SOL     OW30472   6.387   5.081   2.584
 9858SOL    HW130473   6.357   5.154   2.645
 9858SOL    HW230474   6.484   5.093   2.562
 9859SOL     OW30475   0.010   6.603   2.975
 9859SOL    HW130476   6.943   6.647   2.989
 9859SOL    HW230477   0.051   6.637   2.890
 9860SOL     OW30478   1.047   3.853   3.435
 9860SOL    HW130479   1.027   3.758   3.412
 9860SOL    HW230480   0.980   3.913   3.391
 9861SOL     OW30481   4.005   2.172   4.095
 9861SOL    HW130482   4.022   2.181   3.997
 9861SOL    HW230483   3.907   2.178   4.113
 9862SOL     OW30484   1.216   3.179   6.323
 9862SOL    HW130485   1.125   3.149   6.293
 9862SOL    HW230486   1.285   3.140   6.263
 9863SOL     OW30487   3.689   5.679   1.768
 9863SOL    HW130488   3.771   5.627   1.789
 9863SOL    HW230489   3.621   5.618   1.726
 9864SOL     OW30490   3.298   6.401   4.974
 9864SOL    HW130491   3.322   6.487   4.931
 9864SOL    HW230492   3.199   6.396   4.986
 9865SOL     OW30493   2.454   4.770   6.029
 9865SOL    HW130494   2.520   4.740   6.098
 9865SOL    HW230495   2.448   4.702   5.956
 9866SOL     OW30496   0.985   5.784   5.129
 9866SOL    HW130497   0.897   5.741   5.110
 9866SOL    HW230498   1.050   5.762   5.057
 9867SOL     OW30499   5.383   1.425   2.787
 9867SOL    HW130500   5.361   1.433   2.690
 9867SOL    HW230501   5.448   1.351   2.801
 9868SOL     OW30502   2.400   5.443   3.092
 9868SOL    HW130503   2.380   5.367   3.153
 9868SOL    HW230504   2.314   5.489   3.068
 9869SOL     OW30505   6.192   2.000   2.837
 9869SOL    HW130506   6.211   1.967   2.745
 9869SOL    HW230507   6.100   1.974   2.864
 9870SOL     OW30508   2.208   3.082   3.361
 9870SOL    HW130509   2.210   3.172   3.403
 9870SOL    HW230510   2.198   3.091   3.262
 9871SOL     OW30511   5.457   5.204   2.732
 9871SOL    HW130512   5.480   5.106   2.728
 9871SOL    HW230513   5.461   5.235   2.826
 9872SOL     OW30514   0.160   6.552   4.660
 9872SOL    HW130515   0.095   6.491   4.615
 9872SOL    HW230516   0.237   6.569   4.599
 9873SOL     OW30517   0.863   0.685   4.079
 9873SOL    HW130518   0.944   0.628   4.093
 9873SOL    HW230519   0.890   0.781   4.076
 9874SOL     OW30520   0.133   2.587   4.370
 9874SOL    HW130521   0.056   2.601   4.432
 9874SOL    HW230522   0.128   2.652   4.294
 9875SOL     OW30523   5.480   5.492   0.849
 9875SOL    HW130524   5.387   5.505   0.885
 9875SOL    HW230525   5.535   5.571   0.871
 9876SOL     OW30526   0.782   6.907   2.989
 9876SOL    HW130527   0.751   6.826   2.937
 9876SOL    HW230528   0.850   6.879   3.057
 9877SOL     OW30529   1.612   5.717   4.953
 9877SOL    HW130530   1.658   5.643   5.002
 9877SOL    HW230531   1.679   5.779   4.915
 9878SOL     OW30532   4.819   4.127   0.150
 9878SOL    HW130533   4.789   4.206   0.203
 9878SOL    HW230534   4.783   4.133   0.057
 9879SOL     OW30535   5.993   5.008   4.400
 9879SOL    HW130536   5.931   5.012   4.479
 9879SOL    HW230537   5.960   5.070   4.329
 9880SOL     OW30538   2.570   1.442   1.330
 9880SOL    HW130539   2.524   1.464   1.417
 9880SOL    HW230540   2.581   1.525   1.276
 9881SOL     OW30541   6.276   0.219   2.723
 9881SOL    HW130542   6.334   0.188   2.648
 9881SOL    HW230543   6.223   0.142   2.759
 9882SOL     OW30544   3.151   4.057   4.924
 9882SOL    HW130545   3.229   4.010   4.966
 9882SOL    HW230546   3.095   3.990   4.875
 9883SOL     OW30547   0.403   5.205   2.581
 9883SOL    HW130548   0.372   5.121   2.625
 9883SOL    HW230549   0.485   5.186   2.526
 9884SOL     OW30550   3.421   2.756   5.269
 9884SOL    HW130551   3.389   2.762   5.174
 9884SOL    HW230552   3.352   2.708   5.324
 9885SOL     OW30553   4.914   2.198   5.192
 9885SOL    HW130554   4.879   2.286   5.159
 9885SOL    HW230555   4.919   2.198   5.292
 9886SOL     OW30556   2.176   5.925   1.577
 9886SOL    HW130557   2.107   5.864   1.537
 9886SOL    HW230558   2.130   6.000   1.624
 9887SOL     OW30559   3.335   1.314   0.142
 9887SOL    HW130560   3.364   1.308   0.046
 9887SOL    HW230561   3.403   1.366   0.194
 9888SOL     OW30562   6.525   0.095   3.848
 9888SOL    HW130563   6.606   0.098   3.789
 9888SOL    HW230564   6.549   0.052   3.935
 9889SOL     OW30565   6.304   5.820   2.463
 9889SOL    HW130566   6.279   5.724   2.470
 9889SOL    HW230567   6.386   5.829   2.405
 9890SOL     OW30568   1.578   3.197   3.371
 9890SOL    HW130569   1.586   3.277   3.312
 9890SOL    HW230570   1.664   3.146   3.369
 9891SOL     OW30571   3.330   0.287   1.069
 9891SOL    HW130572   3.389   0.210   1.046
 9891SOL    HW230573   3.339   0.358   0.999
 9892SOL     OW30574   2.279   5.959   2.892
 9892SOL    HW130575   2.264   5.988   2.798
 9892SOL    HW230576   2.287   6.039   2.952
 9893SOL     OW30577   5.525   4.706   4.488
 9893SOL    HW130578   5.517   4.626   4.430
 9893SOL    HW230579   5.512   4.789   4.433
 9894SOL     OW30580   5.025   3.426   5.944
 9894SOL    HW130581   5.038   3.513   5.896
 9894SOL    HW230582   4.935   3.424   5.986
 9895SOL     OW30583   5.337   2.952   6.109
 9895SOL    HW130584   5.380   3.023   6.052
 9895SOL    HW230585   5.291   2.886   6.049
 9896SOL     OW30586   3.113   4.014   6.368
 9896SOL    HW130587   3.115   3.944   6.297
 9896SOL    HW230588   3.027   4.064   6.362
 9897SOL     OW30589   1.165   0.975   2.926
 9897SOL    HW130590   1.222   0.985   2.845
 9897SOL    HW230591   1.154   1.064   2.971
 9898SOL     OW30592   0.366   5.251   6.897
 9898SOL    HW130593   0.441   5.287   6.841
 9898SOL    HW230594   0.356   5.308   6.979
 9899SOL     OW30595   3.730   5.039   0.610
 9899SOL    HW130596   3.709   5.102   0.535
 9899SOL    HW230597   3.765   4.953   0.573
 9900SOL     OW30598   2.683   5.663   3.366
 9900SOL    HW130599   2.719   5.632   3.454
 9900SOL    HW230600   2.758   5.680   3.302
 9901SOL     OW30601   3.126   1.775   6.107
 9901SOL    HW130602   3.171   1.694   6.144
 9901SOL    HW230603   3.050   1.747   6.048
 9902SOL     OW30604   4.080   4.400   6.784
 9902SOL    HW130605   4.117   4.490   6.805
 9902SOL    HW230606   4.119   4.368   6.697
 9903SOL     OW30607   3.197   1.473   0.414
 9903SOL    HW130608   3.296   1.466   0.401
 9903SOL    HW230609   3.176   1.485   0.511
 9904SOL     OW30610   6.579   6.255   1.664
 9904SOL    HW130611   6.589   6.164   1.705
 9904SOL    HW230612   6.614   6.253   1.570
 9905SOL     OW30613   2.077   6.755   6.347
 9905SOL    HW130614   2.163   6.797   6.320
 9905SOL    HW230615   2.057   6.677   6.288
 9906SOL     OW30616   2.945   3.688   6.918
 9906SOL    HW130617   2.947   3.645   7.008
 9906SOL    HW230618   2.850   3.709   6.894
 9907SOL     OW30619   0.805   6.858   3.426
 9907SOL    HW130620   0.798   6.821   3.518
 9907SOL    HW230621   0.900   6.849   3.393
 9908SOL     OW30622   0.394   3.252   6.341
 9908SOL    HW130623   0.380   3.213   6.250
 9908SOL    HW230624   0.374   3.182   6.410
 9909SOL     OW30625   2.532   5.666   2.195
 9909SOL    HW130626   2.507   5.581   2.149
 9909SOL    HW230627   2.563   5.732   2.126
 9910SOL     OW30628   0.977   5.375   0.421
 9910SOL    HW130629   1.003   5.389   0.325
 9910SOL    HW230630   0.996   5.458   0.473
 9911SOL     OW30631   2.927   4.766   1.683
 9911SOL    HW130632   3.006   4.727   1.636
 9911SOL    HW230633   2.908   4.713   1.765
 9912SOL     OW30634   6.489   6.384   0.083
 9912SOL    HW130635   6.574   6.436   0.094
 9912SOL    HW230636   6.452   6.361   0.173
 9913SOL     OW30637   6.105   2.457   1.132
 9913SOL    HW130638   6.126   2.368   1.173
 9913SOL    HW230639   6.082   2.445   1.035
 9914SOL     OW30640   2.043   5.127   3.609
 9914SOL    HW130641   2.130   5.151   3.652
 9914SOL    HW230642   2.057   5.051   3.545
 9915SOL     OW30643   5.998   4.739   4.712
 9915SOL    HW130644   5.983   4.827   4.758
 9915SOL    HW230645   5.939   4.733   4.632
 9916SOL     OW30646   1.327   2.860   0.973
 9916SOL    HW130647   1.235   2.840   0.940
 9916SOL    HW230648   1.337   2.959   0.986
 9917SOL     OW30649   1.994   4.605   4.425
 9917SOL    HW130650   2.022   4.696   4.456
 9917SOL    HW230651   2.049   4.535   4.471
 9918SOL     OW30652   3.068   2.109   3.902
 9918SOL    HW130653   3.118   2.112   3.816
 9918SOL    HW230654   2.991   2.172   3.899
 9919SOL     OW30655   0.721   5.690   1.612
 9919SOL    HW130656   0.734   5.650   1.702
 9919SOL    HW230657   0.776   5.773   1.604
 9920SOL     OW30658   3.423   0.293   2.644
 9920SOL    HW130659   3.335   0.310   2.688
 9920SOL    HW230660   3.496   0.335   2.699
 9921SOL     OW30661   4.423   0.514   2.512
 9921SOL    HW130662   4.339   0.563   2.492
 9921SOL    HW230663   4.492   0.535   2.442
 9922SOL     OW30664   6.003   2.258   2.509
 9922SOL    HW130665   6.067   2.266   2.586
 9922SOL    HW230666   5.940   2.183   2.526
 9923SOL     OW30667   5.054   6.654   5.765
 9923SOL    HW130668   4.992   6.679   5.840
 9923SOL    HW230669   5.145   6.690   5.783
 9924SOL     OW30670   6.277   6.638   3.669
 9924SOL    HW130671   6.334   6.556   3.673
 9924SOL    HW230672   6.198   6.626   3.729
 9925SOL     OW30673   3.748   2.239   5.231
 9925SOL    HW130674   3.780   2.176   5.302
 9925SOL    HW230675   3.740   2.331   5.270
 9926SOL     OW30676   1.689   1.147   6.376
 9926SOL    HW130677   1.716   1.127   6.470
 9926SOL    HW230678   1.645   1.067   6.336
 9927SOL     OW30679   2.242   4.108   4.346
 9927SOL    HW130680   2.196   4.031   4.302
 9927SOL    HW230681   2.245   4.093   4.445
 9928SOL     OW30682   6.638   3.579   3.504
 9928SOL    HW130683   6.720   3.546   3.458
 9928SOL    HW230684   6.615   3.518   3.579
 9929SOL     OW30685   1.518   5.155   5.136
 9929SOL    HW130686   1.483   5.190   5.049
 9929SOL    HW230687   1.591   5.214   5.169
 9930SOL     OW30688   6.992   6.510   6.994
 9930SOL    HW130689   7.006   6.593   0.026
 9930SOL    HW230690   0.057   6.482   6.952
 9931SOL     OW30691   1.057   3.760   6.661
 9931SOL    HW130692   1.026   3.737   6.569
 9931SOL    HW230693   1.145   3.809   6.656
 9932SOL     OW30694   2.300   1.542   1.239
 9932SOL    HW130695   2.342   1.601   1.308
 9932SOL    HW230696   2.285   1.594   1.155
 9933SOL     OW30697   2.273   1.681   3.072
 9933SOL    HW130698   2.276   1.779   3.091
 9933SOL    HW230699   2.327   1.662   2.990
 9934SOL     OW30700   4.847   1.191   5.476
 9934SOL    HW130701   4.767   1.141   5.444
 9934SOL    HW230702   4.896   1.137   5.544
 9935SOL     OW30703   3.391   2.326   0.047
 9935SOL    HW130704   3.435   2.329   6.979
 9935SOL    HW230705   3.456   2.292   0.115
 9936SOL     OW30706   4.712   6.275   0.797
 9936SOL    HW130707   4.753   6.244   0.882
 9936SOL    HW230708   4.739   6.215   0.722
 9937SOL     OW30709   1.143   0.144   5.462
 9937SOL    HW130710   1.242   0.140   5.479
 9937SOL    HW230711   1.113   0.239   5.466
 9938SOL     OW30712   1.677   1.613   3.826
 9938SOL    HW130713   1.746   1.541   3.836
 9938SOL    HW230714   1.590   1.572   3.798
 9939SOL     OW30715   3.062   3.462   0.550
 9939SOL    HW130716   3.018   3.456   0.639
 9939SOL    HW230717   3.138   3.397   0.546
 9940SOL     OW30718   6.264   1.299   3.097
 9940SOL    HW130719   6.239   1.202   3.106
 9940SOL    HW230720   6.184   1.350   3.064
 9941SOL     OW30721   6.152   3.446   0.807
 9941SOL    HW130722   6.100   3.425   0.724
 9941SOL    HW230723   6.102   3.413   0.887
 9942SOL     OW30724   5.452   4.632   2.538
 9942SOL    HW130725   5.394   4.711   2.558
 9942SOL    HW230726   5.546   4.662   2.523
 9943SOL     OW30727   1.711   4.762   4.585
 9943SOL    HW130728   1.794   4.762   4.529
 9943SOL    HW230729   1.686   4.856   4.609
 9944SOL     OW30730   2.427   5.337   6.313
 9944SOL    HW130731   2.452   5.244   6.287
 9944SOL    HW230732   2.457   5.354   6.407
 9945SOL     OW30733   6.222   3.251   5.342
 9945SOL    HW130734   6.224   3.223   5.439
 9945SOL    HW230735   6.283   3.191   5.290
 9946SOL     OW30736   5.235   2.031   1.624
 9946SOL    HW130737   5.317   1.980   1.597
 9946SOL    HW230738   5.155   1.971   1.621
 9947SOL     OW30739   6.929   0.665   3.394
 9947SOL    HW130740   6.898   0.711   3.477
 9947SOL    HW230741   0.005   0.680   3.382
 9948SOL     OW30742   4.539   1.506   5.248
 9948SOL    HW130743   4.639   1.505   5.255
 9948SOL    HW230744   4.513   1.480   5.155
 9949SOL     OW30745   6.693   3.471   3.070
 9949SOL    HW130746   6.733   3.382   3.090
 9949SOL    HW230747   6.600   3.474   3.106
 9950SOL     OW30748   4.955   4.694   6.124
 9950SOL    HW130749   4.888   4.632   6.082
 9950SOL    HW230750   4.929   4.711   6.219
 9951SOL     OW30751   6.978   2.566   2.331
 9951SOL    HW130752   6.970   2.628   2.409
 9951SOL    HW230753   0.017   2.607   2.263
 9952SOL     OW30754   1.825   4.539   1.553
 9952SOL    HW130755   1.748   4.602   1.564
 9952SOL    HW230756   1.819   4.467   1.622
 9953SOL     OW30757   6.308   3.620   5.522
 9953SOL    HW130758   6.336   3.706   5.565
 9953SOL    HW230759   6.346   3.543   5.574
 9954SOL     OW30760   4.621   2.552   1.796
 9954SOL    HW130761   4.713   2.555   1.834
 9954SOL    HW230762   4.591   2.646   1.775
 9955SOL     OW30763   5.891   4.801   2.473
 9955SOL    HW130764   5.846   4.801   2.384
 9955SOL    HW230765   5.924   4.710   2.495
 9956SOL     OW30766   1.671   5.065   3.127
 9956SOL    HW130767   1.611   5.126   3.179
 9956SOL    HW230768   1.646   5.069   3.030
 9957SOL     OW30769   5.680   6.721   0.502
 9957SOL    HW130770   5.612   6.770   0.558
 9957SOL    HW230771   5.709   6.780   0.427
 9958SOL     OW30772   6.421   6.182   5.637
 9958SOL    HW130773   6.363   6.235   5.575
 9958SOL    HW230774   6.368   6.157   5.718
 9959SOL     OW30775   5.825   5.228   6.938
 9959SOL    HW130776   5.752   5.293   6.959
 9959SOL    HW230777   5.910   5.260   6.980
 9960SOL     OW30778   6.100   0.669   6.208
 9960SOL    HW130779   6.056   0.689   6.120
 9960SOL    HW230780   6.032   0.677   6.281
 9961SOL     OW30781   3.031   6.789   0.177
 9961SOL    HW130782   3.036   6.888   0.185
 9961SOL    HW230783   2.935   6.760   0.185
 9962SOL     OW30784   4.595   1.192   1.877
 9962SOL    HW130785   4.575   1.287   1.852
 9962SOL    HW230786   4.584   1.133   1.797
 9963SOL     OW30787   0.597   0.450   6.729
 9963SOL    HW130788   0.548   0.537   6.726
 9963SOL    HW230789   0.693   0.466   6.750
 9964SOL     OW30790   4.793   5.402   5.488
 9964SOL    HW130791   4.716   5.459   5.515
 9964SOL    HW230792   4.782   5.310   5.526
 9965SOL     OW30793   2.148   5.284   5.331
 9965SOL    HW130794   2.232   5.258   5.284
 9965SOL    HW230795   2.170   5.317   5.424
 9966SOL     OW30796   1.773   4.196   2.091
 9966SOL    HW130797   1.753   4.290   2.118
 9966SOL    HW230798   1.857   4.194   2.037
 9967SOL     OW30799   6.628   0.737   2.265
 9967SOL    HW130800   6.722   0.764   2.242
 9967SOL    HW230801   6.564   0.781   2.202
 9968SOL     OW30802   4.823   6.335   6.448
 9968SOL    HW130803   4.908   6.387   6.456
 9968SOL    HW230804   4.842   6.246   6.405
 9969SOL     OW30805   0.838   6.526   3.182
 9969SOL    HW130806   0.761   6.588   3.195
 9969SOL    HW230807   0.923   6.577   3.193
 9970SOL     OW30808   0.387   3.015   1.486
 9970SOL    HW130809   0.315   3.020   1.417
 9970SOL    HW230810   0.477   3.020   1.443
 9971SOL     OW30811   0.253   5.579   5.919
 9971SOL    HW130812   0.256   5.634   6.003
 9971SOL    HW230813   0.345   5.547   5.898
 9972SOL     OW30814   3.226   4.907   5.368
 9972SOL    HW130815   3.144   4.883   5.316
 9972SOL    HW230816   3.205   4.908   5.465
 9973SOL     OW30817   3.676   1.990   2.576
 9973SOL    HW130818   3.634   2.077   2.550
 9973SOL    HW230819   3.605   1.921   2.590
 9974SOL     OW30820   0.313   4.633   3.685
 9974SOL    HW130821   0.344   4.727   3.675
 9974SOL    HW230822   0.330   4.582   3.601
 9975SOL     OW30823   1.492   5.085   6.987
 9975SOL    HW130824   1.566   5.150   7.001
 9975SOL    HW230825   1.526   4.992   6.997
 9976SOL     OW30826   4.262   5.483   4.642
 9976SOL    HW130827   4.309   5.462   4.556
 9976SOL    HW230828   4.220   5.400   4.678
 9977SOL     OW30829   3.553   6.859   6.226
 9977SOL    HW130830   3.530   6.948   6.267
 9977SOL    HW230831   3.534   6.786   6.292
 9978SOL     OW30832   6.917   3.354   6.859
 9978SOL    HW130833   6.976   3.303   6.922
 9978SOL    HW230834   6.845   3.399   6.910
 9979SOL     OW30835   3.106   3.965   3.957
 9979SOL    HW130836   3.150   3.983   4.045
 9979SOL    HW230837   3.013   3.933   3.971
 9980SOL     OW30838   0.660   6.750   6.663
 9980SOL    HW130839   0.576   6.712   6.701
 9980SOL    HW230840   0.652   6.849   6.656
 9981SOL     OW30841   5.752   1.904   1.823
 9981SOL    HW130842   5.830   1.886   1.763
 9981SOL    HW230843   5.770   1.985   1.878
 9982SOL     OW30844   2.632   1.058   5.195
 9982SOL    HW130845   2.704   1.012   5.144
 9982SOL    HW230846   2.659   1.152   5.214
 9983SOL     OW30847   0.378   2.496   1.764
 9983SOL    HW130848   0.332   2.414   1.798
 9983SOL    HW230849   0.407   2.481   1.670
 9984SOL     OW30850   1.662   4.704   1.158
 9984SOL    HW130851   1.598   4.723   1.232
 9984SOL    HW230852   1.621   4.732   1.071
 9985SOL     OW30853   5.875   4.935   6.053
 9985SOL    HW130854   5.823   5.019   6.069
 9985SOL    HW230855   5.969   4.948   6.084
 9986SOL     OW30856   5.708   4.238   0.655
 9986SOL    HW130857   5.769   4.290   0.714
 9986SOL    HW230858   5.614   4.245   0.688
 9987SOL     OW30859   5.488   1.941   0.790
 9987SOL    HW130860   5.522   1.848   0.805
 9987SOL    HW230861   5.487   1.961   0.692
 9988SOL     OW30862   5.346   6.916   4.181
 9988SOL    HW130863   5.278   6.857   4.139
 9988SOL    HW230864   5.384   6.870   4.262
 9989SOL     OW30865   6.868   5.190   1.348
 9989SOL    HW130866   6.812   5.115   1.314
 9989SOL    HW230867   6.893   5.172   1.444
 9990SOL     OW30868   0.664   6.398   2.747
 9990SOL    HW130869   0.567   6.379   2.760
 9990SOL    HW230870   0.713   6.312   2.736
 9991SOL     OW30871   2.148   3.077   2.145
 9991SOL    HW130872   2.172   3.099   2.240
 9991SOL    HW230873   2.144   3.162   2.092
 9992SOL     OW30874   1.496   3.993   0.492
 9992SOL    HW130875   1.407   3.947   0.491
 9992SOL    HW230876   1.569   3.926   0.506
 9993SOL     OW30877   3.941   0.159   4.418
 9993SOL    HW130878   3.938   0.256   4.442
 9993SOL    HW230879   3.877   0.141   4.342
 9994SOL     OW30880   5.826   4.945   5.389
 9994SOL    HW130881   5.917   4.986   5.382
 9994SOL    HW230882   5.822   4.864   5.330
 9995SOL     OW30883   3.947   1.687   6.096
 9995SOL    HW130884   3.980   1.634   6.174
 9995SOL    HW230885   3.996   1.657   6.013
 9996SOL     OW30886   2.792   4.218   1.297
 9996SOL    HW130887   2.710   4.237   1.351
 9996SOL    HW230888   2.773   4.234   1.200
 9997SOL     OW30889   5.534   0.216   3.195
 9997SOL    HW130890   5.609   0.258   3.145
 9997SOL    HW230891   5.523   0.261   3.284
 9998SOL     OW30892   5.978   3.607   2.722
 9998SOL    HW130893   5.930   3.557   2.794
 9998SOL    HW230894   5.996   3.546   2.645
 9999SOL     OW30895   0.872   0.349   4.499
 9999SOL    HW130896   0.923   0.340   4.413
 9999SOL    HW230897   0.898   0.434   4.544
10000SOL     OW30898   4.421   3.401   1.498
10000SOL    HW130899   4.352   3.332   1.521
10000SOL    HW230900   4.426   3.469   1.572
10001SOL     OW30901   3.532   5.564   1.444
10001SOL    HW130902   3.625   5.602   1.443
10001SOL    HW230903   3.508   5.537   1.537
10002SOL     OW30904   2.390   6.725   2.768
10002SOL    HW130905   2.353   6.662   2.836
10002SOL    HW230906   2.485   6.746   2.791
10003SOL     OW30907   0.819   1.244   2.893
10003SOL    HW130908   0.846   1.148   2.885
10003SOL    HW230909   0.846   1.279   2.983
10004SOL     OW30910   0.482   2.672   3.021
10004SOL    HW130911   0.500   2.651   2.925
10004SOL    HW230912   0.568   2.673   3.072
10005SOL     OW30913   1.944   6.225   2.659
10005SOL    HW130914   1.953   6.321   2.687
10005SOL    HW230915   2.010   6.206   2.586
10006SOL     OW30916   5.212   2.010   6.423
10006SOL    HW130917   5.260   2.082   6.373
10006SOL    HW230918   5.124   2.044   6.455
10007SOL     OW30919   1.737   5.371   2.988
10007SOL    HW130920   1.722   5.470   2.981
10007SOL    HW230921   1.813   5.354   3.052
10008SOL     OW30922   3.021   0.581   5.950
10008SOL    HW130923   2.981   0.596   5.860
10008SOL    HW230924   3.014   0.484   5.973
10009SOL     OW30925   1.076   5.070   1.671
10009SOL    HW130926   1.173   5.095   1.669
10009SOL    HW230927   1.024   5.141   1.718
10010SOL     OW30928   2.119   4.714   0.575
10010SOL    HW130929   2.052   4.640   0.570
10010SOL    HW230930   2.176   4.713   0.493
10011SOL     OW30931   3.097   3.095   6.957
10011SOL    HW130932   3.164   3.071   6.887
10011SOL    HW230933   3.102   3.193   6.975
10012SOL     OW30934   5.626   2.131   3.368
10012SOL    HW130935   5.621   2.043   3.321
10012SOL    HW230936   5.623   2.116   3.467
10013SOL     OW30937   0.418   6.112   5.790
10013SOL    HW130938   0.498   6.058   5.816
10013SOL    HW230939   0.410   6.113   5.690
10014SOL     OW30940   1.411   1.455   2.725
10014SOL    HW130941   1.391   1.518   2.799
10014SOL    HW230942   1.340   1.462   2.655
10015SOL     OW30943   4.049   0.870   0.387
10015SOL    HW130944   4.073   0.828   0.299
10015SOL    HW230945   4.103   0.954   0.398
10016SOL     OW30946   2.882   1.571   5.392
10016SOL    HW130947   2.968   1.538   5.353
10016SOL    HW230948   2.899   1.656   5.442
10017SOL     OW30949   2.731   2.177   3.181
10017SOL    HW130950   2.792   2.120   3.237
10017SOL    HW230951   2.661   2.119   3.139
10018SOL     OW30952   0.080   4.313   5.469
10018SOL    HW130953   0.153   4.251   5.439
10018SOL    HW230954   7.021   4.259   5.496
10019SOL     OW30955   0.547   1.957   2.836
10019SOL    HW130956   0.512   1.967   2.743
10019SOL    HW230957   0.515   2.035   2.891
10020SOL     OW30958   6.560   0.822   3.495
10020SOL    HW130959   6.563   0.774   3.407
10020SOL    HW230960   6.528   0.759   3.566
10021SOL     OW30961   2.386   4.221   1.878
10021SOL    HW130962   2.359   4.271   1.960
10021SOL    HW230963   2.370   4.123   1.893
10022SOL     OW30964   0.976   6.292   5.901
10022SOL    HW130965   1.021   6.381   5.898
10022SOL    HW230966   0.900   6.290   5.837
10023SOL     OW30967   1.447   0.947   4.251
10023SOL    HW130968   1.508   1.016   4.290
10023SOL    HW230969   1.369   0.934   4.312
10024SOL     OW30970   1.949   3.467   3.001
10024SOL    HW130971   1.933   3.545   2.940
10024SOL    HW230972   1.902   3.483   3.088
10025SOL     OW30973   0.096   1.790   1.435
10025SOL    HW130974   0.177   1.828   1.480
10025SOL    HW230975   0.023   1.858   1.437
10026SOL     OW30976   6.668   1.629   5.020
10026SOL    HW130977   6.614   1.597   4.942
10026SOL    HW230978   6.611   1.685   5.080
10027SOL     OW30979   3.586   1.273   5.646
10027SOL    HW130980   3.524   1.282   5.723
10027SOL    HW230981   3.535   1.284   5.560
10028SOL     OW30982   4.059   6.134   1.676
10028SOL    HW130983   4.015   6.222   1.689
10028SOL    HW230984   4.083   6.095   1.765
10029SOL     OW30985   6.879   4.936   3.528
10029SOL    HW130986   6.921   4.966   3.442
10029SOL    HW230987   6.947   4.940   3.601
10030SOL     OW30988   2.836   6.738   3.889
10030SOL    HW130989   2.919   6.706   3.843
10030SOL    HW230990   2.818   6.833   3.865
10031SOL     OW30991   2.059   6.448   3.473
10031SOL    HW130992   2.006   6.491   3.400
10031SOL    HW230993   2.106   6.368   3.437
10032SOL     OW30994   2.216   5.481   4.817
10032SOL    HW130995   2.145   5.466   4.749
10032SOL    HW230996   2.183   5.544   4.887
10033SOL     OW30997   2.144   1.581   4.358
10033SOL    HW130998   2.097   1.617   4.439
10033SOL    HW230999   2.145   1.651   4.286
10034SOL     OW31000   2.831   0.535   1.567
10034SOL    HW131001   2.771   0.462   1.599
10034SOL    HW231002   2.781   0.594   1.503
10035SOL     OW31003   0.172   2.697   2.221
10035SOL    HW131004   0.197   2.784   2.178
10035SOL    HW231005   0.237   2.626   2.192
10036SOL     OW31006   0.755   1.438   0.332
10036SOL    HW131007   0.772   1.387   0.248
10036SOL    HW231008   0.708   1.523   0.311
10037SOL     OW31009   6.405   1.102   6.376
10037SOL    HW131010   6.323   1.048   6.360
10037SOL    HW231011   6.450   1.071   6.460
10038SOL     OW31012   4.261   0.195   7.013
10038SOL    HW131013   4.271   0.103   0.028
10038SOL    HW231014   4.166   0.225   0.003
10039SOL     OW31015   0.174   4.440   0.757
10039SOL    HW131016   0.203   4.472   0.667
10039SOL    HW231017   0.131   4.515   0.807
10040SOL     OW31018   3.100   0.408   0.660
10040SOL    HW131019   3.189   0.452   0.669
10040SOL    HW231020   3.097   0.325   0.716
10041SOL     OW31021   5.736   4.736   5.890
10041SOL    HW131022   5.649   4.739   5.940
10041SOL    HW231023   5.799   4.803   5.930
10042SOL     OW31024   5.920   0.187   4.611
10042SOL    HW131025   5.973   0.145   4.684
10042SOL    HW231026   5.960   0.163   4.522
10043SOL     OW31027   0.570   0.497   3.354
10043SOL    HW131028   0.535   0.480   3.262
10043SOL    HW231029   0.590   0.410   3.399
10044SOL     OW31030   2.672   2.363   6.850
10044SOL    HW131031   2.689   2.326   6.941
10044SOL    HW231032   2.756   2.403   6.814
10045SOL     OW31033   4.034   6.621   4.765
10045SOL    HW131034   4.105   6.588   4.703
10045SOL    HW231035   4.039   6.721   4.771
10046SOL     OW31036   6.553   1.492   0.321
10046SOL    HW131037   6.544   1.583   0.361
10046SOL    HW231038   6.603   1.433   0.384
10047SOL     OW31039   1.424   2.118   3.635
10047SOL    HW131040   1.482   2.138   3.714
10047SOL    HW231041   1.476   2.130   3.551
10048SOL     OW31042   3.160   2.394   1.660
10048SOL    HW131043   3.105   2.394   1.743
10048SOL    HW231044   3.242   2.338   1.673
10049SOL     OW31045   1.085   5.013   4.950
10049SOL    HW131046   1.027   5.027   5.030
10049SOL    HW231047   1.031   4.970   4.877
10050SOL     OW31048   5.993   1.436   5.062
10050SOL    HW131049   6.020   1.343   5.036
10050SOL    HW231050   6.075   1.494   5.066
10051SOL     OW31051   5.861   1.788   0.987
10051SOL    HW131052   5.817   1.708   1.030
10051SOL    HW231053   5.919   1.834   1.054
10052SOL     OW31054   2.174   5.627   0.457
10052SOL    HW131055   2.194   5.716   0.415
10052SOL    HW231056   2.140   5.641   0.550
10053SOL     OW31057   3.317   6.826   3.216
10053SOL    HW131058   3.281   6.855   3.305
10053SOL    HW231059   3.323   6.727   3.213
10054SOL     OW31060   5.191   4.623   3.823
10054SOL    HW131061   5.208   4.531   3.859
10054SOL    HW231062   5.113   4.663   3.870
10055SOL     OW31063   4.864   2.284   6.877
10055SOL    HW131064   4.922   2.366   6.877
10055SOL    HW231065   4.776   2.305   6.834
10056SOL     OW31066   4.738   4.136   2.829
10056SOL    HW131067   4.809   4.206   2.821
10056SOL    HW231068   4.699   4.118   2.738
10057SOL     OW31069   2.117   2.806   3.198
10057SOL    HW131070   2.019   2.821   3.184
10057SOL    HW231071   2.166   2.891   3.183
10058SOL     OW31072   1.052   5.104   3.678
10058SOL    HW131073   0.963   5.079   3.639
10058SOL    HW231074   1.042   5.120   3.776
10059SOL     OW31075   4.355   6.068   1.471
10059SOL    HW131076   4.394   6.132   1.536
10059SOL    HW231077   4.274   6.108   1.429
10060SOL     OW31078   2.354   2.615   2.544
10060SOL    HW131079   2.369   2.644   2.639
10060SOL    HW231080   2.423   2.548   2.519
10061SOL     OW31081   0.331   1.727   5.850
10061SOL    HW131082   0.375   1.816   5.861
10061SOL    HW231083   0.232   1.740   5.850
10062SOL     OW31084   5.994   5.714   2.673
10062SOL    HW131085   5.957   5.755   2.589
10062SOL    HW231086   6.081   5.758   2.696
10063SOL     OW31087   1.043   2.876   2.693
10063SOL    HW131088   1.117   2.940   2.671
10063SOL    HW231089   0.967   2.889   2.630
10064SOL     OW31090   4.993   4.754   5.362
10064SOL    HW131091   5.041   4.691   5.423
10064SOL    HW231092   4.895   4.744   5.373
10065SOL     OW31093   0.361   0.080   2.433
10065SOL    HW131094   0.295   0.005   2.439
10065SOL    HW231095   0.381   0.099   2.336
10066SOL     OW31096   6.497   0.327   4.245
10066SOL    HW131097   6.579   0.319   4.300
10066SOL    HW231098   6.520   0.370   4.157
10067SOL     OW31099   4.639   6.540   2.689
10067SOL    HW131100   4.653   6.631   2.727
10067SOL    HW231101   4.542   6.524   2.673
10068SOL     OW31102   5.451   3.267   5.448
10068SOL    HW131103   5.527   3.201   5.444
10068SOL    HW231104   5.365   3.221   5.429
10069SOL     OW31105   4.822   1.166   4.679
10069SOL    HW131106   4.751   1.111   4.636
10069SOL    HW231107   4.837   1.135   4.773
10070SOL     OW31108   0.799   6.882   4.312
10070SOL    HW131109   0.885   6.890   4.363
10070SOL    HW231110   0.722   6.901   4.373
10071SOL     OW31111   4.600   4.447   5.031
10071SOL    HW131112   4.615   4.349   5.019
10071SOL    HW231113   4.508   4.471   5.002
10072SOL     OW31114   0.426   6.124   4.425
10072SOL    HW131115   0.419   6.205   4.367
10072SOL    HW231116   0.335   6.082   4.434
10073SOL     OW31117   0.012   7.018   6.769
10073SOL    HW131118   7.007   0.050   6.688
10073SOL    HW231119   6.970   0.015   6.844
10074SOL     OW31120   2.126   6.043   4.766
10074SOL    HW131121   2.187   6.119   4.744
10074SOL    HW231122   2.068   6.023   4.687
10075SOL     OW31123   1.173   2.596   4.402
10075SOL    HW131124   1.109   2.663   4.363
10075SOL    HW231125   1.129   2.506   4.405
10076SOL     OW31126   5.267   6.972   3.268
10076SOL    HW131127   5.217   6.921   3.338
10076SOL    HW231128   5.322   0.022   3.312
10077SOL     OW31129   2.654   1.054   5.646
10077SOL    HW131130   2.571   1.030   5.596
10077SOL    HW231131   2.652   1.151   5.669
10078SOL     OW31132   5.532   6.014   5.198
10078SOL    HW131133   5.591   5.968   5.265
10078SOL    HW231134   5.453   6.054   5.245
10079SOL     OW31135   0.866   3.398   5.899
10079SOL    HW131136   0.788   3.359   5.850
10079SOL    HW231137   0.868   3.497   5.884
10080SOL     OW31138   1.449   2.341   5.158
10080SOL    HW131139   1.456   2.439   5.144
10080SOL    HW231140   1.471   2.292   5.074
10081SOL     OW31141   0.437   1.158   1.018
10081SOL    HW131142   0.525   1.111   1.016
10081SOL    HW231143   0.365   1.096   0.985
10082SOL     OW31144   6.824   0.990   0.282
10082SOL    HW131145   6.751   0.965   0.219
10082SOL    HW231146   6.911   0.957   0.247
10083SOL     OW31147   5.550   1.276   4.469
10083SOL    HW131148   5.540   1.190   4.519
10083SOL    HW231149   5.636   1.274   4.417
10084SOL     OW31150   2.978   0.628   6.905
10084SOL    HW131151   2.881   0.629   6.931
10084SOL    HW231152   3.000   0.712   6.856
10085SOL     OW31153   0.978   5.572   2.435
10085SOL    HW131154   0.880   5.554   2.445
10085SOL    HW231155   1.022   5.568   2.525
10086SOL     OW31156   6.925   2.040   2.399
10086SOL    HW131157   6.951   2.125   2.353
10086SOL    HW231158   6.944   2.048   2.497
10087SOL     OW31159   1.638   0.070   3.465
10087SOL    HW131160   1.543   0.102   3.471
10087SOL    HW231161   1.694   0.139   3.420
10088SOL     OW31162   5.676   0.013   4.441
10088SOL    HW131163   5.664   0.107   4.473
10088SOL    HW231164   5.730   0.012   4.358
10089SOL     OW31165   2.043   2.622   2.255
10089SOL    HW131166   2.129   2.606   2.207
10089SOL    HW231167   2.004   2.709   2.226
10090SOL     OW31168   0.595   5.892   2.143
10090SOL    HW131169   0.613   5.798   2.172
10090SOL    HW231170   0.513   5.895   2.086
10091SOL     OW31171   0.714   1.524   4.110
10091SOL    HW131172   0.737   1.575   4.193
10091SOL    HW231173   0.615   1.509   4.107
10092SOL     OW31174   2.599   2.596   5.469
10092SOL    HW131175   2.518   2.570   5.522
10092SOL    HW231176   2.571   2.648   5.389
10093SOL     OW31177   6.636   6.846   5.491
10093SOL    HW131178   6.708   6.915   5.483
10093SOL    HW231179   6.551   6.881   5.450
10094SOL     OW31180   1.270   0.300   1.941
10094SOL    HW131181   1.324   0.384   1.935
10094SOL    HW231182   1.265   0.258   1.850
10095SOL     OW31183   0.662   2.613   5.049
10095SOL    HW131184   0.614   2.633   4.964
10095SOL    HW231185   0.703   2.697   5.085
10096SOL     OW31186   6.498   6.000   2.719
10096SOL    HW131187   6.435   6.057   2.666
10096SOL    HW231188   6.572   6.057   2.755
10097SOL     OW31189   1.744   2.276   6.004
10097SOL    HW131190   1.749   2.365   5.958
10097SOL    HW231191   1.831   2.228   5.993
10098SOL     OW31192   3.153   4.932   6.563
10098SOL    HW131193   3.237   4.984   6.548
10098SOL    HW231194   3.144   4.910   6.660
10099SOL     OW31195   1.152   3.305   4.337
10099SOL    HW131196   1.091   3.292   4.415
10099SOL    HW231197   1.138   3.397   4.299
10100SOL     OW31198   4.713   0.269   5.998
10100SOL    HW131199   4.680   0.175   5.991
10100SOL    HW231200   4.677   0.322   5.921
10101SOL     OW31201   0.386   3.724   2.747
10101SOL    HW131202   0.458   3.681   2.692
10101SOL    HW231203   0.357   3.661   2.819
10102SOL     OW31204   4.381   0.761   4.441
10102SOL    HW131205   4.295   0.809   4.456
10102SOL    HW231206   4.440   0.771   4.521
10103SOL     OW31207   6.821   2.948   0.703
10103SOL    HW131208   6.893   2.991   0.758
10103SOL    HW231209   6.860   2.872   0.651
10104SOL     OW31210   1.980   5.356   6.041
10104SOL    HW131211   2.016   5.347   5.948
10104SOL    HW231212   2.007   5.277   6.095
10105SOL     OW31213   3.769   0.415   6.961
10105SOL    HW131214   3.784   0.501   7.009
10105SOL    HW231215   3.836   0.347   6.991
10106SOL     OW31216   4.752   5.588   0.787
10106SOL    HW131217   4.787   5.529   0.715
10106SOL    HW231218   4.823   5.603   0.856
10107SOL     OW31219   5.717   2.146   6.076
10107SOL    HW131220   5.649   2.170   6.006
10107SOL    HW231221   5.808   2.147   6.035
10108SOL     OW31222   4.979   5.848   6.494
10108SOL    HW131223   5.040   5.769   6.477
10108SOL    HW231224   4.902   5.819   6.551
10109SOL     OW31225   5.222   6.226   4.043
10109SOL    HW131226   5.303   6.279   4.015
10109SOL    HW231227   5.211   6.147   3.982
10110SOL     OW31228   3.725   2.284   6.442
10110SOL    HW131229   3.664   2.360   6.416
10110SOL    HW231230   3.670   2.202   6.456
10111SOL     OW31231   6.914   2.393   1.589
10111SOL    HW131232   6.823   2.353   1.600
10111SOL    HW231233   6.915   2.484   1.630
10112SOL     OW31234   4.954   4.005   5.890
10112SOL    HW131235   4.856   3.995   5.873
10112SOL    HW231236   4.982   4.099   5.869
10113SOL     OW31237   3.474   0.034   1.070
10113SOL    HW131238   3.565   0.064   1.100
10113SOL    HW231239   3.439   6.985   1.132
10114SOL     OW31240   4.433   1.671   1.717
10114SOL    HW131241   4.427   1.740   1.790
10114SOL    HW231242   4.379   1.700   1.639
10115SOL     OW31243   1.326   1.385   4.564
10115SOL    HW131244   1.408   1.419   4.518
10115SOL    HW231245   1.353   1.322   4.637
10116SOL     OW31246   0.656   0.993   0.991
10116SOL    HW131247   0.703   1.024   0.908
10116SOL    HW231248   0.692   0.904   1.018
10117SOL     OW31249   4.078   6.798   6.093
10117SOL    HW131250   3.979   6.808   6.104
10117SOL    HW231251   4.120   6.888   6.077
10118SOL     OW31252   5.156   5.276   2.925
10118SOL    HW131253   5.247   5.268   2.965
10118SOL    HW231254   5.107   5.190   2.936
10119SOL     OW31255   2.040   0.346   5.889
10119SOL    HW131256   2.103   0.424   5.877
10119SOL    HW231257   2.094   0.264   5.908
10120SOL     OW31258   5.690   3.111   3.647
10120SOL    HW131259   5.614   3.171   3.673
10120SOL    HW231260   5.682   3.024   3.696
10121SOL     OW31261   5.791   4.748   4.512
10121SOL    HW131262   5.694   4.731   4.531
10121SOL    HW231263   5.799   4.825   4.449
10122SOL     OW31264   5.367   2.504   1.275
10122SOL    HW131265   5.425   2.576   1.235
10122SOL    HW231266   5.313   2.543   1.349
10123SOL     OW31267   0.537   6.320   0.597
10123SOL    HW131268   0.571   6.394   0.539
10123SOL    HW231269   0.438   6.330   0.611
10124SOL     OW31270   3.557   4.075   0.672
10124SOL    HW131271   3.598   4.131   0.744
10124SOL    HW231272   3.498   4.132   0.615
10125SOL     OW31273   2.502   1.189   7.019
10125SOL    HW131274   2.595   1.158   0.016
10125SOL    HW231275   2.441   1.160   0.072
10126SOL     OW31276   6.152   5.026   6.399
10126SOL    HW131277   6.246   5.046   6.429
10126SOL    HW231278   6.155   4.991   6.305
10127SOL     OW31279   3.862   4.945   5.076
10127SOL    HW131280   3.849   4.899   5.164
10127SOL    HW231281   3.946   4.912   5.033
10128SOL     OW31282   0.955   1.631   0.724
10128SOL    HW131283   0.988   1.724   0.741
10128SOL    HW231284   0.856   1.627   0.740
10129SOL     OW31285   5.266   2.703   3.021
10129SOL    HW131286   5.267   2.641   2.943
10129SOL    HW231287   5.313   2.660   3.099
10130SOL     OW31288   6.317   5.666   1.825
10130SOL    HW131289   6.271   5.742   1.871
10130SOL    HW231290   6.264   5.582   1.838
10131SOL     OW31291   0.351   0.742   0.540
10131SOL    HW131292   0.354   0.839   0.515
10131SOL    HW231293   0.336   0.687   0.458
10132SOL     OW31294   2.324   6.507   2.606
10132SOL    HW131295   2.343   6.594   2.652
10132SOL    HW231296   2.392   6.491   2.535
10133SOL     OW31297   5.975   4.564   2.642
10133SOL    HW131298   5.913   4.572   2.720
10133SOL    HW231299   6.064   4.531   2.673
10134SOL     OW31300   0.701   1.686   1.526
10134SOL    HW131301   0.766   1.611   1.544
10134SOL    HW231302   0.752   1.771   1.513
10135SOL     OW31303   3.234   6.807   1.774
10135SOL    HW131304   3.269   6.831   1.683
10135SOL    HW231305   3.135   6.791   1.768
10136SOL     OW31306   5.950   6.728   2.800
10136SOL    HW131307   5.859   6.767   2.814
10136SOL    HW231308   5.964   6.711   2.703
10137SOL     OW31309   5.641   4.612   4.248
10137SOL    HW131310   5.716   4.554   4.218
10137SOL    HW231311   5.649   4.702   4.206
10138SOL     OW31312   5.702   2.944   6.362
10138SOL    HW131313   5.784   2.887   6.360
10138SOL    HW231314   5.632   2.899   6.417
10139SOL     OW31315   3.991   3.026   3.038
10139SOL    HW131316   4.053   3.067   3.105
10139SOL    HW231317   3.927   2.964   3.084
10140SOL     OW31318   1.383   4.885   4.605
10140SOL    HW131319   1.401   4.929   4.517
10140SOL    HW231320   1.467   4.846   4.641
10141SOL     OW31321   1.481   0.358   3.524
10141SOL    HW131322   1.391   0.322   3.549
10141SOL    HW231323   1.486   0.455   3.546
10142SOL     OW31324   5.360   5.489   4.152
10142SOL    HW131325   5.413   5.565   4.188
10142SOL    HW231326   5.290   5.462   4.218
10143SOL     OW31327   4.117   6.171   1.362
10143SOL    HW131328   4.088   6.083   1.324
10143SOL    HW231329   4.049   6.203   1.428
10144SOL     OW31330   3.321   4.997   2.369
10144SOL    HW131331   3.248   4.934   2.340
10144SOL    HW231332   3.303   5.027   2.462
10145SOL     OW31333   2.257   0.553   5.863
10145SOL    HW131334   2.242   0.570   5.765
10145SOL    HW231335   2.259   0.640   5.912
10146SOL     OW31336   4.441   4.538   3.862
10146SOL    HW131337   4.486   4.616   3.818
10146SOL    HW231338   4.470   4.454   3.818
10147SOL     OW31339   5.260   5.580   4.791
10147SOL    HW131340   5.171   5.614   4.821
10147SOL    HW231341   5.266   5.584   4.691
10148SOL     OW31342   5.907   5.908   1.257
10148SOL    HW131343   5.936   5.819   1.221
10148SOL    HW231344   5.832   5.895   1.322
10149SOL     OW31345   3.867   2.647   1.679
10149SOL    HW131346   3.859   2.549   1.656
10149SOL    HW231347   3.802   2.670   1.751
10150SOL     OW31348   5.144   4.536   0.897
10150SOL    HW131349   5.154   4.465   0.966
10150SOL    HW231350   5.078   4.507   0.828
10151SOL     OW31351   0.289   5.182   6.079
10151SOL    HW131352   0.221   5.126   6.033
10151SOL    HW231353   0.365   5.200   6.018
10152SOL     OW31354   0.415   5.746   4.091
10152SOL    HW131355   0.437   5.803   4.170
10152SOL    HW231356   0.422   5.800   4.007
10153SOL     OW31357   5.227   5.619   3.944
10153SOL    HW131358   5.276   5.586   4.025
10153SOL    HW231359   5.187   5.541   3.896
10154SOL     OW31360   6.355   5.833   5.624
10154SOL    HW131361   6.448   5.798   5.616
10154SOL    HW231362   6.297   5.788   5.556
10155SOL     OW31363   4.196   1.617   5.688
10155SOL    HW131364   4.286   1.661   5.692
10155SOL    HW231365   4.179   1.585   5.595
10156SOL     OW31366   5.460   6.998   2.117
10156SOL    HW131367   5.441   0.072   2.098
10156SOL    HW231368   5.510   6.958   2.040
10157SOL     OW31369   4.851   0.247   3.117
10157SOL    HW131370   4.911   0.177   3.079
10157SOL    HW231371   4.774   0.263   3.055
10158SOL     OW31372   5.050   3.302   5.648
10158SOL    HW131373   4.955   3.330   5.662
10158SOL    HW231374   5.110   3.382   5.655
10159SOL     OW31375   1.015   0.593   6.595
10159SOL    HW131376   1.065   0.540   6.527
10159SOL    HW231377   1.080   0.636   6.658
10160SOL     OW31378   0.313   6.999   3.655
10160SOL    HW131379   0.379   6.928   3.632
10160SOL    HW231380   0.340   0.022   3.741
10161SOL     OW31381   2.853   5.550   5.267
10161SOL    HW131382   2.933   5.510   5.222
10161SOL    HW231383   2.856   5.530   5.365
10162SOL     OW31384   2.786   2.449   5.867
10162SOL    HW131385   2.808   2.385   5.941
10162SOL    HW231386   2.718   2.408   5.806
10163SOL     OW31387   0.770   3.531   5.105
10163SOL    HW131388   0.816   3.619   5.098
10163SOL    HW231389   0.675   3.545   5.134
10164SOL     OW31390   1.770   3.015   6.551
10164SOL    HW131391   1.858   2.990   6.511
10164SOL    HW231392   1.715   3.064   6.483
10165SOL     OW31393   0.231   1.999   3.538
10165SOL    HW131394   0.163   1.927   3.547
10165SOL    HW231395   0.315   1.961   3.500
10166SOL     OW31396   0.545   1.046   1.989
10166SOL    HW131397   0.504   1.047   2.080
10166SOL    HW231398   0.577   1.138   1.966
10167SOL     OW31399   4.806   0.680   0.282
10167SOL    HW131400   4.894   0.665   0.238
10167SOL    HW231401   4.736   0.628   0.235
10168SOL     OW31402   6.424   4.630   5.697
10168SOL    HW131403   6.400   4.697   5.627
10168SOL    HW231404   6.502   4.664   5.750
10169SOL     OW31405   6.791   4.469   5.114
10169SOL    HW131406   6.756   4.480   5.021
10169SOL    HW231407   6.737   4.401   5.163
10170SOL     OW31408   1.657   4.492   4.792
10170SOL    HW131409   1.710   4.407   4.792
10170SOL    HW231410   1.644   4.523   4.698
10171SOL     OW31411   6.556   2.655   5.937
10171SOL    HW131412   6.516   2.746   5.954
10171SOL    HW231413   6.482   2.590   5.920
10172SOL     OW31414   5.021   0.110   4.798
10172SOL    HW131415   5.116   0.125   4.769
10172SOL    HW231416   5.020   0.053   4.880
10173SOL     OW31417   1.991   2.744   2.583
10173SOL    HW131418   1.921   2.726   2.514
10173SOL    HW231419   2.081   2.742   2.540
10174SOL     OW31420   6.412   5.086   1.063
10174SOL    HW131421   6.493   5.028   1.065
10174SOL    HW231422   6.440   5.182   1.059
10175SOL     OW31423   5.731   2.364   5.378
10175SOL    HW131424   5.756   2.289   5.318
10175SOL    HW231425   5.802   2.434   5.376
10176SOL     OW31426   2.972   3.081   0.552
10176SOL    HW131427   2.991   3.081   0.650
10176SOL    HW231428   3.003   2.995   0.512
10177SOL     OW31429   0.764   7.011   5.571
10177SOL    HW131430   0.754   0.052   5.648
10177SOL    HW231431   0.853   6.967   5.574
10178SOL     OW31432   5.011   3.089   5.268
10178SOL    HW131433   4.998   3.187   5.251
10178SOL    HW231434   5.065   3.050   5.193
10179SOL     OW31435   6.885   3.280   0.290
10179SOL    HW131436   6.885   3.371   0.332
10179SOL    HW231437   6.793   3.259   0.257
10180SOL     OW31438   1.734   6.596   6.653
10180SOL    HW131439   1.828   6.627   6.671
10180SOL    HW231440   1.674   6.675   6.644
10181SOL     OW31441   5.809   3.235   2.478
10181SOL    HW131442   5.797   3.189   2.566
10181SOL    HW231443   5.806   3.167   2.404
10182SOL     OW31444   3.846   1.174   1.015
10182SOL    HW131445   3.780   1.235   1.058
10182SOL    HW231446   3.912   1.228   0.963
10183SOL     OW31447   1.534   1.566   6.184
10183SOL    HW131448   1.623   1.565   6.139
10183SOL    HW231449   1.507   1.660   6.205
10184SOL     OW31450   4.625   0.181   0.179
10184SOL    HW131451   4.606   0.219   0.269
10184SOL    HW231452   4.564   0.223   0.111
10185SOL     OW31453   4.562   0.926   0.434
10185SOL    HW131454   4.527   0.837   0.406
10185SOL    HW231455   4.661   0.928   0.423
10186SOL     OW31456   4.868   2.197   2.627
10186SOL    HW131457   4.941   2.224   2.690
10186SOL    HW231458   4.790   2.162   2.679
10187SOL     OW31459   0.323   2.476   2.109
10187SOL    HW131460   0.274   2.390   2.094
10187SOL    HW231461   0.391   2.488   2.037
10188SOL     OW31462   3.990   5.914   0.801
10188SOL    HW131463   3.930   5.865   0.737
10188SOL    HW231464   4.085   5.899   0.775
10189SOL     OW31465   0.529   6.792   4.132
10189SOL    HW131466   0.528   6.803   4.232
10189SOL    HW231467   0.568   6.874   4.090
10190SOL     OW31468   5.859   3.003   0.384
10190SOL    HW131469   5.792   3.061   0.338
10190SOL    HW231470   5.823   2.910   0.392
10191SOL     OW31471   6.616   4.452   0.228
10191SOL    HW131472   6.576   4.368   0.267
10191SOL    HW231473   6.543   4.520   0.215
10192SOL     OW31474   3.917   1.666   0.471
10192SOL    HW131475   3.994   1.603   0.480
10192SOL    HW231476   3.921   1.711   0.381
10193SOL     OW31477   4.932   4.731   0.993
10193SOL    HW131478   4.941   4.796   1.068
10193SOL    HW231479   5.013   4.673   0.990
10194SOL     OW31480   4.810   2.441   5.145
10194SOL    HW131481   4.737   2.509   5.136
10194SOL    HW231482   4.856   2.452   5.233
10195SOL     OW31483   5.592   5.645   2.517
10195SOL    HW131484   5.609   5.695   2.602
10195SOL    HW231485   5.555   5.555   2.538
10196SOL     OW31486   0.620   1.251   4.477
10196SOL    HW131487   0.685   1.308   4.527
10196SOL    HW231488   0.668   1.180   4.427
10197SOL     OW31489   4.650   0.533   6.724
10197SOL    HW131490   4.633   0.621   6.769
10197SOL    HW231491   4.631   0.542   6.626
10198SOL     OW31492   4.746   0.237   1.681
10198SOL    HW131493   4.708   0.156   1.726
10198SOL    HW231494   4.672   0.298   1.652
10199SOL     OW31495   0.607   2.215   5.758
10199SOL    HW131496   0.630   2.129   5.712
10199SOL    HW231497   0.510   2.215   5.781
10200SOL     OW31498   5.232   2.538   2.827
10200SOL    HW131499   5.159   2.604   2.807
10200SOL    HW231500   5.309   2.553   2.765
10201SOL     OW31501   2.120   3.286   0.896
10201SOL    HW131502   2.063   3.259   0.974
10201SOL    HW231503   2.062   3.322   0.823
10202SOL     OW31504   4.758   0.033   2.835
10202SOL    HW131505   4.856   0.051   2.825
10202SOL    HW231506   4.737   0.013   2.931
10203SOL     OW31507   0.463   3.485   5.616
10203SOL    HW131508   0.397   3.541   5.567
10203SOL    HW231509   0.484   3.404   5.562
10204SOL     OW31510   4.591   4.701   6.214
10204SOL    HW131511   4.544   4.683   6.127
10204SOL    HW231512   4.591   4.618   6.270
10205SOL     OW31513   6.989   1.658   6.739
10205SOL    HW131514   7.020   1.684   6.830
10205SOL    HW231515   6.929   1.729   6.702
10206SOL     OW31516   2.563   2.135   4.492
10206SOL    HW131517   2.468   2.154   4.470
10206SOL    HW231518   2.568   2.068   4.567
10207SOL     OW31519   2.302   2.695   6.311
10207SOL    HW131520   2.348   2.615   6.349
10207SOL    HW231521   2.231   2.726   6.374
10208SOL     OW31522   6.890   0.428   5.439
10208SOL    HW131523   6.944   0.355   5.397
10208SOL    HW231524   6.905   0.513   5.390
10209SOL     OW31525   6.994   6.457   5.619
10209SOL    HW131526   7.007   6.382   5.685
10209SOL    HW231527   0.012   6.541   5.657
10210SOL     OW31528   3.612   0.723   2.068
10210SOL    HW131529   3.544   0.724   1.994
10210SOL    HW231530   3.697   0.682   2.034
10211SOL     OW31531   5.623   5.407   6.669
10211SOL    HW131532   5.635   5.331   6.605
10211SOL    HW231533   5.527   5.413   6.695
10212SOL     OW31534   0.286   0.412   0.519
10212SOL    HW131535   0.373   0.461   0.520
10212SOL    HW231536   0.275   0.366   0.431
10213SOL     OW31537   6.667   3.157   1.515
10213SOL    HW131538   6.684   3.059   1.521
10213SOL    HW231539   6.701   3.202   1.598
10214SOL     OW31540   1.261   2.512   1.321
10214SOL    HW131541   1.266   2.567   1.405
10214SOL    HW231542   1.332   2.442   1.322
10215SOL     OW31543   4.112   3.789   2.092
10215SOL    HW131544   4.165   3.779   2.175
10215SOL    HW231545   4.097   3.887   2.074
10216SOL     OW31546   0.706   6.388   2.086
10216SOL    HW131547   0.707   6.481   2.051
10216SOL    HW231548   0.703   6.323   2.010
10217SOL     OW31549   3.422   1.825   5.118
10217SOL    HW131550   3.493   1.860   5.179
10217SOL    HW231551   3.374   1.902   5.076
10218SOL     OW31552   0.794   2.952   2.880
10218SOL    HW131553   0.712   2.954   2.822
10218SOL    HW231554   0.836   2.861   2.873
10219SOL     OW31555   0.133   6.361   2.974
10219SOL    HW131556   0.083   6.446   2.955
10219SOL    HW231557   0.107   6.327   3.064
10220SOL     OW31558   3.930   3.293   6.685
10220SOL    HW131559   3.884   3.326   6.767
10220SOL    HW231560   4.028   3.288   6.701
10221SOL     OW31561   1.276   5.951   2.991
10221SOL    HW131562   1.229   5.952   2.903
10221SOL    HW231563   1.326   6.037   3.003
10222SOL     OW31564   3.006   3.229   3.322
10222SOL    HW131565   2.959   3.309   3.359
10222SOL    HW231566   3.029   3.166   3.397
10223SOL     OW31567   3.418   6.917   0.414
10223SOL    HW131568   3.435   6.892   0.319
10223SOL    HW231569   3.323   6.895   0.438
10224SOL     OW31570   0.081   3.475   3.973
10224SOL    HW131571   7.015   3.503   4.014
10224SOL    HW231572   0.063   3.423   3.890
10225SOL     OW31573   1.957   3.944   5.592
10225SOL    HW131574   1.889   3.870   5.601
10225SOL    HW231575   1.947   3.987   5.503
10226SOL     OW31576   3.831   5.089   6.432
10226SOL    HW131577   3.761   5.036   6.479
10226SOL    HW231578   3.813   5.088   6.333
10227SOL     OW31579   5.285   4.029   1.089
10227SOL    HW131580   5.341   4.003   1.011
10227SOL    HW231581   5.330   3.999   1.174
10228SOL     OW31582   5.248   6.929   6.914
10228SOL    HW131583   5.217   6.996   6.981
10228SOL    HW231584   5.340   6.898   6.938
10229SOL     OW31585   0.466   2.174   5.203
10229SOL    HW131586   0.467   2.112   5.281
10229SOL    HW231587   0.392   2.240   5.214
10230SOL     OW31588   5.812   5.923   1.721
10230SOL    HW131589   5.762   6.007   1.740
10230SOL    HW231590   5.892   5.943   1.665
10231SOL     OW31591   0.144   3.866   1.944
10231SOL    HW131592   0.135   3.954   1.898
10231SOL    HW231593   0.143   3.879   2.043
10232SOL     OW31594   4.688   4.749   2.084
10232SOL    HW131595   4.655   4.842   2.066
10232SOL    HW231596   4.788   4.746   2.074
10233SOL     OW31597   3.594   3.152   5.803
10233SOL    HW131598   3.643   3.221   5.856
10233SOL    HW231599   3.659   3.104   5.744
10234SOL     OW31600   0.983   0.672   1.932
10234SOL    HW131601   1.058   0.708   1.877
10234SOL    HW231602   0.899   0.721   1.908
10235SOL     OW31603   0.984   0.194   2.883
10235SOL    HW131604   1.029   0.122   2.831
10235SOL    HW231605   0.982   0.169   2.980
10236SOL     OW31606   0.838   0.584   2.828
10236SOL    HW131607   0.882   0.674   2.828
10236SOL    HW231608   0.899   0.517   2.786
10237SOL     OW31609   6.899   3.978   5.748
10237SOL    HW131610   6.814   3.929   5.729
10237SOL    HW231611   6.971   3.913   5.771
10238SOL     OW31612   2.771   0.259   0.691
10238SOL    HW131613   2.675   0.248   0.717
10238SOL    HW231614   2.828   0.247   0.772
10239SOL     OW31615   1.288   2.737   4.990
10239SOL    HW131616   1.294   2.645   4.951
10239SOL    HW231617   1.193   2.766   4.993
10240SOL     OW31618   1.307   6.727   1.031
10240SOL    HW131619   1.258   6.646   0.998
10240SOL    HW231620   1.265   6.809   0.993
10241SOL     OW31621   4.410   3.835   1.675
10241SOL    HW131622   4.416   3.846   1.576
10241SOL    HW231623   4.330   3.884   1.709
10242SOL     OW31624   0.756   3.281   1.461
10242SOL    HW131625   0.744   3.363   1.405
10242SOL    HW231626   0.680   3.273   1.525
10243SOL     OW31627   3.797   5.299   1.838
10243SOL    HW131628   3.726   5.232   1.857
10243SOL    HW231629   3.849   5.270   1.757
10244SOL     OW31630   2.010   5.738   1.482
10244SOL    HW131631   1.949   5.667   1.517
10244SOL    HW231632   2.062   5.702   1.404
10245SOL     OW31633   6.302   3.985   1.027
10245SOL    HW131634   6.263   4.073   1.053
10245SOL    HW231635   6.320   3.931   1.109
10246SOL     OW31636   3.551   3.429   3.229
10246SOL    HW131637   3.634   3.483   3.241
10246SOL    HW231638   3.515   3.443   3.137
10247SOL     OW31639   0.722   3.472   4.828
10247SOL    HW131640   0.655   3.525   4.776
10247SOL    HW231641   0.744   3.522   4.912
10248SOL     OW31642   0.904   1.296   4.112
10248SOL    HW131643   0.907   1.285   4.013
10248SOL    HW231644   0.835   1.364   4.136
10249SOL     OW31645   2.834   4.811   6.202
10249SOL    HW131646   2.864   4.904   6.223
10249SOL    HW231647   2.851   4.792   6.106
10250SOL     OW31648   2.913   2.821   0.173
10250SOL    HW131649   2.890   2.918   0.169
10250SOL    HW231650   2.833   2.767   0.145
10251SOL     OW31651   0.992   0.900   4.970
10251SOL    HW131652   0.976   0.834   5.043
10251SOL    HW231653   0.905   0.925   4.927
10252SOL     OW31654   5.625   3.598   6.078
10252SOL    HW131655   5.716   3.630   6.050
10252SOL    HW231656   5.635   3.524   6.144
10253SOL     OW31657   3.911   5.583   0.727
10253SOL    HW131658   3.864   5.669   0.748
10253SOL    HW231659   3.851   5.506   0.750
10254SOL     OW31660   6.553   1.914   6.475
10254SOL    HW131661   6.611   1.839   6.443
10254SOL    HW231662   6.609   1.987   6.513
10255SOL     OW31663   3.995   4.344   1.629
10255SOL    HW131664   3.968   4.400   1.550
10255SOL    HW231665   4.093   4.358   1.647
10256SOL     OW31666   2.221   0.553   4.107
10256SOL    HW131667   2.239   0.455   4.111
10256SOL    HW231668   2.261   0.591   4.023
10257SOL     OW31669   3.517   6.299   2.906
10257SOL    HW131670   3.499   6.231   2.977
10257SOL    HW231671   3.452   6.375   2.914
10258SOL     OW31672   3.369   1.588   2.079
10258SOL    HW131673   3.277   1.573   2.115
10258SOL    HW231674   3.368   1.667   2.018
10259SOL     OW31675   2.126   3.630   3.317
10259SOL    HW131676   2.188   3.556   3.289
10259SOL    HW231677   2.087   3.673   3.237
10260SOL     OW31678   0.097   0.689   4.067
10260SOL    HW131679   0.072   0.763   4.130
10260SOL    HW231680   0.189   0.656   4.090
10261SOL     OW31681   6.380   3.753   1.530
10261SOL    HW131682   6.381   3.658   1.500
10261SOL    HW231683   6.290   3.793   1.510
10262SOL     OW31684   4.586   1.019   6.570
10262SOL    HW131685   4.513   1.082   6.546
10262SOL    HW231686   4.672   1.050   6.527
10263SOL     OW31687   5.557   0.473   2.865
10263SOL    HW131688   5.638   0.493   2.810
10263SOL    HW231689   5.546   0.543   2.936
10264SOL     OW31690   6.747   1.270   5.753
10264SOL    HW131691   6.844   1.275   5.779
10264SOL    HW231692   6.723   1.175   5.734
10265SOL     OW31693   1.543   1.155   2.485
10265SOL    HW131694   1.627   1.109   2.514
10265SOL    HW231695   1.473   1.087   2.463
10266SOL     OW31696   2.722   3.648   1.775
10266SOL    HW131697   2.777   3.731   1.776
10266SOL    HW231698   2.709   3.616   1.869
10267SOL     OW31699   6.209   0.878   0.454
10267SOL    HW131700   6.152   0.958   0.437
10267SOL    HW231701   6.180   0.834   0.539
10268SOL     OW31702   3.913   5.898   2.823
10268SOL    HW131703   3.997   5.945   2.848
10268SOL    HW231704   3.914   5.876   2.725
10269SOL     OW31705   2.506   1.641   6.450
10269SOL    HW131706   2.426   1.581   6.445
10269SOL    HW231707   2.554   1.625   6.536
10270SOL     OW31708   2.779   0.383   3.569
10270SOL    HW131709   2.816   0.473   3.592
10270SOL    HW231710   2.679   0.385   3.578
10271SOL     OW31711   1.860   1.202   0.012
10271SOL    HW131712   1.875   1.243   0.102
10271SOL    HW231713   1.839   1.274   6.967
10272SOL     OW31714   5.836   6.663   5.285
10272SOL    HW131715   5.796   6.597   5.223
10272SOL    HW231716   5.776   6.677   5.364
10273SOL     OW31717   2.250   5.502   2.492
10273SOL    HW131718   2.262   5.403   2.488
10273SOL    HW231719   2.196   5.532   2.413
10274SOL     OW31720   0.970   4.343   5.195
10274SOL    HW131721   0.925   4.266   5.240
10274SOL    HW231722   0.966   4.424   5.253
10275SOL     OW31723   0.312   1.203   1.763
10275SOL    HW131724   0.213   1.196   1.773
10275SOL    HW231725   0.352   1.112   1.759
10276SOL     OW31726   3.482   4.839   5.257
10276SOL    HW131727   3.525   4.768   5.314
10276SOL    HW231728   3.387   4.851   5.286
10277SOL     OW31729   0.411   5.358   3.486
10277SOL    HW131730   0.395   5.319   3.395
10277SOL    HW231731   0.475   5.299   3.536
10278SOL     OW31732   5.630   0.296   4.165
10278SOL    HW131733   5.707   0.233   4.174
10278SOL    HW231734   5.656   0.371   4.103
10279SOL     OW31735   1.416   5.026   4.365
10279SOL    HW131736   1.425   5.125   4.366
10279SOL    HW231737   1.473   4.988   4.292
10280SOL     OW31738   6.199   5.764   0.591
10280SOL    HW131739   6.286   5.762   0.541
10280SOL    HW231740   6.179   5.858   0.618
10281SOL     OW31741   6.013   6.868   4.447
10281SOL    HW131742   6.023   6.967   4.434
10281SOL    HW231743   6.077   6.820   4.388
10282SOL     OW31744   5.263   2.545   3.300
10282SOL    HW131745   5.332   2.473   3.305
10282SOL    HW231746   5.260   2.595   3.386
10283SOL     OW31747   0.062   2.334   0.843
10283SOL    HW131748   0.053   2.311   0.940
10283SOL    HW231749   0.140   2.285   0.804
10284SOL     OW31750   1.268   5.172   5.201
10284SOL    HW131751   1.368   5.174   5.198
10284SOL    HW231752   1.232   5.170   5.108
10285SOL     OW31753   0.192   6.980   6.104
10285SOL    HW131754   0.249   0.030   6.064
10285SOL    HW231755   0.111   6.966   6.047
10286SOL     OW31756   3.368   0.854   1.508
10286SOL    HW131757   3.426   0.842   1.428
10286SOL    HW231758   3.380   0.946   1.545
10287SOL     OW31759   0.617   6.108   2.977
10287SOL    HW131760   0.555   6.054   3.034
10287SOL    HW231761   0.679   6.047   2.928
10288SOL     OW31762   3.872   5.889   4.497
10288SOL    HW131763   3.966   5.906   4.526
10288SOL    HW231764   3.837   5.808   4.542
10289SOL     OW31765   3.536   6.332   6.588
10289SOL    HW131766   3.495   6.292   6.506
10289SOL    HW231767   3.494   6.421   6.606
10290SOL     OW31768   3.701   3.184   2.573
10290SOL    HW131769   3.738   3.264   2.620
10290SOL    HW231770   3.612   3.161   2.613
10291SOL     OW31771   3.470   1.991   1.716
10291SOL    HW131772   3.567   2.018   1.723
10291SOL    HW231773   3.421   2.059   1.661
10292SOL     OW31774   0.580   0.776   5.923
10292SOL    HW131775   0.658   0.826   5.886
10292SOL    HW231776   0.600   0.678   5.923
10293SOL     OW31777   1.698   3.119   5.851
10293SOL    HW131778   1.671   3.202   5.899
10293SOL    HW231779   1.740   3.144   5.763
10294SOL     OW31780   0.890   6.809   1.824
10294SOL    HW131781   0.819   6.774   1.886
10294SOL    HW231782   0.919   6.899   1.855
10295SOL     OW31783   2.285   1.193   0.788
10295SOL    HW131784   2.343   1.198   0.707
10295SOL    HW231785   2.320   1.255   0.858
10296SOL     OW31786   6.991   3.254   5.062
10296SOL    HW131787   0.011   3.215   5.144
10296SOL    HW231788   6.995   3.187   4.987
10297SOL     OW31789   4.102   1.504   1.156
10297SOL    HW131790   4.010   1.541   1.152
10297SOL    HW231791   4.149   1.521   1.069
10298SOL     OW31792   1.704   0.769   1.874
10298SOL    HW131793   1.690   0.684   1.824
10298SOL    HW231794   1.616   0.815   1.887
10299SOL     OW31795   5.367   0.039   2.429
10299SOL    HW131796   5.276   0.012   2.397
10299SOL    HW231797   5.422   0.070   2.351
10300SOL     OW31798   0.914   3.894   1.335
10300SOL    HW131799   1.006   3.913   1.301
10300SOL    HW231800   0.916   3.812   1.393
10301SOL     OW31801   4.481   1.263   0.141
10301SOL    HW131802   4.581   1.269   0.145
10301SOL    HW231803   4.441   1.309   0.220
10302SOL     OW31804   2.919   6.046   5.605
10302SOL    HW131805   2.924   5.956   5.562
10302SOL    HW231806   2.829   6.057   5.648
10303SOL     OW31807   0.485   4.749   5.663
10303SOL    HW131808   0.480   4.675   5.730
10303SOL    HW231809   0.502   4.835   5.711
10304SOL     OW31810   4.692   5.130   0.597
10304SOL    HW131811   4.698   5.077   0.512
10304SOL    HW231812   4.727   5.075   0.673
10305SOL     OW31813   2.906   3.344   4.874
10305SOL    HW131814   2.966   3.286   4.928
10305SOL    HW231815   2.818   3.298   4.861
10306SOL     OW31816   3.657   0.981   1.749
10306SOL    HW131817   3.740   1.033   1.732
10306SOL    HW231818   3.635   0.984   1.847
10307SOL     OW31819   1.921   6.072   4.951
10307SOL    HW131820   1.908   6.011   5.029
10307SOL    HW231821   1.995   6.036   4.893
10308SOL     OW31822   2.618   4.677   2.343
10308SOL    HW131823   2.655   4.676   2.436
10308SOL    HW231824   2.693   4.670   2.277
10309SOL     OW31825   0.464   0.967   4.538
10309SOL    HW131826   0.440   0.878   4.499
10309SOL    HW231827   0.559   0.988   4.516
10310SOL     OW31828   2.907   4.399   6.519
10310SOL    HW131829   2.899   4.459   6.440
10310SOL    HW231830   2.978   4.331   6.503
10311SOL     OW31831   5.145   6.354   0.054
10311SOL    HW131832   5.174   6.449   0.052
10311SOL    HW231833   5.224   6.294   0.043
10312SOL     OW31834   2.327   6.580   1.584
10312SOL    HW131835   2.419   6.619   1.578
10312SOL    HW231836   2.260   6.650   1.559
10313SOL     OW31837   4.917   6.548   3.076
10313SOL    HW131838   4.849   6.474   3.075
10313SOL    HW231839   4.938   6.573   3.170
10314SOL     OW31840   0.526   6.668   0.633
10314SOL    HW131841   0.435   6.694   0.668
10314SOL    HW231842   0.596   6.704   0.695
10315SOL     OW31843   5.064   4.802   4.058
10315SOL    HW131844   5.147   4.769   4.104
10315SOL    HW231845   5.072   4.901   4.043
10316SOL     OW31846   1.345   2.133   0.222
10316SOL    HW131847   1.372   2.216   0.271
10316SOL    HW231848   1.317   2.063   0.287
10317SOL     OW31849   4.130   5.744   4.582
10317SOL    HW131850   4.180   5.661   4.608
10317SOL    HW231851   4.177   5.824   4.618
10318SOL     OW31852   6.079   0.007   0.034
10318SOL    HW131853   6.089   0.104   0.008
10318SOL    HW231854   6.166   6.995   0.070
10319SOL     OW31855   1.252   4.306   4.508
10319SOL    HW131856   1.277   4.375   4.576
10319SOL    HW231857   1.336   4.271   4.464
10320SOL     OW31858   6.781   6.691   3.053
10320SOL    HW131859   6.686   6.686   3.021
10320SOL    HW231860   6.784   6.686   3.153
10321SOL     OW31861   5.987   2.257   4.039
10321SOL    HW131862   5.998   2.355   4.055
10321SOL    HW231863   6.044   2.206   4.105
10322SOL     OW31864   4.451   4.652   4.757
10322SOL    HW131865   4.423   4.606   4.842
10322SOL    HW231866   4.482   4.744   4.778
10323SOL     OW31867   0.668   4.885   6.052
10323SOL    HW131868   0.642   4.789   6.047
10323SOL    HW231869   0.598   4.937   6.100
10324SOL     OW31870   3.427   3.117   2.648
10324SOL    HW131871   3.364   3.066   2.707
10324SOL    HW231872   3.375   3.184   2.595
10325SOL     OW31873   6.013   5.987   5.377
10325SOL    HW131874   6.063   6.056   5.429
10325SOL    HW231875   5.927   6.027   5.345
10326SOL     OW31876   5.011   4.099   6.549
10326SOL    HW131877   5.073   4.091   6.471
10326SOL    HW231878   5.064   4.104   6.634
10327SOL     OW31879   1.602   5.902   0.131
10327SOL    HW131880   1.513   5.858   0.139
10327SOL    HW231881   1.671   5.846   0.177
10328SOL     OW31882   6.501   2.099   3.521
10328SOL    HW131883   6.597   2.075   3.537
10328SOL    HW231884   6.442   2.041   3.577
10329SOL     OW31885   3.715   2.047   1.774
10329SOL    HW131886   3.684   2.109   1.846
10329SOL    HW231887   3.814   2.058   1.762
10330SOL     OW31888   4.826   6.501   1.908
10330SOL    HW131889   4.778   6.469   1.826
10330SOL    HW231890   4.867   6.423   1.955
10331SOL     OW31891   5.191   5.529   5.641
10331SOL    HW131892   5.220   5.600   5.576
10331SOL    HW231893   5.241   5.541   5.727
10332SOL     OW31894   2.071   1.011   6.490
10332SOL    HW131895   2.041   1.052   6.576
10332SOL    HW231896   2.170   1.004   6.489
10333SOL     OW31897   1.637   3.549   3.834
10333SOL    HW131898   1.651   3.477   3.766
10333SOL    HW231899   1.555   3.529   3.887
10334SOL     OW31900   3.798   1.495   3.943
10334SOL    HW131901   3.796   1.497   4.043
10334SOL    HW231902   3.796   1.589   3.907
10335SOL     OW31903   2.095   3.628   3.916
10335SOL    HW131904   2.023   3.621   3.985
10335SOL    HW231905   2.123   3.536   3.888
10336SOL     OW31906   5.823   6.538   3.165
10336SOL    HW131907   5.918   6.550   3.135
10336SOL    HW231908   5.804   6.440   3.174
10337SOL     OW31909   6.090   6.548   6.545
10337SOL    HW131910   6.021   6.621   6.550
10337SOL    HW231911   6.077   6.485   6.621
10338SOL     OW31912   0.305   5.964   2.013
10338SOL    HW131913   0.210   5.995   2.014
10338SOL    HW231914   0.366   6.044   2.011
10339SOL     OW31915   5.353   2.429   5.984
10339SOL    HW131916   5.376   2.441   5.887
10339SOL    HW231917   5.270   2.481   6.004
10340SOL     OW31918   3.333   3.204   6.539
10340SOL    HW131919   3.346   3.303   6.535
10340SOL    HW231920   3.369   3.162   6.456
10341SOL     OW31921   3.910   4.860   3.359
10341SOL    HW131922   3.891   4.869   3.261
10341SOL    HW231923   3.997   4.813   3.372
10342SOL     OW31924   0.918   1.752   3.977
10342SOL    HW131925   0.888   1.693   3.903
10342SOL    HW231926   0.839   1.802   4.015
10343SOL     OW31927   4.353   5.301   1.368
10343SOL    HW131928   4.364   5.203   1.380
10343SOL    HW231929   4.298   5.338   1.443
10344SOL     OW31930   5.018   6.803   6.899
10344SOL    HW131931   5.101   6.857   6.884
10344SOL    HW231932   5.026   6.754   6.986
10345SOL     OW31933   0.761   4.624   4.745
10345SOL    HW131934   0.856   4.639   4.716
10345SOL    HW231935   0.755   4.634   4.844
10346SOL     OW31936   0.895   5.192   0.841
10346SOL    HW131937   0.865   5.234   0.755
10346SOL    HW231938   0.835   5.223   0.916
10347SOL     OW31939   0.519   1.966   5.399
10347SOL    HW131940   0.579   1.923   5.331
10347SOL    HW231941   0.576   2.010   5.469
10348SOL     OW31942   0.227   5.338   1.162
10348SOL    HW131943   0.127   5.339   1.155
10348SOL    HW231944   0.257   5.248   1.193
10349SOL     OW31945   6.667   0.114   6.551
10349SOL    HW131946   6.767   0.117   6.555
10349SOL    HW231947   6.636   0.019   6.561
10350SOL     OW31948   4.257   0.230   6.720
10350SOL    HW131949   4.165   0.197   6.695
10350SOL    HW231950   4.275   0.207   6.815
10351SOL     OW31951   4.430   5.832   6.016
10351SOL    HW131952   4.342   5.837   6.063
10351SOL    HW231953   4.483   5.915   6.034
10352SOL     OW31954   4.463   4.950   5.892
10352SOL    HW131955   4.532   5.006   5.938
10352SOL    HW231956   4.447   4.867   5.945
10353SOL     OW31957   0.337   3.532   4.789
10353SOL    HW131958   0.378   3.624   4.785
10353SOL    HW231959   0.252   3.536   4.841
10354SOL     OW31960   5.458   1.185   1.237
10354SOL    HW131961   5.370   1.140   1.223
10354SOL    HW231962   5.507   1.190   1.150
10355SOL     OW31963   0.685   4.619   3.120
10355SOL    HW131964   0.698   4.521   3.136
10355SOL    HW231965   0.590   4.637   3.098
10356SOL     OW31966   0.296   3.335   4.974
10356SOL    HW131967   0.323   3.390   4.895
10356SOL    HW231968   0.243   3.256   4.942
10357SOL     OW31969   3.127   2.951   6.525
10357SOL    HW131970   3.093   2.866   6.485
10357SOL    HW231971   3.212   2.978   6.479
10358SOL     OW31972   0.577   0.435   2.093
10358SOL    HW131973   0.485   0.454   2.059
10358SOL    HW231974   0.608   0.510   2.151
10359SOL     OW31975   1.631   1.698   0.657
10359SOL    HW131976   1.595   1.616   0.702
10359SOL    HW231977   1.684   1.671   0.577
10360SOL     OW31978   0.509   4.263   4.194
10360SOL    HW131979   0.582   4.310   4.145
10360SOL    HW231980   0.505   4.168   4.166
10361SOL     OW31981   3.095   5.687   0.300
10361SOL    HW131982   3.168   5.643   0.353
10361SOL    HW231983   3.136   5.738   0.224
10362SOL     OW31984   0.707   4.892   5.203
10362SOL    HW131985   0.617   4.855   5.178
10362SOL    HW231986   0.731   4.863   5.296
10363SOL     OW31987   5.164   0.786   4.843
10363SOL    HW131988   5.238   0.719   4.851
10363SOL    HW231989   5.135   0.815   4.934
10364SOL     OW31990   1.207   3.998   0.910
10364SOL    HW131991   1.139   4.060   0.870
10364SOL    HW231992   1.228   3.925   0.844
10365SOL     OW31993   5.588   4.753   6.901
10365SOL    HW131994   5.615   4.848   6.917
10365SOL    HW231995   5.591   4.702   6.987
10366SOL     OW31996   4.623   6.845   3.687
10366SOL    HW131997   4.629   6.941   3.662
10366SOL    HW231998   4.652   6.789   3.609
10367SOL     OW31999   6.106   1.326   3.425
10367SOL    HW132000   6.172   1.258   3.456
10367SOL    HW232001   6.139   1.418   3.447
10368SOL     OW32002   2.256   6.850   1.150
10368SOL    HW132003   2.199   6.913   1.097
10368SOL    HW232004   2.212   6.760   1.152
10369SOL     OW32005   5.080   2.861   6.452
10369SOL    HW132006   5.119   2.939   6.403
10369SOL    HW232007   5.016   2.894   6.522
10370SOL     OW32008   2.536   0.449   4.925
10370SOL    HW132009   2.461   0.397   4.885
10370SOL    HW232010   2.621   0.397   4.917
10371SOL     OW32011   4.887   6.378   5.624
10371SOL    HW132012   4.898   6.386   5.525
10371SOL    HW232013   4.954   6.437   5.670
10372SOL     OW32014   6.987   0.964   4.527
10372SOL    HW132015   0.045   0.952   4.585
10372SOL    HW232016   7.010   1.022   4.448
10373SOL     OW32017   1.463   6.798   5.235
10373SOL    HW132018   1.509   6.864   5.296
10373SOL    HW232019   1.375   6.773   5.274
10374SOL     OW32020   3.672   1.197   3.385
10374SOL    HW132021   3.620   1.159   3.461
10374SOL    HW232022   3.727   1.274   3.419
10375SOL     OW32023   6.806   2.600   1.180
10375SOL    HW132024   6.849   2.567   1.096
10375SOL    HW232025   6.877   2.615   1.250
10376SOL     OW32026   5.625   0.207   3.658
10376SOL    HW132027   5.587   0.285   3.606
10376SOL    HW232028   5.551   0.143   3.678
10377SOL     OW32029   6.443   6.591   3.354
10377SOL    HW132030   6.417   6.511   3.408
10377SOL    HW232031   6.539   6.614   3.373
10378SOL     OW32032   6.768   6.670   5.636
10378SOL    HW132033   6.820   6.586   5.621
10378SOL    HW232034   6.734   6.704   5.549
10379SOL     OW32035   4.227   1.225   5.254
10379SOL    HW132036   4.133   1.213   5.223
10379SOL    HW232037   4.228   1.266   5.345
10380SOL     OW32038   3.323   0.913   4.633
10380SOL    HW132039   3.420   0.938   4.629
10380SOL    HW232040   3.282   0.925   4.543
10381SOL     OW32041   3.317   5.448   5.164
10381SOL    HW132042   3.360   5.392   5.093
10381SOL    HW232043   3.268   5.524   5.121
10382SOL     OW32044   0.242   5.092   1.317
10382SOL    HW132045   0.185   5.010   1.315
10382SOL    HW232046   0.338   5.065   1.308
10383SOL     OW32047   5.572   3.468   1.216
10383SOL    HW132048   5.520   3.471   1.301
10383SOL    HW232049   5.670   3.467   1.237
10384SOL     OW32050   5.005   1.358   6.932
10384SOL    HW132051   4.906   1.347   6.938
10384SOL    HW232052   5.034   1.428   6.998
10385SOL     OW32053   6.580   3.182   6.642
10385SOL    HW132054   6.587   3.163   6.740
10385SOL    HW232055   6.670   3.174   6.600
10386SOL     OW32056   0.011   1.569   6.176
10386SOL    HW132057   0.107   1.548   6.196
10386SOL    HW232058   7.011   1.661   6.208
10387SOL     OW32059   1.282   3.949   3.236
10387SOL    HW132060   1.277   4.008   3.316
10387SOL    HW232061   1.310   3.857   3.264
10388SOL     OW32062   2.035   4.579   2.143
10388SOL    HW132063   2.058   4.579   2.241
10388SOL    HW232064   2.043   4.672   2.108
10389SOL     OW32065   1.651   5.622   3.015
10389SOL    HW132066   1.620   5.646   3.107
10389SOL    HW232067   1.668   5.705   2.962
10390SOL     OW32068   2.103   3.341   3.439
10390SOL    HW132069   2.035   3.370   3.372
10390SOL    HW232070   2.083   3.382   3.528
10391SOL     OW32071   3.494   5.365   3.961
10391SOL    HW132072   3.536   5.430   3.897
10391SOL    HW232073   3.472   5.412   4.046
10392SOL     OW32074   6.911   5.662   0.210
10392SOL    HW132075   6.987   5.638   0.149
10392SOL    HW232076   6.824   5.648   0.162
10393SOL     OW32077   1.573   1.418   4.466
10393SOL    HW132078   1.621   1.422   4.379
10393SOL    HW232079   1.639   1.433   4.541
10394SOL     OW32080   3.376   6.650   0.784
10394SOL    HW132081   3.335   6.638   0.693
10394SOL    HW232082   3.305   6.647   0.854
10395SOL     OW32083   1.161   0.001   3.629
10395SOL    HW132084   1.078   0.006   3.684
10395SOL    HW232085   1.195   6.929   3.627
10396SOL     OW32086   0.531   0.949   4.184
10396SOL    HW132087   0.592   0.987   4.254
10396SOL    HW232088   0.436   0.958   4.214
10397SOL     OW32089   4.667   2.653   2.815
10397SOL    HW132090   4.668   2.693   2.723
10397SOL    HW232091   4.759   2.660   2.855
10398SOL     OW32092   0.563   2.608   2.487
10398SOL    HW132093   0.516   2.685   2.445
10398SOL    HW232094   0.569   2.533   2.421
10399SOL     OW32095   6.802   2.939   5.905
10399SOL    HW132096   6.876   2.945   5.838
10399SOL    HW232097   6.838   2.902   5.991
10400SOL     OW32098   1.791   5.015   2.493
10400SOL    HW132099   1.691   5.014   2.483
10400SOL    HW232100   1.831   4.938   2.444
10401SOL     OW32101   1.059   6.134   1.173
10401SOL    HW132102   1.068   6.143   1.273
10401SOL    HW232103   1.136   6.179   1.128
10402SOL     OW32104   1.291   2.490   4.865
10402SOL    HW132105   1.235   2.556   4.815
10402SOL    HW232106   1.332   2.425   4.801
10403SOL     OW32107   5.357   0.986   3.198
10403SOL    HW132108   5.315   0.979   3.108
10403SOL    HW232109   5.400   1.076   3.208
10404SOL     OW32110   6.527   0.213   4.667
10404SOL    HW132111   6.577   0.127   4.662
10404SOL    HW232112   6.442   0.207   4.615
10405SOL     OW32113   3.729   0.312   6.463
10405SOL    HW132114   3.722   0.398   6.412
10405SOL    HW232115   3.764   0.331   6.555
10406SOL     OW32116   1.188   6.121   4.897
10406SOL    HW132117   1.231   6.176   4.969
10406SOL    HW232118   1.091   6.111   4.916
10407SOL     OW32119   3.739   0.835   0.056
10407SOL    HW132120   3.757   0.901   7.006
10407SOL    HW232121   3.655   0.784   0.034
10408SOL     OW32122   2.916   0.032   2.488
10408SOL    HW132123   2.855   0.081   2.425
10408SOL    HW232124   3.005   0.018   2.444
10409SOL     OW32125   0.061   4.571   2.049
10409SOL    HW132126   0.030   4.648   1.993
10409SOL    HW232127   0.134   4.522   2.001
10410SOL     OW32128   5.593   5.098   0.620
10410SOL    HW132129   5.594   5.046   0.534
10410SOL    HW232130   5.670   5.071   0.676
10411SOL     OW32131   2.140   5.055   2.115
10411SOL    HW132132   2.094   4.984   2.061
10411SOL    HW232133   2.208   5.012   2.175
10412SOL     OW32134   1.181   4.038   6.174
10412SOL    HW132135   1.221   3.986   6.249
10412SOL    HW232136   1.096   4.082   6.205
10413SOL     OW32137   0.134   1.106   5.325
10413SOL    HW132138   0.047   1.153   5.334
10413SOL    HW232139   0.193   1.129   5.403
10414SOL     OW32140   5.386   5.353   4.873
10414SOL    HW132141   5.473   5.364   4.825
10414SOL    HW232142   5.319   5.417   4.835
10415SOL     OW32143   6.885   4.319   2.998
10415SOL    HW132144   6.893   4.412   3.031
10415SOL    HW232145   6.851   4.320   2.904
10416SOL     OW32146   5.002   0.828   0.115
10416SOL    HW132147   4.942   0.828   0.035
10416SOL    HW232148   5.097   0.817   0.085
10417SOL     OW32149   5.004   4.315   4.411
10417SOL    HW132150   5.083   4.287   4.465
10417SOL    HW232151   5.013   4.281   4.317
10418SOL     OW32152   6.086   3.137   0.248
10418SOL    HW132153   6.031   3.219   0.260
10418SOL    HW232154   6.064   3.071   0.320
10419SOL     OW32155   1.278   0.187   4.526
10419SOL    HW132156   1.198   0.206   4.583
10419SOL    HW232157   1.249   0.136   4.445
10420SOL     OW32158   6.486   3.962   4.391
10420SOL    HW132159   6.404   3.909   4.412
10420SOL    HW232160   6.539   3.976   4.475
10421SOL     OW32161   0.587   3.633   4.049
10421SOL    HW132162   0.623   3.708   4.105
10421SOL    HW232163   0.493   3.613   4.078
10422SOL     OW32164   5.680   3.100   6.140
10422SOL    HW132165   5.698   3.046   6.222
10422SOL    HW232166   5.761   3.156   6.120
10423SOL     OW32167   2.728   5.772   1.796
10423SOL    HW132168   2.646   5.790   1.851
10423SOL    HW232169   2.784   5.855   1.794
10424SOL     OW32170   5.120   1.011   3.005
10424SOL    HW132171   5.125   1.105   2.972
10424SOL    HW232172   5.104   1.011   3.104
10425SOL     OW32173   0.483   4.890   0.919
10425SOL    HW132174   0.485   4.903   1.019
10425SOL    HW232175   0.397   4.847   0.893
10426SOL     OW32176   6.408   2.816   6.803
10426SOL    HW132177   6.374   2.910   6.813
10426SOL    HW232178   6.431   2.799   6.707
10427SOL     OW32179   6.164   0.963   3.402
10427SOL    HW132180   6.228   1.033   3.434
10427SOL    HW232181   6.080   0.968   3.455
10428SOL     OW32182   1.607   0.595   5.038
10428SOL    HW132183   1.587   0.523   5.104
10428SOL    HW232184   1.547   0.673   5.054
10429SOL     OW32185   2.054   4.822   2.015
10429SOL    HW132186   2.154   4.827   2.012
10429SOL    HW232187   2.017   4.827   1.922
10430SOL     OW32188   3.650   1.773   4.671
10430SOL    HW132189   3.726   1.745   4.730
10430SOL    HW232190   3.676   1.763   4.575
10431SOL     OW32191   4.505   1.860   3.922
10431SOL    HW132192   4.559   1.906   3.852
10431SOL    HW232193   4.427   1.918   3.948
10432SOL     OW32194   1.682   4.348   1.370
10432SOL    HW132195   1.732   4.421   1.417
10432SOL    HW232196   1.612   4.312   1.431
10433SOL     OW32197   3.491   6.452   3.868
10433SOL    HW132198   3.474   6.359   3.836
10433SOL    HW232199   3.517   6.449   3.965
10434SOL     OW32200   4.598   1.917   0.746
10434SOL    HW132201   4.663   1.841   0.748
10434SOL    HW232202   4.520   1.892   0.688
10435SOL     OW32203   2.732   0.991   1.490
10435SOL    HW132204   2.634   1.008   1.476
10435SOL    HW232205   2.755   0.899   1.457
10436SOL     OW32206   1.587   3.925   5.257
10436SOL    HW132207   1.653   3.953   5.186
10436SOL    HW232208   1.637   3.900   5.340
10437SOL     OW32209   6.875   6.903   5.235
10437SOL    HW132210   6.833   6.982   5.279
10437SOL    HW232211   6.930   6.853   5.302
10438SOL     OW32212   6.776   5.897   7.007
10438SOL    HW132213   6.829   5.827   6.959
10438SOL    HW232214   6.838   5.960   0.032
10439SOL     OW32215   5.857   5.220   5.696
10439SOL    HW132216   5.831   5.125   5.709
10439SOL    HW232217   5.879   5.236   5.600
10440SOL     OW32218   5.313   2.496   2.209
10440SOL    HW132219   5.352   2.409   2.240
10440SOL    HW232220   5.379   2.569   2.223
10441SOL     OW32221   5.193   1.617   5.568
10441SOL    HW132222   5.145   1.547   5.622
10441SOL    HW232223   5.253   1.572   5.502
10442SOL     OW32224   2.952   0.318   6.135
10442SOL    HW132225   2.873   0.358   6.181
10442SOL    HW232226   2.920   0.252   6.066
10443SOL     OW32227   1.160   1.290   6.885
10443SOL    HW132228   1.213   1.374   6.894
10443SOL    HW232229   1.086   1.290   6.951
10444SOL     OW32230   4.523   5.693   3.590
10444SOL    HW132231   4.557   5.753   3.518
10444SOL    HW232232   4.585   5.615   3.600
10445SOL     OW32233   1.293   3.248   3.367
10445SOL    HW132234   1.234   3.248   3.448
10445SOL    HW232235   1.389   3.245   3.395
10446SOL     OW32236   2.958   4.808   5.257
10446SOL    HW132237   2.916   4.786   5.346
10446SOL    HW232238   2.936   4.736   5.192
10447SOL     OW32239   1.723   2.505   3.193
10447SOL    HW132240   1.639   2.552   3.166
10447SOL    HW232241   1.706   2.452   3.276
10448SOL     OW32242   0.534   4.996   1.733
10448SOL    HW132243   0.621   4.959   1.764
10448SOL    HW232244   0.517   4.968   1.638
10449SOL     OW32245   3.716   5.532   4.050
10449SOL    HW132246   3.745   5.616   4.097
10449SOL    HW232247   3.797   5.479   4.023
10450SOL     OW32248   0.731   2.829   4.539
10450SOL    HW132249   0.771   2.756   4.596
10450SOL    HW232250   0.678   2.789   4.465
10451SOL     OW32251   2.240   2.072   5.205
10451SOL    HW132252   2.233   2.131   5.125
10451SOL    HW232253   2.222   2.125   5.288
10452SOL     OW32254   0.031   2.945   4.598
10452SOL    HW132255   0.125   2.930   4.629
10452SOL    HW232256   7.015   2.859   4.562
10453SOL     OW32257   3.098   5.508   3.818
10453SOL    HW132258   3.011   5.458   3.815
10453SOL    HW232259   3.113   5.543   3.910
10454SOL     OW32260   6.722   2.624   6.778
10454SOL    HW132261   6.705   2.687   6.703
10454SOL    HW232262   6.755   2.537   6.742
10455SOL     OW32263   0.847   6.026   2.772
10455SOL    HW132264   0.880   6.117   2.747
10455SOL    HW232265   0.764   6.005   2.719
10456SOL     OW32266   1.215   6.007   5.966
10456SOL    HW132267   1.176   5.952   5.892
10456SOL    HW232268   1.165   5.990   6.051
10457SOL     OW32269   4.418   1.808   1.111
10457SOL    HW132270   4.318   1.808   1.119
10457SOL    HW232271   4.450   1.715   1.097
10458SOL     OW32272   2.173   6.847   6.660
10458SOL    HW132273   2.099   6.865   6.724
10458SOL    HW232274   2.137   6.799   6.580
10459SOL     OW32275   5.476   5.940   1.379
10459SOL    HW132276   5.436   5.849   1.382
10459SOL    HW232277   5.444   5.988   1.298
10460SOL     OW32278   5.889   1.464   6.805
10460SOL    HW132279   5.822   1.466   6.731
10460SOL    HW232280   5.913   1.369   6.826
10461SOL     OW32281   6.849   4.104   5.419
10461SOL    HW132282   6.790   4.178   5.387
10461SOL    HW232283   6.794   4.035   5.465
10462SOL     OW32284   4.629   3.904   0.184
10462SOL    HW132285   4.683   3.988   0.184
10462SOL    HW232286   4.534   3.925   0.162
10463SOL     OW32287   4.347   2.634   5.304
10463SOL    HW132288   4.268   2.596   5.257
10463SOL    HW232289   4.317   2.702   5.370
10464SOL     OW32290   6.044   4.864   1.755
10464SOL    HW132291   6.099   4.782   1.772
10464SOL    HW232292   6.105   4.942   1.739
10465SOL     OW32293   5.087   4.118   0.485
10465SOL    HW132294   5.093   4.197   0.425
10465SOL    HW232295   5.139   4.042   0.446
10466SOL     OW32296   6.387   3.863   5.636
10466SOL    HW132297   6.304   3.919   5.640
10466SOL    HW232298   6.451   3.903   5.571
10467SOL     OW32299   0.264   3.979   6.561
10467SOL    HW132300   0.296   3.885   6.548
10467SOL    HW232301   0.166   3.978   6.582
10468SOL     OW32302   1.726   4.783   3.604
10468SOL    HW132303   1.791   4.709   3.620
10468SOL    HW232304   1.671   4.797   3.687
10469SOL     OW32305   1.481   0.938   4.561
10469SOL    HW132306   1.567   0.990   4.565
10469SOL    HW232307   1.499   0.846   4.527
10470SOL     OW32308   2.564   4.243   1.675
10470SOL    HW132309   2.646   4.290   1.708
10470SOL    HW232310   2.494   4.245   1.746
10471SOL     OW32311   1.478   4.692   6.130
10471SOL    HW132312   1.547   4.692   6.058
10471SOL    HW232313   1.387   4.707   6.090
10472SOL     OW32314   4.364   5.354   5.910
10472SOL    HW132315   4.290   5.316   5.856
10472SOL    HW232316   4.341   5.349   6.007
10473SOL     OW32317   6.041   5.802   0.370
10473SOL    HW132318   5.973   5.860   0.415
10473SOL    HW232319   6.102   5.763   0.439
10474SOL     OW32320   5.935   5.435   5.127
10474SOL    HW132321   5.837   5.426   5.105
10474SOL    HW232322   5.956   5.532   5.142
10475SOL     OW32323   6.701   6.147   2.076
10475SOL    HW132324   6.699   6.120   2.172
10475SOL    HW232325   6.665   6.072   2.020
10476SOL     OW32326   5.414   6.076   1.159
10476SOL    HW132327   5.477   6.133   1.106
10476SOL    HW232328   5.368   6.011   1.099
10477SOL     OW32329   7.013   5.827   3.416
10477SOL    HW132330   0.075   5.846   3.467
10477SOL    HW232331   7.010   5.731   3.391
10478SOL     OW32332   6.951   1.525   0.397
10478SOL    HW132333   6.927   1.505   0.302
10478SOL    HW232334   6.935   1.444   0.453
10479SOL     OW32335   0.149   4.629   2.895
10479SOL    HW132336   0.202   4.546   2.911
10479SOL    HW232337   0.211   4.704   2.870
10480SOL     OW32338   2.917   1.719   3.681
10480SOL    HW132339   2.969   1.642   3.717
10480SOL    HW232340   2.820   1.705   3.699
10481SOL     OW32341   6.218   0.415   2.037
10481SOL    HW132342   6.127   0.439   2.004
10481SOL    HW232343   6.283   0.419   1.960
10482SOL     OW32344   4.581   4.488   4.547
10482SOL    HW132345   4.527   4.525   4.623
10482SOL    HW232346   4.627   4.404   4.577
10483SOL     OW32347   5.718   1.541   6.579
10483SOL    HW132348   5.624   1.514   6.556
10483SOL    HW232349   5.782   1.492   6.520
10484SOL     OW32350   5.585   0.464   1.358
10484SOL    HW132351   5.533   0.523   1.296
10484SOL    HW232352   5.678   0.453   1.324
10485SOL     OW32353   5.870   3.413   5.100
10485SOL    HW132354   5.815   3.334   5.129
10485SOL    HW232355   5.896   3.467   5.180
10486SOL     OW32356   6.529   3.029   3.167
10486SOL    HW132357   6.583   3.109   3.139
10486SOL    HW232358   6.556   3.002   3.259
10487SOL     OW32359   3.721   7.010   2.359
10487SOL    HW132360   3.642   0.044   2.384
10487SOL    HW232361   3.796   0.047   2.331
10488SOL     OW32362   4.143   3.759   6.886
10488SOL    HW132363   4.052   3.756   6.926
10488SOL    HW232364   4.212   3.764   6.959
10489SOL     OW32365   1.367   5.063   5.434
10489SOL    HW132366   1.311   5.117   5.371
10489SOL    HW232367   1.342   4.966   5.426
10490SOL     OW32368   6.149   6.703   4.259
10490SOL    HW132369   6.198   6.749   4.185
10490SOL    HW232370   6.095   6.627   4.221
10491SOL     OW32371   6.899   5.695   4.586
10491SOL    HW132372   6.816   5.726   4.634
10491SOL    HW232373   6.872   5.648   4.502
10492SOL     OW32374   4.962   3.701   5.870
10492SOL    HW132375   5.028   3.743   5.807
10492SOL    HW232376   4.878   3.755   5.871
10493SOL     OW32377   3.661   1.300   0.073
10493SOL    HW132378   3.615   1.233   0.131
10493SOL    HW232379   3.682   1.382   0.126
10494SOL     OW32380   5.538   1.263   5.175
10494SOL    HW132381   5.457   1.258   5.116
10494SOL    HW232382   5.617   1.292   5.121
10495SOL     OW32383   0.730   0.771   6.872
10495SOL    HW132384   0.777   0.691   6.835
10495SOL    HW232385   0.651   0.792   6.814
10496SOL     OW32386   0.610   0.269   5.210
10496SOL    HW132387   0.561   0.232   5.289
10496SOL    HW232388   0.579   0.221   5.127
10497SOL     OW32389   2.356   0.964   6.452
10497SOL    HW132390   2.441   1.013   6.434
10497SOL    HW232391   2.333   0.908   6.373
10498SOL     OW32392   2.613   5.327   5.714
10498SOL    HW132393   2.577   5.243   5.673
10498SOL    HW232394   2.538   5.379   5.755
10499SOL     OW32395   3.442   6.499   2.299
10499SOL    HW132396   3.531   6.479   2.339
10499SOL    HW232397   3.449   6.578   2.238
10500SOL     OW32398   1.867   0.837   6.536
10500SOL    HW132399   1.931   0.909   6.509
10500SOL    HW232400   1.871   0.823   6.635
10501SOL     OW32401   1.496   3.624   3.444
10501SOL    HW132402   1.441   3.554   3.489
10501SOL    HW232403   1.472   3.629   3.348
10502SOL     OW32404   3.512   6.624   4.710
10502SOL    HW132405   3.478   6.674   4.790
10502SOL    HW232406   3.610   6.637   4.701
10503SOL     OW32407   2.383   3.676   6.657
10503SOL    HW132408   2.321   3.705   6.731
10503SOL    HW232409   2.336   3.610   6.599
10504SOL     OW32410   1.858   2.545   0.635
10504SOL    HW132411   1.891   2.575   0.545
10504SOL    HW232412   1.848   2.625   0.695
10505SOL     OW32413   0.721   4.962   0.446
10505SOL    HW132414   0.648   4.918   0.499
10505SOL    HW232415   0.770   4.894   0.393
10506SOL     OW32416   6.768   5.903   6.252
10506SOL    HW132417   6.791   5.996   6.224
10506SOL    HW232418   6.735   5.903   6.346
10507SOL     OW32419   3.084   0.347   4.140
10507SOL    HW132420   3.017   0.384   4.075
10507SOL    HW232421   3.162   0.311   4.089
10508SOL     OW32422   5.537   5.654   3.221
10508SOL    HW132423   5.518   5.751   3.236
10508SOL    HW232424   5.479   5.599   3.281
10509SOL     OW32425   2.090   1.652   5.074
10509SOL    HW132426   2.015   1.718   5.067
10509SOL    HW232427   2.143   1.653   4.990
10510SOL     OW32428   5.341   0.555   6.203
10510SOL    HW132429   5.378   0.637   6.246
10510SOL    HW232430   5.382   0.474   6.244
10511SOL     OW32431   6.728   2.535   2.221
10511SOL    HW132432   6.825   2.545   2.244
10511SOL    HW232433   6.717   2.536   2.122
10512SOL     OW32434   2.345   0.068   6.971
10512SOL    HW132435   2.413   0.029   0.011
10512SOL    HW232436   2.357   0.030   6.879
10513SOL     OW32437   6.634   2.688   1.401
10513SOL    HW132438   6.600   2.614   1.458
10513SOL    HW232439   6.675   2.651   1.318
10514SOL     OW32440   1.928   2.549   1.383
10514SOL    HW132441   1.917   2.637   1.430
10514SOL    HW232442   1.972   2.484   1.446
10515SOL     OW32443   0.279   4.138   4.610
10515SOL    HW132444   0.307   4.184   4.526
10515SOL    HW232445   0.184   4.108   4.601
10516SOL     OW32446   2.391   6.424   0.130
10516SOL    HW132447   2.313   6.396   0.075
10516SOL    HW232448   2.376   6.516   0.165
10517SOL     OW32449   0.504   2.133   3.632
10517SOL    HW132450   0.417   2.111   3.675
10517SOL    HW232451   0.492   2.209   3.568
10518SOL     OW32452   1.186   6.190   3.682
10518SOL    HW132453   1.136   6.275   3.699
10518SOL    HW232454   1.122   6.118   3.654
10519SOL     OW32455   3.241   3.656   5.345
10519SOL    HW132456   3.298   3.691   5.271
10519SOL    HW232457   3.294   3.657   5.430
10520SOL     OW32458   2.427   4.820   6.844
10520SOL    HW132459   2.465   4.909   6.868
10520SOL    HW232460   2.496   4.749   6.856
10521SOL     OW32461   6.895   6.064   1.668
10521SOL    HW132462   6.916   6.122   1.589
10521SOL    HW232463   6.939   5.975   1.656
10522SOL     OW32464   5.436   6.627   2.586
10522SOL    HW132465   5.531   6.608   2.562
10522SOL    HW232466   5.433   6.708   2.645
10523SOL     OW32467   5.858   6.169   6.240
10523SOL    HW132468   5.872   6.090   6.181
10523SOL    HW232469   5.926   6.168   6.313
10524SOL     OW32470   5.135   1.045   4.741
10524SOL    HW132471   5.098   1.112   4.806
10524SOL    HW232472   5.134   0.955   4.784
10525SOL     OW32473   2.091   0.284   5.075
10525SOL    HW132474   2.053   0.192   5.077
10525SOL    HW232475   2.170   0.289   5.137
10526SOL     OW32476   4.391   5.116   2.581
10526SOL    HW132477   4.395   5.188   2.650
10526SOL    HW232478   4.313   5.132   2.521
10527SOL     OW32479   2.015   2.736   4.026
10527SOL    HW132480   2.015   2.813   3.962
10527SOL    HW232481   2.010   2.771   4.120
10528SOL     OW32482   5.503   4.263   6.574
10528SOL    HW132483   5.469   4.192   6.512
10528SOL    HW232484   5.469   4.245   6.666
10529SOL     OW32485   0.024   5.771   5.416
10529SOL    HW132486   0.088   5.847   5.407
10529SOL    HW232487   6.952   5.805   5.411
10530SOL     OW32488   1.088   1.320   4.418
10530SOL    HW132489   1.183   1.326   4.449
10530SOL    HW232490   1.079   1.248   4.349
10531SOL     OW32491   3.162   2.111   4.509
10531SOL    HW132492   3.256   2.145   4.516
10531SOL    HW232493   3.124   2.101   4.601
10532SOL     OW32494   3.330   4.004   4.189
10532SOL    HW132495   3.333   3.920   4.243
10532SOL    HW232496   3.288   4.077   4.242
10533SOL     OW32497   3.354   1.431   6.617
10533SOL    HW132498   3.375   1.483   6.534
10533SOL    HW232499   3.305   1.348   6.593
10534SOL     OW32500   5.672   4.432   2.025
10534SOL    HW132501   5.582   4.475   2.034
10534SOL    HW232502   5.742   4.496   2.056
10535SOL     OW32503   6.248   1.747   1.535
10535SOL    HW132504   6.278   1.800   1.455
10535SOL    HW232505   6.272   1.651   1.521
10536SOL     OW32506   5.917   5.922   2.520
10536SOL    HW132507   5.836   5.961   2.477
10536SOL    HW232508   5.984   5.898   2.450
10537SOL     OW32509   6.185   4.936   1.139
10537SOL    HW132510   6.165   4.928   1.236
10537SOL    HW232511   6.270   4.987   1.126
10538SOL     OW32512   4.894   3.575   6.665
10538SOL    HW132513   4.987   3.539   6.656
10538SOL    HW232514   4.837   3.538   6.592
10539SOL     OW32515   1.886   2.970   4.876
10539SOL    HW132516   1.848   2.901   4.938
10539SOL    HW232517   1.941   2.925   4.806
10540SOL     OW32518   3.474   0.948   0.739
10540SOL    HW132519   3.448   0.877   0.804
10540SOL    HW232520   3.574   0.952   0.732
10541SOL     OW32521   3.303   2.579   1.520
10541SOL    HW132522   3.246   2.499   1.541
10541SOL    HW232523   3.377   2.585   1.586
10542SOL     OW32524   1.648   2.798   0.343
10542SOL    HW132525   1.740   2.762   0.359
10542SOL    HW232526   1.622   2.783   0.247
10543SOL     OW32527   2.823   0.689   4.091
10543SOL    HW132528   2.830   0.610   4.030
10543SOL    HW232529   2.727   0.704   4.115
10544SOL     OW32530   0.076   1.499   1.421
10544SOL    HW132531   7.006   1.483   1.385
10544SOL    HW232532   0.091   1.597   1.432
10545SOL     OW32533   3.194   0.565   3.203
10545SOL    HW132534   3.287   0.568   3.239
10545SOL    HW232535   3.172   0.652   3.159
10546SOL     OW32536   4.474   1.022   4.863
10546SOL    HW132537   4.560   1.027   4.915
10546SOL    HW232538   4.493   1.029   4.765
10547SOL     OW32539   4.597   5.773   2.132
10547SOL    HW132540   4.668   5.818   2.078
10547SOL    HW232541   4.626   5.770   2.228
10548SOL     OW32542   4.424   4.030   5.881
10548SOL    HW132543   4.437   3.931   5.869
10548SOL    HW232544   4.327   4.050   5.895
10549SOL     OW32545   6.896   1.579   2.361
10549SOL    HW132546   6.866   1.671   2.333
10549SOL    HW232547   6.971   1.588   2.426
10550SOL     OW32548   4.463   0.034   5.248
10550SOL    HW132549   4.442   0.034   5.346
10550SOL    HW232550   4.402   0.097   5.200
10551SOL     OW32551   2.254   2.874   5.738
10551SOL    HW132552   2.189   2.812   5.693
10551SOL    HW232553   2.307   2.823   5.806
10552SOL     OW32554   3.729   1.009   5.365
10552SOL    HW132555   3.657   1.071   5.335
10552SOL    HW232556   3.689   0.923   5.396
10553SOL     OW32557   2.746   4.522   6.900
10553SOL    HW132558   2.674   4.505   6.833
10553SOL    HW232559   2.831   4.544   6.853
10554SOL     OW32560   6.426   4.015   5.994
10554SOL    HW132561   6.447   3.919   5.976
10554SOL    HW232562   6.482   4.047   6.070
10555SOL     OW32563   3.234   2.845   0.392
10555SOL    HW132564   3.148   2.812   0.431
10555SOL    HW232565   3.308   2.829   0.457
10556SOL     OW32566   3.085   4.825   4.083
10556SOL    HW132567   3.152   4.841   4.010
10556SOL    HW232568   3.119   4.865   4.169
10557SOL     OW32569   5.356   1.404   3.064
10557SOL    HW132570   5.335   1.493   3.104
10557SOL    HW232571   5.364   1.413   2.965
10558SOL     OW32572   5.918   5.685   6.347
10558SOL    HW132573   5.912   5.593   6.385
10558SOL    HW232574   6.015   5.710   6.337
10559SOL     OW32575   4.116   3.145   1.505
10559SOL    HW132576   4.041   3.096   1.550
10559SOL    HW232577   4.144   3.094   1.423
10560SOL     OW32578   6.943   2.041   4.284
10560SOL    HW132579   6.853   2.044   4.239
10560SOL    HW232580   6.953   2.122   4.343
10561SOL     OW32581   1.631   4.303   6.066
10561SOL    HW132582   1.597   4.209   6.068
10561SOL    HW232583   1.635   4.339   6.159
10562SOL     OW32584   4.389   2.019   0.910
10562SOL    HW132585   4.374   1.952   0.983
10562SOL    HW232586   4.482   2.008   0.875
10563SOL     OW32587   2.130   1.972   2.492
10563SOL    HW132588   2.195   1.972   2.569
10563SOL    HW232589   2.102   1.878   2.473
10564SOL     OW32590   0.456   1.461   2.618
10564SOL    HW132591   0.545   1.451   2.662
10564SOL    HW232592   0.428   1.557   2.620
10565SOL     OW32593   5.402   2.333   5.161
10565SOL    HW132594   5.302   2.337   5.158
10565SOL    HW232595   5.434   2.250   5.116
10566SOL     OW32596   4.697   5.702   0.113
10566SOL    HW132597   4.694   5.796   0.078
10566SOL    HW232598   4.606   5.660   0.105
10567SOL     OW32599   1.836   5.937   5.161
10567SOL    HW132600   1.874   5.904   5.247
10567SOL    HW232601   1.745   5.974   5.176
10568SOL     OW32602   4.242   0.265   3.903
10568SOL    HW132603   4.152   0.297   3.932
10568SOL    HW232604   4.246   0.166   3.910
10569SOL     OW32605   6.455   1.694   3.720
10569SOL    HW132606   6.515   1.637   3.776
10569SOL    HW232607   6.394   1.636   3.667
10570SOL     OW32608   0.850   2.612   1.887
10570SOL    HW132609   0.936   2.637   1.843
10570SOL    HW232610   0.864   2.606   1.986
10571SOL     OW32611   6.936   6.847   4.938
10571SOL    HW132612   6.939   6.943   4.967
10571SOL    HW232613   6.973   6.789   5.010
10572SOL     OW32614   6.336   3.687   3.019
10572SOL    HW132615   6.422   3.729   3.047
10572SOL    HW232616   6.260   3.738   3.060
10573SOL     OW32617   6.505   4.975   5.805
10573SOL    HW132618   6.430   5.015   5.752
10573SOL    HW232619   6.588   4.974   5.749
10574SOL     OW32620   0.368   2.786   2.722
10574SOL    HW132621   0.397   2.697   2.757
10574SOL    HW232622   0.345   2.778   2.625
10575SOL     OW32623   0.274   0.340   6.056
10575SOL    HW132624   0.179   0.361   6.035
10575SOL    HW232625   0.297   0.250   6.018
10576SOL     OW32626   0.515   5.711   3.621
10576SOL    HW132627   0.614   5.710   3.633
10576SOL    HW232628   0.492   5.697   3.525
10577SOL     OW32629   0.248   3.098   5.468
10577SOL    HW132630   0.173   3.034   5.459
10577SOL    HW232631   0.304   3.097   5.385
10578SOL     OW32632   5.994   0.774   5.751
10578SOL    HW132633   5.968   0.715   5.827
10578SOL    HW232634   5.980   0.870   5.777
10579SOL     OW32635   5.581   6.207   0.969
10579SOL    HW132636   5.650   6.264   1.015
10579SOL    HW232637   5.538   6.260   0.896
10580SOL     OW32638   1.203   5.108   1.164
10580SOL    HW132639   1.236   5.052   1.240
10580SOL    HW232640   1.105   5.123   1.174
10581SOL     OW32641   4.103   2.237   2.977
10581SOL    HW132642   4.173   2.302   2.946
10581SOL    HW232643   4.147   2.163   3.028
10582SOL     OW32644   3.563   3.905   6.997
10582SOL    HW132645   3.484   3.919   0.035
10582SOL    HW232646   3.581   3.988   6.944
10583SOL     OW32647   4.846   1.013   1.446
10583SOL    HW132648   4.772   1.016   1.379
10583SOL    HW232649   4.927   0.973   1.403
10584SOL     OW32650   5.763   6.552   1.556
10584SOL    HW132651   5.757   6.648   1.582
10584SOL    HW232652   5.810   6.501   1.628
10585SOL     OW32653   3.155   4.187   6.791
10585SOL    HW132654   3.233   4.219   6.737
10585SOL    HW232655   3.090   4.141   6.730
10586SOL     OW32656   5.099   2.149   2.052
10586SOL    HW132657   5.092   2.203   1.968
10586SOL    HW232658   5.008   2.142   2.094
10587SOL     OW32659   0.305   3.677   0.723
10587SOL    HW132660   0.244   3.756   0.716
10587SOL    HW232661   0.352   3.679   0.812
10588SOL     OW32662   1.729   5.406   3.849
10588SOL    HW132663   1.786   5.341   3.800
10588SOL    HW232664   1.647   5.426   3.794
10589SOL     OW32665   5.591   0.580   4.729
10589SOL    HW132666   5.667   0.597   4.792
10589SOL    HW232667   5.564   0.665   4.686
10590SOL     OW32668   0.911   0.219   4.227
10590SOL    HW132669   0.875   0.209   4.134
10590SOL    HW232670   0.843   0.189   4.293
10591SOL     OW32671   1.468   2.348   1.338
10591SOL    HW132672   1.550   2.368   1.391
10591SOL    HW232673   1.482   2.265   1.284
10592SOL     OW32674   4.787   1.533   6.249
10592SOL    HW132675   4.843   1.456   6.217
10592SOL    HW232676   4.809   1.615   6.195
10593SOL     OW32677   1.445   4.059   2.824
10593SOL    HW132678   1.474   4.101   2.910
10593SOL    HW232679   1.511   4.082   2.752
10594SOL     OW32680   1.856   1.422   3.864
10594SOL    HW132681   1.775   1.390   3.913
10594SOL    HW232682   1.914   1.344   3.840
10595SOL     OW32683   1.548   5.991   5.090
10595SOL    HW132684   1.579   5.988   4.995
10595SOL    HW232685   1.465   5.936   5.100
10596SOL     OW32686   2.643   1.595   0.951
10596SOL    HW132687   2.601   1.615   1.039
10596SOL    HW232688   2.738   1.627   0.952
10597SOL     OW32689   1.962   0.385   3.543
10597SOL    HW132690   1.927   0.477   3.527
10597SOL    HW232691   1.961   0.366   3.642
10598SOL     OW32692   2.787   1.177   0.751
10598SOL    HW132693   2.826   1.172   0.843
10598SOL    HW232694   2.773   1.084   0.716
10599SOL     OW32695   5.024   6.849   6.342
10599SOL    HW132696   4.955   6.830   6.412
10599SOL    HW232697   4.985   6.907   6.271
10600SOL     OW32698   1.924   3.296   5.240
10600SOL    HW132699   1.850   3.290   5.173
10600SOL    HW232700   1.992   3.225   5.222
10601SOL     OW32701   4.450   6.171   5.551
10601SOL    HW132702   4.385   6.096   5.565
10601SOL    HW232703   4.445   6.203   5.457
10602SOL     OW32704   4.709   2.757   2.569
10602SOL    HW132705   4.660   2.687   2.517
10602SOL    HW232706   4.806   2.755   2.545
10603SOL     OW32707   0.748   5.684   5.012
10603SOL    HW132708   0.708   5.648   5.096
10603SOL    HW232709   0.703   5.644   4.933
10604SOL     OW32710   0.801   4.367   6.499
10604SOL    HW132711   0.855   4.340   6.419
10604SOL    HW232712   0.739   4.441   6.474
10605SOL     OW32713   1.519   5.029   0.361
10605SOL    HW132714   1.455   5.076   0.301
10605SOL    HW232715   1.469   4.984   0.435
10606SOL     OW32716   1.240   0.711   1.811
10606SOL    HW132717   1.240   0.612   1.824
10606SOL    HW232718   1.250   0.756   1.900
10607SOL     OW32719   5.290   4.173   0.176
10607SOL    HW132720   5.274   4.082   0.214
10607SOL    HW232721   5.388   4.194   0.180
10608SOL     OW32722   5.160   6.446   2.352
10608SOL    HW132723   5.117   6.429   2.440
10608SOL    HW232724   5.166   6.545   2.337
10609SOL     OW32725   4.192   6.821   2.924
10609SOL    HW132726   4.196   6.780   2.833
10609SOL    HW232727   4.270   6.790   2.978
10610SOL     OW32728   2.338   4.428   4.803
10610SOL    HW132729   2.369   4.493   4.872
10610SOL    HW232730   2.271   4.365   4.844
10611SOL     OW32731   4.787   2.001   5.659
10611SOL    HW132732   4.797   2.015   5.758
10611SOL    HW232733   4.859   1.938   5.628
10612SOL     OW32734   1.623   0.543   1.773
10612SOL    HW132735   1.548   0.531   1.707
10612SOL    HW232736   1.650   0.454   1.808
10613SOL     OW32737   1.737   6.465   0.052
10613SOL    HW132738   1.756   6.468   0.150
10613SOL    HW232739   1.639   6.479   0.037
10614SOL     OW32740   0.829   0.779   3.210
10614SOL    HW132741   0.818   0.690   3.167
10614SOL    HW232742   0.757   0.793   3.278
10615SOL     OW32743   0.814   6.237   5.658
10615SOL    HW132744   0.761   6.154   5.642
10615SOL    HW232745   0.885   6.245   5.588
10616SOL     OW32746   3.420   5.549   1.703
10616SOL    HW132747   3.343   5.600   1.742
10616SOL    HW232748   3.389   5.457   1.678
10617SOL     OW32749   6.303   2.027   6.456
10617SOL    HW132750   6.379   1.962   6.466
10617SOL    HW232751   6.294   2.080   6.541
10618SOL     OW32752   6.861   3.938   1.353
10618SOL    HW132753   6.837   3.869   1.284
10618SOL    HW232754   6.782   3.955   1.412
10619SOL     OW32755   0.610   3.372   3.880
10619SOL    HW132756   0.562   3.446   3.927
10619SOL    HW232757   0.553   3.290   3.880
10620SOL     OW32758   1.609   5.039   3.858
10620SOL    HW132759   1.686   5.093   3.823
10620SOL    HW232760   1.525   5.094   3.852
10621SOL     OW32761   3.442   1.011   0.479
10621SOL    HW132762   3.351   1.051   0.465
10621SOL    HW232763   3.457   0.997   0.577
10622SOL     OW32764   4.499   2.598   0.724
10622SOL    HW132765   4.499   2.607   0.824
10622SOL    HW232766   4.575   2.651   0.686
10623SOL     OW32767   6.655   1.105   4.378
10623SOL    HW132768   6.566   1.061   4.386
10623SOL    HW232769   6.695   1.116   4.469
10624SOL     OW32770   2.900   1.575   3.184
10624SOL    HW132771   2.816   1.556   3.134
10624SOL    HW232772   2.915   1.504   3.253
10625SOL     OW32773   0.761   2.291   1.819
10625SOL    HW132774   0.826   2.313   1.746
10625SOL    HW232775   0.674   2.263   1.779
10626SOL     OW32776   0.010   1.728   2.775
10626SOL    HW132777   6.981   1.801   2.822
10626SOL    HW232778   0.101   1.761   2.750
10627SOL     OW32779   2.923   5.315   4.416
10627SOL    HW132780   2.923   5.232   4.359
10627SOL    HW232781   2.847   5.311   4.481
10628SOL     OW32782   0.310   0.198   4.937
10628SOL    HW132783   0.320   0.294   4.962
10628SOL    HW232784   0.389   0.147   4.971
10629SOL     OW32785   3.605   3.911   6.586
10629SOL    HW132786   3.532   3.959   6.537
10629SOL    HW232787   3.599   3.813   6.567
10630SOL     OW32788   5.370   1.157   1.487
10630SOL    HW132789   5.430   1.082   1.515
10630SOL    HW232790   5.409   1.204   1.408
10631SOL     OW32791   1.748   6.736   4.085
10631SOL    HW132792   1.789   6.794   4.014
10631SOL    HW232793   1.707   6.794   4.156
10632SOL     OW32794   6.633   3.140   0.493
10632SOL    HW132795   6.660   3.174   0.403
10632SOL    HW232796   6.574   3.061   0.482
10633SOL     OW32797   1.775   5.097   6.321
10633SOL    HW132798   1.724   5.179   6.295
10633SOL    HW232799   1.720   5.016   6.303
10634SOL     OW32800   3.509   6.040   2.797
10634SOL    HW132801   3.528   6.045   2.699
10634SOL    HW232802   3.538   6.125   2.841
10635SOL     OW32803   0.707   0.610   1.400
10635SOL    HW132804   0.804   0.591   1.416
10635SOL    HW232805   0.663   0.632   1.487
10636SOL     OW32806   5.301   1.726   6.864
10636SOL    HW132807   5.316   1.765   6.773
10636SOL    HW232808   5.388   1.697   6.903
10637SOL     OW32809   3.692   3.668   7.007
10637SOL    HW132810   3.787   3.695   6.989
10637SOL    HW232811   3.632   3.747   6.994
10638SOL     OW32812   6.622   1.580   5.722
10638SOL    HW132813   6.561   1.513   5.680
10638SOL    HW232814   6.677   1.536   5.792
10639SOL     OW32815   3.458   1.780   4.153
10639SOL    HW132816   3.454   1.870   4.109
10639SOL    HW232817   3.401   1.780   4.235
10640SOL     OW32818   4.814   6.526   0.550
10640SOL    HW132819   4.832   6.527   0.649
10640SOL    HW232820   4.716   6.518   0.535
10641SOL     OW32821   3.882   6.722   6.852
10641SOL    HW132822   3.918   6.670   6.774
10641SOL    HW232823   3.957   6.770   6.897
10642SOL     OW32824   0.365   6.246   2.105
10642SOL    HW132825   0.271   6.262   2.137
10642SOL    HW232826   0.422   6.223   2.184
10643SOL     OW32827   3.618   3.910   6.154
10643SOL    HW132828   3.706   3.922   6.109
10643SOL    HW232829   3.631   3.905   6.253
10644SOL     OW32830   4.130   1.593   5.434
10644SOL    HW132831   4.038   1.555   5.446
10644SOL    HW232832   4.124   1.693   5.429
10645SOL     OW32833   1.798   1.297   3.155
10645SOL    HW132834   1.787   1.378   3.099
10645SOL    HW232835   1.854   1.230   3.107
10646SOL     OW32836   0.064   4.370   0.058
10646SOL    HW132837   0.049   4.411   6.989
10646SOL    HW232838   0.158   4.390   0.088
10647SOL     OW32839   6.230   6.347   1.459
10647SOL    HW132840   6.250   6.443   1.438
10647SOL    HW232841   6.253   6.328   1.554
10648SOL     OW32842   4.716   3.860   5.783
10648SOL    HW132843   4.620   3.834   5.790
10648SOL    HW232844   4.739   3.875   5.687
10649SOL     OW32845   6.520   4.753   5.967
10649SOL    HW132846   6.439   4.750   6.026
10649SOL    HW232847   6.518   4.836   5.912
10650SOL     OW32848   2.049   0.973   5.556
10650SOL    HW132849   2.000   0.945   5.639
10650SOL    HW232850   2.036   1.071   5.541
10651SOL     OW32851   1.346   0.867   5.510
10651SOL    HW132852   1.410   0.921   5.456
10651SOL    HW232853   1.296   0.928   5.573
10652SOL     OW32854   4.601   0.531   0.692
10652SOL    HW132855   4.520   0.477   0.715
10652SOL    HW232856   4.639   0.498   0.606
10653SOL     OW32857   5.782   4.276   3.285
10653SOL    HW132858   5.881   4.272   3.298
10653SOL    HW232859   5.755   4.368   3.255
10654SOL     OW32860   5.115   0.098   1.296
10654SOL    HW132861   5.176   0.021   1.311
10654SOL    HW232862   5.020   0.068   1.303
10655SOL     OW32863   3.364   5.945   0.487
10655SOL    HW132864   3.406   5.866   0.443
10655SOL    HW232865   3.309   5.914   0.565
10656SOL     OW32866   0.462   3.426   5.993
10656SOL    HW132867   0.531   3.391   5.930
10656SOL    HW232868   0.395   3.355   6.012
10657SOL     OW32869   6.074   0.572   6.630
10657SOL    HW132870   6.168   0.566   6.595
10657SOL    HW232871   6.028   0.484   6.618
10658SOL     OW32872   0.223   5.903   3.574
10658SOL    HW132873   0.296   5.882   3.639
10658SOL    HW232874   0.173   5.983   3.605
10659SOL     OW32875   5.984   1.125   2.487
10659SOL    HW132876   6.030   1.213   2.474
10659SOL    HW232877   5.934   1.101   2.404
10660SOL     OW32878   4.748   4.881   5.040
10660SOL    HW132879   4.754   4.949   5.113
10660SOL    HW232880   4.690   4.806   5.069
10661SOL     OW32881   6.723   1.076   1.899
10661SOL    HW132882   6.756   0.984   1.875
10661SOL    HW232883   6.780   1.114   1.971
10662SOL     OW32884   0.574   2.029   0.716
10662SOL    HW132885   0.538   2.080   0.638
10662SOL    HW232886   0.525   1.942   0.724
10663SOL     OW32887   0.984   2.507   3.000
10663SOL    HW132888   1.058   2.550   2.948
10663SOL    HW232889   0.941   2.436   2.945
10664SOL     OW32890   2.138   5.368   6.334
10664SOL    HW132891   2.237   5.372   6.316
10664SOL    HW232892   2.099   5.289   6.287
10665SOL     OW32893   5.961   2.037   6.841
10665SOL    HW132894   5.957   2.124   6.793
10665SOL    HW232895   5.919   1.965   6.786
10666SOL     OW32896   0.238   6.134   1.040
10666SOL    HW132897   0.215   6.055   1.097
10666SOL    HW232898   0.256   6.103   0.946
10667SOL     OW32899   3.477   2.270   5.913
10667SOL    HW132900   3.484   2.361   5.953
10667SOL    HW232901   3.566   2.226   5.916
10668SOL     OW32902   1.619   6.847   6.579
10668SOL    HW132903   1.695   6.846   6.514
10668SOL    HW232904   1.600   6.941   6.608
10669SOL     OW32905   1.657   5.746   6.405
10669SOL    HW132906   1.632   5.740   6.501
10669SOL    HW232907   1.687   5.656   6.373
10670SOL     OW32908   5.799   3.982   5.081
10670SOL    HW132909   5.876   3.929   5.045
10670SOL    HW232910   5.719   3.967   5.022
10671SOL     OW32911   2.097   3.037   3.630
10671SOL    HW132912   2.118   3.031   3.532
10671SOL    HW232913   2.055   3.125   3.650
10672SOL     OW32914   6.553   2.900   0.676
10672SOL    HW132915   6.507   2.918   0.763
10672SOL    HW232916   6.652   2.909   0.688
10673SOL     OW32917   3.337   4.088   3.239
10673SOL    HW132918   3.242   4.088   3.269
10673SOL    HW232919   3.342   4.122   3.145
10674SOL     OW32920   3.439   1.853   2.666
10674SOL    HW132921   3.349   1.825   2.634
10674SOL    HW232922   3.475   1.783   2.728
10675SOL     OW32923   1.577   1.917   5.211
10675SOL    HW132924   1.554   2.010   5.182
10675SOL    HW232925   1.669   1.894   5.180
10676SOL     OW32926   6.466   0.609   0.003
10676SOL    HW132927   6.482   0.704   6.995
10676SOL    HW232928   6.552   0.559   0.003
10677SOL     OW32929   5.334   0.173   6.460
10677SOL    HW132930   5.311   0.141   6.368
10677SOL    HW232931   5.335   0.096   6.523
10678SOL     OW32932   2.083   5.965   3.822
10678SOL    HW132933   2.037   5.879   3.804
10678SOL    HW232934   2.037   6.013   3.896
10679SOL     OW32935   6.044   5.304   4.386
10679SOL    HW132936   6.091   5.289   4.472
10679SOL    HW232937   6.108   5.292   4.310
10680SOL     OW32938   0.700   2.469   3.402
10680SOL    HW132939   0.625   2.403   3.405
10680SOL    HW232940   0.778   2.434   3.455
10681SOL     OW32941   0.940   3.175   6.987
10681SOL    HW132942   0.910   3.166   0.060
10681SOL    HW232943   0.869   3.222   6.934
10682SOL     OW32944   6.594   2.334   3.612
10682SOL    HW132945   6.553   2.392   3.541
10682SOL    HW232946   6.577   2.238   3.591
10683SOL     OW32947   1.164   0.080   4.211
10683SOL    HW132948   1.230   0.152   4.192
10683SOL    HW232949   1.071   0.118   4.206
10684SOL     OW32950   5.207   6.085   0.862
10684SOL    HW132951   5.179   6.090   0.766
10684SOL    HW232952   5.186   6.170   0.909
10685SOL     OW32953   6.456   1.939   4.205
10685SOL    HW132954   6.422   2.034   4.201
10685SOL    HW232955   6.431   1.892   4.120
10686SOL     OW32956   5.458   4.012   1.292
10686SOL    HW132957   5.490   3.961   1.373
10686SOL    HW232958   5.528   4.009   1.221
10687SOL     OW32959   0.729   5.278   1.138
10687SOL    HW132960   0.684   5.239   1.057
10687SOL    HW232961   0.720   5.378   1.135
10688SOL     OW32962   1.854   5.543   1.601
10688SOL    HW132963   1.818   5.451   1.583
10688SOL    HW232964   1.779   5.609   1.598
10689SOL     OW32965   6.799   1.181   2.132
10689SOL    HW132966   6.708   1.222   2.135
10689SOL    HW232967   6.861   1.236   2.189
10690SOL     OW32968   3.648   0.644   2.456
10690SOL    HW132969   3.616   0.719   2.398
10690SOL    HW232970   3.732   0.672   2.503
10691SOL     OW32971   5.317   1.726   1.904
10691SOL    HW132972   5.324   1.826   1.899
10691SOL    HW232973   5.406   1.685   1.884
10692SOL     OW32974   5.914   6.375   4.310
10692SOL    HW132975   5.981   6.373   4.384
10692SOL    HW232976   5.839   6.312   4.332
10693SOL     OW32977   4.092   2.223   4.519
10693SOL    HW132978   4.154   2.287   4.475
10693SOL    HW232979   4.102   2.230   4.619
10694SOL     OW32980   3.690   6.590   0.022
10694SOL    HW132981   3.726   6.626   6.957
10694SOL    HW232982   3.710   6.654   0.096
10695SOL     OW32983   5.555   3.038   5.715
10695SOL    HW132984   5.608   3.074   5.639
10695SOL    HW232985   5.486   2.974   5.681
10696SOL     OW32986   6.328   0.839   0.871
10696SOL    HW132987   6.365   0.821   0.780
10696SOL    HW232988   6.291   0.932   0.874
10697SOL     OW32989   3.169   5.698   3.028
10697SOL    HW132990   3.072   5.716   3.046
10697SOL    HW232991   3.177   5.629   2.956
10698SOL     OW32992   4.076   6.954   3.344
10698SOL    HW132993   4.030   6.866   3.353
10698SOL    HW232994   4.028   7.011   3.277
10699SOL     OW32995   0.111   3.909   3.559
10699SOL    HW132996   0.065   3.995   3.582
10699SOL    HW232997   0.042   3.842   3.531
10700SOL     OW32998   0.299   2.741   3.307
10700SOL    HW132999   0.398   2.752   3.303
10700SOL    HW233000   0.274   2.650   3.274
10701SOL     OW33001   2.003   6.854   1.745
10701SOL    HW133002   2.009   6.950   1.718
10701SOL    HW233003   1.939   6.845   1.821
10702SOL     OW33004   4.826   1.886   1.040
10702SOL    HW133005   4.765   1.947   1.091
10702SOL    HW233006   4.785   1.866   0.950
10703SOL     OW33007   3.355   4.124   4.765
10703SOL    HW133008   3.257   4.125   4.785
10703SOL    HW233009   3.406   4.130   4.851
10704SOL     OW33010   5.540   5.405   1.659
10704SOL    HW133011   5.447   5.373   1.675
10704SOL    HW233012   5.582   5.352   1.585
10705SOL     OW33013   1.121   3.388   0.375
10705SOL    HW133014   1.125   3.352   0.282
10705SOL    HW233015   1.048   3.343   0.425
10706SOL     OW33016   3.225   3.707   0.600
10706SOL    HW133017   3.293   3.743   0.536
10706SOL    HW233018   3.204   3.612   0.576
10707SOL     OW33019   6.065   1.250   6.395
10707SOL    HW133020   6.070   1.260   6.296
10707SOL    HW233021   6.147   1.290   6.437
10708SOL     OW33022   4.313   3.361   0.992
10708SOL    HW133023   4.345   3.297   0.922
10708SOL    HW233024   4.349   3.333   1.081
10709SOL     OW33025   0.708   1.091   5.584
10709SOL    HW133026   0.742   1.080   5.678
10709SOL    HW233027   0.714   1.187   5.558
10710SOL     OW33028   6.636   0.020   3.607
10710SOL    HW133029   6.701   0.061   3.543
10710SOL    HW233030   6.640   6.942   3.600
10711SOL     OW33031   2.239   4.170   5.303
10711SOL    HW133032   2.244   4.078   5.342
10711SOL    HW233033   2.274   4.167   5.209
10712SOL     OW33034   3.717   2.101   5.931
10712SOL    HW133035   3.780   2.061   5.863
10712SOL    HW233036   3.716   2.043   6.012
10713SOL     OW33037   2.648   0.007   0.015
10713SOL    HW133038   2.659   6.933   7.011
10713SOL    HW233039   2.735   0.055   0.006
10714SOL     OW33040   5.549   5.250   4.357
10714SOL    HW133041   5.643   5.267   4.328
10714SOL    HW233042   5.545   5.245   4.457
10715SOL     OW33043   5.676   6.856   2.451
10715SOL    HW133044   5.671   6.918   2.529
10715SOL    HW233045   5.750   6.791   2.464
10716SOL     OW33046   6.493   1.927   2.962
10716SOL    HW133047   6.535   1.873   2.890
10716SOL    HW233048   6.403   1.959   2.931
10717SOL     OW33049   6.786   6.665   1.051
10717SOL    HW133050   6.730   6.605   1.108
10717SOL    HW233051   6.862   6.613   1.013
10718SOL     OW33052   0.462   4.779   5.229
10718SOL    HW133053   0.414   4.823   5.305
10718SOL    HW233054   0.450   4.680   5.236
10719SOL     OW33055   3.878   6.535   3.043
10719SOL    HW133056   3.867   6.489   2.955
10719SOL    HW233057   3.844   6.629   3.036
10720SOL     OW33058   1.291   3.508   5.696
10720SOL    HW133059   1.301   3.409   5.689
10720SOL    HW233060   1.221   3.529   5.764
10721SOL     OW33061   5.507   0.340   4.636
10721SOL    HW133062   5.469   0.348   4.544
10721SOL    HW233063   5.508   0.430   4.680
10722SOL     OW33064   0.999   4.860   1.009
10722SOL    HW133065   0.971   4.953   1.032
10722SOL    HW233066   1.004   4.850   0.909
10723SOL     OW33067   0.112   5.557   6.347
10723SOL    HW133068   0.125   5.597   6.256
10723SOL    HW233069   0.080   5.463   6.338
10724SOL     OW33070   3.638   6.439   5.747
10724SOL    HW133071   3.670   6.484   5.663
10724SOL    HW233072   3.716   6.415   5.804
10725SOL     OW33073   6.685   0.264   5.007
10725SOL    HW133074   6.771   0.216   4.990
10725SOL    HW233075   6.620   0.245   4.934
10726SOL     OW33076   6.768   1.095   3.826
10726SOL    HW133077   6.833   1.169   3.845
10726SOL    HW233078   6.794   1.049   3.742
10727SOL     OW33079   5.552   5.595   6.071
10727SOL    HW133080   5.491   5.621   6.147
10727SOL    HW233081   5.624   5.535   6.106
10728SOL     OW33082   5.049   6.063   4.801
10728SOL    HW133083   5.092   5.993   4.744
10728SOL    HW233084   5.104   6.077   4.883
10729SOL     OW33085   6.489   2.932   4.755
10729SOL    HW133086   6.511   2.873   4.677
10729SOL    HW233087   6.409   2.895   4.802
10730SOL     OW33088   0.870   5.886   4.212
10730SOL    HW133089   0.899   5.808   4.156
10730SOL    HW233090   0.851   5.964   4.152
10731SOL     OW33091   4.960   4.107   5.573
10731SOL    HW133092   4.950   4.135   5.478
10731SOL    HW233093   5.057   4.107   5.598
10732SOL     OW33094   5.747   5.230   2.098
10732SOL    HW133095   5.682   5.210   2.172
10732SOL    HW233096   5.803   5.149   2.080
10733SOL     OW33097   1.077   2.344   5.967
10733SOL    HW133098   1.096   2.433   6.009
10733SOL    HW233099   1.004   2.298   6.017
10734SOL     OW33100   0.466   1.347   4.232
10734SOL    HW133101   0.523   1.329   4.312
10734SOL    HW233102   0.375   1.310   4.247
10735SOL     OW33103   0.328   1.063   2.236
10735SOL    HW133104   0.266   1.082   2.159
10735SOL    HW233105   0.359   1.149   2.276
10736SOL     OW33106   5.490   5.820   4.492
10736SOL    HW133107   5.486   5.910   4.449
10736SOL    HW233108   5.399   5.779   4.492
10737SOL     OW33109   5.818   1.381   0.822
10737SOL    HW133110   5.847   1.410   0.731
10737SOL    HW233111   5.734   1.328   0.815
10738SOL     OW33112   0.939   6.682   2.225
10738SOL    HW133113   0.963   6.657   2.319
10738SOL    HW233114   0.840   6.676   2.214
10739SOL     OW33115   5.225   2.713   4.034
10739SOL    HW133116   5.194   2.754   3.948
10739SOL    HW233117   5.155   2.650   4.067
10740SOL     OW33118   2.751   1.164   6.696
10740SOL    HW133119   2.670   1.204   6.652
10740SOL    HW233120   2.805   1.237   6.738
10741SOL     OW33121   2.449   2.679   3.968
10741SOL    HW133122   2.461   2.662   3.870
10741SOL    HW233123   2.430   2.776   3.983
10742SOL     OW33124   6.570   0.467   2.618
10742SOL    HW133125   6.592   0.412   2.537
10742SOL    HW233126   6.651   0.520   2.645
10743SOL     OW33127   4.476   3.024   6.398
10743SOL    HW133128   4.480   3.106   6.456
10743SOL    HW233129   4.504   2.944   6.451
10744SOL     OW33130   1.705   1.519   1.284
10744SOL    HW133131   1.795   1.561   1.293
10744SOL    HW233132   1.714   1.431   1.238
10745SOL     OW33133   3.965   5.614   2.277
10745SOL    HW133134   3.886   5.672   2.297
10745SOL    HW233135   3.958   5.577   2.184
10746SOL     OW33136   2.397   5.568   5.132
10746SOL    HW133137   2.495   5.587   5.140
10746SOL    HW233138   2.349   5.651   5.103
10747SOL     OW33139   6.792   0.063   5.432
10747SOL    HW133140   6.752   0.139   5.381
10747SOL    HW233141   6.795   0.086   5.529
10748SOL     OW33142   3.332   6.499   1.808
10748SOL    HW133143   3.385   6.571   1.762
10748SOL    HW233144   3.245   6.537   1.840
10749SOL     OW33145   5.500   2.089   2.862
10749SOL    HW133146   5.482   2.153   2.937
10749SOL    HW233147   5.487   2.136   2.774
10750SOL     OW33148   3.485   2.115   3.846
10750SOL    HW133149   3.480   2.101   3.944
10750SOL    HW233150   3.438   2.040   3.799
10751SOL     OW33151   5.623   6.359   3.286
10751SOL    HW133152   5.605   6.316   3.197
10751SOL    HW233153   5.717   6.340   3.314
10752SOL     OW33154   6.915   6.199   6.454
10752SOL    HW133155   6.952   6.166   6.367
10752SOL    HW233156   6.898   6.122   6.514
10753SOL     OW33157   5.177   6.737   4.899
10753SOL    HW133158   5.203   6.711   4.993
10753SOL    HW233159   5.091   6.788   4.901
10754SOL     OW33160   6.562   5.325   2.054
10754SOL    HW133161   6.547   5.423   2.045
10754SOL    HW233162   6.481   5.282   2.095
10755SOL     OW33163   0.367   1.271   2.787
10755SOL    HW133164   0.366   1.335   2.864
10755SOL    HW233165   0.404   1.315   2.706
10756SOL     OW33166   0.875   6.752   0.025
10756SOL    HW133167   0.782   6.786   0.042
10756SOL    HW233168   0.876   6.698   6.963
10757SOL     OW33169   0.303   1.895   2.352
10757SOL    HW133170   0.216   1.885   2.303
10757SOL    HW233171   0.373   1.929   2.289
10758SOL     OW33172   0.229   1.255   1.145
10758SOL    HW133173   0.314   1.203   1.137
10758SOL    HW233174   0.244   1.349   1.114
10759SOL     OW33175   3.348   5.119   5.604
10759SOL    HW133176   3.428   5.077   5.646
10759SOL    HW233177   3.273   5.053   5.601
10760SOL     OW33178   1.121   4.915   6.564
10760SOL    HW133179   1.088   4.999   6.521
10760SOL    HW233180   1.139   4.932   6.661
10761SOL     OW33181   1.410   0.327   0.012
10761SOL    HW133182   1.507   0.349   0.011
10761SOL    HW233183   1.383   0.288   6.945
10762SOL     OW33184   1.755   5.204   0.863
10762SOL    HW133185   1.671   5.236   0.818
10762SOL    HW233186   1.778   5.267   0.938
10763SOL     OW33187   5.546   1.582   1.833
10763SOL    HW133188   5.637   1.608   1.865
10763SOL    HW233189   5.546   1.578   1.733
10764SOL     OW33190   4.924   0.019   3.662
10764SOL    HW133191   4.987   0.025   3.739
10764SOL    HW233192   4.841   0.070   3.683
10765SOL     OW33193   6.940   2.776   1.866
10765SOL    HW133194   0.011   2.761   1.833
10765SOL    HW233195   6.875   2.744   1.796
10766SOL     OW33196   3.309   5.957   6.924
10766SOL    HW133197   3.317   6.053   6.897
10766SOL    HW233198   3.392   5.908   6.897
10767SOL     OW33199   0.657   5.454   0.044
10767SOL    HW133200   0.597   5.529   0.019
10767SOL    HW233201   0.644   5.431   0.140
10768SOL     OW33202   6.767   6.394   0.339
10768SOL    HW133203   6.688   6.393   0.400
10768SOL    HW233204   6.815   6.307   0.343
10769SOL     OW33205   2.930   3.502   4.405
10769SOL    HW133206   3.022   3.485   4.443
10769SOL    HW233207   2.914   3.440   4.328
10770SOL     OW33208   4.581   0.850   5.200
10770SOL    HW133209   4.625   0.828   5.113
10770SOL    HW233210   4.499   0.904   5.183
10771SOL     OW33211   5.182   6.168   5.599
10771SOL    HW133212   5.247   6.095   5.618
10771SOL    HW233213   5.089   6.132   5.601
10772SOL     OW33214   5.292   3.263   4.116
10772SOL    HW133215   5.284   3.337   4.050
10772SOL    HW233216   5.376   3.273   4.168
10773SOL     OW33217   1.151   3.645   0.289
10773SOL    HW133218   1.137   3.574   0.357
10773SOL    HW233219   1.081   3.639   0.218
10774SOL     OW33220   6.590   2.768   1.784
10774SOL    HW133221   6.587   2.858   1.741
10774SOL    HW233222   6.500   2.745   1.820
10775SOL     OW33223   1.897   4.443   6.149
10775SOL    HW133224   1.813   4.432   6.202
10775SOL    HW233225   1.953   4.360   6.157
10776SOL     OW33226   0.297   3.584   3.751
10776SOL    HW133227   0.377   3.644   3.742
10776SOL    HW233228   0.289   3.527   3.670
10777SOL     OW33229   0.130   6.911   2.077
10777SOL    HW133230   0.187   6.938   2.000
10777SOL    HW233231   0.156   6.819   2.107
10778SOL     OW33232   4.581   6.624   3.231
10778SOL    HW133233   4.674   6.644   3.264
10778SOL    HW233234   4.548   6.539   3.271
10779SOL     OW33235   5.391   2.855   5.623
10779SOL    HW133236   5.393   2.796   5.543
10779SOL    HW233237   5.298   2.890   5.637
10780SOL     OW33238   0.939   5.826   4.652
10780SOL    HW133239   0.902   5.741   4.690
10780SOL    HW233240   1.037   5.817   4.639
10781SOL     OW33241   6.449   2.888   6.041
10781SOL    HW133242   6.406   2.805   6.077
10781SOL    HW233243   6.468   2.950   6.117
10782SOL     OW33244   1.550   3.444   4.807
10782SOL    HW133245   1.466   3.499   4.805
10782SOL    HW233246   1.617   3.489   4.866
10783SOL     OW33247   1.213   4.035   4.619
10783SOL    HW133248   1.225   4.134   4.616
10783SOL    HW233249   1.156   4.011   4.698
10784SOL     OW33250   4.899   5.842   3.594
10784SOL    HW133251   4.910   5.904   3.516
10784SOL    HW233252   4.947   5.757   3.576
10785SOL     OW33253   1.654   5.746   1.568
10785SOL    HW133254   1.571   5.793   1.598
10785SOL    HW233255   1.664   5.754   1.469
10786SOL     OW33256   4.870   1.265   2.363
10786SOL    HW133257   4.874   1.241   2.460
10786SOL    HW233258   4.835   1.188   2.310
10787SOL     OW33259   3.272   1.179   3.510
10787SOL    HW133260   3.355   1.139   3.469
10787SOL    HW233261   3.298   1.258   3.565
10788SOL     OW33262   1.436   2.908   6.769
10788SOL    HW133263   1.358   2.851   6.794
10788SOL    HW233264   1.413   2.961   6.687
10789SOL     OW33265   0.171   2.182   2.469
10789SOL    HW133266   0.259   2.223   2.443
10789SOL    HW233267   0.103   2.199   2.399
10790SOL     OW33268   6.649   3.087   4.438
10790SOL    HW133269   6.631   2.988   4.433
10790SOL    HW233270   6.563   3.137   4.438
10791SOL     OW33271   1.859   2.878   3.653
10791SOL    HW133272   1.847   2.797   3.711
10791SOL    HW233273   1.954   2.908   3.657
10792SOL     OW33274   3.316   0.597   1.580
10792SOL    HW133275   3.338   0.677   1.524
10792SOL    HW233276   3.352   0.610   1.672
10793SOL     OW33277   3.827   1.918   3.619
10793SOL    HW133278   3.907   1.867   3.588
10793SOL    HW233279   3.778   1.864   3.687
10794SOL     OW33280   4.957   2.668   0.413
10794SOL    HW133281   5.004   2.659   0.325
10794SOL    HW233282   5.020   2.704   0.481
10795SOL     OW33283   5.925   2.628   3.721
10795SOL    HW133284   6.004   2.572   3.696
10795SOL    HW233285   5.920   2.708   3.661
10796SOL     OW33286   6.788   1.904   6.759
10796SOL    HW133287   6.733   1.917   6.841
10796SOL    HW233288   6.756   1.824   6.708
10797SOL     OW33289   5.846   4.697   6.757
10797SOL    HW133290   5.858   4.600   6.737
10797SOL    HW233291   5.782   4.707   6.834
10798SOL     OW33292   3.204   5.912   0.698
10798SOL    HW133293   3.188   5.816   0.721
10798SOL    HW233294   3.207   5.966   0.782
10799SOL     OW33295   2.012   1.177   3.028
10799SOL    HW133296   2.104   1.141   3.049
10799SOL    HW233297   2.019   1.274   3.004
10800SOL     OW33298   1.252   0.366   5.240
10800SOL    HW133299   1.248   0.463   5.264
10800SOL    HW233300   1.172   0.319   5.280
10801SOL     OW33301   2.693   6.351   6.625
10801SOL    HW133302   2.658   6.259   6.609
10801SOL    HW233303   2.639   6.396   6.696
10802SOL     OW33304   1.127   4.937   3.248
10802SOL    HW133305   1.133   4.842   3.279
10802SOL    HW233306   1.150   4.941   3.151
10803SOL     OW33307   0.744   4.864   4.537
10803SOL    HW133308   0.655   4.901   4.510
10803SOL    HW233309   0.734   4.809   4.620
10804SOL     OW33310   5.207   5.143   6.284
10804SOL    HW133311   5.184   5.118   6.190
10804SOL    HW233312   5.306   5.147   6.295
10805SOL     OW33313   5.716   5.227   6.457
10805SOL    HW133314   5.782   5.161   6.494
10805SOL    HW233315   5.760   5.281   6.385
10806SOL     OW33316   6.793   2.743   5.389
10806SOL    HW133317   6.775   2.841   5.383
10806SOL    HW233318   6.720   2.698   5.441
10807SOL     OW33319   4.302   2.892   5.475
10807SOL    HW133320   4.350   2.976   5.453
10807SOL    HW233321   4.303   2.878   5.574
10808SOL     OW33322   0.172   2.645   0.966
10808SOL    HW133323   0.166   2.674   1.062
10808SOL    HW233324   0.080   2.624   0.932
10809SOL     OW33325   0.928   0.797   3.536
10809SOL    HW133326   0.911   0.896   3.541
10809SOL    HW233327   0.858   0.749   3.589
10810SOL     OW33328   1.779   1.558   6.042
10810SOL    HW133329   1.738   1.625   5.981
10810SOL    HW233330   1.819   1.604   6.121
10811SOL     OW33331   4.129   5.125   6.360
10811SOL    HW133332   4.030   5.119   6.376
10811SOL    HW233333   4.172   5.175   6.435
10812SOL     OW33334   6.395   3.198   2.378
10812SOL    HW133335   6.340   3.136   2.322
10812SOL    HW233336   6.470   3.234   2.322
10813SOL     OW33337   2.865   5.273   2.352
10813SOL    HW133338   2.956   5.314   2.345
10813SOL    HW233339   2.797   5.345   2.364
10814SOL     OW33340   1.817   5.871   4.371
10814SOL    HW133341   1.834   5.798   4.305
10814SOL    HW233342   1.771   5.834   4.451
10815SOL     OW33343   5.495   2.736   6.187
10815SOL    HW133344   5.438   2.814   6.162
10815SOL    HW233345   5.524   2.688   6.104
10816SOL     OW33346   2.078   2.256   1.317
10816SOL    HW133347   2.145   2.327   1.294
10816SOL    HW233348   1.987   2.285   1.288
10817SOL     OW33349   4.097   1.490   2.150
10817SOL    HW133350   4.018   1.517   2.095
10817SOL    HW233351   4.179   1.537   2.116
10818SOL     OW33352   4.819   3.441   5.675
10818SOL    HW133353   4.803   3.447   5.773
10818SOL    HW233354   4.733   3.454   5.626
10819SOL     OW33355   1.986   3.420   4.835
10819SOL    HW133356   2.075   3.391   4.871
10819SOL    HW233357   2.001   3.471   4.749
10820SOL     OW33358   0.778   5.958   4.897
10820SOL    HW133359   0.695   5.992   4.853
10820SOL    HW233360   0.764   5.864   4.927
10821SOL     OW33361   0.011   0.422   6.015
10821SOL    HW133362   6.953   0.392   6.066
10821SOL    HW233363   0.012   0.522   6.009
10822SOL     OW33364   0.532   5.735   6.499
10822SOL    HW133365   0.534   5.829   6.465
10822SOL    HW233366   0.530   5.671   6.421
10823SOL     OW33367   2.699   2.261   0.091
10823SOL    HW133368   2.607   2.290   0.119
10823SOL    HW233369   2.761   2.267   0.170
10824SOL     OW33370   5.071   1.489   4.208
10824SOL    HW133371   5.130   1.409   4.198
10824SOL    HW233372   5.044   1.498   4.304
10825SOL     OW33373   4.135   2.213   2.149
10825SOL    HW133374   4.169   2.270   2.224
10825SOL    HW233375   4.202   2.143   2.127
10826SOL     OW33376   0.118   3.458   0.655
10826SOL    HW133377   0.062   3.431   0.734
10826SOL    HW233378   0.184   3.527   0.683
10827SOL     OW33379   6.896   3.624   4.682
10827SOL    HW133380   6.972   3.584   4.733
10827SOL    HW233381   6.811   3.578   4.707
10828SOL     OW33382   3.005   4.374   0.181
10828SOL    HW133383   2.997   4.287   0.230
10828SOL    HW233384   3.084   4.371   0.120
10829SOL     OW33385   1.508   3.656   1.587
10829SOL    HW133386   1.499   3.714   1.668
10829SOL    HW233387   1.583   3.592   1.601
10830SOL     OW33388   6.239   0.666   3.571
10830SOL    HW133389   6.308   0.609   3.615
10830SOL    HW233390   6.188   0.611   3.505
10831SOL     OW33391   5.294   3.055   2.533
10831SOL    HW133392   5.225   3.126   2.549
10831SOL    HW233393   5.385   3.095   2.541
10832SOL     OW33394   1.569   2.891   2.290
10832SOL    HW133395   1.480   2.932   2.274
10832SOL    HW233396   1.636   2.963   2.308
10833SOL     OW33397   3.995   0.556   4.831
10833SOL    HW133398   4.045   0.545   4.917
10833SOL    HW233399   3.980   0.467   4.790
10834SOL     OW33400   6.909   2.153   5.988
10834SOL    HW133401   6.843   2.100   6.040
10834SOL    HW233402   6.862   2.204   5.916
10835SOL     OW33403   0.934   1.027   1.101
10835SOL    HW133404   0.907   1.039   1.005
10835SOL    HW233405   0.877   1.085   1.159
10836SOL     OW33406   6.395   1.218   1.470
10836SOL    HW133407   6.353   1.305   1.497
10836SOL    HW233408   6.432   1.172   1.552
10837SOL     OW33409   1.916   4.922   0.646
10837SOL    HW133410   1.946   4.975   0.726
10837SOL    HW233411   1.983   4.850   0.627
10838SOL     OW33412   6.372   6.878   1.094
10838SOL    HW133413   6.381   6.977   1.083
10838SOL    HW233414   6.453   6.833   1.056
10839SOL     OW33415   2.512   1.247   6.550
10839SOL    HW133416   2.486   1.271   6.456
10839SOL    HW233417   2.525   1.330   6.603
10840SOL     OW33418   0.982   0.460   3.604
10840SOL    HW133419   0.910   0.509   3.653
10840SOL    HW233420   1.029   0.523   3.542
10841SOL     OW33421   4.322   4.387   6.640
10841SOL    HW133422   4.375   4.308   6.608
10841SOL    HW233423   4.379   4.444   6.699
10842SOL     OW33424   5.834   2.075   2.657
10842SOL    HW133425   5.870   1.984   2.679
10842SOL    HW233426   5.752   2.065   2.600
10843SOL     OW33427   0.848   1.927   1.523
10843SOL    HW133428   0.842   1.935   1.622
10843SOL    HW233429   0.914   1.994   1.488
10844SOL     OW33430   4.149   6.387   3.382
10844SOL    HW133431   4.113   6.310   3.435
10844SOL    HW233432   4.165   6.465   3.443
10845SOL     OW33433   2.576   3.552   1.057
10845SOL    HW133434   2.566   3.483   1.129
10845SOL    HW233435   2.488   3.597   1.042
10846SOL     OW33436   3.438   1.328   2.115
10846SOL    HW133437   3.537   1.337   2.126
10846SOL    HW233438   3.402   1.411   2.072
10847SOL     OW33439   5.361   2.050   4.986
10847SOL    HW133440   5.270   2.027   4.950
10847SOL    HW233441   5.413   2.098   4.916
10848SOL     OW33442   2.252   0.145   6.173
10848SOL    HW133443   2.255   0.240   6.143
10848SOL    HW233444   2.159   0.122   6.202
10849SOL     OW33445   0.282   4.878   5.030
10849SOL    HW133446   0.295   4.814   4.954
10849SOL    HW233447   0.344   4.854   5.105
10850SOL     OW33448   6.339   0.882   3.951
10850SOL    HW133449   6.316   0.785   3.944
10850SOL    HW233450   6.269   0.929   4.005
10851SOL     OW33451   5.687   3.252   0.783
10851SOL    HW133452   5.660   3.162   0.752
10851SOL    HW233453   5.770   3.280   0.735
10852SOL     OW33454   5.752   1.704   5.618
10852SOL    HW133455   5.670   1.689   5.562
10852SOL    HW233456   5.833   1.701   5.560
10853SOL     OW33457   1.220   6.786   5.772
10853SOL    HW133458   1.221   6.748   5.679
10853SOL    HW233459   1.246   6.882   5.769
10854SOL     OW33460   6.040   6.327   6.725
10854SOL    HW133461   6.076   6.270   6.799
10854SOL    HW233462   5.951   6.365   6.752
10855SOL     OW33463   0.526   6.283   6.817
10855SOL    HW133464   0.613   6.299   6.770
10855SOL    HW233465   0.451   6.306   6.756
10856SOL     OW33466   4.421   6.797   6.919
10856SOL    HW133467   4.410   6.699   6.901
10856SOL    HW233468   4.517   6.823   6.905
10857SOL     OW33469   6.220   6.529   4.490
10857SOL    HW133470   6.160   6.450   4.501
10857SOL    HW233471   6.185   6.588   4.417
10858SOL     OW33472   1.259   2.658   1.548
10858SOL    HW133473   1.236   2.750   1.516
10858SOL    HW233474   1.358   2.651   1.559
10859SOL     OW33475   1.972   4.809   2.420
10859SOL    HW133476   2.020   4.722   2.427
10859SOL    HW233477   2.036   4.884   2.436
10860SOL     OW33478   5.614   0.977   2.617
10860SOL    HW133479   5.519   0.983   2.588
10860SOL    HW233480   5.659   1.066   2.603
10861SOL     OW33481   2.915   4.497   1.119
10861SOL    HW133482   2.940   4.407   1.084
10861SOL    HW233483   2.820   4.496   1.149
10862SOL     OW33484   3.480   4.485   5.516
10862SOL    HW133485   3.384   4.488   5.490
10862SOL    HW233486   3.511   4.390   5.518
10863SOL     OW33487   0.586   0.706   4.060
10863SOL    HW133488   0.684   0.685   4.055
10863SOL    HW233489   0.573   0.794   4.106
10864SOL     OW33490   3.104   3.176   2.177
10864SOL    HW133491   3.169   3.249   2.195
10864SOL    HW233492   3.116   3.103   2.244
10865SOL     OW33493   3.901   1.754   2.517
10865SOL    HW133494   3.980   1.757   2.456
10865SOL    HW233495   3.879   1.847   2.548
10866SOL     OW33496   0.203   3.536   5.152
10866SOL    HW133497   0.214   3.464   5.084
10866SOL    HW233498   0.256   3.616   5.125
10867SOL     OW33499   5.496   3.437   0.645
10867SOL    HW133500   5.398   3.420   0.642
10867SOL    HW233501   5.543   3.356   0.681
10868SOL     OW33502   0.010   0.305   5.729
10868SOL    HW133503   6.942   0.333   5.697
10868SOL    HW233504   0.035   0.358   5.810
10869NA      NA33505   6.475   1.532   6.853
10870NA      NA33506   4.945   4.601   4.686
10871NA      NA33507   1.109   4.583   2.893
10872NA      NA33508   6.170   3.662   3.813
10873NA      NA33509   4.189   2.282   5.229
10874NA      NA33510   2.583   3.819   6.729
10875NA      NA33511   1.884   5.340   0.429
10876NA      NA33512   4.344   4.800   1.926
10877NA      NA33513   5.436   3.658   1.090
10878NA      NA33514   3.740   2.175   0.673
10879NA      NA33515   4.933   5.959   1.410
10880NA      NA33516   2.842   6.408   3.960
10881NA      NA33517   3.785   5.717   2.932
10882NA      NA33518   4.746   4.958   5.548
   7.02167   7.02167   7.02167
