Generated by trjconv : CNT in water t= 486.00000
33518
    1C        C    1   2.846   2.771   4.746
    1C        C    2   2.901   2.722   4.866
    1C        C    3   2.842   2.771   4.983
    1C        C    4   2.853   2.777   4.261
    1C        C    5   2.905   2.729   4.383
    1C        C    6   2.847   2.774   4.504
    1C        C    7   3.015   2.640   4.627
    1C        C    8   2.901   2.723   4.625
    1C        C    9   3.076   2.597   4.747
    1C        C   10   3.009   2.631   4.866
    1C        C   11   3.180   2.488   4.975
    1C        C   12   3.057   2.555   4.974
    1C        C   13   2.852   2.774   3.772
    1C        C   14   2.904   2.726   3.894
    1C        C   15   2.851   2.777   4.015
    1C        C   16   3.017   2.645   4.139
    1C        C   17   2.907   2.733   4.137
    1C        C   18   3.079   2.608   4.261
    1C        C   19   3.019   2.645   4.383
    1C        C   20   3.206   2.550   4.503
    1C        C   21   3.075   2.602   4.505
    1C        C   22   3.276   2.526   4.624
    1C        C   23   3.207   2.542   4.746
    1C        C   24   3.414   2.487   4.864
    1C        C   25   3.271   2.496   4.865
    1C        C   26   3.492   2.478   4.980
    1C        C   27   2.850   2.767   3.281
    1C        C   28   2.907   2.724   3.403
    1C        C   29   2.857   2.775   3.525
    1C        C   30   3.018   2.643   3.650
    1C        C   31   2.906   2.729   3.650
    1C        C   32   3.078   2.605   3.773
    1C        C   33   3.018   2.643   3.895
    1C        C   34   3.206   2.547   4.017
    1C        C   35   3.077   2.605   4.017
    1C        C   36   3.276   2.529   4.138
    1C        C   37   3.210   2.555   4.260
    1C        C   38   3.415   2.504   4.382
    1C        C   39   3.277   2.532   4.382
    1C        C   40   3.486   2.494   4.503
    1C        C   41   3.413   2.493   4.624
    1C        C   42   3.631   2.488   4.745
    1C        C   43   3.489   2.480   4.743
    1C        C   44   3.706   2.491   4.865
    1C        C   45   3.630   2.484   4.983
    1C        C   46   2.839   2.755   2.793
    1C        C   47   2.895   2.712   2.915
    1C        C   48   2.846   2.765   3.037
    1C        C   49   3.016   2.636   3.160
    1C        C   50   2.902   2.720   3.158
    1C        C   51   3.076   2.602   3.283
    1C        C   52   3.020   2.639   3.407
    1C        C   53   3.206   2.540   3.528
    1C        C   54   3.080   2.603   3.530
    1C        C   55   3.274   2.522   3.650
    1C        C   56   3.208   2.549   3.771
    1C        C   57   3.413   2.504   3.893
    1C        C   58   3.274   2.527   3.894
    1C        C   59   3.483   2.502   4.016
    1C        C   60   3.415   2.504   4.139
    1C        C   61   3.629   2.503   4.259
    1C        C   62   3.487   2.497   4.261
    1C        C   63   3.700   2.510   4.381
    1C        C   64   3.627   2.500   4.501
    1C        C   65   3.833   2.551   4.623
    1C        C   66   3.699   2.508   4.623
    1C        C   67   3.903   2.570   4.744
    1C        C   68   3.842   2.529   4.864
    1C        C   69   4.057   2.584   4.976
    1C        C   70   3.926   2.536   4.976
    1C        C   71   2.820   2.730   2.307
    1C        C   72   2.880   2.692   2.429
    1C        C   73   2.833   2.747   2.551
    1C        C   74   3.007   2.624   2.671
    1C        C   75   2.889   2.701   2.672
    1C        C   76   3.074   2.597   2.793
    1C        C   77   3.012   2.632   2.914
    1C        C   78   3.202   2.540   3.037
    1C        C   79   3.072   2.596   3.036
    1C        C   80   3.273   2.525   3.159
    1C        C   81   3.206   2.546   3.281
    1C        C   82   3.411   2.498   3.403
    1C        C   83   3.271   2.519   3.404
    1C        C   84   3.482   2.497   3.524
    1C        C   85   3.415   2.504   3.648
    1C        C   86   3.625   2.505   3.769
    1C        C   87   3.484   2.498   3.771
    1C        C   88   3.695   2.515   3.891
    1C        C   89   3.624   2.509   4.014
    1C        C   90   3.831   2.557   4.136
    1C        C   91   3.695   2.517   4.136
    1C        C   92   3.900   2.579   4.257
    1C        C   93   3.836   2.549   4.379
    1C        C   94   4.028   2.637   4.500
    1C        C   95   3.901   2.575   4.502
    1C        C   96   4.093   2.671   4.621
    1C        C   97   4.032   2.629   4.741
    1C        C   98   4.195   2.766   4.865
    1C        C   99   4.104   2.656   4.862
    1C        C  100   4.214   2.844   4.980
    1C        C  101   2.822   2.729   2.068
    1C        C  102   2.991   2.593   2.188
    1C        C  103   2.875   2.677   2.187
    1C        C  104   3.060   2.571   2.310
    1C        C  105   2.999   2.616   2.429
    1C        C  106   3.200   2.537   2.549
    1C        C  107   3.067   2.586   2.549
    1C        C  108   3.270   2.519   2.671
    1C        C  109   3.202   2.537   2.793
    1C        C  110   3.408   2.491   2.915
    1C        C  111   3.269   2.515   2.915
    1C        C  112   3.481   2.493   3.035
    1C        C  113   3.412   2.500   3.158
    1C        C  114   3.622   2.500   3.279
    1C        C  115   3.481   2.490   3.281
    1C        C  116   3.692   2.514   3.401
    1C        C  117   3.624   2.503   3.524
    1C        C  118   3.829   2.552   3.647
    1C        C  119   3.694   2.514   3.646
    1C        C  120   3.896   2.580   3.769
    1C        C  121   3.831   2.553   3.891
    1C        C  122   4.024   2.642   4.014
    1C        C  123   3.898   2.578   4.013
    1C        C  124   4.088   2.676   4.135
    1C        C  125   4.026   2.641   4.257
    1C        C  126   4.196   2.769   4.377
    1C        C  127   4.085   2.682   4.379
    1C        C  128   4.247   2.817   4.500
    1C        C  129   4.197   2.766   4.622
    1C        C  130   4.328   2.934   4.742
    1C        C  131   4.249   2.816   4.744
    1C        C  132   4.353   3.005   4.862
    1C        C  133   4.287   2.962   4.978
    1C        C  134   3.169   2.468   2.082
    1C        C  135   3.036   2.512   2.078
    1C        C  136   3.259   2.479   2.189
    1C        C  137   3.192   2.516   2.307
    1C        C  138   3.404   2.483   2.429
    1C        C  139   3.264   2.504   2.428
    1C        C  140   3.479   2.484   2.548
    1C        C  141   3.410   2.495   2.670
    1C        C  142   3.620   2.493   2.790
    1C        C  143   3.479   2.485   2.793
    1C        C  144   3.691   2.506   2.911
    1C        C  145   3.623   2.501   3.035
    1C        C  146   3.831   2.540   3.157
    1C        C  147   3.693   2.509   3.157
    1C        C  148   3.898   2.567   3.279
    1C        C  149   3.829   2.549   3.401
    1C        C  150   4.021   2.635   3.523
    1C        C  151   3.896   2.569   3.524
    1C        C  152   4.081   2.676   3.644
    1C        C  153   4.023   2.642   3.769
    1C        C  154   4.197   2.762   3.890
    1C        C  155   4.082   2.680   3.891
    1C        C  156   4.255   2.807   4.011
    1C        C  157   4.198   2.764   4.133
    1C        C  158   4.338   2.924   4.252
    1C        C  159   4.250   2.815   4.254
    1C        C  160   4.375   2.984   4.375
    1C        C  161   4.334   2.928   4.499
    1C        C  162   4.434   3.116   4.619
    1C        C  163   4.373   2.989   4.620
    1C        C  164   4.466   3.183   4.739
    1C        C  165   4.430   3.123   4.861
    1C        C  166   4.514   3.321   4.975
    1C        C  167   4.475   3.188   4.977
    1C        C  168   3.475   2.435   2.075
    1C        C  169   3.398   2.457   2.191
    1C        C  170   3.618   2.466   2.307
    1C        C  171   3.475   2.464   2.309
    1C        C  172   3.691   2.489   2.425
    1C        C  173   3.621   2.485   2.547
    1C        C  174   3.829   2.535   2.668
    1C        C  175   3.691   2.503   2.668
    1C        C  176   3.893   2.564   2.791
    1C        C  177   3.828   2.541   2.914
    1C        C  178   4.024   2.626   3.033
    1C        C  179   3.898   2.563   3.035
    1C        C  180   4.085   2.663   3.155
    1C        C  181   4.026   2.627   3.278
    1C        C  182   4.198   2.750   3.399
    1C        C  183   4.084   2.667   3.400
    1C        C  184   4.249   2.801   3.521
    1C        C  185   4.196   2.757   3.644
    1C        C  186   4.340   2.915   3.767
    1C        C  187   4.247   2.808   3.766
    1C        C  188   4.385   2.974   3.887
    1C        C  189   4.348   2.913   4.009
    1C        C  190   4.449   3.102   4.130
    1C        C  191   4.388   2.974   4.130
    1C        C  192   4.471   3.170   4.252
    1C        C  193   4.443   3.108   4.376
    1C        C  194   4.505   3.314   4.491
    1C        C  195   4.466   3.178   4.496
    1C        C  196   4.518   3.386   4.612
    1C        C  197   4.505   3.320   4.736
    1C        C  198   4.550   3.535   4.850
    1C        C  199   4.526   3.394   4.855
    1C        C  200   4.581   3.619   4.961
    1C        C  201   3.614   2.416   2.074
    1C        C  202   3.825   2.512   2.184
    1C        C  203   3.692   2.459   2.186
    1C        C  204   3.898   2.540   2.303
    1C        C  205   3.830   2.518   2.424
    1C        C  206   4.017   2.622   2.544
    1C        C  207   3.894   2.553   2.544
    1C        C  208   4.079   2.662   2.665
    1C        C  209   4.016   2.634   2.788
    1C        C  210   4.196   2.746   2.909
    1C        C  211   4.082   2.663   2.909
    1C        C  212   4.250   2.794   3.031
    1C        C  213   4.200   2.746   3.154
    1C        C  214   4.337   2.906   3.275
    1C        C  215   4.252   2.793   3.276
    1C        C  216   4.373   2.970   3.396
    1C        C  217   4.339   2.910   3.519
    1C        C  218   4.437   3.097   3.640
    1C        C  219   4.378   2.969   3.642
    1C        C  220   4.466   3.166   3.760
    1C        C  221   4.445   3.101   3.884
    1C        C  222   4.503   3.304   4.004
    1C        C  223   4.472   3.166   4.006
    1C        C  224   4.512   3.376   4.125
    1C        C  225   4.501   3.308   4.248
    1C        C  226   4.518   3.524   4.366
    1C        C  227   4.508   3.383   4.367
    1C        C  228   4.520   3.598   4.486
    1C        C  229   4.524   3.527   4.608
    1C        C  230   4.506   3.743   4.725
    1C        C  231   4.531   3.603   4.726
    1C        C  232   4.494   3.820   4.843
    1C        C  233   4.543   3.754   4.956
    1C        C  234   4.011   2.613   2.064
    1C        C  235   3.895   2.537   2.065
    1C        C  236   4.083   2.648   2.179
    1C        C  237   4.023   2.608   2.301
    1C        C  238   4.198   2.734   2.422
    1C        C  239   4.081   2.654   2.422
    1C        C  240   4.252   2.784   2.543
    1C        C  241   4.193   2.745   2.666
    1C        C  242   4.338   2.903   2.785
    1C        C  243   4.248   2.794   2.787
    1C        C  244   4.381   2.959   2.908
    1C        C  245   4.340   2.903   3.031
    1C        C  246   4.439   3.090   3.150
    1C        C  247   4.378   2.962   3.153
    1C        C  248   4.460   3.161   3.271
    1C        C  249   4.432   3.098   3.394
    1C        C  250   4.495   3.299   3.513
    1C        C  251   4.458   3.163   3.517
    1C        C  252   4.505   3.371   3.635
    1C        C  253   4.498   3.303   3.759
    1C        C  254   4.520   3.514   3.878
    1C        C  255   4.513   3.373   3.881
    1C        C  256   4.513   3.588   3.998
    1C        C  257   4.513   3.518   4.121
    1C        C  258   4.490   3.730   4.238
    1C        C  259   4.514   3.591   4.242
    1C        C  260   4.469   3.801   4.359
    1C        C  261   4.487   3.736   4.483
    1C        C  262   4.422   3.939   4.603
    1C        C  263   4.474   3.808   4.604
    1C        C  264   4.398   4.011   4.723
    1C        C  265   4.437   3.949   4.843
    1C        C  266   4.320   4.130   4.960
    1C        C  267   4.394   4.012   4.961
    1C        C  268   4.260   2.776   2.064
    1C        C  269   4.199   2.729   2.181
    1C        C  270   4.345   2.888   2.299
    1C        C  271   4.252   2.780   2.301
    1C        C  272   4.385   2.949   2.420
    1C        C  273   4.344   2.891   2.542
    1C        C  274   4.451   3.078   2.660
    1C        C  275   4.381   2.956   2.662
    1C        C  276   4.476   3.147   2.780
    1C        C  277   4.451   3.081   2.903
    1C        C  278   4.503   3.286   3.024
    1C        C  279   4.469   3.149   3.025
    1C        C  280   4.511   3.361   3.144
    1C        C  281   4.497   3.297   3.269
    1C        C  282   4.509   3.510   3.390
    1C        C  283   4.504   3.369   3.390
    1C        C  284   4.509   3.582   3.512
    1C        C  285   4.507   3.512   3.635
    1C        C  286   4.487   3.724   3.753
    1C        C  287   4.512   3.585   3.756
    1C        C  288   4.469   3.794   3.874
    1C        C  289   4.483   3.726   3.997
    1C        C  290   4.420   3.931   4.114
    1C        C  291   4.471   3.799   4.117
    1C        C  292   4.387   3.994   4.236
    1C        C  293   4.426   3.935   4.358
    1C        C  294   4.325   4.124   4.479
    1C        C  295   4.397   4.002   4.480
    1C        C  296   4.286   4.190   4.597
    1C        C  297   4.329   4.135   4.719
    1C        C  298   4.204   4.312   4.836
    1C        C  299   4.289   4.197   4.841
    1C        C  300   4.171   4.398   4.945
    1C        C  301   4.351   2.882   2.063
    1C        C  302   4.475   3.065   2.177
    1C        C  303   4.396   2.945   2.179
    1C        C  304   4.485   3.139   2.298
    1C        C  305   4.453   3.073   2.418
    1C        C  306   4.506   3.282   2.535
    1C        C  307   4.479   3.144   2.538
    1C        C  308   4.518   3.353   2.657
    1C        C  309   4.504   3.286   2.780
    1C        C  310   4.515   3.498   2.899
    1C        C  311   4.515   3.356   2.902
    1C        C  312   4.513   3.570   3.020
    1C        C  313   4.516   3.502   3.144
    1C        C  314   4.484   3.714   3.264
    1C        C  315   4.510   3.575   3.265
    1C        C  316   4.465   3.786   3.385
    1C        C  317   4.484   3.721   3.509
    1C        C  318   4.421   3.924   3.626
    1C        C  319   4.469   3.791   3.630
    1C        C  320   4.390   3.989   3.748
    1C        C  321   4.419   3.927   3.871
    1C        C  322   4.318   4.115   3.991
    1C        C  323   4.391   3.994   3.992
    1C        C  324   4.284   4.180   4.112
    1C        C  325   4.322   4.120   4.234
    1C        C  326   4.188   4.285   4.353
    1C        C  327   4.282   4.179   4.356
    1C        C  328   4.138   4.339   4.474
    1C        C  329   4.192   4.296   4.597
    1C        C  330   4.023   4.432   4.714
    1C        C  331   4.143   4.355   4.715
    1C        C  332   3.970   4.483   4.834
    1C        C  333   4.054   4.476   4.946
    1C        C  334   4.553   3.266   2.061
    1C        C  335   4.535   3.127   2.063
    1C        C  336   4.539   3.349   2.173
    1C        C  337   4.515   3.278   2.293
    1C        C  338   4.526   3.493   2.414
    1C        C  339   4.520   3.352   2.413
    1C        C  340   4.524   3.566   2.535
    1C        C  341   4.523   3.495   2.657
    1C        C  342   4.487   3.707   2.773
    1C        C  343   4.515   3.569   2.777
    1C        C  344   4.473   3.776   2.896
    1C        C  345   4.489   3.709   3.019
    1C        C  346   4.416   3.910   3.137
    1C        C  347   4.465   3.778   3.140
    1C        C  348   4.387   3.980   3.257
    1C        C  349   4.417   3.919   3.380
    1C        C  350   4.317   4.106   3.501
    1C        C  351   4.390   3.985   3.502
    1C        C  352   4.275   4.167   3.621
    1C        C  353   4.316   4.109   3.744
    1C        C  354   4.181   4.271   3.867
    1C        C  355   4.273   4.164   3.867
    1C        C  356   4.132   4.328   3.987
    1C        C  357   4.187   4.283   4.109
    1C        C  358   4.019   4.413   4.228
    1C        C  359   4.133   4.331   4.231
    1C        C  360   3.958   4.449   4.351
    1C        C  361   4.024   4.422   4.473
    1C        C  362   3.829   4.516   4.594
    1C        C  363   3.959   4.462   4.592
    1C        C  364   3.763   4.546   4.715
    1C        C  365   3.840   4.538   4.833
    1C        C  366   3.629   4.586   4.951
    1C        C  367   3.766   4.564   4.949
    1C        C  368   4.510   3.561   2.053
    1C        C  369   4.524   3.489   2.172
    1C        C  370   4.498   3.704   2.287
    1C        C  371   4.520   3.564   2.292
    1C        C  372   4.482   3.774   2.408
    1C        C  373   4.500   3.705   2.530
    1C        C  374   4.425   3.907   2.650
    1C        C  375   4.475   3.775   2.650
    1C        C  376   4.390   3.971   2.771
    1C        C  377   4.428   3.910   2.893
    1C        C  378   4.317   4.093   3.012
    1C        C  379   4.395   3.976   3.014
    1C        C  380   4.268   4.152   3.131
    1C        C  381   4.311   4.099   3.254
    1C        C  382   4.175   4.260   3.377
    1C        C  383   4.273   4.159   3.377
    1C        C  384   4.125   4.313   3.498
    1C        C  385   4.178   4.269   3.622
    1C        C  386   4.011   4.398   3.742
    1C        C  387   4.124   4.313   3.745
    1C        C  388   3.951   4.440   3.862
    1C        C  389   4.013   4.404   3.984
    1C        C  390   3.820   4.489   4.109
    1C        C  391   3.953   4.442   4.106
    1C        C  392   3.753   4.517   4.231
    1C        C  393   3.825   4.498   4.351
    1C        C  394   3.619   4.548   4.474
    1C        C  395   3.758   4.525   4.472
    1C        C  396   3.547   4.557   4.596
    1C        C  397   3.622   4.562   4.715
    1C        C  398   3.412   4.546   4.838
    1C        C  399   3.551   4.571   4.836
    1C        C  400   3.342   4.511   4.955
    1C        C  401   4.501   3.700   2.051
    1C        C  402   4.448   3.913   2.167
    1C        C  403   4.483   3.777   2.167
    1C        C  404   4.416   3.979   2.287
    1C        C  405   4.440   3.909   2.408
    1C        C  406   4.324   4.092   2.527
    1C        C  407   4.402   3.973   2.528
    1C        C  408   4.279   4.149   2.647
    1C        C  409   4.316   4.092   2.771
    1C        C  410   4.175   4.254   2.888
    1C        C  411   4.273   4.152   2.891
    1C        C  412   4.121   4.301   3.010
    1C        C  413   4.174   4.257   3.133
    1C        C  414   4.008   4.390   3.252
    1C        C  415   4.124   4.309   3.255
    1C        C  416   3.946   4.423   3.375
    1C        C  417   4.007   4.391   3.498
    1C        C  418   3.814   4.479   3.620
    1C        C  419   3.946   4.428   3.620
    1C        C  420   3.750   4.505   3.743
    1C        C  421   3.820   4.494   3.865
    1C        C  422   3.613   4.537   3.988
    1C        C  423   3.752   4.513   3.988
    1C        C  424   3.543   4.542   4.110
    1C        C  425   3.614   4.542   4.233
    1C        C  426   3.403   4.544   4.355
    1C        C  427   3.544   4.553   4.355
    1C        C  428   3.333   4.540   4.478
    1C        C  429   3.406   4.551   4.598
    1C        C  430   3.195   4.515   4.723
    1C        C  431   3.335   4.543   4.720
    1C        C  432   3.127   4.483   4.843
    1C        C  433   3.205   4.490   4.959
    1C        C  434   4.386   4.123   2.050
    1C        C  435   4.451   3.999   2.056
    1C        C  436   4.306   4.161   2.162
    1C        C  437   4.337   4.097   2.285
    1C        C  438   4.188   4.255   2.402
    1C        C  439   4.282   4.149   2.405
    1C        C  440   4.128   4.298   2.522
    1C        C  441   4.177   4.248   2.644
    1C        C  442   4.008   4.380   2.764
    1C        C  443   4.124   4.298   2.764
    1C        C  444   3.947   4.420   2.885
    1C        C  445   4.005   4.382   3.008
    1C        C  446   3.814   4.473   3.131
    1C        C  447   3.946   4.422   3.130
    1C        C  448   3.749   4.495   3.255
    1C        C  449   3.819   4.484   3.377
    1C        C  450   3.609   4.526   3.497
    1C        C  451   3.749   4.507   3.498
    1C        C  452   3.541   4.538   3.620
    1C        C  453   3.612   4.531   3.742
    1C        C  454   3.402   4.540   3.865
    1C        C  455   3.543   4.542   3.865
    1C        C  456   3.334   4.524   3.987
    1C        C  457   3.402   4.533   4.111
    1C        C  458   3.196   4.495   4.237
    1C        C  459   3.333   4.527   4.234
    1C        C  460   3.127   4.484   4.360
    1C        C  461   3.195   4.507   4.481
    1C        C  462   2.997   4.432   4.602
    1C        C  463   3.125   4.492   4.603
    1C        C  464   2.931   4.399   4.723
    1C        C  465   2.990   4.441   4.845
    1C        C  466   2.800   4.338   4.957
    1C        C  467   2.906   4.430   4.960
    1C        C  468   4.124   4.286   2.044
    1C        C  469   4.190   4.246   2.161
    1C        C  470   4.010   4.371   2.280
    1C        C  471   4.131   4.296   2.280
    1C        C  472   3.945   4.406   2.400
    1C        C  473   4.009   4.375   2.522
    1C        C  474   3.814   4.467   2.646
    1C        C  475   3.943   4.410   2.642
    1C        C  476   3.747   4.495   2.767
    1C        C  477   3.817   4.476   2.888
    1C        C  478   3.607   4.518   3.010
    1C        C  479   3.746   4.493   3.009
    1C        C  480   3.537   4.527   3.133
    1C        C  481   3.610   4.516   3.254
    1C        C  482   3.397   4.533   3.376
    1C        C  483   3.538   4.530   3.375
    1C        C  484   3.328   4.530   3.500
    1C        C  485   3.399   4.542   3.621
    1C        C  486   3.193   4.496   3.746
    1C        C  487   3.330   4.531   3.744
    1C        C  488   3.127   4.475   3.870
    1C        C  489   3.198   4.488   3.991
    1C        C  490   3.002   4.410   4.115
    1C        C  491   3.132   4.466   4.115
    1C        C  492   2.945   4.377   4.239
    1C        C  493   2.998   4.424   4.361
    1C        C  494   2.828   4.297   4.484
    1C        C  495   2.935   4.389   4.483
    1C        C  496   2.774   4.252   4.606
    1C        C  497   2.817   4.314   4.726
    1C        C  498   2.658   4.167   4.844
    1C        C  499   2.749   4.275   4.843
    1C        C  500   2.589   4.118   4.956
    1C        C  501   4.002   4.354   2.040
    1C        C  502   3.820   4.466   2.158
    1C        C  503   3.946   4.404   2.159
    1C        C  504   3.746   4.480   2.277
    1C        C  505   3.814   4.459   2.399
    1C        C  506   3.609   4.508   2.521
    1C        C  507   3.749   4.485   2.522
    1C        C  508   3.539   4.522   2.643
    1C        C  509   3.608   4.518   2.766
    1C        C  510   3.395   4.526   2.888
    1C        C  511   3.537   4.524   2.888
    1C        C  512   3.323   4.521   3.009
    1C        C  513   3.396   4.529   3.130
    1C        C  514   3.190   4.489   3.256
    1C        C  515   3.327   4.524   3.254
    1C        C  516   3.125   4.463   3.378
    1C        C  517   3.192   4.492   3.499
    1C        C  518   3.003   4.404   3.626
    1C        C  519   3.128   4.471   3.624
    1C        C  520   2.943   4.368   3.749
    1C        C  521   3.002   4.409   3.870
    1C        C  522   2.837   4.277   3.995
    1C        C  523   2.944   4.370   3.993
    1C        C  524   2.788   4.232   4.120
    1C        C  525   2.836   4.286   4.241
    1C        C  526   2.691   4.133   4.364
    1C        C  527   2.780   4.243   4.363
    1C        C  528   2.651   4.076   4.487
    1C        C  529   2.686   4.141   4.607
    1C        C  530   2.578   3.960   4.733
    1C        C  531   2.636   4.089   4.728
    1C        C  532   2.536   3.901   4.855
    1C        C  533   2.527   3.993   4.965
    1C        C  534   3.618   4.555   2.042
    1C        C  535   3.750   4.510   2.044
    1C        C  536   3.536   4.534   2.157
    1C        C  537   3.607   4.509   2.278
    1C        C  538   3.395   4.508   2.399
    1C        C  539   3.536   4.509   2.400
    1C        C  540   3.325   4.508   2.522
    1C        C  541   3.398   4.518   2.643
    1C        C  542   3.189   4.482   2.766
    1C        C  543   3.328   4.511   2.765
    1C        C  544   3.119   4.462   2.887
    1C        C  545   3.186   4.487   3.009
    1C        C  546   3.000   4.396   3.134
    1C        C  547   3.124   4.464   3.133
    1C        C  548   2.944   4.358   3.258
    1C        C  549   3.001   4.396   3.382
    1C        C  550   2.828   4.280   3.502
    1C        C  551   2.941   4.364   3.506
    1C        C  552   2.781   4.230   3.626
    1C        C  553   2.833   4.279   3.748
    1C        C  554   2.703   4.116   3.877
    1C        C  555   2.792   4.225   3.872
    1C        C  556   2.660   4.060   3.999
    1C        C  557   2.696   4.124   4.119
    1C        C  558   2.598   3.940   4.247
    1C        C  559   2.655   4.069   4.243
    1C        C  560   2.571   3.876   4.370
    1C        C  561   2.590   3.949   4.489
    1C        C  562   2.518   3.753   4.618
    1C        C  563   2.558   3.888   4.613
    1C        C  564   2.510   3.682   4.740
    1C        C  565   2.521   3.759   4.859
    1C        C  566   2.526   3.543   4.977
    1C        C  567   2.530   3.682   4.976
    1C        C  568   3.326   4.478   2.039
    1C        C  569   3.395   4.514   2.156
    1C        C  570   3.184   4.475   2.282
    1C        C  571   3.322   4.506   2.278
    1C        C  572   3.118   4.455   2.405
    1C        C  573   3.187   4.480   2.525
    1C        C  574   2.991   4.396   2.648
    1C        C  575   3.116   4.462   2.647
    1C        C  576   2.933   4.355   2.770
    1C        C  577   2.997   4.392   2.890
    1C        C  578   2.826   4.271   3.017
    1C        C  579   2.936   4.361   3.014
    1C        C  580   2.778   4.220   3.139
    1C        C  581   2.832   4.272   3.259
    1C        C  582   2.691   4.115   3.384
    1C        C  583   2.778   4.226   3.381
    1C        C  584   2.653   4.058   3.508
    1C        C  585   2.698   4.116   3.629
    1C        C  586   2.594   3.936   3.754
    1C        C  587   2.660   4.061   3.753
    1C        C  588   2.568   3.871   3.877
    1C        C  589   2.594   3.935   4.000
    1C        C  590   2.532   3.738   4.128
    1C        C  591   2.569   3.874   4.125
    1C        C  592   2.521   3.671   4.252
    1C        C  593   2.528   3.742   4.374
    1C        C  594   2.509   3.536   4.499
    1C        C  595   2.514   3.677   4.499
    1C        C  596   2.516   3.465   4.621
    1C        C  597   2.516   3.539   4.741
    1C        C  598   2.532   3.324   4.863
    1C        C  599   2.526   3.465   4.861
    1C        C  600   2.534   3.250   4.981
    1C        C  601   3.193   4.440   2.042
    1C        C  602   2.982   4.395   2.160
    1C        C  603   3.119   4.439   2.160
    1C        C  604   2.924   4.360   2.285
    1C        C  605   2.989   4.398   2.405
    1C        C  606   2.820   4.270   2.530
    1C        C  607   2.927   4.362   2.527
    1C        C  608   2.771   4.218   2.652
    1C        C  609   2.819   4.271   2.774
    1C        C  610   2.683   4.111   2.895
    1C        C  611   2.772   4.221   2.897
    1C        C  612   2.644   4.055   3.019
    1C        C  613   2.688   4.111   3.141
    1C        C  614   2.583   3.929   3.263
    1C        C  615   2.649   4.054   3.264
    1C        C  616   2.560   3.866   3.388
    1C        C  617   2.590   3.931   3.509
    1C        C  618   2.519   3.736   3.638
    1C        C  619   2.563   3.870   3.634
    1C        C  620   2.513   3.664   3.760
    1C        C  621   2.529   3.735   3.881
    1C        C  622   2.508   3.528   4.008
    1C        C  623   2.520   3.669   4.005
    1C        C  624   2.509   3.459   4.131
    1C        C  625   2.512   3.530   4.254
    1C        C  626   2.540   3.324   4.380
    1C        C  627   2.514   3.463   4.378
    1C        C  628   2.558   3.255   4.501
    1C        C  629   2.535   3.325   4.622
    1C        C  630   2.599   3.119   4.740
    1C        C  631   2.551   3.253   4.742
    1C        C  632   2.620   3.052   4.864
    1C        C  633   2.566   3.113   4.982
    1C        C  634   2.780   4.303   2.053
    1C        C  635   2.891   4.387   2.050
    1C        C  636   2.748   4.229   2.168
    1C        C  637   2.813   4.272   2.286
    1C        C  638   2.677   4.110   2.411
    1C        C  639   2.765   4.221   2.409
    1C        C  640   2.640   4.047   2.531
    1C        C  641   2.682   4.109   2.651
    1C        C  642   2.576   3.927   2.776
    1C        C  643   2.642   4.052   2.774
    1C        C  644   2.555   3.859   2.898
    1C        C  645   2.584   3.927   3.019
    1C        C  646   2.524   3.725   3.148
    1C        C  647   2.557   3.862   3.141
    1C        C  648   2.511   3.657   3.271
    1C        C  649   2.522   3.730   3.391
    1C        C  650   2.501   3.524   3.517
    1C        C  651   2.507   3.665   3.516
    1C        C  652   2.507   3.454   3.640
    1C        C  653   2.506   3.523   3.763
    1C        C  654   2.532   3.316   3.887
    1C        C  655   2.509   3.455   3.887
    1C        C  656   2.552   3.251   4.011
    1C        C  657   2.535   3.320   4.133
    1C        C  658   2.605   3.124   4.256
    1C        C  659   2.551   3.255   4.257
    1C        C  660   2.642   3.061   4.377
    1C        C  661   2.607   3.122   4.499
    1C        C  662   2.711   2.936   4.626
    1C        C  663   2.633   3.054   4.620
    1C        C  664   2.753   2.878   4.747
    1C        C  665   2.698   2.933   4.867
    1C        C  666   2.743   2.869   4.984
    1C        C  667   2.681   4.026   2.054
    1C        C  668   2.680   4.105   2.170
    1C        C  669   2.583   3.915   2.292
    1C        C  670   2.639   4.046   2.291
    1C        C  671   2.553   3.849   2.413
    1C        C  672   2.577   3.920   2.532
    1C        C  673   2.515   3.720   2.659
    1C        C  674   2.552   3.856   2.656
    1C        C  675   2.504   3.650   2.782
    1C        C  676   2.516   3.723   2.902
    1C        C  677   2.500   3.514   3.029
    1C        C  678   2.507   3.655   3.026
    1C        C  679   2.505   3.444   3.151
    1C        C  680   2.502   3.516   3.272
    1C        C  681   2.530   3.310   3.401
    1C        C  682   2.507   3.450   3.397
    1C        C  683   2.554   3.244   3.523
    1C        C  684   2.537   3.316   3.643
    1C        C  685   2.599   3.114   3.769
    1C        C  686   2.549   3.246   3.766
    1C        C  687   2.637   3.055   3.892
    1C        C  688   2.604   3.120   4.014
    1C        C  689   2.722   2.943   4.139
    1C        C  690   2.640   3.059   4.136
    1C        C  691   2.760   2.883   4.261
    1C        C  692   2.719   2.943   4.382
    1C        C  693   2.757   2.882   4.503
    1C        C  694   2.629   3.896   2.058
    1C        C  695   2.528   3.705   2.175
    1C        C  696   2.575   3.838   2.174
    1C        C  697   2.507   3.638   2.297
    1C        C  698   2.516   3.712   2.417
    1C        C  699   2.487   3.505   2.540
    1C        C  700   2.498   3.646   2.540
    1C        C  701   2.498   3.437   2.664
    1C        C  702   2.499   3.509   2.785
    1C        C  703   2.522   3.300   2.912
    1C        C  704   2.503   3.440   2.908
    1C        C  705   2.541   3.233   3.034
    1C        C  706   2.532   3.305   3.155
    1C        C  707   2.601   3.108   3.280
    1C        C  708   2.551   3.240   3.280
    1C        C  709   2.634   3.046   3.402
    1C        C  710   2.608   3.113   3.524
    1C        C  711   2.716   2.936   3.648
    1C        C  712   2.635   3.052   3.648
    1C        C  713   2.762   2.883   3.771
    1C        C  714   2.716   2.938   3.893
    1C        C  715   2.760   2.885   4.016
    1C        C  716   2.450   3.502   2.062
    1C        C  717   2.494   3.635   2.058
    1C        C  718   2.469   3.424   2.181
    1C        C  719   2.487   3.498   2.301
    1C        C  720   2.510   3.288   2.423
    1C        C  721   2.483   3.426   2.423
    1C        C  722   2.537   3.224   2.546
    1C        C  723   2.525   3.299   2.665
    1C        C  724   2.594   3.101   2.791
    1C        C  725   2.541   3.232   2.789
    1C        C  726   2.623   3.037   2.913
    1C        C  727   2.597   3.103   3.035
    1C        C  728   2.713   2.927   3.160
    1C        C  729   2.634   3.044   3.158
    1C        C  730   2.756   2.872   3.282
    1C        C  731   2.711   2.928   3.404
    1C        C  732   2.760   2.878   3.527
    1C        C  733   2.496   3.198   2.073
    1C        C  734   2.492   3.283   2.184
    1C        C  735   2.581   3.084   2.307
    1C        C  736   2.519   3.212   2.304
    1C        C  737   2.620   3.022   2.428
    1C        C  738   2.592   3.094   2.546
    1C        C  739   2.699   2.915   2.670
    1C        C  740   2.623   3.034   2.670
    1C        C  741   2.746   2.862   2.793
    1C        C  742   2.703   2.920   2.914
    1C        C  743   2.751   2.869   3.036
    1C        C  744   2.549   3.069   2.071
    1C        C  745   2.689   2.900   2.184
    1C        C  746   2.608   3.015   2.186
    1C        C  747   2.735   2.844   2.305
    1C        C  748   2.691   2.900   2.427
    1C        C  749   2.735   2.848   2.551
    1C        C  750   2.747   2.846   2.068
    1C        C  751   3.664   2.338   1.959
    1C        O  752   3.687   2.214   1.966
    1C        O  753   3.627   2.369   1.827
    1C        C  754   4.628   3.055   1.974
    1C        O  755   4.615   3.056   1.848
    1C        O  756   4.752   3.009   2.022
    1C        C  757   4.441   4.220   1.952
    1C        O  758   4.540   4.294   1.977
    1C        O  759   4.427   4.201   1.814
    1C        C  760   3.586   4.671   1.956
    1C        O  761   3.663   4.770   1.944
    1C        O  762   3.544   4.645   1.825
    1C        C  763   2.876   4.480   1.935
    1C        O  764   2.880   4.442   1.815
    1C        O  765   2.824   4.609   1.950
    1C        C  766   2.342   3.477   1.964
    1C        O  767   2.372   3.433   1.849
    1C        O  768   2.217   3.539   1.975
    1C        C  769   4.699   3.591   5.047
    1C        O  770   4.688   3.512   5.145
    1C        O  771   4.794   3.690   5.072
    1C        C  772   4.265   4.431   5.055
    1C        O  773   4.249   4.391   5.173
    1C        O  774   4.336   4.551   5.044
    1C        C  775   4.155   2.515   5.065
    1C        O  776   4.233   2.422   5.031
    1C        O  777   4.152   2.538   5.203
    1C        C  778   2.870   4.550   5.039
    1C        O  779   2.814   4.650   4.987
    1C        O  780   2.934   4.572   5.162
    1C        C  781   2.474   3.038   5.070
    1C        O  782   2.383   2.961   5.028
    1C        O  783   2.451   3.066   5.204
    1C        C  784   2.406   3.996   5.049
    1C        O  785   2.294   4.024   4.998
    1C        O  786   2.400   3.921   5.167
    1C        C  787   2.945   2.429   1.996
    1C        O  788   2.969   2.420   1.873
    1C        O  789   2.863   2.334   2.056
    1C        C  790   3.175   2.375   5.071
    1C        O  791   3.142   2.258   5.040
    1C        O  792   3.243   2.390   5.193
    1C        H  793   4.327   2.990   5.073
    1C        H  794   4.171   2.811   5.073
    1C        H  795   4.525   3.127   5.049
    1C        H  796   4.529   3.367   5.070
    1C        H  797   4.596   3.818   5.025
    1C        H  798   4.451   3.997   5.050
    1C        H  799   4.275   4.158   5.052
    1C        H  800   4.065   4.568   4.999
    1C        H  801   3.819   4.613   5.028
    1C        H  802   3.589   4.658   5.020
    1C        H  803   3.397   4.476   5.040
    1C        H  804   3.151   4.529   5.043
    1C        H  805   3.897   2.484   5.065
    1C        H  806   3.676   2.523   5.072
    1C        H  807   2.987   2.517   5.045
    1C        H  808   3.443   2.475   5.076
    1C        H  809   2.879   2.740   5.079
    1C        H  810   2.750   2.931   5.070
    1C        H  811   2.491   3.285   5.073
    1C        H  812   2.481   3.498   5.063
    1C        H  813   2.533   3.733   5.070
    1C        H  814   2.565   4.188   5.034
    1C        H  815   2.779   4.296   5.053
    1C        H  816   2.748   2.899   1.975
    1C        H  817   2.823   2.675   1.976
    1C        H  818   3.207   2.431   1.989
    1C        H  819   3.423   2.404   1.987
    1C        H  820   3.861   2.499   1.970
    1C        H  821   4.045   2.642   1.966
    1C        H  822   4.267   2.709   1.981
    1C        H  823   4.368   2.933   1.971
    1C        H  824   4.560   3.312   1.964
    1C        H  825   4.480   3.511   1.963
    1C        H  826   4.531   3.746   1.959
    1C        H  827   3.794   4.507   1.946
    1C        H  828   3.931   4.320   1.968
    1C        H  829   4.191   4.298   1.962
    1C        H  830   4.519   3.974   1.977
    1C        H  831   2.639   3.840   1.967
    1C        H  832   2.697   4.070   1.958
    1C        H  833   2.701   4.311   1.981
    1C        H  834   3.349   4.541   1.956
    1C        H  835   3.147   4.407   1.951
    1C        H  836   2.492   3.003   2.009
    1C        H  837   2.484   3.238   1.975
    1C        H  838   2.529   3.669   1.963
    2V3OU   H29  839   2.804   3.552   5.403
    2V3OU   C27  840   2.783   3.499   5.499
    2V3OU   H27  841   2.730   3.570   5.568
    2V3OU   H28  842   2.723   3.405   5.491
    2V3OU   O11  843   2.909   3.473   5.562
    2V3OU   C15  844   2.921   3.401   5.679
    2V3OU   C13  845   3.052   3.373   5.724
    2V3OU   C14  846   3.076   3.266   5.811
    2V3OU   C16  847   2.970   3.187   5.852
    2V3OU    H6  848   2.990   3.103   5.920
    2V3OU   C12  849   3.210   3.227   5.860
    2V3OU    O2  850   3.237   3.127   5.930
    2V3OU   C10  851   3.325   3.309   5.817
    2V3OU    C8  852   3.457   3.274   5.845
    2V3OU   O10  853   3.490   3.160   5.911
    2V3OU   H26  854   3.404   3.119   5.929
    2V3OU    C6  855   3.565   3.352   5.794
    2V3OU    C5  856   3.535   3.468   5.724
    2V3OU    C4  857   3.702   3.293   5.790
    2V3OU    H4  858   3.720   3.231   5.882
    2V3OU    H5  859   3.705   3.226   5.700
    2V3OU    C2  860   3.816   3.396   5.785
    2V3OU    O6  861   3.800   3.477   5.902
    2V3OU   H21  862   3.765   3.562   5.871
    2V3OU    C3  863   3.779   3.489   5.669
    2V3OU    H2  864   3.859   3.566   5.658
    2V3OU    H3  865   3.777   3.432   5.573
    2V3OU   C25  866   3.951   3.325   5.776
    2V3OU    O7  867   3.995   3.295   5.665
    2V3OU   C26  868   4.028   3.290   5.903
    2V3OU   H22  869   4.070   3.382   5.951
    2V3OU   H23  870   4.115   3.225   5.877
    2V3OU    O8  871   3.960   3.211   5.997
    2V3OU   H24  872   3.929   3.271   6.067
    2V3OU    C1  873   3.647   3.561   5.689
    2V3OU    H1  874   3.625   3.620   5.595
    2V3OU    O3  875   3.660   3.656   5.795
    2V3OU   C19  876   3.617   3.791   5.776
    2V3OU    H9  877   3.525   3.798   5.710
    2V3OU    O4  878   3.715   3.841   5.688
    2V3OU   C20  879   3.846   3.876   5.734
    2V3OU   H10  880   3.891   3.773   5.739
    2V3OU   C24  881   3.608   3.858   5.913
    2V3OU   H16  882   3.547   3.791   5.979
    2V3OU   H17  883   3.560   3.957   5.892
    2V3OU   C23  884   3.750   3.872   5.969
    2V3OU   H15  885   3.793   3.768   5.983
    2V3OU    N1  886   3.739   3.953   6.088
    2V3OU   H19  887   3.812   3.922   6.150
    2V3OU   H20  888   3.652   3.937   6.135
    2V3OU   C21  889   3.844   3.947   5.869
    2V3OU   H11  890   3.952   3.935   5.897
    2V3OU    O5  891   3.821   4.087   5.862
    2V3OU   H18  892   3.773   4.106   5.945
    2V3OU   C22  893   3.916   3.948   5.620
    2V3OU   H12  894   3.863   4.043   5.596
    2V3OU   H13  895   3.907   3.888   5.525
    2V3OU   H14  896   4.024   3.965   5.645
    2V3OU   C11  897   3.159   3.472   5.706
    2V3OU    O1  898   3.137   3.590   5.670
    2V3OU    C9  899   3.294   3.426   5.743
    2V3OU    C7  900   3.399   3.507   5.701
    2V3OU    O9  901   3.385   3.613   5.614
    2V3OU   H25  902   3.289   3.629   5.617
    2V3OU   C17  903   2.816   3.320   5.726
    2V3OU    H7  904   2.712   3.343   5.700
    2V3OU   C18  905   2.840   3.213   5.811
    2V3OU    H8  906   2.759   3.150   5.853
    3SOL     OW  907   3.693   3.032   3.743
    3SOL    HW1  908   3.638   2.950   3.726
    3SOL    HW2  909   3.633   3.110   3.757
    4SOL     OW  910   6.580   6.200   0.637
    4SOL    HW1  911   6.582   6.295   0.605
    4SOL    HW2  912   6.502   6.153   0.596
    5SOL     OW  913   5.291   1.632   0.726
    5SOL    HW1  914   5.295   1.590   0.636
    5SOL    HW2  915   5.327   1.569   0.794
    6SOL     OW  916   5.286   1.287   2.728
    6SOL    HW1  917   5.289   1.297   2.629
    6SOL    HW2  918   5.197   1.250   2.755
    7SOL     OW  919   2.015   4.151   4.038
    7SOL    HW1  920   2.101   4.111   4.007
    7SOL    HW2  921   2.023   4.179   4.134
    8SOL     OW  922   0.832   3.352   4.704
    8SOL    HW1  923   0.826   3.257   4.672
    8SOL    HW2  924   0.783   3.411   4.640
    9SOL     OW  925   7.020   0.793   6.751
    9SOL    HW1  926   6.968   0.708   6.746
    9SOL    HW2  927   6.958   0.871   6.744
   10SOL     OW  928   5.296   4.724   1.848
   10SOL    HW1  929   5.316   4.811   1.804
   10SOL    HW2  930   5.382   4.679   1.873
   11SOL     OW  931   2.061   2.371   0.253
   11SOL    HW1  932   2.032   2.275   0.252
   11SOL    HW2  933   1.989   2.427   0.293
   12SOL     OW  934   3.948   5.258   2.594
   12SOL    HW1  935   3.923   5.336   2.652
   12SOL    HW2  936   4.025   5.209   2.636
   13SOL     OW  937   6.018   6.148   1.520
   13SOL    HW1  938   5.926   6.185   1.514
   13SOL    HW2  939   6.019   6.071   1.584
   14SOL     OW  940   4.460   6.524   5.691
   14SOL    HW1  941   4.509   6.449   5.647
   14SOL    HW2  942   4.361   6.514   5.674
   15SOL     OW  943   0.999   6.367   5.767
   15SOL    HW1  944   0.978   6.407   5.856
   15SOL    HW2  945   1.046   6.279   5.780
   16SOL     OW  946   2.169   4.601   4.757
   16SOL    HW1  947   2.095   4.621   4.822
   16SOL    HW2  948   2.238   4.673   4.764
   17SOL     OW  949   6.157   1.071   5.437
   17SOL    HW1  950   6.148   0.975   5.411
   17SOL    HW2  951   6.161   1.077   5.537
   18SOL     OW  952   3.106   1.461   5.886
   18SOL    HW1  953   3.061   1.514   5.814
   18SOL    HW2  954   3.204   1.476   5.882
   19SOL     OW  955   2.779   6.645   2.860
   19SOL    HW1  956   2.847   6.604   2.920
   19SOL    HW2  957   2.719   6.705   2.914
   20SOL     OW  958   6.326   1.462   5.178
   20SOL    HW1  959   6.281   1.373   5.193
   20SOL    HW2  960   6.320   1.487   5.082
   21SOL     OW  961   2.450   4.359   2.472
   21SOL    HW1  962   2.419   4.270   2.439
   21SOL    HW2  963   2.444   4.425   2.397
   22SOL     OW  964   1.343   0.569   6.658
   22SOL    HW1  965   1.266   0.526   6.611
   22SOL    HW2  966   1.318   0.663   6.684
   23SOL     OW  967   5.291   4.773   1.460
   23SOL    HW1  968   5.220   4.719   1.506
   23SOL    HW2  969   5.290   4.752   1.362
   24SOL     OW  970   4.396   1.540   0.709
   24SOL    HW1  971   4.341   1.588   0.641
   24SOL    HW2  972   4.489   1.577   0.710
   25SOL     OW  973   2.283   0.484   4.496
   25SOL    HW1  974   2.230   0.506   4.578
   25SOL    HW2  975   2.247   0.534   4.418
   26SOL     OW  976   0.467   2.356   6.419
   26SOL    HW1  977   0.468   2.307   6.332
   26SOL    HW2  978   0.494   2.294   6.492
   27SOL     OW  979   6.570   0.723   2.305
   27SOL    HW1  980   6.514   0.666   2.244
   27SOL    HW2  981   6.595   0.671   2.386
   28SOL     OW  982   2.284   0.562   5.012
   28SOL    HW1  983   2.332   0.475   5.016
   28SOL    HW2  984   2.241   0.581   5.101
   29SOL     OW  985   0.097   6.773   1.123
   29SOL    HW1  986   0.153   6.856   1.122
   29SOL    HW2  987   0.155   6.693   1.131
   30SOL     OW  988   4.819   0.374   5.317
   30SOL    HW1  989   4.741   0.332   5.270
   30SOL    HW2  990   4.880   0.302   5.350
   31SOL     OW  991   0.613   3.600   5.261
   31SOL    HW1  992   0.560   3.528   5.215
   31SOL    HW2  993   0.550   3.665   5.305
   32SOL     OW  994   4.026   0.532   1.107
   32SOL    HW1  995   3.935   0.547   1.067
   32SOL    HW2  996   4.080   0.616   1.098
   33SOL     OW  997   2.049   5.593   6.148
   33SOL    HW1  998   2.008   5.596   6.240
   33SOL    HW2  999   1.976   5.597   6.080
   34SOL     OW 1000   3.292   5.566   5.255
   34SOL    HW1 1001   3.375   5.609   5.218
   34SOL    HW2 1002   3.280   5.476   5.213
   35SOL     OW 1003   1.807   3.515   6.879
   35SOL    HW1 1004   1.799   3.461   6.963
   35SOL    HW2 1005   1.810   3.612   6.902
   36SOL     OW 1006   4.033   1.338   3.333
   36SOL    HW1 1007   4.025   1.243   3.365
   36SOL    HW2 1008   3.978   1.397   3.392
   37SOL     OW 1009   2.385   0.116   3.856
   37SOL    HW1 1010   2.435   0.100   3.771
   37SOL    HW2 1011   2.393   0.034   3.914
   38SOL     OW 1012   1.139   3.659   2.902
   38SOL    HW1 1013   1.197   3.733   2.937
   38SOL    HW2 1014   1.196   3.595   2.850
   39SOL     OW 1015   6.486   3.931   1.198
   39SOL    HW1 1016   6.568   3.970   1.155
   39SOL    HW2 1017   6.514   3.868   1.271
   40SOL     OW 1018   4.586   1.914   0.803
   40SOL    HW1 1019   4.512   1.895   0.739
   40SOL    HW2 1020   4.559   1.991   0.862
   41SOL     OW 1021   4.893   4.405   1.460
   41SOL    HW1 1022   4.819   4.350   1.421
   41SOL    HW2 1023   4.922   4.364   1.547
   42SOL     OW 1024   2.341   4.598   6.688
   42SOL    HW1 1025   2.372   4.668   6.624
   42SOL    HW2 1026   2.365   4.625   6.781
   43SOL     OW 1027   4.570   0.281   4.892
   43SOL    HW1 1028   4.576   0.189   4.852
   43SOL    HW2 1029   4.592   0.276   4.989
   44SOL     OW 1030   6.321   0.877   5.822
   44SOL    HW1 1031   6.295   0.848   5.730
   44SOL    HW2 1032   6.374   0.805   5.866
   45SOL     OW 1033   2.116   4.551   5.892
   45SOL    HW1 1034   2.017   4.564   5.888
   45SOL    HW2 1035   2.156   4.618   5.955
   46SOL     OW 1036   1.415   3.529   4.786
   46SOL    HW1 1037   1.379   3.541   4.693
   46SOL    HW2 1038   1.514   3.543   4.785
   47SOL     OW 1039   5.957   3.936   0.515
   47SOL    HW1 1040   5.973   3.872   0.440
   47SOL    HW2 1041   6.043   3.953   0.564
   48SOL     OW 1042   6.334   3.711   0.269
   48SOL    HW1 1043   6.261   3.667   0.322
   48SOL    HW2 1044   6.422   3.669   0.291
   49SOL     OW 1045   2.887   3.762   6.986
   49SOL    HW1 1046   2.914   3.767   0.059
   49SOL    HW2 1047   2.806   3.705   6.976
   50SOL     OW 1048   5.770   2.185   0.510
   50SOL    HW1 1049   5.788   2.245   0.432
   50SOL    HW2 1050   5.678   2.146   0.501
   51SOL     OW 1051   1.196   5.439   2.404
   51SOL    HW1 1052   1.234   5.356   2.445
   51SOL    HW2 1053   1.098   5.443   2.423
   52SOL     OW 1054   5.752   2.766   1.746
   52SOL    HW1 1055   5.664   2.778   1.699
   52SOL    HW2 1056   5.757   2.675   1.786
   53SOL     OW 1057   3.665   0.875   2.016
   53SOL    HW1 1058   3.691   0.955   2.069
   53SOL    HW2 1059   3.732   0.803   2.029
   54SOL     OW 1060   5.384   0.293   6.674
   54SOL    HW1 1061   5.467   0.269   6.625
   54SOL    HW2 1062   5.310   0.308   6.608
   55SOL     OW 1063   1.141   3.569   6.246
   55SOL    HW1 1064   1.164   3.577   6.149
   55SOL    HW2 1065   1.179   3.647   6.295
   56SOL     OW 1066   0.500   2.245   6.716
   56SOL    HW1 1067   0.507   2.316   6.787
   56SOL    HW2 1068   0.591   2.220   6.685
   57SOL     OW 1069   4.225   6.476   0.871
   57SOL    HW1 1070   4.316   6.459   0.833
   57SOL    HW2 1071   4.232   6.536   0.950
   58SOL     OW 1072   1.240   0.493   0.059
   58SOL    HW1 1073   1.206   0.537   0.142
   58SOL    HW2 1074   1.191   0.407   0.044
   59SOL     OW 1075   4.546   3.214   5.424
   59SOL    HW1 1076   4.543   3.245   5.520
   59SOL    HW2 1077   4.641   3.198   5.398
   60SOL     OW 1078   5.796   2.421   1.610
   60SOL    HW1 1079   5.785   2.387   1.516
   60SOL    HW2 1080   5.719   2.390   1.666
   61SOL     OW 1081   1.237   5.857   4.598
   61SOL    HW1 1082   1.312   5.868   4.663
   61SOL    HW2 1083   1.264   5.795   4.525
   62SOL     OW 1084   6.060   3.450   2.981
   62SOL    HW1 1085   6.008   3.440   2.897
   62SOL    HW2 1086   6.127   3.375   2.988
   63SOL     OW 1087   3.885   0.527   6.314
   63SOL    HW1 1088   3.828   0.607   6.334
   63SOL    HW2 1089   3.932   0.541   6.226
   64SOL     OW 1090   1.336   3.443   5.196
   64SOL    HW1 1091   1.299   3.350   5.199
   64SOL    HW2 1092   1.435   3.440   5.182
   65SOL     OW 1093   0.737   5.274   4.741
   65SOL    HW1 1094   0.692   5.323   4.817
   65SOL    HW2 1095   0.674   5.270   4.663
   66SOL     OW 1096   3.842   1.398   1.919
   66SOL    HW1 1097   3.781   1.374   1.844
   66SOL    HW2 1098   3.819   1.344   2.000
   67SOL     OW 1099   6.861   3.393   1.162
   67SOL    HW1 1100   6.763   3.406   1.145
   67SOL    HW2 1101   6.873   3.329   1.237
   68SOL     OW 1102   6.711   1.527   6.676
   68SOL    HW1 1103   6.810   1.514   6.681
   68SOL    HW2 1104   6.669   1.500   6.763
   69SOL     OW 1105   1.206   5.890   6.736
   69SOL    HW1 1106   1.220   5.907   6.833
   69SOL    HW2 1107   1.115   5.921   6.709
   70SOL     OW 1108   5.339   3.927   3.735
   70SOL    HW1 1109   5.368   3.858   3.669
   70SOL    HW2 1110   5.251   3.965   3.707
   71SOL     OW 1111   5.392   1.835   3.792
   71SOL    HW1 1112   5.414   1.927   3.824
   71SOL    HW2 1113   5.331   1.842   3.713
   72SOL     OW 1114   0.886   1.276   3.079
   72SOL    HW1 1115   0.787   1.265   3.085
   72SOL    HW2 1116   0.922   1.219   3.005
   73SOL     OW 1117   2.703   0.356   0.352
   73SOL    HW1 1118   2.647   0.283   0.313
   73SOL    HW2 1119   2.791   0.319   0.381
   74SOL     OW 1120   2.645   2.387   0.646
   74SOL    HW1 1121   2.693   2.467   0.681
   74SOL    HW2 1122   2.705   2.337   0.583
   75SOL     OW 1123   2.860   3.264   0.508
   75SOL    HW1 1124   2.852   3.296   0.602
   75SOL    HW2 1125   2.828   3.169   0.502
   76SOL     OW 1126   3.766   5.100   5.640
   76SOL    HW1 1127   3.715   5.057   5.714
   76SOL    HW2 1128   3.864   5.090   5.656
   77SOL     OW 1129   0.820   5.353   4.315
   77SOL    HW1 1130   0.787   5.282   4.376
   77SOL    HW2 1131   0.876   5.312   4.242
   78SOL     OW 1132   4.658   1.717   1.492
   78SOL    HW1 1133   4.752   1.712   1.526
   78SOL    HW2 1134   4.657   1.761   1.403
   79SOL     OW 1135   1.306   4.537   3.328
   79SOL    HW1 1136   1.211   4.565   3.316
   79SOL    HW2 1137   1.309   4.445   3.367
   80SOL     OW 1138   3.720   1.346   4.660
   80SOL    HW1 1139   3.812   1.360   4.696
   80SOL    HW2 1140   3.690   1.253   4.680
   81SOL     OW 1141   4.198   4.922   1.560
   81SOL    HW1 1142   4.244   4.856   1.619
   81SOL    HW2 1143   4.200   5.012   1.603
   82SOL     OW 1144   2.509   5.960   2.103
   82SOL    HW1 1145   2.589   5.912   2.065
   82SOL    HW2 1146   2.426   5.927   2.058
   83SOL     OW 1147   4.942   1.225   3.950
   83SOL    HW1 1148   4.970   1.219   3.855
   83SOL    HW2 1149   5.001   1.290   3.998
   84SOL     OW 1150   5.509   3.145   2.346
   84SOL    HW1 1151   5.483   3.241   2.333
   84SOL    HW2 1152   5.507   3.123   2.444
   85SOL     OW 1153   2.561   6.804   3.939
   85SOL    HW1 1154   2.617   6.828   4.019
   85SOL    HW2 1155   2.464   6.811   3.964
   86SOL     OW 1156   5.286   6.770   0.152
   86SOL    HW1 1157   5.256   6.775   0.057
   86SOL    HW2 1158   5.206   6.762   0.212
   87SOL     OW 1159   2.050   4.203   6.318
   87SOL    HW1 1160   2.087   4.267   6.250
   87SOL    HW2 1161   2.106   4.206   6.400
   88SOL     OW 1162   2.999   3.600   1.485
   88SOL    HW1 1163   2.986   3.510   1.526
   88SOL    HW2 1164   2.911   3.638   1.458
   89SOL     OW 1165   3.329   3.539   3.767
   89SOL    HW1 1166   3.323   3.639   3.764
   89SOL    HW2 1167   3.264   3.503   3.834
   90SOL     OW 1168   5.244   3.809   1.994
   90SOL    HW1 1169   5.179   3.734   1.981
   90SOL    HW2 1170   5.210   3.871   2.064
   91SOL     OW 1171   4.619   5.659   5.878
   91SOL    HW1 1172   4.661   5.686   5.791
   91SOL    HW2 1173   4.594   5.741   5.930
   92SOL     OW 1174   4.974   4.184   6.903
   92SOL    HW1 1175   4.967   4.276   6.864
   92SOL    HW2 1176   4.944   4.186   6.998
   93SOL     OW 1177   2.902   3.542   2.022
   93SOL    HW1 1178   2.838   3.537   2.098
   93SOL    HW2 1179   2.948   3.453   2.011
   94SOL     OW 1180   2.938   2.148   4.432
   94SOL    HW1 1181   3.010   2.149   4.501
   94SOL    HW2 1182   2.973   2.187   4.346
   95SOL     OW 1183   0.054   0.266   3.945
   95SOL    HW1 1184   0.066   0.277   3.847
   95SOL    HW2 1185   0.114   0.193   3.978
   96SOL     OW 1186   6.930   5.106   0.007
   96SOL    HW1 1187   6.849   5.137   0.058
   96SOL    HW2 1188   7.001   5.176   0.013
   97SOL     OW 1189   2.454   4.295   5.737
   97SOL    HW1 1190   2.482   4.201   5.755
   97SOL    HW2 1191   2.518   4.337   5.673
   98SOL     OW 1192   0.916   1.804   3.655
   98SOL    HW1 1193   0.825   1.778   3.685
   98SOL    HW2 1194   0.916   1.899   3.623
   99SOL     OW 1195   3.324   4.118   4.998
   99SOL    HW1 1196   3.329   4.196   5.060
   99SOL    HW2 1197   3.232   4.111   4.959
  100SOL     OW 1198   0.228   0.557   4.958
  100SOL    HW1 1199   0.178   0.600   5.033
  100SOL    HW2 1200   0.325   0.553   4.980
  101SOL     OW 1201   5.560   4.052   2.643
  101SOL    HW1 1202   5.647   4.003   2.632
  101SOL    HW2 1203   5.575   4.150   2.628
  102SOL     OW 1204   4.320   0.593   7.020
  102SOL    HW1 1205   4.313   0.692   0.002
  102SOL    HW2 1206   4.244   0.551   0.048
  103SOL     OW 1207   1.848   1.279   2.032
  103SOL    HW1 1208   1.916   1.332   2.082
  103SOL    HW2 1209   1.870   1.280   1.935
  104SOL     OW 1210   6.301   4.910   2.332
  104SOL    HW1 1211   6.318   4.847   2.256
  104SOL    HW2 1212   6.225   4.971   2.308
  105SOL     OW 1213   6.823   1.026   5.520
  105SOL    HW1 1214   6.856   1.118   5.538
  105SOL    HW2 1215   6.869   0.989   5.440
  106SOL     OW 1216   4.665   2.977   1.494
  106SOL    HW1 1217   4.682   2.918   1.573
  106SOL    HW2 1218   4.567   2.984   1.478
  107SOL     OW 1219   5.844   0.158   1.750
  107SOL    HW1 1220   5.896   0.191   1.671
  107SOL    HW2 1221   5.896   0.087   1.796
  108SOL     OW 1222   3.107   1.233   4.613
  108SOL    HW1 1223   3.071   1.231   4.707
  108SOL    HW2 1224   3.066   1.309   4.563
  109SOL     OW 1225   1.905   1.391   4.546
  109SOL    HW1 1226   1.806   1.403   4.545
  109SOL    HW2 1227   1.929   1.314   4.604
  110SOL     OW 1228   3.349   4.170   5.529
  110SOL    HW1 1229   3.287   4.129   5.462
  110SOL    HW2 1230   3.424   4.216   5.481
  111SOL     OW 1231   6.036   2.711   0.588
  111SOL    HW1 1232   6.093   2.652   0.531
  111SOL    HW2 1233   5.945   2.670   0.599
  112SOL     OW 1234   5.265   6.698   6.908
  112SOL    HW1 1235   5.317   6.749   6.840
  112SOL    HW2 1236   5.312   6.611   6.927
  113SOL     OW 1237   0.159   5.220   2.394
  113SOL    HW1 1238   0.113   5.302   2.360
  113SOL    HW2 1239   0.199   5.239   2.484
  114SOL     OW 1240   0.027   2.051   1.974
  114SOL    HW1 1241   0.110   2.087   1.932
  114SOL    HW2 1242   0.021   2.083   2.069
  115SOL     OW 1243   5.725   6.704   3.558
  115SOL    HW1 1244   5.660   6.691   3.483
  115SOL    HW2 1245   5.791   6.775   3.532
  116SOL     OW 1246   0.323   5.138   0.748
  116SOL    HW1 1247   0.379   5.215   0.718
  116SOL    HW2 1248   0.362   5.053   0.714
  117SOL     OW 1249   2.340   2.984   0.099
  117SOL    HW1 1250   2.242   3.002   0.110
  117SOL    HW2 1251   2.353   2.892   0.061
  118SOL     OW 1252   0.638   2.217   2.582
  118SOL    HW1 1253   0.662   2.302   2.536
  118SOL    HW2 1254   0.721   2.170   2.611
  119SOL     OW 1255   6.131   6.787   5.176
  119SOL    HW1 1256   6.204   6.836   5.225
  119SOL    HW2 1257   6.128   6.819   5.081
  120SOL     OW 1258   4.935   1.480   4.510
  120SOL    HW1 1259   5.035   1.486   4.519
  120SOL    HW2 1260   4.912   1.471   4.413
  121SOL     OW 1261   0.594   4.996   0.007
  121SOL    HW1 1262   0.576   4.910   0.055
  121SOL    HW2 1263   0.521   5.061   0.028
  122SOL     OW 1264   6.794   4.778   6.331
  122SOL    HW1 1265   6.719   4.826   6.285
  122SOL    HW2 1266   6.873   4.839   6.338
  123SOL     OW 1267   0.690   2.527   1.553
  123SOL    HW1 1268   0.598   2.558   1.573
  123SOL    HW2 1269   0.756   2.597   1.582
  124SOL     OW 1270   1.300   3.029   6.873
  124SOL    HW1 1271   1.237   3.093   6.916
  124SOL    HW2 1272   1.248   2.949   6.840
  125SOL     OW 1273   4.674   3.100   0.493
  125SOL    HW1 1274   4.626   3.124   0.409
  125SOL    HW2 1275   4.755   3.046   0.470
  126SOL     OW 1276   3.665   2.876   4.376
  126SOL    HW1 1277   3.630   2.859   4.468
  126SOL    HW2 1278   3.595   2.849   4.309
  127SOL     OW 1279   0.581   5.515   5.992
  127SOL    HW1 1280   0.506   5.464   6.034
  127SOL    HW2 1281   0.642   5.452   5.945
  128SOL     OW 1282   4.804   3.968   6.949
  128SOL    HW1 1283   4.800   3.917   6.863
  128SOL    HW2 1284   4.899   3.989   6.972
  129SOL     OW 1285   0.512   5.376   2.430
  129SOL    HW1 1286   0.504   5.302   2.363
  129SOL    HW2 1287   0.549   5.340   2.516
  130SOL     OW 1288   5.785   3.032   3.976
  130SOL    HW1 1289   5.703   3.069   3.932
  130SOL    HW2 1290   5.771   3.029   4.075
  131SOL     OW 1291   0.540   2.257   3.456
  131SOL    HW1 1292   0.534   2.320   3.378
  131SOL    HW2 1293   0.580   2.305   3.534
  132SOL     OW 1294   3.373   2.697   0.929
  132SOL    HW1 1295   3.389   2.794   0.908
  132SOL    HW2 1296   3.343   2.689   1.024
  133SOL     OW 1297   5.671   6.194   6.272
  133SOL    HW1 1298   5.608   6.119   6.291
  133SOL    HW2 1299   5.762   6.158   6.253
  134SOL     OW 1300   5.633   1.735   1.348
  134SOL    HW1 1301   5.681   1.731   1.261
  134SOL    HW2 1302   5.683   1.794   1.411
  135SOL     OW 1303   4.885   3.822   3.870
  135SOL    HW1 1304   4.802   3.768   3.862
  135SOL    HW2 1305   4.908   3.834   3.967
  136SOL     OW 1306   3.375   0.601   6.445
  136SOL    HW1 1307   3.434   0.552   6.380
  136SOL    HW2 1308   3.332   0.535   6.506
  137SOL     OW 1309   2.644   4.028   6.121
  137SOL    HW1 1310   2.559   3.974   6.122
  137SOL    HW2 1311   2.641   4.096   6.193
  138SOL     OW 1312   1.282   5.059   6.487
  138SOL    HW1 1313   1.350   4.992   6.514
  138SOL    HW2 1314   1.194   5.036   6.529
  139SOL     OW 1315   1.490   0.037   1.028
  139SOL    HW1 1316   1.534   6.976   0.998
  139SOL    HW2 1317   1.426   0.068   0.958
  140SOL     OW 1318   3.987   0.455   1.529
  140SOL    HW1 1319   3.961   0.443   1.625
  140SOL    HW2 1320   3.916   0.417   1.470
  141SOL     OW 1321   0.683   2.961   0.596
  141SOL    HW1 1322   0.648   3.024   0.665
  141SOL    HW2 1323   0.616   2.953   0.522
  142SOL     OW 1324   1.751   3.521   0.870
  142SOL    HW1 1325   1.664   3.556   0.834
  142SOL    HW2 1326   1.781   3.443   0.814
  143SOL     OW 1327   4.200   6.395   2.341
  143SOL    HW1 1328   4.265   6.470   2.335
  143SOL    HW2 1329   4.248   6.308   2.329
  144SOL     OW 1330   3.295   5.774   3.121
  144SOL    HW1 1331   3.226   5.740   3.186
  144SOL    HW2 1332   3.382   5.727   3.136
  145SOL     OW 1333   0.304   4.589   3.668
  145SOL    HW1 1334   0.278   4.604   3.573
  145SOL    HW2 1335   0.221   4.578   3.724
  146SOL     OW 1336   4.678   1.017   6.309
  146SOL    HW1 1337   4.746   1.016   6.236
  146SOL    HW2 1338   4.653   0.923   6.331
  147SOL     OW 1339   4.713   0.675   4.779
  147SOL    HW1 1340   4.620   0.642   4.790
  147SOL    HW2 1341   4.776   0.597   4.773
  148SOL     OW 1342   1.841   5.855   1.673
  148SOL    HW1 1343   1.819   5.841   1.576
  148SOL    HW2 1344   1.926   5.806   1.695
  149SOL     OW 1345   2.002   2.383   4.767
  149SOL    HW1 1346   2.007   2.359   4.670
  149SOL    HW2 1347   2.062   2.322   4.819
  150SOL     OW 1348   4.096   1.666   4.804
  150SOL    HW1 1349   4.056   1.574   4.805
  150SOL    HW2 1350   4.178   1.665   4.748
  151SOL     OW 1351   4.830   2.422   0.998
  151SOL    HW1 1352   4.758   2.357   0.975
  151SOL    HW2 1353   4.789   2.512   1.014
  152SOL     OW 1354   0.382   2.358   1.274
  152SOL    HW1 1355   0.314   2.430   1.264
  152SOL    HW2 1356   0.347   2.286   1.334
  153SOL     OW 1357   2.357   1.259   3.635
  153SOL    HW1 1358   2.287   1.328   3.650
  153SOL    HW2 1359   2.319   1.168   3.656
  154SOL     OW 1360   6.218   2.513   2.398
  154SOL    HW1 1361   6.226   2.420   2.362
  154SOL    HW2 1362   6.278   2.575   2.347
  155SOL     OW 1363   0.091   5.597   2.947
  155SOL    HW1 1364   0.011   5.574   2.893
  155SOL    HW2 1365   0.066   5.664   3.017
  156SOL     OW 1366   5.393   2.910   0.288
  156SOL    HW1 1367   5.382   3.003   0.324
  156SOL    HW2 1368   5.363   2.844   0.356
  157SOL     OW 1369   5.163   6.274   1.203
  157SOL    HW1 1370   5.237   6.208   1.213
  157SOL    HW2 1371   5.199   6.359   1.163
  158SOL     OW 1372   0.828   2.695   3.529
  158SOL    HW1 1373   0.855   2.688   3.625
  158SOL    HW2 1374   0.899   2.654   3.472
  159SOL     OW 1375   6.119   5.604   0.602
  159SOL    HW1 1376   6.206   5.555   0.594
  159SOL    HW2 1377   6.046   5.551   0.559
  160SOL     OW 1378   5.616   0.121   1.593
  160SOL    HW1 1379   5.682   0.126   1.669
  160SOL    HW2 1380   5.555   0.200   1.597
  161SOL     OW 1381   6.868   6.551   1.184
  161SOL    HW1 1382   6.863   6.638   1.134
  161SOL    HW2 1383   6.885   6.477   1.119
  162SOL     OW 1384   4.499   6.781   6.395
  162SOL    HW1 1385   4.474   6.826   6.481
  162SOL    HW2 1386   4.537   6.848   6.332
  163SOL     OW 1387   0.994   3.885   2.822
  163SOL    HW1 1388   1.057   3.958   2.849
  163SOL    HW2 1389   1.040   3.796   2.828
  164SOL     OW 1390   2.899   1.801   3.717
  164SOL    HW1 1391   2.854   1.883   3.681
  164SOL    HW2 1392   2.830   1.742   3.760
  165SOL     OW 1393   0.258   6.689   3.898
  165SOL    HW1 1394   0.257   6.618   3.827
  165SOL    HW2 1395   0.333   6.671   3.962
  166SOL     OW 1396   6.964   3.947   3.450
  166SOL    HW1 1397   6.882   3.913   3.496
  166SOL    HW2 1398   6.992   4.033   3.493
  167SOL     OW 1399   2.854   1.817   6.318
  167SOL    HW1 1400   2.828   1.726   6.286
  167SOL    HW2 1401   2.803   1.839   6.401
  168SOL     OW 1402   3.842   3.774   1.657
  168SOL    HW1 1403   3.859   3.833   1.735
  168SOL    HW2 1404   3.920   3.779   1.594
  169SOL     OW 1405   4.482   2.076   1.109
  169SOL    HW1 1406   4.543   2.041   1.181
  169SOL    HW2 1407   4.393   2.030   1.116
  170SOL     OW 1408   6.184   5.305   1.638
  170SOL    HW1 1409   6.159   5.382   1.579
  170SOL    HW2 1410   6.237   5.238   1.585
  171SOL     OW 1411   3.633   3.303   0.928
  171SOL    HW1 1412   3.614   3.250   0.845
  171SOL    HW2 1413   3.695   3.251   0.987
  172SOL     OW 1414   0.759   1.794   6.800
  172SOL    HW1 1415   0.703   1.814   6.881
  172SOL    HW2 1416   0.710   1.729   6.742
  173SOL     OW 1417   6.291   1.358   3.963
  173SOL    HW1 1418   6.356   1.348   3.888
  173SOL    HW2 1419   6.199   1.332   3.930
  174SOL     OW 1420   5.620   4.317   4.684
  174SOL    HW1 1421   5.684   4.346   4.613
  174SOL    HW2 1422   5.534   4.367   4.673
  175SOL     OW 1423   0.342   0.179   2.524
  175SOL    HW1 1424   0.358   0.253   2.590
  175SOL    HW2 1425   0.254   0.194   2.478
  176SOL     OW 1426   5.738   3.980   1.795
  176SOL    HW1 1427   5.748   3.902   1.733
  176SOL    HW2 1428   5.698   4.057   1.745
  177SOL     OW 1429   5.786   2.033   3.721
  177SOL    HW1 1430   5.815   2.129   3.720
  177SOL    HW2 1431   5.804   1.994   3.811
  178SOL     OW 1432   2.886   6.106   4.823
  178SOL    HW1 1433   2.828   6.158   4.761
  178SOL    HW2 1434   2.832   6.073   4.900
  179SOL     OW 1435   3.266   4.303   1.513
  179SOL    HW1 1436   3.299   4.210   1.497
  179SOL    HW2 1437   3.325   4.348   1.581
  180SOL     OW 1438   4.228   1.129   0.042
  180SOL    HW1 1439   4.180   1.164   6.985
  180SOL    HW2 1440   4.234   1.201   0.112
  181SOL     OW 1441   3.600   2.115   5.481
  181SOL    HW1 1442   3.557   2.170   5.409
  181SOL    HW2 1443   3.586   2.159   5.569
  182SOL     OW 1444   2.964   2.489   6.183
  182SOL    HW1 1445   2.978   2.432   6.102
  182SOL    HW2 1446   3.011   2.577   6.172
  183SOL     OW 1447   3.160   0.325   3.372
  183SOL    HW1 1448   3.178   0.422   3.356
  183SOL    HW2 1449   3.121   0.284   3.289
  184SOL     OW 1450   5.183   5.743   3.695
  184SOL    HW1 1451   5.270   5.700   3.670
  184SOL    HW2 1452   5.108   5.696   3.648
  185SOL     OW 1453   6.976   0.458   4.526
  185SOL    HW1 1454   6.898   0.427   4.471
  185SOL    HW2 1455   0.021   0.500   4.466
  186SOL     OW 1456   3.982   5.842   4.747
  186SOL    HW1 1457   3.885   5.868   4.755
  186SOL    HW2 1458   4.039   5.920   4.772
  187SOL     OW 1459   4.191   6.477   1.519
  187SOL    HW1 1460   4.227   6.501   1.429
  187SOL    HW2 1461   4.184   6.560   1.576
  188SOL     OW 1462   1.467   2.872   2.761
  188SOL    HW1 1463   1.519   2.944   2.715
  188SOL    HW2 1464   1.396   2.913   2.817
  189SOL     OW 1465   5.718   5.214   5.547
  189SOL    HW1 1466   5.701   5.167   5.633
  189SOL    HW2 1467   5.759   5.150   5.482
  190SOL     OW 1468   5.837   0.407   0.378
  190SOL    HW1 1469   5.904   0.481   0.373
  190SOL    HW2 1470   5.793   0.408   0.468
  191SOL     OW 1471   0.202   1.177   5.664
  191SOL    HW1 1472   0.301   1.183   5.673
  191SOL    HW2 1473   0.165   1.266   5.639
  192SOL     OW 1474   0.104   5.369   1.227
  192SOL    HW1 1475   0.061   5.282   1.249
  192SOL    HW2 1476   0.162   5.359   1.146
  193SOL     OW 1477   2.595   6.771   0.479
  193SOL    HW1 1478   2.546   6.701   0.427
  193SOL    HW2 1479   2.547   6.789   0.564
  194SOL     OW 1480   3.995   5.894   2.162
  194SOL    HW1 1481   4.061   5.824   2.133
  194SOL    HW2 1482   3.960   5.871   2.253
  195SOL     OW 1483   3.548   1.258   1.330
  195SOL    HW1 1484   3.528   1.264   1.427
  195SOL    HW2 1485   3.506   1.175   1.292
  196SOL     OW 1486   3.097   2.078   0.453
  196SOL    HW1 1487   3.109   2.178   0.456
  196SOL    HW2 1488   3.162   2.035   0.515
  197SOL     OW 1489   1.757   6.397   0.156
  197SOL    HW1 1490   1.673   6.452   0.158
  197SOL    HW2 1491   1.833   6.452   0.192
  198SOL     OW 1492   4.290   0.014   6.977
  198SOL    HW1 1493   4.367   0.031   0.015
  198SOL    HW2 1494   4.302   0.068   6.893
  199SOL     OW 1495   0.604   0.497   2.885
  199SOL    HW1 1496   0.573   0.582   2.842
  199SOL    HW2 1497   0.525   0.439   2.906
  200SOL     OW 1498   1.005   4.277   3.230
  200SOL    HW1 1499   0.918   4.319   3.254
  200SOL    HW2 1500   1.008   4.184   3.267
  201SOL     OW 1501   5.056   1.205   6.509
  201SOL    HW1 1502   5.069   1.216   6.411
  201SOL    HW2 1503   5.029   1.111   6.529
  202SOL     OW 1504   3.520   1.079   2.443
  202SOL    HW1 1505   3.471   1.151   2.493
  202SOL    HW2 1506   3.557   1.012   2.508
  203SOL     OW 1507   5.731   2.778   6.891
  203SOL    HW1 1508   5.651   2.735   6.848
  203SOL    HW2 1509   5.701   2.828   6.972
  204SOL     OW 1510   2.744   6.153   1.679
  204SOL    HW1 1511   2.690   6.086   1.731
  204SOL    HW2 1512   2.799   6.207   1.743
  205SOL     OW 1513   6.133   0.723   0.509
  205SOL    HW1 1514   6.076   0.806   0.512
  205SOL    HW2 1515   6.215   0.737   0.564
  206SOL     OW 1516   0.346   4.780   2.044
  206SOL    HW1 1517   0.333   4.681   2.042
  206SOL    HW2 1518   0.419   4.806   1.981
  207SOL     OW 1519   4.914   1.380   5.356
  207SOL    HW1 1520   4.978   1.456   5.370
  207SOL    HW2 1521   4.828   1.400   5.403
  208SOL     OW 1522   3.208   4.599   5.961
  208SOL    HW1 1523   3.259   4.636   5.883
  208SOL    HW2 1524   3.112   4.626   5.953
  209SOL     OW 1525   6.764   5.308   5.810
  209SOL    HW1 1526   6.692   5.284   5.875
  209SOL    HW2 1527   6.740   5.273   5.719
  210SOL     OW 1528   3.863   2.113   2.156
  210SOL    HW1 1529   3.853   2.187   2.221
  210SOL    HW2 1530   3.798   2.125   2.081
  211SOL     OW 1531   1.291   1.981   1.805
  211SOL    HW1 1532   1.328   1.990   1.713
  211SOL    HW2 1533   1.238   1.896   1.811
  212SOL     OW 1534   0.581   4.773   4.120
  212SOL    HW1 1535   0.545   4.778   4.027
  212SOL    HW2 1536   0.579   4.864   4.161
  213SOL     OW 1537   3.799   2.616   6.937
  213SOL    HW1 1538   3.824   2.646   6.845
  213SOL    HW2 1539   3.874   2.564   6.977
  214SOL     OW 1540   1.402   6.680   2.837
  214SOL    HW1 1541   1.473   6.690   2.907
  214SOL    HW2 1542   1.372   6.585   2.833
  215SOL     OW 1543   3.522   3.514   2.799
  215SOL    HW1 1544   3.596   3.463   2.754
  215SOL    HW2 1545   3.529   3.503   2.898
  216SOL     OW 1546   1.629   6.175   5.772
  216SOL    HW1 1547   1.681   6.090   5.778
  216SOL    HW2 1548   1.690   6.251   5.753
  217SOL     OW 1549   6.863   2.741   3.812
  217SOL    HW1 1550   6.942   2.693   3.774
  217SOL    HW2 1551   6.781   2.684   3.802
  218SOL     OW 1552   1.522   3.818   5.341
  218SOL    HW1 1553   1.577   3.853   5.265
  218SOL    HW2 1554   1.436   3.782   5.307
  219SOL     OW 1555   4.153   5.233   0.492
  219SOL    HW1 1556   4.214   5.162   0.458
  219SOL    HW2 1557   4.182   5.322   0.457
  220SOL     OW 1558   1.724   4.360   0.959
  220SOL    HW1 1559   1.813   4.406   0.968
  220SOL    HW2 1560   1.708   4.338   0.863
  221SOL     OW 1561   6.837   2.411   3.761
  221SOL    HW1 1562   6.751   2.450   3.730
  221SOL    HW2 1563   6.827   2.312   3.774
  222SOL     OW 1564   1.273   6.476   5.057
  222SOL    HW1 1565   1.217   6.535   4.998
  222SOL    HW2 1566   1.321   6.409   5.000
  223SOL     OW 1567   5.796   4.137   2.317
  223SOL    HW1 1568   5.700   4.165   2.313
  223SOL    HW2 1569   5.854   4.219   2.323
  224SOL     OW 1570   3.456   2.084   2.009
  224SOL    HW1 1571   3.408   2.092   1.922
  224SOL    HW2 1572   3.550   2.118   1.998
  225SOL     OW 1573   0.382   0.234   0.671
  225SOL    HW1 1574   0.451   0.176   0.715
  225SOL    HW2 1575   0.428   0.299   0.611
  226SOL     OW 1576   0.238   5.432   0.992
  226SOL    HW1 1577   0.226   5.530   1.006
  226SOL    HW2 1578   0.208   5.408   0.900
  227SOL     OW 1579   1.717   2.711   3.237
  227SOL    HW1 1580   1.724   2.742   3.142
  227SOL    HW2 1581   1.792   2.751   3.291
  228SOL     OW 1582   3.796   6.918   2.942
  228SOL    HW1 1583   3.723   6.900   3.009
  228SOL    HW2 1584   3.764   6.985   2.876
  229SOL     OW 1585   6.214   5.915   2.893
  229SOL    HW1 1586   6.314   5.920   2.896
  229SOL    HW2 1587   6.178   5.999   2.853
  230SOL     OW 1588   1.753   4.358   5.379
  230SOL    HW1 1589   1.662   4.368   5.417
  230SOL    HW2 1590   1.785   4.264   5.394
  231SOL     OW 1591   0.574   2.050   0.161
  231SOL    HW1 1592   0.482   2.019   0.185
  231SOL    HW2 1593   0.580   2.149   0.170
  232SOL     OW 1594   2.074   4.899   6.673
  232SOL    HW1 1595   2.169   4.917   6.650
  232SOL    HW2 1596   2.029   4.852   6.597
  233SOL     OW 1597   3.124   0.943   6.089
  233SOL    HW1 1598   3.110   1.039   6.112
  233SOL    HW2 1599   3.091   0.925   5.997
  234SOL     OW 1600   3.074   5.762   6.979
  234SOL    HW1 1601   3.042   5.691   0.019
  234SOL    HW2 1602   3.035   5.850   7.006
  235SOL     OW 1603   3.575   2.884   4.661
  235SOL    HW1 1604   3.652   2.916   4.717
  235SOL    HW2 1605   3.548   2.955   4.597
  236SOL     OW 1606   6.778   2.079   5.514
  236SOL    HW1 1607   6.857   2.022   5.535
  236SOL    HW2 1608   6.706   2.062   5.582
  237SOL     OW 1609   0.247   6.797   1.804
  237SOL    HW1 1610   0.278   6.707   1.834
  237SOL    HW2 1611   0.315   6.866   1.829
  238SOL     OW 1612   6.864   2.256   2.091
  238SOL    HW1 1613   6.938   2.206   2.136
  238SOL    HW2 1614   6.822   2.320   2.156
  239SOL     OW 1615   0.534   5.250   0.625
  239SOL    HW1 1616   0.600   5.306   0.675
  239SOL    HW2 1617   0.583   5.186   0.565
  240SOL     OW 1618   6.689   3.511   5.461
  240SOL    HW1 1619   6.708   3.452   5.539
  240SOL    HW2 1620   6.768   3.512   5.400
  241SOL     OW 1621   6.459   1.521   3.757
  241SOL    HW1 1622   6.464   1.620   3.752
  241SOL    HW2 1623   6.408   1.486   3.678
  242SOL     OW 1624   2.082   2.582   3.473
  242SOL    HW1 1625   2.106   2.492   3.510
  242SOL    HW2 1626   2.003   2.618   3.522
  243SOL     OW 1627   4.432   0.995   5.301
  243SOL    HW1 1628   4.504   1.017   5.366
  243SOL    HW2 1629   4.376   1.076   5.284
  244SOL     OW 1630   6.693   0.660   5.701
  244SOL    HW1 1631   6.678   0.565   5.731
  244SOL    HW2 1632   6.711   0.661   5.603
  245SOL     OW 1633   5.415   2.789   3.432
  245SOL    HW1 1634   5.408   2.882   3.394
  245SOL    HW2 1635   5.454   2.728   3.363
  246SOL     OW 1636   4.874   3.049   3.690
  246SOL    HW1 1637   4.827   3.027   3.605
  246SOL    HW2 1638   4.866   3.147   3.708
  247SOL     OW 1639   3.207   0.663   3.878
  247SOL    HW1 1640   3.266   0.719   3.936
  247SOL    HW2 1641   3.250   0.573   3.865
  248SOL     OW 1642   6.076   1.853   2.255
  248SOL    HW1 1643   6.073   1.927   2.322
  248SOL    HW2 1644   6.132   1.778   2.291
  249SOL     OW 1645   2.433   6.491   3.936
  249SOL    HW1 1646   2.461   6.409   3.886
  249SOL    HW2 1647   2.333   6.491   3.948
  250SOL     OW 1648   5.367   3.394   6.397
  250SOL    HW1 1649   5.304   3.369   6.471
  250SOL    HW2 1650   5.441   3.327   6.393
  251SOL     OW 1651   1.922   2.364   0.649
  251SOL    HW1 1652   1.844   2.349   0.588
  251SOL    HW2 1653   1.923   2.293   0.719
  252SOL     OW 1654   0.286   1.465   0.092
  252SOL    HW1 1655   0.193   1.438   0.118
  252SOL    HW2 1656   0.304   1.435   7.021
  253SOL     OW 1657   1.711   4.378   4.899
  253SOL    HW1 1658   1.714   4.433   4.983
  253SOL    HW2 1659   1.782   4.308   4.902
  254SOL     OW 1660   5.264   3.871   5.527
  254SOL    HW1 1661   5.183   3.857   5.584
  254SOL    HW2 1662   5.341   3.818   5.564
  255SOL     OW 1663   3.494   2.039   3.351
  255SOL    HW1 1664   3.478   1.975   3.426
  255SOL    HW2 1665   3.413   2.095   3.338
  256SOL     OW 1666   6.496   5.596   0.386
  256SOL    HW1 1667   6.575   5.650   0.413
  256SOL    HW2 1668   6.452   5.637   0.307
  257SOL     OW 1669   3.387   5.161   6.440
  257SOL    HW1 1670   3.368   5.257   6.458
  257SOL    HW2 1671   3.301   5.112   6.423
  258SOL     OW 1672   5.250   3.882   4.619
  258SOL    HW1 1673   5.343   3.849   4.604
  258SOL    HW2 1674   5.253   3.974   4.657
  259SOL     OW 1675   1.064   1.991   3.527
  259SOL    HW1 1676   1.085   1.895   3.508
  259SOL    HW2 1677   1.082   2.045   3.445
  260SOL     OW 1678   6.624   6.659   5.651
  260SOL    HW1 1679   6.622   6.623   5.744
  260SOL    HW2 1680   6.565   6.605   5.592
  261SOL     OW 1681   1.136   1.695   2.931
  261SOL    HW1 1682   1.228   1.660   2.946
  261SOL    HW2 1683   1.091   1.712   3.019
  262SOL     OW 1684   1.981   5.066   1.689
  262SOL    HW1 1685   2.033   5.057   1.773
  262SOL    HW2 1686   1.888   5.096   1.710
  263SOL     OW 1687   6.492   1.926   5.229
  263SOL    HW1 1688   6.540   1.899   5.145
  263SOL    HW2 1689   6.527   2.014   5.260
  264SOL     OW 1690   2.924   3.982   6.051
  264SOL    HW1 1691   2.828   3.997   6.078
  264SOL    HW2 1692   2.930   3.982   5.952
  265SOL     OW 1693   5.514   5.553   5.680
  265SOL    HW1 1694   5.444   5.613   5.717
  265SOL    HW2 1695   5.605   5.590   5.700
  266SOL     OW 1696   3.399   2.545   6.666
  266SOL    HW1 1697   3.363   2.638   6.675
  266SOL    HW2 1698   3.349   2.485   6.728
  267SOL     OW 1699   1.305   1.602   5.980
  267SOL    HW1 1700   1.391   1.562   6.013
  267SOL    HW2 1701   1.307   1.608   5.880
  268SOL     OW 1702   3.522   5.884   3.404
  268SOL    HW1 1703   3.509   5.953   3.332
  268SOL    HW2 1704   3.520   5.929   3.493
  269SOL     OW 1705   1.827   1.156   5.105
  269SOL    HW1 1706   1.858   1.196   5.190
  269SOL    HW2 1707   1.762   1.217   5.060
  270SOL     OW 1708   5.285   6.722   4.493
  270SOL    HW1 1709   5.262   6.652   4.425
  270SOL    HW2 1710   5.287   6.681   4.584
  271SOL     OW 1711   1.241   1.960   6.813
  271SOL    HW1 1712   1.209   1.897   6.884
  271SOL    HW2 1713   1.164   2.016   6.781
  272SOL     OW 1714   5.102   5.932   2.142
  272SOL    HW1 1715   5.164   5.913   2.066
  272SOL    HW2 1716   5.154   5.956   2.224
  273SOL     OW 1717   2.966   6.589   4.696
  273SOL    HW1 1718   2.979   6.680   4.736
  273SOL    HW2 1719   3.055   6.549   4.675
  274SOL     OW 1720   5.717   1.717   1.088
  274SOL    HW1 1721   5.717   1.812   1.059
  274SOL    HW2 1722   5.641   1.668   1.046
  275SOL     OW 1723   5.700   5.817   5.611
  275SOL    HW1 1724   5.692   5.916   5.607
  275SOL    HW2 1725   5.694   5.778   5.519
  276SOL     OW 1726   0.246   6.543   3.668
  276SOL    HW1 1727   0.297   6.461   3.643
  276SOL    HW2 1728   0.149   6.529   3.650
  277SOL     OW 1729   4.696   2.352   5.548
  277SOL    HW1 1730   4.738   2.370   5.637
  277SOL    HW2 1731   4.653   2.262   5.550
  278SOL     OW 1732   5.840   3.807   3.248
  278SOL    HW1 1733   5.882   3.834   3.334
  278SOL    HW2 1734   5.869   3.714   3.225
  279SOL     OW 1735   0.516   3.754   4.148
  279SOL    HW1 1736   0.520   3.702   4.233
  279SOL    HW2 1737   0.486   3.695   4.073
  280SOL     OW 1738   3.403   1.324   3.359
  280SOL    HW1 1739   3.435   1.248   3.415
  280SOL    HW2 1740   3.343   1.288   3.287
  281SOL     OW 1741   5.561   6.464   4.716
  281SOL    HW1 1742   5.625   6.455   4.640
  281SOL    HW2 1743   5.599   6.422   4.798
  282SOL     OW 1744   1.349   2.331   0.341
  282SOL    HW1 1745   1.394   2.266   0.280
  282SOL    HW2 1746   1.251   2.330   0.324
  283SOL     OW 1747   5.577   2.764   4.417
  283SOL    HW1 1748   5.516   2.841   4.403
  283SOL    HW2 1749   5.610   2.730   4.329
  284SOL     OW 1750   4.735   5.575   2.906
  284SOL    HW1 1751   4.750   5.501   2.840
  284SOL    HW2 1752   4.741   5.663   2.860
  285SOL     OW 1753   4.265   0.549   5.659
  285SOL    HW1 1754   4.334   0.600   5.608
  285SOL    HW2 1755   4.174   0.569   5.621
  286SOL     OW 1756   2.624   5.240   5.619
  286SOL    HW1 1757   2.588   5.214   5.708
  286SOL    HW2 1758   2.549   5.242   5.552
  287SOL     OW 1759   3.412   0.311   6.893
  287SOL    HW1 1760   3.472   0.280   6.967
  287SOL    HW2 1761   3.328   0.350   6.933
  288SOL     OW 1762   4.415   1.399   0.953
  288SOL    HW1 1763   4.389   1.444   0.867
  288SOL    HW2 1764   4.464   1.464   1.011
  289SOL     OW 1765   6.520   5.674   3.614
  289SOL    HW1 1766   6.422   5.655   3.622
  289SOL    HW2 1767   6.551   5.652   3.521
  290SOL     OW 1768   3.790   0.805   6.372
  290SOL    HW1 1769   3.869   0.866   6.380
  290SOL    HW2 1770   3.750   0.790   6.463
  291SOL     OW 1771   3.831   0.422   5.494
  291SOL    HW1 1772   3.826   0.521   5.482
  291SOL    HW2 1773   3.905   0.400   5.558
  292SOL     OW 1774   4.715   0.601   3.995
  292SOL    HW1 1775   4.809   0.589   4.027
  292SOL    HW2 1776   4.654   0.605   4.074
  293SOL     OW 1777   5.952   6.753   2.305
  293SOL    HW1 1778   5.966   6.840   2.351
  293SOL    HW2 1779   5.918   6.686   2.371
  294SOL     OW 1780   5.717   1.040   6.329
  294SOL    HW1 1781   5.643   1.103   6.354
  294SOL    HW2 1782   5.805   1.083   6.348
  295SOL     OW 1783   1.323   0.593   4.715
  295SOL    HW1 1784   1.306   0.618   4.810
  295SOL    HW2 1785   1.242   0.614   4.660
  296SOL     OW 1786   0.690   2.412   1.305
  296SOL    HW1 1787   0.708   2.460   1.391
  296SOL    HW2 1788   0.592   2.417   1.284
  297SOL     OW 1789   5.244   3.770   3.482
  297SOL    HW1 1790   5.180   3.817   3.543
  297SOL    HW2 1791   5.194   3.715   3.416
  298SOL     OW 1792   4.577   0.763   6.357
  298SOL    HW1 1793   4.482   0.743   6.382
  298SOL    HW2 1794   4.583   0.779   6.258
  299SOL     OW 1795   0.890   0.377   0.140
  299SOL    HW1 1796   0.902   0.408   0.046
  299SOL    HW2 1797   0.909   0.278   0.145
  300SOL     OW 1798   4.074   0.109   3.585
  300SOL    HW1 1799   4.105   0.075   3.496
  300SOL    HW2 1800   4.116   0.199   3.603
  301SOL     OW 1801   6.781   5.009   0.385
  301SOL    HW1 1802   6.769   5.066   0.303
  301SOL    HW2 1803   6.797   5.068   0.464
  302SOL     OW 1804   6.941   5.135   2.383
  302SOL    HW1 1805   0.016   5.146   2.397
  302SOL    HW2 1806   6.924   5.105   2.289
  303SOL     OW 1807   5.290   5.780   3.391
  303SOL    HW1 1808   5.206   5.766   3.339
  303SOL    HW2 1809   5.362   5.813   3.330
  304SOL     OW 1810   2.734   6.052   5.064
  304SOL    HW1 1811   2.691   5.980   5.010
  304SOL    HW2 1812   2.666   6.097   5.122
  305SOL     OW 1813   1.160   2.721   1.928
  305SOL    HW1 1814   1.106   2.636   1.933
  305SOL    HW2 1815   1.207   2.726   1.840
  306SOL     OW 1816   0.125   6.932   3.487
  306SOL    HW1 1817   0.119   6.868   3.564
  306SOL    HW2 1818   0.111   0.002   3.520
  307SOL     OW 1819   3.505   3.117   4.513
  307SOL    HW1 1820   3.514   3.178   4.592
  307SOL    HW2 1821   3.511   3.171   4.429
  308SOL     OW 1822   5.912   2.096   3.049
  308SOL    HW1 1823   5.857   2.130   2.974
  308SOL    HW2 1824   5.982   2.164   3.072
  309SOL     OW 1825   1.918   5.820   6.530
  309SOL    HW1 1826   1.902   5.874   6.447
  309SOL    HW2 1827   2.005   5.771   6.522
  310SOL     OW 1828   5.271   6.828   5.107
  310SOL    HW1 1829   5.362   6.787   5.119
  310SOL    HW2 1830   5.264   6.868   5.016
  311SOL     OW 1831   1.399   5.613   2.378
  311SOL    HW1 1832   1.330   5.543   2.394
  311SOL    HW2 1833   1.432   5.648   2.466
  312SOL     OW 1834   3.569   0.329   3.706
  312SOL    HW1 1835   3.547   0.288   3.617
  312SOL    HW2 1836   3.488   0.372   3.744
  313SOL     OW 1837   3.309   3.850   2.889
  313SOL    HW1 1838   3.330   3.942   2.923
  313SOL    HW2 1839   3.212   3.844   2.868
  314SOL     OW 1840   3.306   5.611   6.127
  314SOL    HW1 1841   3.208   5.595   6.138
  314SOL    HW2 1842   3.334   5.687   6.185
  315SOL     OW 1843   6.362   0.837   4.244
  315SOL    HW1 1844   6.367   0.879   4.153
  315SOL    HW2 1845   6.454   0.816   4.276
  316SOL     OW 1846   4.243   1.125   6.492
  316SOL    HW1 1847   4.333   1.119   6.535
  316SOL    HW2 1848   4.232   1.216   6.451
  317SOL     OW 1849   1.344   1.807   1.135
  317SOL    HW1 1850   1.397   1.739   1.185
  317SOL    HW2 1851   1.266   1.763   1.090
  318SOL     OW 1852   0.615   0.408   5.360
  318SOL    HW1 1853   0.519   0.381   5.367
  318SOL    HW2 1854   0.673   0.331   5.386
  319SOL     OW 1855   0.832   1.193   3.418
  319SOL    HW1 1856   0.790   1.120   3.471
  319SOL    HW2 1857   0.770   1.221   3.345
  320SOL     OW 1858   5.773   2.195   6.252
  320SOL    HW1 1859   5.752   2.098   6.267
  320SOL    HW2 1860   5.711   2.252   6.306
  321SOL     OW 1861   4.771   2.659   0.549
  321SOL    HW1 1862   4.720   2.725   0.604
  321SOL    HW2 1863   4.866   2.690   0.539
  322SOL     OW 1864   2.940   3.212   6.315
  322SOL    HW1 1865   2.999   3.177   6.387
  322SOL    HW2 1866   2.905   3.302   6.341
  323SOL     OW 1867   1.560   3.697   2.289
  323SOL    HW1 1868   1.610   3.671   2.207
  323SOL    HW2 1869   1.554   3.797   2.295
  324SOL     OW 1870   0.826   0.367   3.021
  324SOL    HW1 1871   0.902   0.323   2.974
  324SOL    HW2 1872   0.755   0.392   2.955
  325SOL     OW 1873   6.725   3.756   1.124
  325SOL    HW1 1874   6.659   3.737   1.197
  325SOL    HW2 1875   6.758   3.850   1.133
  326SOL     OW 1876   0.964   6.257   6.623
  326SOL    HW1 1877   0.940   6.162   6.644
  326SOL    HW2 1878   0.981   6.267   6.525
  327SOL     OW 1879   5.133   5.320   4.851
  327SOL    HW1 1880   5.142   5.411   4.809
  327SOL    HW2 1881   5.205   5.308   4.920
  328SOL     OW 1882   1.685   4.011   3.114
  328SOL    HW1 1883   1.715   3.923   3.076
  328SOL    HW2 1884   1.720   4.021   3.207
  329SOL     OW 1885   3.122   2.910   1.746
  329SOL    HW1 1886   3.222   2.912   1.734
  329SOL    HW2 1887   3.098   2.836   1.809
  330SOL     OW 1888   2.627   4.720   1.010
  330SOL    HW1 1889   2.556   4.734   1.080
  330SOL    HW2 1890   2.612   4.784   0.935
  331SOL     OW 1891   6.368   5.285   6.303
  331SOL    HW1 1892   6.423   5.203   6.321
  331SOL    HW2 1893   6.417   5.346   6.242
  332SOL     OW 1894   5.868   2.471   2.953
  332SOL    HW1 1895   5.937   2.454   3.022
  332SOL    HW2 1896   5.895   2.549   2.896
  333SOL     OW 1897   3.385   0.701   5.232
  333SOL    HW1 1898   3.418   0.740   5.146
  333SOL    HW2 1899   3.285   0.707   5.234
  334SOL     OW 1900   3.907   3.719   3.199
  334SOL    HW1 1901   4.007   3.722   3.200
  334SOL    HW2 1902   3.876   3.656   3.270
  335SOL     OW 1903   4.082   1.788   1.409
  335SOL    HW1 1904   4.070   1.776   1.310
  335SOL    HW2 1905   4.031   1.868   1.439
  336SOL     OW 1906   2.828   1.823   4.253
  336SOL    HW1 1907   2.867   1.787   4.338
  336SOL    HW2 1908   2.902   1.845   4.190
  337SOL     OW 1909   1.427   0.730   5.374
  337SOL    HW1 1910   1.411   0.640   5.334
  337SOL    HW2 1911   1.431   0.798   5.302
  338SOL     OW 1912   4.206   1.590   1.532
  338SOL    HW1 1913   4.166   1.646   1.460
  338SOL    HW2 1914   4.288   1.635   1.569
  339SOL     OW 1915   4.118   6.219   5.447
  339SOL    HW1 1916   4.160   6.133   5.476
  339SOL    HW2 1917   4.158   6.248   5.360
  340SOL     OW 1918   4.982   1.902   4.340
  340SOL    HW1 1919   5.036   1.982   4.315
  340SOL    HW2 1920   5.013   1.823   4.286
  341SOL     OW 1921   6.265   6.388   2.754
  341SOL    HW1 1922   6.268   6.442   2.669
  341SOL    HW2 1923   6.324   6.308   2.745
  342SOL     OW 1924   4.866   2.052   2.632
  342SOL    HW1 1925   4.932   2.038   2.558
  342SOL    HW2 1926   4.858   2.150   2.651
  343SOL     OW 1927   6.721   6.438   2.708
  343SOL    HW1 1928   6.699   6.341   2.721
  343SOL    HW2 1929   6.638   6.492   2.724
  344SOL     OW 1930   0.557   1.911   0.695
  344SOL    HW1 1931   0.464   1.933   0.723
  344SOL    HW2 1932   0.610   1.995   0.687
  345SOL     OW 1933   6.471   3.143   4.226
  345SOL    HW1 1934   6.402   3.070   4.224
  345SOL    HW2 1935   6.426   3.231   4.241
  346SOL     OW 1936   2.160   6.784   3.584
  346SOL    HW1 1937   2.118   6.859   3.635
  346SOL    HW2 1938   2.092   6.712   3.569
  347SOL     OW 1939   2.340   5.000   0.366
  347SOL    HW1 1940   2.324   5.096   0.390
  347SOL    HW2 1941   2.252   4.956   0.347
  348SOL     OW 1942   4.359   5.448   1.585
  348SOL    HW1 1943   4.440   5.424   1.639
  348SOL    HW2 1944   4.286   5.478   1.646
  349SOL     OW 1945   5.695   4.534   1.592
  349SOL    HW1 1946   5.711   4.539   1.494
  349SOL    HW2 1947   5.648   4.616   1.623
  350SOL     OW 1948   3.480   2.885   0.431
  350SOL    HW1 1949   3.575   2.894   0.402
  350SOL    HW2 1950   3.420   2.895   0.351
  351SOL     OW 1951   3.298   4.661   1.190
  351SOL    HW1 1952   3.295   4.565   1.217
  351SOL    HW2 1953   3.231   4.713   1.244
  352SOL     OW 1954   4.317   0.260   2.956
  352SOL    HW1 1955   4.361   0.264   3.045
  352SOL    HW2 1956   4.348   0.179   2.906
  353SOL     OW 1957   1.614   6.769   5.822
  353SOL    HW1 1958   1.529   6.801   5.780
  353SOL    HW2 1959   1.601   6.759   5.921
  354SOL     OW 1960   0.273   2.452   0.339
  354SOL    HW1 1961   0.337   2.486   0.407
  354SOL    HW2 1962   0.180   2.456   0.375
  355SOL     OW 1963   1.466   1.664   3.033
  355SOL    HW1 1964   1.400   1.672   3.107
  355SOL    HW2 1965   1.510   1.752   3.017
  356SOL     OW 1966   1.645   0.987   5.676
  356SOL    HW1 1967   1.692   0.951   5.596
  356SOL    HW2 1968   1.680   0.943   5.759
  357SOL     OW 1969   5.127   0.053   5.223
  357SOL    HW1 1970   5.181   0.005   5.154
  357SOL    HW2 1971   5.112   0.148   5.194
  358SOL     OW 1972   3.702   5.979   6.499
  358SOL    HW1 1973   3.794   5.953   6.530
  358SOL    HW2 1974   3.651   5.896   6.474
  359SOL     OW 1975   2.281   2.213   2.649
  359SOL    HW1 1976   2.290   2.240   2.553
  359SOL    HW2 1977   2.301   2.116   2.659
  360SOL     OW 1978   1.125   4.602   4.256
  360SOL    HW1 1979   1.038   4.608   4.305
  360SOL    HW2 1980   1.190   4.549   4.309
  361SOL     OW 1981   6.661   1.850   2.732
  361SOL    HW1 1982   6.722   1.868   2.810
  361SOL    HW2 1983   6.613   1.763   2.747
  362SOL     OW 1984   3.604   4.164   0.958
  362SOL    HW1 1985   3.516   4.160   1.004
  362SOL    HW2 1986   3.631   4.072   0.929
  363SOL     OW 1987   5.087   5.627   1.651
  363SOL    HW1 1988   5.143   5.702   1.615
  363SOL    HW2 1989   5.066   5.563   1.577
  364SOL     OW 1990   0.985   6.262   6.311
  364SOL    HW1 1991   0.915   6.273   6.240
  364SOL    HW2 1992   1.076   6.261   6.269
  365SOL     OW 1993   4.543   1.650   3.336
  365SOL    HW1 1994   4.624   1.653   3.278
  365SOL    HW2 1995   4.502   1.559   3.331
  366SOL     OW 1996   5.342   1.552   0.125
  366SOL    HW1 1997   5.250   1.590   0.134
  366SOL    HW2 1998   5.400   1.591   0.196
  367SOL     OW 1999   5.332   1.453   5.455
  367SOL    HW1 2000   5.293   1.489   5.370
  367SOL    HW2 2001   5.431   1.466   5.455
  368SOL     OW 2002   6.603   2.008   5.716
  368SOL    HW1 2003   6.509   1.991   5.686
  368SOL    HW2 2004   6.637   1.928   5.765
  369SOL     OW 2005   6.731   3.227   2.208
  369SOL    HW1 2006   6.637   3.246   2.178
  369SOL    HW2 2007   6.745   3.128   2.211
  370SOL     OW 2008   1.382   3.189   3.856
  370SOL    HW1 2009   1.423   3.173   3.766
  370SOL    HW2 2010   1.342   3.104   3.890
  371SOL     OW 2011   1.152   4.912   0.069
  371SOL    HW1 2012   1.235   4.879   0.024
  371SOL    HW2 2013   1.165   5.007   0.098
  372SOL     OW 2014   3.917   6.213   5.911
  372SOL    HW1 2015   3.886   6.188   6.003
  372SOL    HW2 2016   3.964   6.135   5.870
  373SOL     OW 2017   5.601   5.367   3.635
  373SOL    HW1 2018   5.602   5.269   3.655
  373SOL    HW2 2019   5.605   5.419   3.720
  374SOL     OW 2020   2.954   1.755   3.186
  374SOL    HW1 2021   2.969   1.734   3.283
  374SOL    HW2 2022   3.039   1.787   3.145
  375SOL     OW 2023   1.133   5.163   4.522
  375SOL    HW1 2024   1.123   5.194   4.428
  375SOL    HW2 2025   1.129   5.063   4.524
  376SOL     OW 2026   3.042   1.099   3.778
  376SOL    HW1 2027   3.033   1.179   3.837
  376SOL    HW2 2028   2.954   1.079   3.735
  377SOL     OW 2029   1.014   1.722   6.890
  377SOL    HW1 2030   0.930   1.760   6.851
  377SOL    HW2 2031   1.019   1.624   6.869
  378SOL     OW 2032   3.995   0.752   2.372
  378SOL    HW1 2033   4.053   0.831   2.389
  378SOL    HW2 2034   4.038   0.670   2.410
  379SOL     OW 2035   5.907   1.565   6.250
  379SOL    HW1 2036   5.911   1.531   6.344
  379SOL    HW2 2037   5.894   1.489   6.187
  380SOL     OW 2038   4.216   2.586   0.399
  380SOL    HW1 2039   4.120   2.580   0.424
  380SOL    HW2 2040   4.259   2.660   0.451
  381SOL     OW 2041   1.795   3.694   3.200
  381SOL    HW1 2042   1.894   3.710   3.203
  381SOL    HW2 2043   1.757   3.736   3.118
  382SOL     OW 2044   4.841   0.558   0.072
  382SOL    HW1 2045   4.743   0.553   0.054
  382SOL    HW2 2046   4.887   0.603   7.019
  383SOL     OW 2047   4.625   2.335   0.685
  383SOL    HW1 2048   4.703   2.308   0.629
  383SOL    HW2 2049   4.632   2.291   0.775
  384SOL     OW 2050   6.013   3.776   4.953
  384SOL    HW1 2051   6.064   3.724   4.885
  384SOL    HW2 2052   5.987   3.865   4.915
  385SOL     OW 2053   4.449   3.678   0.434
  385SOL    HW1 2054   4.508   3.618   0.488
  385SOL    HW2 2055   4.453   3.652   0.337
  386SOL     OW 2056   3.802   6.150   3.779
  386SOL    HW1 2057   3.889   6.161   3.732
  386SOL    HW2 2058   3.786   6.229   3.839
  387SOL     OW 2059   2.746   6.452   3.562
  387SOL    HW1 2060   2.819   6.466   3.495
  387SOL    HW2 2061   2.726   6.538   3.609
  388SOL     OW 2062   1.776   4.283   6.367
  388SOL    HW1 2063   1.865   4.245   6.342
  388SOL    HW2 2064   1.786   4.343   6.447
  389SOL     OW 2065   2.988   3.689   3.068
  389SOL    HW1 2066   3.067   3.644   3.110
  389SOL    HW2 2067   2.959   3.765   3.125
  390SOL     OW 2068   2.334   1.499   4.046
  390SOL    HW1 2069   2.292   1.409   4.057
  390SOL    HW2 2070   2.268   1.570   4.072
  391SOL     OW 2071   0.617   3.065   0.056
  391SOL    HW1 2072   0.583   3.111   6.998
  391SOL    HW2 2073   0.552   3.077   0.131
  392SOL     OW 2074   2.511   5.413   2.153
  392SOL    HW1 2075   2.468   5.325   2.135
  392SOL    HW2 2076   2.593   5.400   2.208
  393SOL     OW 2077   5.989   4.682   5.083
  393SOL    HW1 2078   5.902   4.720   5.116
  393SOL    HW2 2079   6.018   4.732   5.002
  394SOL     OW 2080   2.290   0.749   0.051
  394SOL    HW1 2081   2.273   0.653   0.031
  394SOL    HW2 2082   2.204   0.794   0.074
  395SOL     OW 2083   6.338   3.594   1.349
  395SOL    HW1 2084   6.311   3.685   1.318
  395SOL    HW2 2085   6.369   3.599   1.444
  396SOL     OW 2086   3.240   3.783   4.091
  396SOL    HW1 2087   3.315   3.721   4.067
  396SOL    HW2 2088   3.153   3.735   4.081
  397SOL     OW 2089   4.212   2.491   6.250
  397SOL    HW1 2090   4.202   2.473   6.152
  397SOL    HW2 2091   4.167   2.419   6.302
  398SOL     OW 2092   0.798   5.281   1.649
  398SOL    HW1 2093   0.881   5.228   1.636
  398SOL    HW2 2094   0.766   5.316   1.561
  399SOL     OW 2095   4.820   5.242   1.971
  399SOL    HW1 2096   4.751   5.175   1.945
  399SOL    HW2 2097   4.782   5.305   2.039
  400SOL     OW 2098   1.286   5.573   5.376
  400SOL    HW1 2099   1.294   5.511   5.454
  400SOL    HW2 2100   1.190   5.580   5.349
  401SOL     OW 2101   5.044   1.440   0.214
  401SOL    HW1 2102   4.973   1.389   0.166
  401SOL    HW2 2103   5.057   1.403   0.306
  402SOL     OW 2104   5.390   4.644   1.129
  402SOL    HW1 2105   5.404   4.560   1.077
  402SOL    HW2 2106   5.451   4.644   1.209
  403SOL     OW 2107   4.667   2.675   6.122
  403SOL    HW1 2108   4.748   2.689   6.180
  403SOL    HW2 2109   4.590   2.649   6.180
  404SOL     OW 2110   0.407   0.228   4.678
  404SOL    HW1 2111   0.360   0.173   4.609
  404SOL    HW2 2112   0.360   0.315   4.689
  405SOL     OW 2113   0.351   2.131   0.657
  405SOL    HW1 2114   0.283   2.059   0.642
  405SOL    HW2 2115   0.421   2.126   0.586
  406SOL     OW 2116   1.909   3.281   4.093
  406SOL    HW1 2117   1.909   3.380   4.104
  406SOL    HW2 2118   1.817   3.250   4.068
  407SOL     OW 2119   2.832   0.586   4.523
  407SOL    HW1 2120   2.872   0.532   4.449
  407SOL    HW2 2121   2.789   0.524   4.589
  408SOL     OW 2122   1.952   0.593   3.482
  408SOL    HW1 2123   2.006   0.509   3.471
  408SOL    HW2 2124   1.871   0.574   3.537
  409SOL     OW 2125   6.215   3.384   3.523
  409SOL    HW1 2126   6.248   3.348   3.435
  409SOL    HW2 2127   6.209   3.309   3.589
  410SOL     OW 2128   2.580   1.163   6.810
  410SOL    HW1 2129   2.542   1.255   6.800
  410SOL    HW2 2130   2.509   1.096   6.792
  411SOL     OW 2131   6.165   4.530   5.740
  411SOL    HW1 2132   6.125   4.590   5.671
  411SOL    HW2 2133   6.265   4.536   5.735
  412SOL     OW 2134   3.725   0.468   2.698
  412SOL    HW1 2135   3.676   0.555   2.712
  412SOL    HW2 2136   3.771   0.443   2.783
  413SOL     OW 2137   2.260   6.851   0.809
  413SOL    HW1 2138   2.268   6.947   0.835
  413SOL    HW2 2139   2.170   6.834   0.769
  414SOL     OW 2140   3.832   4.009   0.330
  414SOL    HW1 2141   3.912   3.999   0.389
  414SOL    HW2 2142   3.750   4.018   0.386
  415SOL     OW 2143   2.490   6.734   1.171
  415SOL    HW1 2144   2.587   6.743   1.194
  415SOL    HW2 2145   2.439   6.712   1.254
  416SOL     OW 2146   4.118   6.036   4.860
  416SOL    HW1 2147   4.107   6.135   4.869
  416SOL    HW2 2148   4.185   6.003   4.926
  417SOL     OW 2149   4.471   6.285   1.527
  417SOL    HW1 2150   4.440   6.358   1.588
  417SOL    HW2 2151   4.516   6.324   1.447
  418SOL     OW 2152   5.041   5.174   1.072
  418SOL    HW1 2153   5.064   5.089   1.119
  418SOL    HW2 2154   4.959   5.161   1.017
  419SOL     OW 2155   6.627   6.590   1.325
  419SOL    HW1 2156   6.554   6.521   1.320
  419SOL    HW2 2157   6.701   6.565   1.263
  420SOL     OW 2158   4.825   5.037   0.237
  420SOL    HW1 2159   4.780   5.106   0.293
  420SOL    HW2 2160   4.757   4.972   0.203
  421SOL     OW 2161   2.238   6.428   6.414
  421SOL    HW1 2162   2.313   6.459   6.472
  421SOL    HW2 2163   2.212   6.501   6.350
  422SOL     OW 2164   5.419   4.027   6.540
  422SOL    HW1 2165   5.384   4.120   6.549
  422SOL    HW2 2166   5.475   4.020   6.457
  423SOL     OW 2167   0.126   3.034   6.980
  423SOL    HW1 2168   0.090   2.962   6.921
  423SOL    HW2 2169   0.138   2.998   0.049
  424SOL     OW 2170   2.688   4.075   0.599
  424SOL    HW1 2171   2.734   4.000   0.552
  424SOL    HW2 2172   2.590   4.074   0.577
  425SOL     OW 2173   3.304   1.582   0.383
  425SOL    HW1 2174   3.335   1.622   0.469
  425SOL    HW2 2175   3.299   1.482   0.393
  426SOL     OW 2176   5.448   4.260   5.926
  426SOL    HW1 2177   5.521   4.220   5.869
  426SOL    HW2 2178   5.476   4.351   5.957
  427SOL     OW 2179   5.714   3.735   1.266
  427SOL    HW1 2180   5.803   3.690   1.269
  427SOL    HW2 2181   5.687   3.749   1.171
  428SOL     OW 2182   3.737   0.996   5.143
  428SOL    HW1 2183   3.831   1.025   5.159
  428SOL    HW2 2184   3.700   0.951   5.224
  429SOL     OW 2185   1.500   4.607   6.996
  429SOL    HW1 2186   1.500   4.707   6.998
  429SOL    HW2 2187   1.590   4.573   0.000
  430SOL     OW 2188   1.360   0.444   5.309
  430SOL    HW1 2189   1.265   0.468   5.327
  430SOL    HW2 2190   1.382   0.357   5.353
  431SOL     OW 2191   3.408   1.664   0.655
  431SOL    HW1 2192   3.464   1.688   0.735
  431SOL    HW2 2193   3.312   1.668   0.681
  432SOL     OW 2194   0.205   1.866   1.099
  432SOL    HW1 2195   0.193   1.895   1.193
  432SOL    HW2 2196   0.155   1.780   1.084
  433SOL     OW 2197   3.513   6.442   5.151
  433SOL    HW1 2198   3.448   6.397   5.212
  433SOL    HW2 2199   3.599   6.390   5.150
  434SOL     OW 2200   6.888   3.591   1.829
  434SOL    HW1 2201   6.885   3.690   1.841
  434SOL    HW2 2202   6.807   3.550   1.871
  435SOL     OW 2203   3.189   4.548   6.879
  435SOL    HW1 2204   3.165   4.536   6.783
  435SOL    HW2 2205   3.176   4.644   6.905
  436SOL     OW 2206   1.952   0.542   0.579
  436SOL    HW1 2207   1.944   0.602   0.658
  436SOL    HW2 2208   2.044   0.504   0.575
  437SOL     OW 2209   7.019   7.021   6.541
  437SOL    HW1 2210   6.968   6.965   6.606
  437SOL    HW2 2211   7.009   0.094   6.565
  438SOL     OW 2212   1.312   2.791   1.700
  438SOL    HW1 2213   1.343   2.886   1.699
  438SOL    HW2 2214   1.385   2.731   1.668
  439SOL     OW 2215   6.642   4.813   2.947
  439SOL    HW1 2216   6.735   4.807   2.908
  439SOL    HW2 2217   6.577   4.833   2.874
  440SOL     OW 2218   1.158   2.658   4.172
  440SOL    HW1 2219   1.128   2.572   4.131
  440SOL    HW2 2220   1.244   2.687   4.129
  441SOL     OW 2221   1.203   1.409   3.454
  441SOL    HW1 2222   1.202   1.397   3.354
  441SOL    HW2 2223   1.288   1.453   3.481
  442SOL     OW 2224   0.006   3.643   0.132
  442SOL    HW1 2225   7.012   3.564   0.191
  442SOL    HW2 2226   7.002   3.726   0.180
  443SOL     OW 2227   0.739   4.129   5.517
  443SOL    HW1 2228   0.728   4.040   5.472
  443SOL    HW2 2229   0.836   4.156   5.513
  444SOL     OW 2230   4.482   2.844   6.443
  444SOL    HW1 2231   4.478   2.777   6.369
  444SOL    HW2 2232   4.490   2.797   6.531
  445SOL     OW 2233   2.232   4.300   3.283
  445SOL    HW1 2234   2.290   4.359   3.227
  445SOL    HW2 2235   2.238   4.328   3.379
  446SOL     OW 2236   4.173   4.876   3.960
  446SOL    HW1 2237   4.206   4.903   3.870
  446SOL    HW2 2238   4.133   4.955   4.006
  447SOL     OW 2239   6.508   5.251   0.680
  447SOL    HW1 2240   6.598   5.208   0.669
  447SOL    HW2 2241   6.441   5.181   0.706
  448SOL     OW 2242   4.128   0.814   4.630
  448SOL    HW1 2243   4.201   0.746   4.636
  448SOL    HW2 2244   4.073   0.797   4.548
  449SOL     OW 2245   5.428   0.904   4.309
  449SOL    HW1 2246   5.422   1.002   4.331
  449SOL    HW2 2247   5.488   0.891   4.230
  450SOL     OW 2248   0.414   6.166   3.788
  450SOL    HW1 2249   0.343   6.166   3.858
  450SOL    HW2 2250   0.459   6.077   3.785
  451SOL     OW 2251   0.611   2.241   3.047
  451SOL    HW1 2252   0.621   2.149   3.084
  451SOL    HW2 2253   0.653   2.307   3.109
  452SOL     OW 2254   0.189   4.623   6.631
  452SOL    HW1 2255   0.175   4.552   6.700
  452SOL    HW2 2256   0.277   4.609   6.586
  453SOL     OW 2257   3.253   1.532   6.446
  453SOL    HW1 2258   3.208   1.522   6.357
  453SOL    HW2 2259   3.325   1.601   6.440
  454SOL     OW 2260   1.171   6.104   0.017
  454SOL    HW1 2261   1.175   6.159   0.100
  454SOL    HW2 2262   1.088   6.048   0.018
  455SOL     OW 2263   5.744   0.623   4.862
  455SOL    HW1 2264   5.650   0.592   4.850
  455SOL    HW2 2265   5.804   0.544   4.876
  456SOL     OW 2266   4.528   5.881   6.018
  456SOL    HW1 2267   4.559   5.974   6.039
  456SOL    HW2 2268   4.435   5.885   5.980
  457SOL     OW 2269   2.460   4.935   3.019
  457SOL    HW1 2270   2.370   4.901   3.043
  457SOL    HW2 2271   2.508   4.868   2.964
  458SOL     OW 2272   6.103   5.271   5.664
  458SOL    HW1 2273   6.098   5.193   5.726
  458SOL    HW2 2274   6.022   5.328   5.674
  459SOL     OW 2275   1.779   0.750   2.569
  459SOL    HW1 2276   1.689   0.723   2.535
  459SOL    HW2 2277   1.795   0.708   2.658
  460SOL     OW 2278   6.964   1.986   2.843
  460SOL    HW1 2279   6.946   2.044   2.923
  460SOL    HW2 2280   6.996   2.042   2.767
  461SOL     OW 2281   4.903   6.580   5.342
  461SOL    HW1 2282   4.934   6.674   5.350
  461SOL    HW2 2283   4.896   6.539   5.433
  462SOL     OW 2284   3.392   2.961   6.523
  462SOL    HW1 2285   3.296   2.956   6.494
  462SOL    HW2 2286   3.402   2.917   6.612
  463SOL     OW 2287   6.973   5.054   2.838
  463SOL    HW1 2288   6.948   4.960   2.813
  463SOL    HW2 2289   6.891   5.106   2.859
  464SOL     OW 2290   1.788   1.349   6.035
  464SOL    HW1 2291   1.836   1.267   6.003
  464SOL    HW2 2292   1.855   1.413   6.073
  465SOL     OW 2293   0.203   2.418   3.963
  465SOL    HW1 2294   0.141   2.413   3.885
  465SOL    HW2 2295   0.150   2.421   4.048
  466SOL     OW 2296   1.456   6.712   4.019
  466SOL    HW1 2297   1.550   6.678   4.005
  466SOL    HW2 2298   1.408   6.652   4.082
  467SOL     OW 2299   1.424   0.517   5.666
  467SOL    HW1 2300   1.425   0.617   5.673
  467SOL    HW2 2301   1.384   0.478   5.750
  468SOL     OW 2302   3.660   5.129   1.014
  468SOL    HW1 2303   3.677   5.227   1.023
  468SOL    HW2 2304   3.575   5.114   0.964
  469SOL     OW 2305   2.185   5.609   6.899
  469SOL    HW1 2306   2.206   5.527   6.845
  469SOL    HW2 2307   2.099   5.648   6.868
  470SOL     OW 2308   4.175   0.558   2.445
  470SOL    HW1 2309   4.217   0.510   2.368
  470SOL    HW2 2310   4.105   0.500   2.485
  471SOL     OW 2311   2.251   2.863   4.796
  471SOL    HW1 2312   2.318   2.873   4.870
  471SOL    HW2 2313   2.199   2.779   4.810
  472SOL     OW 2314   4.274   5.541   6.112
  472SOL    HW1 2315   4.190   5.504   6.151
  472SOL    HW2 2316   4.254   5.585   6.024
  473SOL     OW 2317   1.459   3.261   2.802
  473SOL    HW1 2318   1.366   3.228   2.787
  473SOL    HW2 2319   1.457   3.360   2.816
  474SOL     OW 2320   4.097   5.119   5.046
  474SOL    HW1 2321   4.057   5.109   5.137
  474SOL    HW2 2322   4.059   5.199   5.001
  475SOL     OW 2323   0.220   6.654   6.149
  475SOL    HW1 2324   0.167   6.706   6.217
  475SOL    HW2 2325   0.232   6.560   6.180
  476SOL     OW 2326   6.490   4.834   2.716
  476SOL    HW1 2327   6.558   4.866   2.651
  476SOL    HW2 2328   6.434   4.911   2.747
  477SOL     OW 2329   2.172   5.232   3.709
  477SOL    HW1 2330   2.152   5.283   3.793
  477SOL    HW2 2331   2.090   5.182   3.681
  478SOL     OW 2332   3.781   5.444   3.541
  478SOL    HW1 2333   3.873   5.410   3.522
  478SOL    HW2 2334   3.787   5.534   3.584
  479SOL     OW 2335   3.284   2.742   0.533
  479SOL    HW1 2336   3.368   2.784   0.500
  479SOL    HW2 2337   3.306   2.657   0.581
  480SOL     OW 2338   0.692   6.497   2.632
  480SOL    HW1 2339   0.741   6.410   2.635
  480SOL    HW2 2340   0.690   6.537   2.724
  481SOL     OW 2341   3.775   6.999   1.189
  481SOL    HW1 2342   3.831   0.013   1.263
  481SOL    HW2 2343   3.764   6.900   1.203
  482SOL     OW 2344   5.794   5.021   2.737
  482SOL    HW1 2345   5.834   5.000   2.648
  482SOL    HW2 2346   5.865   5.015   2.807
  483SOL     OW 2347   5.634   1.847   2.037
  483SOL    HW1 2348   5.670   1.798   2.116
  483SOL    HW2 2349   5.654   1.795   1.954
  484SOL     OW 2350   0.590   2.908   4.054
  484SOL    HW1 2351   0.496   2.937   4.038
  484SOL    HW2 2352   0.592   2.847   4.134
  485SOL     OW 2353   3.633   5.187   2.082
  485SOL    HW1 2354   3.719   5.228   2.113
  485SOL    HW2 2355   3.559   5.254   2.091
  486SOL     OW 2356   0.765   0.400   0.413
  486SOL    HW1 2357   0.828   0.477   0.427
  486SOL    HW2 2358   0.808   0.316   0.446
  487SOL     OW 2359   0.521   2.454   6.933
  487SOL    HW1 2360   0.450   2.523   6.948
  487SOL    HW2 2361   0.611   2.493   6.955
  488SOL     OW 2362   0.069   1.768   2.148
  488SOL    HW1 2363   0.003   1.756   2.074
  488SOL    HW2 2364   0.161   1.745   2.116
  489SOL     OW 2365   3.267   6.234   0.048
  489SOL    HW1 2366   3.319   6.249   6.988
  489SOL    HW2 2367   3.224   6.320   0.077
  490SOL     OW 2368   6.294   6.288   4.297
  490SOL    HW1 2369   6.328   6.371   4.253
  490SOL    HW2 2370   6.365   6.218   4.297
  491SOL     OW 2371   1.365   2.755   2.493
  491SOL    HW1 2372   1.371   2.658   2.466
  491SOL    HW2 2373   1.385   2.763   2.591
  492SOL     OW 2374   2.868   0.213   5.796
  492SOL    HW1 2375   2.859   0.309   5.823
  492SOL    HW2 2376   2.789   0.161   5.828
  493SOL     OW 2377   6.220   4.354   5.460
  493SOL    HW1 2378   6.295   4.412   5.493
  493SOL    HW2 2379   6.187   4.389   5.373
  494SOL     OW 2380   0.351   0.005   0.397
  494SOL    HW1 2381   0.322   0.088   0.444
  494SOL    HW2 2382   0.342   0.017   0.298
  495SOL     OW 2383   4.741   4.756   1.765
  495SOL    HW1 2384   4.840   4.753   1.780
  495SOL    HW2 2385   4.698   4.677   1.809
  496SOL     OW 2386   5.308   3.374   2.686
  496SOL    HW1 2387   5.245   3.411   2.618
  496SOL    HW2 2388   5.302   3.428   2.770
  497SOL     OW 2389   3.674   0.941   4.718
  497SOL    HW1 2390   3.707   0.999   4.793
  497SOL    HW2 2391   3.577   0.960   4.701
  498SOL     OW 2392   0.495   2.910   2.881
  498SOL    HW1 2393   0.437   2.943   2.806
  498SOL    HW2 2394   0.587   2.947   2.871
  499SOL     OW 2395   3.586   0.551   4.980
  499SOL    HW1 2396   3.518   0.501   5.034
  499SOL    HW2 2397   3.563   0.649   4.981
  500SOL     OW 2398   0.672   3.321   2.875
  500SOL    HW1 2399   0.580   3.353   2.851
  500SOL    HW2 2400   0.677   3.307   2.974
  501SOL     OW 2401   1.723   3.192   6.575
  501SOL    HW1 2402   1.672   3.136   6.510
  501SOL    HW2 2403   1.662   3.220   6.650
  502SOL     OW 2404   4.307   5.134   6.989
  502SOL    HW1 2405   4.381   5.092   6.936
  502SOL    HW2 2406   4.221   5.089   6.968
  503SOL     OW 2407   6.056   4.681   5.540
  503SOL    HW1 2408   6.016   4.766   5.575
  503SOL    HW2 2409   6.051   4.679   5.440
  504SOL     OW 2410   2.032   6.383   4.233
  504SOL    HW1 2411   2.012   6.337   4.146
  504SOL    HW2 2412   1.989   6.333   4.308
  505SOL     OW 2413   4.626   0.327   5.826
  505SOL    HW1 2414   4.670   0.240   5.849
  505SOL    HW2 2415   4.607   0.329   5.727
  506SOL     OW 2416   1.577   4.565   4.728
  506SOL    HW1 2417   1.553   4.634   4.797
  506SOL    HW2 2418   1.621   4.487   4.772
  507SOL     OW 2419   3.363   0.101   5.068
  507SOL    HW1 2420   3.338   0.005   5.078
  507SOL    HW2 2421   3.297   0.146   5.008
  508SOL     OW 2422   6.737   3.834   3.165
  508SOL    HW1 2423   6.713   3.777   3.086
  508SOL    HW2 2424   6.822   3.802   3.206
  509SOL     OW 2425   4.728   1.059   1.957
  509SOL    HW1 2426   4.654   1.118   1.923
  509SOL    HW2 2427   4.811   1.113   1.969
  510SOL     OW 2428   6.859   4.680   4.911
  510SOL    HW1 2429   6.856   4.652   5.006
  510SOL    HW2 2430   6.946   4.654   4.870
  511SOL     OW 2431   0.758   6.279   0.396
  511SOL    HW1 2432   0.839   6.221   0.397
  511SOL    HW2 2433   0.733   6.301   0.301
  512SOL     OW 2434   1.064   3.685   6.868
  512SOL    HW1 2435   1.150   3.648   6.903
  512SOL    HW2 2436   1.036   3.634   6.787
  513SOL     OW 2437   6.731   5.693   3.805
  513SOL    HW1 2438   6.671   5.693   3.724
  513SOL    HW2 2439   6.676   5.711   3.887
  514SOL     OW 2440   6.474   1.762   4.203
  514SOL    HW1 2441   6.463   1.674   4.159
  514SOL    HW2 2442   6.571   1.782   4.217
  515SOL     OW 2443   2.086   6.742   5.724
  515SOL    HW1 2444   2.115   6.677   5.794
  515SOL    HW2 2445   2.012   6.799   5.760
  516SOL     OW 2446   2.024   4.955   1.461
  516SOL    HW1 2447   1.944   4.984   1.408
  516SOL    HW2 2448   2.015   4.987   1.555
  517SOL     OW 2449   4.404   6.884   1.549
  517SOL    HW1 2450   4.438   6.977   1.564
  517SOL    HW2 2451   4.434   6.852   1.459
  518SOL     OW 2452   2.387   2.694   1.470
  518SOL    HW1 2453   2.297   2.701   1.514
  518SOL    HW2 2454   2.409   2.598   1.454
  519SOL     OW 2455   0.151   6.977   6.080
  519SOL    HW1 2456   0.060   6.936   6.085
  519SOL    HW2 2457   0.189   6.985   6.173
  520SOL     OW 2458   5.372   4.947   6.039
  520SOL    HW1 2459   5.346   4.917   5.947
  520SOL    HW2 2460   5.305   4.913   6.106
  521SOL     OW 2461   6.901   1.741   6.907
  521SOL    HW1 2462   6.961   1.821   6.913
  521SOL    HW2 2463   6.807   1.769   6.929
  522SOL     OW 2464   3.868   3.038   4.417
  522SOL    HW1 2465   3.786   2.986   4.394
  522SOL    HW2 2466   3.879   3.042   4.516
  523SOL     OW 2467   6.978   6.993   4.608
  523SOL    HW1 2468   6.906   7.015   4.674
  523SOL    HW2 2469   0.003   0.053   4.582
  524SOL     OW 2470   2.922   0.935   6.321
  524SOL    HW1 2471   2.864   0.984   6.256
  524SOL    HW2 2472   3.018   0.953   6.300
  525SOL     OW 2473   2.559   4.066   6.759
  525SOL    HW1 2474   2.599   4.108   6.840
  525SOL    HW2 2475   2.596   4.111   6.677
  526SOL     OW 2476   3.427   5.472   4.613
  526SOL    HW1 2477   3.328   5.460   4.617
  526SOL    HW2 2478   3.450   5.525   4.531
  527SOL     OW 2479   0.028   1.410   0.231
  527SOL    HW1 2480   7.023   1.500   0.199
  527SOL    HW2 2481   6.970   1.358   0.258
  528SOL     OW 2482   2.394   1.342   5.239
  528SOL    HW1 2483   2.454   1.347   5.159
  528SOL    HW2 2484   2.406   1.425   5.294
  529SOL     OW 2485   1.137   4.880   4.468
  529SOL    HW1 2486   1.163   4.846   4.559
  529SOL    HW2 2487   1.189   4.829   4.399
  530SOL     OW 2488   2.284   3.111   5.425
  530SOL    HW1 2489   2.187   3.113   5.403
  530SOL    HW2 2490   2.337   3.096   5.342
  531SOL     OW 2491   1.062   0.225   1.336
  531SOL    HW1 2492   1.090   0.132   1.312
  531SOL    HW2 2493   0.964   0.226   1.357
  532SOL     OW 2494   0.962   1.192   5.245
  532SOL    HW1 2495   0.931   1.136   5.322
  532SOL    HW2 2496   0.960   1.289   5.272
  533SOL     OW 2497   5.674   6.492   5.075
  533SOL    HW1 2498   5.762   6.537   5.058
  533SOL    HW2 2499   5.670   6.407   5.023
  534SOL     OW 2500   4.472   5.534   2.633
  534SOL    HW1 2501   4.438   5.552   2.541
  534SOL    HW2 2502   4.513   5.617   2.670
  535SOL     OW 2503   0.302   4.129   3.572
  535SOL    HW1 2504   0.310   4.202   3.640
  535SOL    HW2 2505   0.347   4.046   3.607
  536SOL     OW 2506   1.622   5.542   1.403
  536SOL    HW1 2507   1.644   5.487   1.484
  536SOL    HW2 2508   1.679   5.624   1.402
  537SOL     OW 2509   2.241   0.133   2.256
  537SOL    HW1 2510   2.271   0.125   2.161
  537SOL    HW2 2511   2.215   0.228   2.274
  538SOL     OW 2512   0.964   6.006   2.822
  538SOL    HW1 2513   0.880   5.956   2.799
  538SOL    HW2 2514   0.956   6.043   2.915
  539SOL     OW 2515   1.776   4.994   2.069
  539SOL    HW1 2516   1.806   4.902   2.044
  539SOL    HW2 2517   1.680   4.992   2.095
  540SOL     OW 2518   2.044   2.499   2.203
  540SOL    HW1 2519   2.034   2.559   2.282
  540SOL    HW2 2520   2.068   2.407   2.235
  541SOL     OW 2521   2.912   5.847   5.691
  541SOL    HW1 2522   2.850   5.850   5.612
  541SOL    HW2 2523   2.961   5.760   5.690
  542SOL     OW 2524   6.105   5.508   6.844
  542SOL    HW1 2525   6.182   5.500   6.781
  542SOL    HW2 2526   6.128   5.466   6.931
  543SOL     OW 2527   1.266   4.768   6.761
  543SOL    HW1 2528   1.235   4.854   6.722
  543SOL    HW2 2529   1.323   4.786   6.841
  544SOL     OW 2530   0.706   4.593   0.437
  544SOL    HW1 2531   0.717   4.684   0.477
  544SOL    HW2 2532   0.795   4.547   0.435
  545SOL     OW 2533   3.626   1.189   2.993
  545SOL    HW1 2534   3.629   1.256   2.919
  545SOL    HW2 2535   3.704   1.202   3.053
  546SOL     OW 2536   1.513   3.571   0.717
  546SOL    HW1 2537   1.554   3.594   0.629
  546SOL    HW2 2538   1.474   3.479   0.713
  547SOL     OW 2539   2.791   3.517   0.051
  547SOL    HW1 2540   2.743   3.452   0.109
  547SOL    HW2 2541   2.888   3.493   0.047
  548SOL     OW 2542   3.465   2.898   4.175
  548SOL    HW1 2543   3.557   2.931   4.151
  548SOL    HW2 2544   3.407   2.899   4.094
  549SOL     OW 2545   5.949   3.582   1.252
  549SOL    HW1 2546   5.962   3.569   1.350
  549SOL    HW2 2547   6.033   3.619   1.212
  550SOL     OW 2548   6.745   3.747   2.473
  550SOL    HW1 2549   6.738   3.647   2.479
  550SOL    HW2 2550   6.808   3.780   2.543
  551SOL     OW 2551   6.402   2.021   0.811
  551SOL    HW1 2552   6.422   1.923   0.808
  551SOL    HW2 2553   6.341   2.039   0.888
  552SOL     OW 2554   3.503   5.549   0.520
  552SOL    HW1 2555   3.433   5.486   0.555
  552SOL    HW2 2556   3.500   5.634   0.572
  553SOL     OW 2557   2.046   1.224   1.361
  553SOL    HW1 2558   1.973   1.280   1.400
  553SOL    HW2 2559   2.042   1.132   1.402
  554SOL     OW 2560   6.138   6.358   5.406
  554SOL    HW1 2561   6.067   6.428   5.398
  554SOL    HW2 2562   6.102   6.280   5.456
  555SOL     OW 2563   1.348   4.465   4.364
  555SOL    HW1 2564   1.431   4.495   4.412
  555SOL    HW2 2565   1.369   4.450   4.268
  556SOL     OW 2566   5.627   2.756   3.635
  556SOL    HW1 2567   5.552   2.770   3.570
  556SOL    HW2 2568   5.709   2.802   3.601
  557SOL     OW 2569   0.271   6.366   6.251
  557SOL    HW1 2570   0.320   6.316   6.180
  557SOL    HW2 2571   0.334   6.391   6.324
  558SOL     OW 2572   4.032   4.048   5.208
  558SOL    HW1 2573   3.981   4.031   5.124
  558SOL    HW2 2574   4.007   4.138   5.244
  559SOL     OW 2575   0.069   6.228   6.031
  559SOL    HW1 2576   0.037   6.230   6.126
  559SOL    HW2 2577   0.073   6.134   5.999
  560SOL     OW 2578   4.264   0.361   0.499
  560SOL    HW1 2579   4.325   0.377   0.576
  560SOL    HW2 2580   4.181   0.416   0.510
  561SOL     OW 2581   5.794   6.939   0.669
  561SOL    HW1 2582   5.817   7.023   0.619
  561SOL    HW2 2583   5.704   6.907   0.640
  562SOL     OW 2584   5.254   1.570   5.232
  562SOL    HW1 2585   5.281   1.659   5.195
  562SOL    HW2 2586   5.307   1.498   5.186
  563SOL     OW 2587   3.048   6.499   4.294
  563SOL    HW1 2588   3.108   6.544   4.359
  563SOL    HW2 2589   3.099   6.430   4.243
  564SOL     OW 2590   6.820   1.240   6.535
  564SOL    HW1 2591   6.842   1.249   6.632
  564SOL    HW2 2592   6.747   1.173   6.523
  565SOL     OW 2593   4.591   3.970   5.286
  565SOL    HW1 2594   4.503   3.945   5.326
  565SOL    HW2 2595   4.620   4.059   5.319
  566SOL     OW 2596   5.099   4.719   2.610
  566SOL    HW1 2597   5.175   4.655   2.603
  566SOL    HW2 2598   5.014   4.674   2.585
  567SOL     OW 2599   3.416   3.392   4.876
  567SOL    HW1 2600   3.490   3.334   4.841
  567SOL    HW2 2601   3.350   3.409   4.802
  568SOL     OW 2602   2.866   1.700   7.010
  568SOL    HW1 2603   2.789   1.659   6.963
  568SOL    HW2 2604   2.924   1.628   0.026
  569SOL     OW 2605   2.152   2.980   0.869
  569SOL    HW1 2606   2.133   2.883   0.884
  569SOL    HW2 2607   2.215   3.012   0.940
  570SOL     OW 2608   0.143   6.160   0.976
  570SOL    HW1 2609   0.088   6.092   0.927
  570SOL    HW2 2610   0.188   6.115   1.054
  571SOL     OW 2611   4.197   5.234   2.922
  571SOL    HW1 2612   4.160   5.159   2.867
  571SOL    HW2 2613   4.275   5.202   2.976
  572SOL     OW 2614   1.461   4.041   4.991
  572SOL    HW1 2615   1.452   4.137   4.963
  572SOL    HW2 2616   1.384   4.017   5.051
  573SOL     OW 2617   3.881   2.039   5.515
  573SOL    HW1 2618   3.881   1.941   5.535
  573SOL    HW2 2619   3.804   2.060   5.455
  574SOL     OW 2620   1.794   1.719   4.199
  574SOL    HW1 2621   1.783   1.758   4.290
  574SOL    HW2 2622   1.885   1.677   4.191
  575SOL     OW 2623   5.583   2.552   0.088
  575SOL    HW1 2624   5.561   2.535   7.015
  575SOL    HW2 2625   5.616   2.646   0.099
  576SOL     OW 2626   1.445   1.383   2.584
  576SOL    HW1 2627   1.469   1.423   2.672
  576SOL    HW2 2628   1.381   1.443   2.536
  577SOL     OW 2629   3.074   2.219   3.518
  577SOL    HW1 2630   3.029   2.305   3.497
  577SOL    HW2 2631   3.084   2.210   3.617
  578SOL     OW 2632   0.108   3.417   3.985
  578SOL    HW1 2633   0.051   3.489   3.946
  578SOL    HW2 2634   0.137   3.444   4.077
  579SOL     OW 2635   4.650   2.651   6.640
  579SOL    HW1 2636   4.553   2.662   6.665
  579SOL    HW2 2637   4.698   2.606   6.715
  580SOL     OW 2638   1.306   5.645   6.606
  580SOL    HW1 2639   1.254   5.725   6.636
  580SOL    HW2 2640   1.401   5.654   6.635
  581SOL     OW 2641   4.046   3.197   2.605
  581SOL    HW1 2642   4.008   3.132   2.671
  581SOL    HW2 2643   4.109   3.260   2.652
  582SOL     OW 2644   5.574   3.551   2.449
  582SOL    HW1 2645   5.556   3.646   2.425
  582SOL    HW2 2646   5.651   3.547   2.512
  583SOL     OW 2647   2.363   4.460   0.255
  583SOL    HW1 2648   2.440   4.508   0.215
  583SOL    HW2 2649   2.374   4.361   0.241
  584SOL     OW 2650   0.013   4.905   4.723
  584SOL    HW1 2651   0.076   4.974   4.760
  584SOL    HW2 2652   6.944   4.943   4.719
  585SOL     OW 2653   6.987   1.655   0.151
  585SOL    HW1 2654   7.000   1.655   0.052
  585SOL    HW2 2655   6.924   1.728   0.177
  586SOL     OW 2656   2.448   6.696   0.722
  586SOL    HW1 2657   2.372   6.754   0.750
  586SOL    HW2 2658   2.414   6.607   0.692
  587SOL     OW 2659   0.953   3.366   5.207
  587SOL    HW1 2660   0.914   3.385   5.297
  587SOL    HW2 2661   0.938   3.444   5.147
  588SOL     OW 2662   3.394   6.672   1.574
  588SOL    HW1 2663   3.470   6.694   1.636
  588SOL    HW2 2664   3.319   6.631   1.626
  589SOL     OW 2665   4.116   5.064   2.747
  589SOL    HW1 2666   4.036   5.024   2.793
  589SOL    HW2 2667   4.132   5.016   2.661
  590SOL     OW 2668   0.072   1.470   1.950
  590SOL    HW1 2669   0.013   1.453   2.029
  590SOL    HW2 2670   0.042   1.413   1.874
  591SOL     OW 2671   3.647   6.715   3.121
  591SOL    HW1 2672   3.598   6.739   3.204
  591SOL    HW2 2673   3.736   6.675   3.144
  592SOL     OW 2674   4.974   1.006   0.644
  592SOL    HW1 2675   4.967   1.089   0.698
  592SOL    HW2 2676   4.892   0.996   0.587
  593SOL     OW 2677   4.955   2.537   3.836
  593SOL    HW1 2678   4.985   2.519   3.743
  593SOL    HW2 2679   4.921   2.631   3.843
  594SOL     OW 2680   3.749   2.841   1.259
  594SOL    HW1 2681   3.654   2.835   1.231
  594SOL    HW2 2682   3.755   2.885   1.349
  595SOL     OW 2683   3.874   6.533   3.578
  595SOL    HW1 2684   3.791   6.570   3.536
  595SOL    HW2 2685   3.901   6.450   3.530
  596SOL     OW 2686   1.386   4.342   3.064
  596SOL    HW1 2687   1.391   4.245   3.041
  596SOL    HW2 2688   1.443   4.395   3.002
  597SOL     OW 2689   3.650   1.610   5.358
  597SOL    HW1 2690   3.732   1.652   5.320
  597SOL    HW2 2691   3.598   1.679   5.410
  598SOL     OW 2692   3.965   4.541   0.805
  598SOL    HW1 2693   3.909   4.545   0.888
  598SOL    HW2 2694   3.946   4.456   0.756
  599SOL     OW 2695   6.462   6.429   2.433
  599SOL    HW1 2696   6.442   6.335   2.460
  599SOL    HW2 2697   6.447   6.439   2.335
  600SOL     OW 2698   1.999   6.888   0.094
  600SOL    HW1 2699   1.945   6.957   0.047
  600SOL    HW2 2700   2.060   6.843   0.028
  601SOL     OW 2701   3.447   5.512   4.110
  601SOL    HW1 2702   3.396   5.454   4.047
  601SOL    HW2 2703   3.442   5.607   4.080
  602SOL     OW 2704   2.278   0.622   1.150
  602SOL    HW1 2705   2.297   0.678   1.069
  602SOL    HW2 2706   2.205   0.557   1.130
  603SOL     OW 2707   3.965   2.139   3.292
  603SOL    HW1 2708   3.898   2.138   3.367
  603SOL    HW2 2709   3.918   2.126   3.205
  604SOL     OW 2710   0.241   3.986   6.275
  604SOL    HW1 2711   0.220   3.889   6.286
  604SOL    HW2 2712   0.217   4.036   6.358
  605SOL     OW 2713   6.074   0.469   4.193
  605SOL    HW1 2714   6.094   0.557   4.150
  605SOL    HW2 2715   5.994   0.428   4.148
  606SOL     OW 2716   3.093   6.812   3.389
  606SOL    HW1 2717   3.159   6.740   3.372
  606SOL    HW2 2718   3.111   6.890   3.329
  607SOL     OW 2719   5.056   1.013   4.089
  607SOL    HW1 2720   5.057   1.037   4.186
  607SOL    HW2 2721   4.993   1.073   4.040
  608SOL     OW 2722   4.125   1.282   1.567
  608SOL    HW1 2723   4.098   1.326   1.482
  608SOL    HW2 2724   4.221   1.302   1.587
  609SOL     OW 2725   3.735   4.115   4.547
  609SOL    HW1 2726   3.662   4.075   4.492
  609SOL    HW2 2727   3.700   4.137   4.637
  610SOL     OW 2728   5.123   2.046   4.160
  610SOL    HW1 2729   5.169   2.091   4.084
  610SOL    HW2 2730   5.190   1.996   4.215
  611SOL     OW 2731   0.908   6.961   0.648
  611SOL    HW1 2732   0.863   0.020   0.613
  611SOL    HW2 2733   0.972   6.927   0.579
  612SOL     OW 2734   3.528   5.220   5.532
  612SOL    HW1 2735   3.512   5.294   5.597
  612SOL    HW2 2736   3.616   5.177   5.552
  613SOL     OW 2737   3.314   2.119   6.954
  613SOL    HW1 2738   3.400   2.087   6.992
  613SOL    HW2 2739   3.239   2.091   7.014
  614SOL     OW 2740   5.003   4.670   0.911
  614SOL    HW1 2741   5.049   4.655   0.998
  614SOL    HW2 2742   4.932   4.601   0.898
  615SOL     OW 2743   6.454   6.842   0.863
  615SOL    HW1 2744   6.359   6.860   0.887
  615SOL    HW2 2745   6.474   6.883   0.773
  616SOL     OW 2746   5.616   1.892   4.566
  616SOL    HW1 2747   5.592   1.989   4.563
  616SOL    HW2 2748   5.710   1.879   4.534
  617SOL     OW 2749   0.403   5.355   5.664
  617SOL    HW1 2750   0.315   5.310   5.680
  617SOL    HW2 2751   0.388   5.442   5.617
  618SOL     OW 2752   6.551   3.619   0.442
  618SOL    HW1 2753   6.511   3.623   0.533
  618SOL    HW2 2754   6.614   3.541   0.436
  619SOL     OW 2755   2.355   0.478   6.754
  619SOL    HW1 2756   2.294   0.452   6.828
  619SOL    HW2 2757   2.379   0.397   6.701
  620SOL     OW 2758   6.672   1.622   2.423
  620SOL    HW1 2759   6.682   1.697   2.489
  620SOL    HW2 2760   6.748   1.625   2.358
  621SOL     OW 2761   3.539   0.836   6.825
  621SOL    HW1 2762   3.633   0.863   6.845
  621SOL    HW2 2763   3.501   0.786   6.903
  622SOL     OW 2764   1.048   1.504   5.203
  622SOL    HW1 2765   0.989   1.570   5.156
  622SOL    HW2 2766   1.027   1.506   5.301
  623SOL     OW 2767   6.082   6.773   4.494
  623SOL    HW1 2768   6.004   6.768   4.557
  623SOL    HW2 2769   6.147   6.701   4.516
  624SOL     OW 2770   6.211   0.947   6.165
  624SOL    HW1 2771   6.263   1.010   6.108
  624SOL    HW2 2772   6.127   0.920   6.117
  625SOL     OW 2773   2.333   1.586   0.547
  625SOL    HW1 2774   2.281   1.566   0.464
  625SOL    HW2 2775   2.321   1.512   0.613
  626SOL     OW 2776   0.312   5.338   3.711
  626SOL    HW1 2777   0.346   5.264   3.653
  626SOL    HW2 2778   0.282   5.301   3.798
  627SOL     OW 2779   6.437   0.200   6.690
  627SOL    HW1 2780   6.508   0.140   6.654
  627SOL    HW2 2781   6.384   0.152   6.761
  628SOL     OW 2782   4.511   4.849   6.093
  628SOL    HW1 2783   4.421   4.834   6.135
  628SOL    HW2 2784   4.581   4.844   6.164
  629SOL     OW 2785   0.638   6.411   5.944
  629SOL    HW1 2786   0.616   6.506   5.965
  629SOL    HW2 2787   0.600   6.387   5.854
  630SOL     OW 2788   6.876   1.037   1.272
  630SOL    HW1 2789   6.828   1.073   1.352
  630SOL    HW2 2790   6.953   0.980   1.302
  631SOL     OW 2791   1.877   2.795   4.712
  631SOL    HW1 2792   1.890   2.868   4.646
  631SOL    HW2 2793   1.801   2.736   4.682
  632SOL     OW 2794   3.322   3.625   7.017
  632SOL    HW1 2795   3.418   3.601   7.004
  632SOL    HW2 2796   3.314   3.693   0.066
  633SOL     OW 2797   1.848   6.389   1.171
  633SOL    HW1 2798   1.762   6.339   1.186
  633SOL    HW2 2799   1.920   6.324   1.147
  634SOL     OW 2800   3.047   3.122   3.983
  634SOL    HW1 2801   3.013   3.032   3.959
  634SOL    HW2 2802   3.044   3.133   4.083
  635SOL     OW 2803   5.475   0.938   6.760
  635SOL    HW1 2804   5.467   0.949   6.859
  635SOL    HW2 2805   5.483   1.027   6.716
  636SOL     OW 2806   2.664   0.854   5.900
  636SOL    HW1 2807   2.620   0.778   5.853
  636SOL    HW2 2808   2.744   0.821   5.950
  637SOL     OW 2809   6.604   1.204   2.736
  637SOL    HW1 2810   6.521   1.160   2.702
  637SOL    HW2 2811   6.679   1.138   2.738
  638SOL     OW 2812   6.081   3.588   4.758
  638SOL    HW1 2813   5.983   3.596   4.775
  638SOL    HW2 2814   6.097   3.511   4.695
  639SOL     OW 2815   5.442   4.806   2.458
  639SOL    HW1 2816   5.390   4.868   2.399
  639SOL    HW2 2817   5.537   4.837   2.464
  640SOL     OW 2818   0.690   2.006   1.970
  640SOL    HW1 2819   0.711   2.092   2.016
  640SOL    HW2 2820   0.595   1.981   1.987
  641SOL     OW 2821   2.229   5.287   4.711
  641SOL    HW1 2822   2.143   5.284   4.762
  641SOL    HW2 2823   2.219   5.235   4.626
  642SOL     OW 2824   0.831   3.893   4.912
  642SOL    HW1 2825   0.774   3.836   4.971
  642SOL    HW2 2826   0.920   3.851   4.900
  643SOL     OW 2827   5.116   5.572   0.308
  643SOL    HW1 2828   5.094   5.622   0.224
  643SOL    HW2 2829   5.031   5.553   0.358
  644SOL     OW 2830   6.657   6.552   5.220
  644SOL    HW1 2831   6.645   6.632   5.279
  644SOL    HW2 2832   6.568   6.524   5.184
  645SOL     OW 2833   3.769   5.085   1.785
  645SOL    HW1 2834   3.748   5.094   1.882
  645SOL    HW2 2835   3.699   5.029   1.740
  646SOL     OW 2836   3.738   1.599   4.990
  646SOL    HW1 2837   3.772   1.693   4.993
  646SOL    HW2 2838   3.802   1.543   4.937
  647SOL     OW 2839   4.235   2.947   6.023
  647SOL    HW1 2840   4.330   2.920   6.036
  647SOL    HW2 2841   4.175   2.877   6.062
  648SOL     OW 2842   5.914   1.365   3.125
  648SOL    HW1 2843   5.860   1.360   3.209
  648SOL    HW2 2844   6.010   1.345   3.146
  649SOL     OW 2845   2.135   6.086   0.477
  649SOL    HW1 2846   2.190   6.021   0.424
  649SOL    HW2 2847   2.135   6.175   0.432
  650SOL     OW 2848   0.316   4.074   1.089
  650SOL    HW1 2849   0.264   4.011   1.147
  650SOL    HW2 2850   0.270   4.163   1.088
  651SOL     OW 2851   1.501   0.009   5.036
  651SOL    HW1 2852   1.522   0.004   5.133
  651SOL    HW2 2853   1.417   0.061   5.022
  652SOL     OW 2854   3.520   6.292   1.862
  652SOL    HW1 2855   3.604   6.283   1.809
  652SOL    HW2 2856   3.526   6.235   1.944
  653SOL     OW 2857   1.386   6.779   2.054
  653SOL    HW1 2858   1.332   6.698   2.077
  653SOL    HW2 2859   1.483   6.756   2.061
  654SOL     OW 2860   0.134   0.219   4.784
  654SOL    HW1 2861   0.230   0.194   4.796
  654SOL    HW2 2862   0.107   0.203   4.689
  655SOL     OW 2863   6.729   3.953   2.301
  655SOL    HW1 2864   6.636   3.981   2.280
  655SOL    HW2 2865   6.730   3.893   2.381
  656SOL     OW 2866   3.626   5.991   0.551
  656SOL    HW1 2867   3.709   5.956   0.508
  656SOL    HW2 2868   3.582   6.056   0.489
  657SOL     OW 2869   3.517   3.366   2.258
  657SOL    HW1 2870   3.456   3.435   2.295
  657SOL    HW2 2871   3.502   3.279   2.305
  658SOL     OW 2872   1.581   2.759   4.884
  658SOL    HW1 2873   1.502   2.786   4.940
  658SOL    HW2 2874   1.663   2.806   4.917
  659SOL     OW 2875   1.932   6.005   6.312
  659SOL    HW1 2876   1.922   5.987   6.214
  659SOL    HW2 2877   1.845   6.039   6.348
  660SOL     OW 2878   4.956   4.354   2.393
  660SOL    HW1 2879   4.908   4.282   2.443
  660SOL    HW2 2880   4.947   4.338   2.294
  661SOL     OW 2881   4.751   4.238   4.304
  661SOL    HW1 2882   4.704   4.219   4.218
  661SOL    HW2 2883   4.838   4.188   4.306
  662SOL     OW 2884   4.881   3.299   0.294
  662SOL    HW1 2885   4.800   3.288   0.237
  662SOL    HW2 2886   4.858   3.355   0.374
  663SOL     OW 2887   0.689   4.167   0.211
  663SOL    HW1 2888   0.643   4.241   0.162
  663SOL    HW2 2889   0.749   4.117   0.148
  664SOL     OW 2890   2.178   6.737   6.942
  664SOL    HW1 2891   2.253   6.728   6.876
  664SOL    HW2 2892   2.091   6.721   6.895
  665SOL     OW 2893   3.957   4.917   1.402
  665SOL    HW1 2894   3.965   4.936   1.305
  665SOL    HW2 2895   4.047   4.924   1.445
  666SOL     OW 2896   3.279   1.540   0.113
  666SOL    HW1 2897   3.286   1.564   0.210
  666SOL    HW2 2898   3.369   1.542   0.071
  667SOL     OW 2899   1.221   3.221   3.293
  667SOL    HW1 2900   1.212   3.129   3.255
  667SOL    HW2 2901   1.314   3.254   3.277
  668SOL     OW 2902   5.033   0.005   0.479
  668SOL    HW1 2903   5.031   0.062   0.561
  668SOL    HW2 2904   4.941   7.021   0.440
  669SOL     OW 2905   1.823   5.983   3.218
  669SOL    HW1 2906   1.896   5.970   3.285
  669SOL    HW2 2907   1.746   6.030   3.262
  670SOL     OW 2908   3.090   3.061   3.474
  670SOL    HW1 2909   3.143   3.037   3.393
  670SOL    HW2 2910   3.045   3.149   3.459
  671SOL     OW 2911   1.695   0.428   5.991
  671SOL    HW1 2912   1.624   0.463   6.052
  671SOL    HW2 2913   1.654   0.394   5.907
  672SOL     OW 2914   2.617   2.443   3.800
  672SOL    HW1 2915   2.565   2.526   3.779
  672SOL    HW2 2916   2.618   2.428   3.899
  673SOL     OW 2917   5.895   6.856   1.474
  673SOL    HW1 2918   5.873   6.954   1.477
  673SOL    HW2 2919   5.818   6.806   1.434
  674SOL     OW 2920   0.430   1.967   3.915
  674SOL    HW1 2921   0.410   2.065   3.908
  674SOL    HW2 2922   0.424   1.938   4.011
  675SOL     OW 2923   5.928   2.701   4.955
  675SOL    HW1 2924   5.911   2.748   5.042
  675SOL    HW2 2925   6.012   2.648   4.962
  676SOL     OW 2926   2.147   4.618   4.482
  676SOL    HW1 2927   2.131   4.610   4.581
  676SOL    HW2 2928   2.061   4.599   4.433
  677SOL     OW 2929   6.033   6.867   0.780
  677SOL    HW1 2930   5.949   6.889   0.730
  677SOL    HW2 2931   6.059   6.772   0.761
  678SOL     OW 2932   2.352   1.407   6.673
  678SOL    HW1 2933   2.302   1.399   6.759
  678SOL    HW2 2934   2.310   1.346   6.605
  679SOL     OW 2935   5.490   7.009   2.795
  679SOL    HW1 2936   5.444   6.941   2.739
  679SOL    HW2 2937   5.522   0.060   2.737
  680SOL     OW 2938   4.967   4.258   4.995
  680SOL    HW1 2939   4.954   4.220   4.903
  680SOL    HW2 2940   4.947   4.188   5.063
  681SOL     OW 2941   1.269   0.047   2.145
  681SOL    HW1 2942   1.282   6.981   2.104
  681SOL    HW2 2943   1.176   0.080   2.124
  682SOL     OW 2944   1.560   5.908   0.746
  682SOL    HW1 2945   1.603   5.848   0.680
  682SOL    HW2 2946   1.554   6.001   0.708
  683SOL     OW 2947   5.601   1.274   0.650
  683SOL    HW1 2948   5.629   1.324   0.568
  683SOL    HW2 2949   5.505   1.295   0.670
  684SOL     OW 2950   6.873   5.943   6.087
  684SOL    HW1 2951   6.851   5.883   6.164
  684SOL    HW2 2952   6.972   5.944   6.074
  685SOL     OW 2953   5.779   0.568   5.370
  685SOL    HW1 2954   5.816   0.615   5.450
  685SOL    HW2 2955   5.775   0.632   5.293
  686SOL     OW 2956   5.718   5.338   2.856
  686SOL    HW1 2957   5.776   5.256   2.847
  686SOL    HW2 2958   5.710   5.382   2.767
  687SOL     OW 2959   6.432   3.397   5.457
  687SOL    HW1 2960   6.352   3.448   5.424
  687SOL    HW2 2961   6.507   3.461   5.474
  688SOL     OW 2962   6.822   4.213   5.277
  688SOL    HW1 2963   6.849   4.285   5.213
  688SOL    HW2 2964   6.739   4.241   5.326
  689SOL     OW 2965   5.799   4.181   6.197
  689SOL    HW1 2966   5.840   4.248   6.260
  689SOL    HW2 2967   5.734   4.124   6.246
  690SOL     OW 2968   1.115   1.686   3.446
  690SOL    HW1 2969   1.029   1.700   3.495
  690SOL    HW2 2970   1.143   1.590   3.455
  691SOL     OW 2971   0.345   3.007   6.494
  691SOL    HW1 2972   0.339   3.018   6.593
  691SOL    HW2 2973   0.430   3.049   6.462
  692SOL     OW 2974   2.164   0.401   2.979
  692SOL    HW1 2975   2.146   0.456   2.897
  692SOL    HW2 2976   2.142   0.306   2.960
  693SOL     OW 2977   6.923   1.662   2.326
  693SOL    HW1 2978   6.963   1.692   2.412
  693SOL    HW2 2979   6.973   1.701   2.249
  694SOL     OW 2980   1.887   0.388   1.525
  694SOL    HW1 2981   1.813   0.346   1.577
  694SOL    HW2 2982   1.975   0.355   1.558
  695SOL     OW 2983   4.177   6.721   5.618
  695SOL    HW1 2984   4.163   6.626   5.648
  695SOL    HW2 2985   4.143   6.783   5.688
  696SOL     OW 2986   4.333   5.662   2.419
  696SOL    HW1 2987   4.312   5.754   2.452
  696SOL    HW2 2988   4.250   5.606   2.420
  697SOL     OW 2989   1.327   4.073   3.714
  697SOL    HW1 2990   1.415   4.033   3.688
  697SOL    HW2 2991   1.342   4.140   3.788
  698SOL     OW 2992   4.694   0.184   3.826
  698SOL    HW1 2993   4.750   0.112   3.783
  698SOL    HW2 2994   4.597   0.161   3.815
  699SOL     OW 2995   1.717   4.672   0.845
  699SOL    HW1 2996   1.716   4.696   0.748
  699SOL    HW2 2997   1.798   4.712   0.888
  700SOL     OW 2998   2.237   1.268   4.570
  700SOL    HW1 2999   2.279   1.201   4.630
  700SOL    HW2 3000   2.196   1.221   4.491
  701SOL     OW 3001   0.162   4.264   5.966
  701SOL    HW1 3002   0.197   4.312   5.885
  701SOL    HW2 3003   0.236   4.210   6.007
  702SOL     OW 3004   5.826   5.720   4.725
  702SOL    HW1 3005   5.831   5.620   4.732
  702SOL    HW2 3006   5.845   5.760   4.814
  703SOL     OW 3007   3.999   3.876   6.671
  703SOL    HW1 3008   3.997   3.836   6.763
  703SOL    HW2 3009   4.000   3.804   6.603
  704SOL     OW 3010   2.238   0.093   6.994
  704SOL    HW1 3011   2.249   0.013   0.029
  704SOL    HW2 3012   2.240   0.066   6.898
  705SOL     OW 3013   6.343   2.315   2.603
  705SOL    HW1 3014   6.253   2.346   2.632
  705SOL    HW2 3015   6.344   2.302   2.504
  706SOL     OW 3016   3.879   1.921   4.051
  706SOL    HW1 3017   3.790   1.934   4.009
  706SOL    HW2 3018   3.946   1.893   3.981
  707SOL     OW 3019   4.934   0.930   1.439
  707SOL    HW1 3020   4.905   0.955   1.532
  707SOL    HW2 3021   4.871   0.971   1.373
  708SOL     OW 3022   3.912   0.859   1.618
  708SOL    HW1 3023   3.882   0.954   1.626
  708SOL    HW2 3024   4.001   0.848   1.662
  709SOL     OW 3025   0.887   4.954   6.929
  709SOL    HW1 3026   0.959   4.887   6.950
  709SOL    HW2 3027   0.798   4.915   6.952
  710SOL     OW 3028   3.077   3.911   2.566
  710SOL    HW1 3029   3.025   3.898   2.482
  710SOL    HW2 3030   3.143   3.985   2.553
  711SOL     OW 3031   0.445   0.517   3.895
  711SOL    HW1 3032   0.459   0.418   3.903
  711SOL    HW2 3033   0.508   0.564   3.957
  712SOL     OW 3034   1.746   4.042   1.722
  712SOL    HW1 3035   1.777   4.135   1.703
  712SOL    HW2 3036   1.772   4.017   1.815
  713SOL     OW 3037   3.904   2.996   2.785
  713SOL    HW1 3038   3.907   2.926   2.857
  713SOL    HW2 3039   3.854   2.961   2.706
  714SOL     OW 3040   4.596   5.276   5.059
  714SOL    HW1 3041   4.503   5.308   5.080
  714SOL    HW2 3042   4.661   5.350   5.074
  715SOL     OW 3043   4.278   0.458   6.317
  715SOL    HW1 3044   4.246   0.547   6.349
  715SOL    HW2 3045   4.345   0.470   6.244
  716SOL     OW 3046   0.067   4.744   1.886
  716SOL    HW1 3047   0.016   4.658   1.887
  716SOL    HW2 3048   0.089   4.770   1.981
  717SOL     OW 3049   6.120   2.470   0.167
  717SOL    HW1 3050   6.178   2.395   0.135
  717SOL    HW2 3051   6.026   2.456   0.136
  718SOL     OW 3052   3.741   3.866   6.420
  718SOL    HW1 3053   3.779   3.957   6.403
  718SOL    HW2 3054   3.681   3.869   6.501
  719SOL     OW 3055   5.571   4.185   0.842
  719SOL    HW1 3056   5.669   4.203   0.835
  719SOL    HW2 3057   5.543   4.123   0.769
  720SOL     OW 3058   2.707   1.056   6.192
  720SOL    HW1 3059   2.727   1.109   6.110
  720SOL    HW2 3060   2.626   0.999   6.176
  721SOL     OW 3061   1.432   0.044   5.673
  721SOL    HW1 3062   1.386   6.992   5.720
  721SOL    HW2 3063   1.475   0.010   5.589
  722SOL     OW 3064   4.092   0.207   4.841
  722SOL    HW1 3065   4.089   0.299   4.802
  722SOL    HW2 3066   4.064   0.210   4.936
  723SOL     OW 3067   1.061   3.102   2.101
  723SOL    HW1 3068   0.979   3.122   2.155
  723SOL    HW2 3069   1.076   3.176   2.036
  724SOL     OW 3070   0.123   1.066   5.083
  724SOL    HW1 3071   0.036   1.112   5.093
  724SOL    HW2 3072   0.198   1.131   5.097
  725SOL     OW 3073   2.160   5.188   1.092
  725SOL    HW1 3074   2.147   5.117   1.161
  725SOL    HW2 3075   2.086   5.254   1.097
  726SOL     OW 3076   4.280   0.102   6.686
  726SOL    HW1 3077   4.180   0.098   6.681
  726SOL    HW2 3078   4.311   0.190   6.651
  727SOL     OW 3079   3.181   5.038   4.344
  727SOL    HW1 3080   3.129   5.007   4.264
  727SOL    HW2 3081   3.279   5.035   4.324
  728SOL     OW 3082   6.866   3.779   5.149
  728SOL    HW1 3083   6.896   3.820   5.235
  728SOL    HW2 3084   6.766   3.780   5.145
  729SOL     OW 3085   2.889   0.138   1.499
  729SOL    HW1 3086   2.822   0.186   1.443
  729SOL    HW2 3087   2.967   0.110   1.442
  730SOL     OW 3088   5.886   0.384   4.021
  730SOL    HW1 3089   5.926   0.378   3.929
  730SOL    HW2 3090   5.789   0.360   4.017
  731SOL     OW 3091   5.703   3.684   3.739
  731SOL    HW1 3092   5.662   3.680   3.830
  731SOL    HW2 3093   5.711   3.591   3.703
  732SOL     OW 3094   6.394   2.574   1.894
  732SOL    HW1 3095   6.467   2.520   1.936
  732SOL    HW2 3096   6.377   2.541   1.801
  733SOL     OW 3097   4.676   4.346   3.752
  733SOL    HW1 3098   4.640   4.359   3.660
  733SOL    HW2 3099   4.719   4.255   3.759
  734SOL     OW 3100   6.475   4.179   0.982
  734SOL    HW1 3101   6.488   4.141   0.890
  734SOL    HW2 3102   6.410   4.255   0.977
  735SOL     OW 3103   1.514   4.441   6.279
  735SOL    HW1 3104   1.538   4.356   6.233
  735SOL    HW2 3105   1.546   4.519   6.225
  736SOL     OW 3106   6.480   1.308   3.371
  736SOL    HW1 3107   6.432   1.279   3.454
  736SOL    HW2 3108   6.552   1.241   3.350
  737SOL     OW 3109   5.259   3.254   0.703
  737SOL    HW1 3110   5.244   3.353   0.696
  737SOL    HW2 3111   5.172   3.209   0.722
  738SOL     OW 3112   0.907   3.904   3.974
  738SOL    HW1 3113   0.893   3.807   3.989
  738SOL    HW2 3114   0.957   3.917   3.888
  739SOL     OW 3115   4.644   6.400   6.635
  739SOL    HW1 3116   4.559   6.348   6.643
  739SOL    HW2 3117   4.720   6.344   6.667
  740SOL     OW 3118   6.194   6.595   1.519
  740SOL    HW1 3119   6.284   6.580   1.559
  740SOL    HW2 3120   6.161   6.510   1.477
  741SOL     OW 3121   2.134   0.372   2.330
  741SOL    HW1 3122   2.145   0.335   2.422
  741SOL    HW2 3123   2.076   0.454   2.333
  742SOL     OW 3124   1.243   6.822   3.314
  742SOL    HW1 3125   1.332   6.854   3.282
  742SOL    HW2 3126   1.213   6.879   3.390
  743SOL     OW 3127   2.269   4.127   4.522
  743SOL    HW1 3128   2.259   4.063   4.598
  743SOL    HW2 3129   2.265   4.220   4.557
  744SOL     OW 3130   0.028   5.437   0.495
  744SOL    HW1 3131   0.020   5.518   0.553
  744SOL    HW2 3132   0.051   5.466   0.402
  745SOL     OW 3133   1.405   5.736   2.634
  745SOL    HW1 3134   1.484   5.719   2.692
  745SOL    HW2 3135   1.380   5.833   2.639
  746SOL     OW 3136   1.735   0.929   4.997
  746SOL    HW1 3137   1.729   0.864   5.073
  746SOL    HW2 3138   1.780   1.013   5.029
  747SOL     OW 3139   5.086   5.030   2.835
  747SOL    HW1 3140   5.008   5.004   2.778
  747SOL    HW2 3141   5.057   5.034   2.931
  748SOL     OW 3142   4.507   3.300   1.318
  748SOL    HW1 3143   4.449   3.370   1.276
  748SOL    HW2 3144   4.580   3.275   1.254
  749SOL     OW 3145   6.676   1.489   5.685
  749SOL    HW1 3146   6.608   1.557   5.656
  749SOL    HW2 3147   6.741   1.533   5.747
  750SOL     OW 3148   2.414   4.155   0.510
  750SOL    HW1 3149   2.484   4.183   0.444
  750SOL    HW2 3150   2.398   4.229   0.575
  751SOL     OW 3151   4.496   1.119   0.104
  751SOL    HW1 3152   4.409   1.158   0.072
  751SOL    HW2 3153   4.486   1.091   0.200
  752SOL     OW 3154   5.063   2.227   2.021
  752SOL    HW1 3155   5.024   2.319   2.010
  752SOL    HW2 3156   4.990   2.162   2.040
  753SOL     OW 3157   2.037   2.455   4.117
  753SOL    HW1 3158   2.085   2.449   4.029
  753SOL    HW2 3159   2.019   2.551   4.138
  754SOL     OW 3160   4.235   5.775   7.021
  754SOL    HW1 3161   4.198   5.861   6.986
  754SOL    HW2 3162   4.196   5.699   6.969
  755SOL     OW 3163   0.220   5.998   0.669
  755SOL    HW1 3164   0.252   5.943   0.591
  755SOL    HW2 3165   0.299   6.030   0.721
  756SOL     OW 3166   4.996   0.751   2.905
  756SOL    HW1 3167   4.963   0.839   2.937
  756SOL    HW2 3168   4.964   0.735   2.812
  757SOL     OW 3169   0.176   6.951   3.802
  757SOL    HW1 3170   0.208   6.869   3.850
  757SOL    HW2 3171   0.077   6.944   3.787
  758SOL     OW 3172   3.629   2.610   1.006
  758SOL    HW1 3173   3.714   2.651   0.974
  758SOL    HW2 3174   3.565   2.603   0.929
  759SOL     OW 3175   1.243   1.192   6.520
  759SOL    HW1 3176   1.200   1.189   6.610
  759SOL    HW2 3177   1.330   1.242   6.527
  760SOL     OW 3178   4.929   1.774   5.794
  760SOL    HW1 3179   4.906   1.781   5.891
  760SOL    HW2 3180   5.008   1.715   5.783
  761SOL     OW 3181   5.578   2.268   6.773
  761SOL    HW1 3182   5.621   2.178   6.784
  761SOL    HW2 3183   5.649   2.337   6.759
  762SOL     OW 3184   2.254   6.723   4.178
  762SOL    HW1 3185   2.302   6.795   4.128
  762SOL    HW2 3186   2.197   6.764   4.249
  763SOL     OW 3187   3.944   5.922   6.649
  763SOL    HW1 3188   3.913   6.009   6.687
  763SOL    HW2 3189   3.891   5.847   6.690
  764SOL     OW 3190   4.374   1.398   2.432
  764SOL    HW1 3191   4.445   1.444   2.486
  764SOL    HW2 3192   4.409   1.378   2.341
  765SOL     OW 3193   6.730   6.950   3.272
  765SOL    HW1 3194   6.671   6.989   3.343
  765SOL    HW2 3195   6.807   6.903   3.316
  766SOL     OW 3196   0.382   6.201   0.113
  766SOL    HW1 3197   0.321   6.203   0.192
  766SOL    HW2 3198   0.329   6.218   0.030
  767SOL     OW 3199   6.067   6.854   2.600
  767SOL    HW1 3200   6.150   6.909   2.596
  767SOL    HW2 3201   6.051   6.825   2.695
  768SOL     OW 3202   2.869   6.149   2.990
  768SOL    HW1 3203   2.899   6.054   2.995
  768SOL    HW2 3204   2.910   6.193   2.910
  769SOL     OW 3205   4.115   1.037   5.421
  769SOL    HW1 3206   4.110   1.136   5.432
  769SOL    HW2 3207   4.076   1.011   5.333
  770SOL     OW 3208   3.068   4.939   4.118
  770SOL    HW1 3209   3.004   4.869   4.086
  770SOL    HW2 3210   3.141   4.951   4.050
  771SOL     OW 3211   0.686   5.543   3.414
  771SOL    HW1 3212   0.692   5.580   3.322
  771SOL    HW2 3213   0.732   5.454   3.417
  772SOL     OW 3214   6.951   3.780   6.177
  772SOL    HW1 3215   6.865   3.738   6.205
  772SOL    HW2 3216   6.978   3.743   6.088
  773SOL     OW 3217   0.334   3.744   2.331
  773SOL    HW1 3218   0.265   3.813   2.352
  773SOL    HW2 3219   0.408   3.786   2.279
  774SOL     OW 3220   1.753   1.135   1.269
  774SOL    HW1 3221   1.683   1.198   1.305
  774SOL    HW2 3222   1.838   1.185   1.255
  775SOL     OW 3223   1.623   2.092   4.735
  775SOL    HW1 3224   1.683   2.169   4.758
  775SOL    HW2 3225   1.630   2.022   4.806
  776SOL     OW 3226   2.193   0.481   6.023
  776SOL    HW1 3227   2.237   0.569   6.007
  776SOL    HW2 3228   2.113   0.472   5.963
  777SOL     OW 3229   4.195   1.498   1.117
  777SOL    HW1 3230   4.114   1.498   1.058
  777SOL    HW2 3231   4.277   1.482   1.062
  778SOL     OW 3232   4.476   6.314   3.976
  778SOL    HW1 3233   4.431   6.337   3.890
  778SOL    HW2 3234   4.543   6.385   3.999
  779SOL     OW 3235   1.240   1.238   2.173
  779SOL    HW1 3236   1.319   1.247   2.112
  779SOL    HW2 3237   1.267   1.189   2.255
  780SOL     OW 3238   6.056   3.414   5.031
  780SOL    HW1 3239   6.042   3.344   4.962
  780SOL    HW2 3240   5.968   3.455   5.056
  781SOL     OW 3241   6.829   0.910   5.764
  781SOL    HW1 3242   6.766   0.833   5.753
  781SOL    HW2 3243   6.852   0.947   5.674
  782SOL     OW 3244   6.795   2.964   0.929
  782SOL    HW1 3245   6.705   3.008   0.942
  782SOL    HW2 3246   6.795   2.875   0.974
  783SOL     OW 3247   2.812   4.999   0.323
  783SOL    HW1 3248   2.748   4.979   0.249
  783SOL    HW2 3249   2.763   5.039   0.400
  784SOL     OW 3250   4.810   0.918   5.161
  784SOL    HW1 3251   4.768   0.980   5.228
  784SOL    HW2 3252   4.786   0.823   5.184
  785SOL     OW 3253   6.565   2.141   3.256
  785SOL    HW1 3254   6.617   2.063   3.224
  785SOL    HW2 3255   6.625   2.205   3.304
  786SOL     OW 3256   0.069   6.465   0.027
  786SOL    HW1 3257   0.016   6.527   6.991
  786SOL    HW2 3258   0.010   6.432   0.101
  787SOL     OW 3259   2.888   2.230   6.382
  787SOL    HW1 3260   2.816   2.225   6.452
  787SOL    HW2 3261   2.885   2.320   6.337
  788SOL     OW 3262   1.586   3.755   4.445
  788SOL    HW1 3263   1.643   3.732   4.524
  788SOL    HW2 3264   1.587   3.854   4.431
  789SOL     OW 3265   5.299   4.415   1.589
  789SOL    HW1 3266   5.355   4.382   1.514
  789SOL    HW2 3267   5.249   4.497   1.561
  790SOL     OW 3268   3.001   1.272   3.501
  790SOL    HW1 3269   3.088   1.301   3.541
  790SOL    HW2 3270   2.969   1.190   3.549
  791SOL     OW 3271   2.988   1.414   4.261
  791SOL    HW1 3272   3.068   1.464   4.230
  791SOL    HW2 3273   2.911   1.433   4.200
  792SOL     OW 3274   5.433   0.916   3.482
  792SOL    HW1 3275   5.333   0.925   3.479
  792SOL    HW2 3276   5.458   0.820   3.472
  793SOL     OW 3277   5.614   0.123   6.979
  793SOL    HW1 3278   5.664   0.046   6.939
  793SOL    HW2 3279   5.593   0.103   0.051
  794SOL     OW 3280   2.224   5.452   5.909
  794SOL    HW1 3281   2.320   5.470   5.927
  794SOL    HW2 3282   2.183   5.530   5.862
  795SOL     OW 3283   4.745   4.139   6.456
  795SOL    HW1 3284   4.742   4.219   6.516
  795SOL    HW2 3285   4.684   4.153   6.378
  796SOL     OW 3286   0.119   2.393   6.701
  796SOL    HW1 3287   0.155   2.302   6.721
  796SOL    HW2 3288   0.085   2.434   6.785
  797SOL     OW 3289   6.049   2.912   3.916
  797SOL    HW1 3290   5.962   2.944   3.954
  797SOL    HW2 3291   6.072   2.965   3.835
  798SOL     OW 3292   5.102   1.055   6.233
  798SOL    HW1 3293   5.146   1.015   6.314
  798SOL    HW2 3294   5.171   1.092   6.172
  799SOL     OW 3295   6.904   2.505   2.655
  799SOL    HW1 3296   6.834   2.433   2.659
  799SOL    HW2 3297   6.876   2.575   2.590
  800SOL     OW 3298   6.452   1.194   2.256
  800SOL    HW1 3299   6.391   1.235   2.188
  800SOL    HW2 3300   6.410   1.111   2.292
  801SOL     OW 3301   0.360   2.543   3.122
  801SOL    HW1 3302   0.278   2.597   3.141
  801SOL    HW2 3303   0.353   2.503   3.031
  802SOL     OW 3304   5.417   0.760   0.351
  802SOL    HW1 3305   5.468   0.839   0.316
  802SOL    HW2 3306   5.320   0.784   0.358
  803SOL     OW 3307   6.733   6.543   4.777
  803SOL    HW1 3308   6.778   6.630   4.755
  803SOL    HW2 3309   6.802   6.478   4.812
  804SOL     OW 3310   0.471   6.666   0.141
  804SOL    HW1 3311   0.520   6.588   0.179
  804SOL    HW2 3312   0.428   6.718   0.214
  805SOL     OW 3313   2.716   3.181   6.143
  805SOL    HW1 3314   2.792   3.205   6.204
  805SOL    HW2 3315   2.730   3.090   6.106
  806SOL     OW 3316   5.134   0.845   0.428
  806SOL    HW1 3317   5.103   0.886   0.514
  806SOL    HW2 3318   5.056   0.839   0.364
  807SOL     OW 3319   1.565   0.367   3.534
  807SOL    HW1 3320   1.546   0.313   3.616
  807SOL    HW2 3321   1.491   0.432   3.519
  808SOL     OW 3322   5.339   3.393   5.469
  808SOL    HW1 3323   5.409   3.465   5.468
  808SOL    HW2 3324   5.305   3.380   5.562
  809SOL     OW 3325   0.092   4.120   6.489
  809SOL    HW1 3326   7.018   4.115   6.510
  809SOL    HW2 3327   0.117   4.214   6.465
  810SOL     OW 3328   5.769   4.053   0.340
  810SOL    HW1 3329   5.853   4.044   0.394
  810SOL    HW2 3330   5.724   3.965   0.333
  811SOL     OW 3331   5.073   4.961   3.821
  811SOL    HW1 3332   5.031   4.896   3.885
  811SOL    HW2 3333   5.150   5.006   3.866
  812SOL     OW 3334   0.377   6.827   1.562
  812SOL    HW1 3335   0.357   6.922   1.536
  812SOL    HW2 3336   0.306   6.795   1.625
  813SOL     OW 3337   5.097   5.163   2.491
  813SOL    HW1 3338   5.027   5.228   2.517
  813SOL    HW2 3339   5.061   5.070   2.500
  814SOL     OW 3340   5.889   6.198   1.842
  814SOL    HW1 3341   5.951   6.268   1.808
  814SOL    HW2 3342   5.830   6.237   1.913
  815SOL     OW 3343   6.487   2.050   1.147
  815SOL    HW1 3344   6.532   2.011   1.067
  815SOL    HW2 3345   6.519   2.003   1.229
  816SOL     OW 3346   6.666   6.239   0.900
  816SOL    HW1 3347   6.745   6.290   0.933
  816SOL    HW2 3348   6.680   6.214   0.804
  817SOL     OW 3349   1.743   3.028   2.360
  817SOL    HW1 3350   1.816   3.096   2.351
  817SOL    HW2 3351   1.684   3.030   2.280
  818SOL     OW 3352   6.180   1.079   0.961
  818SOL    HW1 3353   6.233   1.002   0.997
  818SOL    HW2 3354   6.177   1.073   0.861
  819SOL     OW 3355   6.602   3.437   4.105
  819SOL    HW1 3356   6.696   3.415   4.129
  819SOL    HW2 3357   6.543   3.359   4.124
  820SOL     OW 3358   1.039   3.282   4.847
  820SOL    HW1 3359   0.958   3.318   4.801
  820SOL    HW2 3360   1.107   3.355   4.857
  821SOL     OW 3361   1.105   3.308   6.945
  821SOL    HW1 3362   1.089   3.292   0.019
  821SOL    HW2 3363   1.028   3.360   6.907
  822SOL     OW 3364   1.630   3.958   4.757
  822SOL    HW1 3365   1.613   3.998   4.666
  822SOL    HW2 3366   1.552   3.974   4.816
  823SOL     OW 3367   3.823   4.149   0.008
  823SOL    HW1 3368   3.915   4.168   0.043
  823SOL    HW2 3369   3.760   4.218   0.043
  824SOL     OW 3370   5.225   2.434   5.430
  824SOL    HW1 3371   5.261   2.430   5.523
  824SOL    HW2 3372   5.162   2.358   5.415
  825SOL     OW 3373   2.172   3.863   2.385
  825SOL    HW1 3374   2.073   3.851   2.393
  825SOL    HW2 3375   2.209   3.793   2.323
  826SOL     OW 3376   6.860   3.764   6.601
  826SOL    HW1 3377   6.827   3.691   6.542
  826SOL    HW2 3378   6.835   3.744   6.696
  827SOL     OW 3379   3.479   6.131   0.155
  827SOL    HW1 3380   3.394   6.180   0.137
  827SOL    HW2 3381   3.520   6.103   0.068
  828SOL     OW 3382   5.452   0.391   5.871
  828SOL    HW1 3383   5.548   0.381   5.847
  828SOL    HW2 3384   5.434   0.486   5.895
  829SOL     OW 3385   3.257   3.090   4.625
  829SOL    HW1 3386   3.278   3.024   4.697
  829SOL    HW2 3387   3.341   3.118   4.579
  830SOL     OW 3388   4.566   4.246   5.381
  830SOL    HW1 3389   4.625   4.295   5.317
  830SOL    HW2 3390   4.474   4.240   5.344
  831SOL     OW 3391   6.751   1.103   5.206
  831SOL    HW1 3392   6.823   1.051   5.253
  831SOL    HW2 3393   6.736   1.063   5.115
  832SOL     OW 3394   2.428   1.623   6.548
  832SOL    HW1 3395   2.364   1.696   6.571
  832SOL    HW2 3396   2.387   1.534   6.570
  833SOL     OW 3397   6.705   6.800   6.142
  833SOL    HW1 3398   6.793   6.752   6.143
  833SOL    HW2 3399   6.647   6.762   6.069
  834SOL     OW 3400   2.930   3.475   4.652
  834SOL    HW1 3401   2.960   3.379   4.658
  834SOL    HW2 3402   2.920   3.513   4.744
  835SOL     OW 3403   3.507   6.857   3.303
  835SOL    HW1 3404   3.449   6.935   3.328
  835SOL    HW2 3405   3.565   6.832   3.380
  836SOL     OW 3406   2.911   1.197   0.659
  836SOL    HW1 3407   2.854   1.248   0.595
  836SOL    HW2 3408   2.914   1.101   0.631
  837SOL     OW 3409   5.142   1.248   5.568
  837SOL    HW1 3410   5.178   1.331   5.525
  837SOL    HW2 3411   5.073   1.273   5.636
  838SOL     OW 3412   2.061   5.327   3.359
  838SOL    HW1 3413   1.962   5.311   3.356
  838SOL    HW2 3414   2.079   5.425   3.349
  839SOL     OW 3415   2.919   1.924   2.789
  839SOL    HW1 3416   2.977   2.004   2.796
  839SOL    HW2 3417   2.959   1.858   2.725
  840SOL     OW 3418   0.846   1.235   6.781
  840SOL    HW1 3419   0.800   1.242   6.870
  840SOL    HW2 3420   0.905   1.314   6.767
  841SOL     OW 3421   0.818   3.404   6.941
  841SOL    HW1 3422   0.800   3.309   6.914
  841SOL    HW2 3423   0.755   3.465   6.893
  842SOL     OW 3424   3.430   4.874   3.130
  842SOL    HW1 3425   3.410   4.928   3.212
  842SOL    HW2 3426   3.457   4.782   3.157
  843SOL     OW 3427   6.589   1.895   1.967
  843SOL    HW1 3428   6.630   1.930   2.051
  843SOL    HW2 3429   6.548   1.970   1.915
  844SOL     OW 3430   4.767   5.801   0.829
  844SOL    HW1 3431   4.852   5.853   0.821
  844SOL    HW2 3432   4.705   5.826   0.755
  845SOL     OW 3433   0.525   4.981   5.166
  845SOL    HW1 3434   0.509   4.885   5.185
  845SOL    HW2 3435   0.464   5.037   5.222
  846SOL     OW 3436   6.274   1.334   6.638
  846SOL    HW1 3437   6.370   1.309   6.623
  846SOL    HW2 3438   6.256   1.425   6.600
  847SOL     OW 3439   4.970   3.465   2.182
  847SOL    HW1 3440   5.062   3.432   2.161
  847SOL    HW2 3441   4.914   3.389   2.213
  848SOL     OW 3442   5.996   0.895   5.667
  848SOL    HW1 3443   5.900   0.905   5.694
  848SOL    HW2 3444   6.053   0.889   5.749
  849SOL     OW 3445   0.476   5.323   5.030
  849SOL    HW1 3446   0.567   5.365   5.038
  849SOL    HW2 3447   0.479   5.254   4.957
  850SOL     OW 3448   3.878   0.839   2.898
  850SOL    HW1 3449   3.821   0.831   2.816
  850SOL    HW2 3450   3.830   0.798   2.976
  851SOL     OW 3451   1.625   0.363   6.720
  851SOL    HW1 3452   1.600   0.287   6.659
  851SOL    HW2 3453   1.550   0.381   6.783
  852SOL     OW 3454   1.683   3.805   6.140
  852SOL    HW1 3455   1.751   3.875   6.163
  852SOL    HW2 3456   1.687   3.731   6.207
  853SOL     OW 3457   1.067   3.889   1.659
  853SOL    HW1 3458   1.012   3.953   1.606
  853SOL    HW2 3459   1.117   3.829   1.597
  854SOL     OW 3460   5.033   5.420   1.846
  854SOL    HW1 3461   4.941   5.383   1.856
  854SOL    HW2 3462   5.034   5.487   1.771
  855SOL     OW 3463   5.177   6.939   1.851
  855SOL    HW1 3464   5.079   6.920   1.845
  855SOL    HW2 3465   5.227   6.853   1.853
  856SOL     OW 3466   2.018   6.686   5.291
  856SOL    HW1 3467   2.045   6.735   5.208
  856SOL    HW2 3468   1.985   6.595   5.266
  857SOL     OW 3469   6.240   3.227   1.858
  857SOL    HW1 3470   6.224   3.128   1.855
  857SOL    HW2 3471   6.173   3.270   1.918
  858SOL     OW 3472   3.199   4.407   1.262
  858SOL    HW1 3473   3.210   4.354   1.346
  858SOL    HW2 3474   3.110   4.387   1.222
  859SOL     OW 3475   6.568   4.815   6.967
  859SOL    HW1 3476   6.544   4.731   6.918
  859SOL    HW2 3477   6.666   4.815   6.986
  860SOL     OW 3478   1.924   4.851   1.107
  860SOL    HW1 3479   1.998   4.785   1.096
  860SOL    HW2 3480   1.954   4.941   1.073
  861SOL     OW 3481   3.724   5.620   5.485
  861SOL    HW1 3482   3.788   5.566   5.539
  861SOL    HW2 3483   3.685   5.563   5.412
  862SOL     OW 3484   4.660   4.270   4.590
  862SOL    HW1 3485   4.602   4.189   4.600
  862SOL    HW2 3486   4.697   4.274   4.498
  863SOL     OW 3487   5.854   1.324   1.268
  863SOL    HW1 3488   5.793   1.319   1.189
  863SOL    HW2 3489   5.944   1.291   1.242
  864SOL     OW 3490   5.938   4.049   2.731
  864SOL    HW1 3491   6.003   4.115   2.694
  864SOL    HW2 3492   5.909   4.078   2.822
  865SOL     OW 3493   1.759   6.550   4.524
  865SOL    HW1 3494   1.851   6.548   4.484
  865SOL    HW2 3495   1.694   6.584   4.456
  866SOL     OW 3496   2.933   1.941   1.809
  866SOL    HW1 3497   2.990   1.865   1.843
  866SOL    HW2 3498   2.874   1.908   1.736
  867SOL     OW 3499   2.004   2.877   6.190
  867SOL    HW1 3500   1.941   2.954   6.201
  867SOL    HW2 3501   1.978   2.825   6.109
  868SOL     OW 3502   5.098   2.905   3.532
  868SOL    HW1 3503   5.044   2.830   3.570
  868SOL    HW2 3504   5.158   2.869   3.460
  869SOL     OW 3505   6.212   5.249   3.011
  869SOL    HW1 3506   6.180   5.333   3.055
  869SOL    HW2 3507   6.134   5.197   2.977
  870SOL     OW 3508   6.967   1.274   1.171
  870SOL    HW1 3509   6.954   1.179   1.197
  870SOL    HW2 3510   0.011   1.316   1.232
  871SOL     OW 3511   6.202   2.598   0.839
  871SOL    HW1 3512   6.123   2.546   0.808
  871SOL    HW2 3513   6.228   2.664   0.769
  872SOL     OW 3514   5.848   2.214   3.355
  872SOL    HW1 3515   5.773   2.150   3.371
  872SOL    HW2 3516   5.910   2.175   3.286
  873SOL     OW 3517   4.524   6.984   5.305
  873SOL    HW1 3518   4.478   6.907   5.350
  873SOL    HW2 3519   4.548   6.957   5.211
  874SOL     OW 3520   0.835   3.300   5.736
  874SOL    HW1 3521   0.822   3.251   5.650
  874SOL    HW2 3522   0.749   3.344   5.762
  875SOL     OW 3523   6.311   4.434   6.866
  875SOL    HW1 3524   6.266   4.495   6.931
  875SOL    HW2 3525   6.410   4.445   6.873
  876SOL     OW 3526   0.777   3.127   2.236
  876SOL    HW1 3527   0.680   3.125   2.214
  876SOL    HW2 3528   0.814   3.218   2.220
  877SOL     OW 3529   6.008   5.862   0.700
  877SOL    HW1 3530   5.992   5.866   0.799
  877SOL    HW2 3531   6.001   5.767   0.669
  878SOL     OW 3532   3.127   4.758   0.040
  878SOL    HW1 3533   3.098   4.818   0.114
  878SOL    HW2 3534   3.214   4.715   0.064
  879SOL     OW 3535   4.594   2.396   2.028
  879SOL    HW1 3536   4.598   2.491   2.000
  879SOL    HW2 3537   4.533   2.387   2.107
  880SOL     OW 3538   3.785   5.302   0.548
  880SOL    HW1 3539   3.731   5.272   0.627
  880SOL    HW2 3540   3.724   5.316   0.470
  881SOL     OW 3541   4.219   5.340   5.285
  881SOL    HW1 3542   4.258   5.357   5.194
  881SOL    HW2 3543   4.237   5.245   5.312
  882SOL     OW 3544   1.373   0.960   4.851
  882SOL    HW1 3545   1.378   0.970   4.752
  882SOL    HW2 3546   1.329   1.040   4.891
  883SOL     OW 3547   3.088   5.172   6.376
  883SOL    HW1 3548   3.131   5.180   6.286
  883SOL    HW2 3549   3.030   5.252   6.392
  884SOL     OW 3550   4.393   3.755   1.206
  884SOL    HW1 3551   4.485   3.730   1.178
  884SOL    HW2 3552   4.393   3.846   1.247
  885SOL     OW 3553   4.577   6.186   0.055
  885SOL    HW1 3554   4.561   6.092   0.087
  885SOL    HW2 3555   4.497   6.242   0.077
  886SOL     OW 3556   4.427   1.485   6.023
  886SOL    HW1 3557   4.476   1.432   6.092
  886SOL    HW2 3558   4.355   1.428   5.983
  887SOL     OW 3559   4.260   0.754   6.438
  887SOL    HW1 3560   4.323   0.817   6.484
  887SOL    HW2 3561   4.180   0.739   6.495
  888SOL     OW 3562   6.222   5.952   3.422
  888SOL    HW1 3563   6.206   6.044   3.388
  888SOL    HW2 3564   6.247   5.956   3.519
  889SOL     OW 3565   0.721   6.970   4.709
  889SOL    HW1 3566   0.669   6.988   4.625
  889SOL    HW2 3567   0.706   0.022   4.773
  890SOL     OW 3568   2.572   4.651   2.001
  890SOL    HW1 3569   2.526   4.565   2.024
  890SOL    HW2 3570   2.671   4.637   1.996
  891SOL     OW 3571   5.209   3.524   6.763
  891SOL    HW1 3572   5.122   3.477   6.778
  891SOL    HW2 3573   5.284   3.460   6.775
  892SOL     OW 3574   2.180   4.711   1.373
  892SOL    HW1 3575   2.165   4.662   1.458
  892SOL    HW2 3576   2.135   4.800   1.377
  893SOL     OW 3577   1.706   7.002   0.323
  893SOL    HW1 3578   1.658   0.026   0.397
  893SOL    HW2 3579   1.764   6.931   0.362
  894SOL     OW 3580   0.840   5.512   3.769
  894SOL    HW1 3581   0.882   5.498   3.859
  894SOL    HW2 3582   0.751   5.466   3.767
  895SOL     OW 3583   2.190   6.472   5.442
  895SOL    HW1 3584   2.103   6.521   5.451
  895SOL    HW2 3585   2.173   6.374   5.442
  896SOL     OW 3586   5.455   6.904   3.214
  896SOL    HW1 3587   5.509   6.986   3.235
  896SOL    HW2 3588   5.478   6.832   3.279
  897SOL     OW 3589   5.466   2.577   5.864
  897SOL    HW1 3590   5.546   2.632   5.887
  897SOL    HW2 3591   5.419   2.551   5.949
  898SOL     OW 3592   5.938   6.356   3.943
  898SOL    HW1 3593   5.992   6.380   3.862
  898SOL    HW2 3594   5.849   6.401   3.939
  899SOL     OW 3595   0.695   4.976   5.602
  899SOL    HW1 3596   0.599   4.952   5.587
  899SOL    HW2 3597   0.700   5.062   5.653
  900SOL     OW 3598   0.589   5.885   3.480
  900SOL    HW1 3599   0.668   5.845   3.526
  900SOL    HW2 3600   0.511   5.823   3.487
  901SOL     OW 3601   6.067   2.289   3.136
  901SOL    HW1 3602   6.122   2.268   3.054
  901SOL    HW2 3603   6.129   2.308   3.213
  902SOL     OW 3604   0.232   6.191   6.916
  902SOL    HW1 3605   0.303   6.192   6.845
  902SOL    HW2 3606   0.160   6.255   6.891
  903SOL     OW 3607   1.348   5.039   0.628
  903SOL    HW1 3608   1.448   5.033   0.630
  903SOL    HW2 3609   1.312   4.968   0.567
  904SOL     OW 3610   2.075   1.431   3.398
  904SOL    HW1 3611   2.008   1.378   3.344
  904SOL    HW2 3612   2.054   1.528   3.390
  905SOL     OW 3613   5.225   2.049   5.029
  905SOL    HW1 3614   5.296   2.088   4.971
  905SOL    HW2 3615   5.135   2.078   4.996
  906SOL     OW 3616   5.994   4.180   5.364
  906SOL    HW1 3617   5.918   4.117   5.353
  906SOL    HW2 3618   6.080   4.130   5.357
  907SOL     OW 3619   6.489   3.312   2.098
  907SOL    HW1 3620   6.467   3.253   2.020
  907SOL    HW2 3621   6.411   3.316   2.160
  908SOL     OW 3622   2.185   0.799   3.912
  908SOL    HW1 3623   2.129   0.780   3.832
  908SOL    HW2 3624   2.282   0.791   3.888
  909SOL     OW 3625   3.276   1.097   1.777
  909SOL    HW1 3626   3.263   1.183   1.825
  909SOL    HW2 3627   3.328   1.034   1.834
  910SOL     OW 3628   2.097   2.149   1.187
  910SOL    HW1 3629   2.007   2.170   1.149
  910SOL    HW2 3630   2.168   2.198   1.135
  911SOL     OW 3631   0.147   3.892   1.210
  911SOL    HW1 3632   0.085   3.915   1.285
  911SOL    HW2 3633   0.102   3.827   1.149
  912SOL     OW 3634   1.052   0.134   5.970
  912SOL    HW1 3635   1.017   0.118   5.878
  912SOL    HW2 3636   0.979   0.120   6.037
  913SOL     OW 3637   2.622   1.297   1.877
  913SOL    HW1 3638   2.534   1.343   1.881
  913SOL    HW2 3639   2.671   1.326   1.795
  914SOL     OW 3640   3.286   6.297   2.890
  914SOL    HW1 3641   3.198   6.311   2.845
  914SOL    HW2 3642   3.300   6.199   2.906
  915SOL     OW 3643   0.734   2.630   0.016
  915SOL    HW1 3644   0.789   2.616   6.957
  915SOL    HW2 3645   0.748   2.723   0.050
  916SOL     OW 3646   2.111   3.228   3.084
  916SOL    HW1 3647   2.130   3.326   3.072
  916SOL    HW2 3648   2.071   3.192   2.999
  917SOL     OW 3649   3.300   2.301   6.761
  917SOL    HW1 3650   3.289   2.257   6.850
  917SOL    HW2 3651   3.275   2.236   6.688
  918SOL     OW 3652   1.128   0.627   6.083
  918SOL    HW1 3653   1.167   0.698   6.025
  918SOL    HW2 3654   1.038   0.601   6.047
  919SOL     OW 3655   2.232   6.022   2.064
  919SOL    HW1 3656   2.279   6.096   2.112
  919SOL    HW2 3657   2.157   6.060   2.010
  920SOL     OW 3658   2.470   0.415   3.884
  920SOL    HW1 3659   2.446   0.325   3.919
  920SOL    HW2 3660   2.554   0.447   3.928
  921SOL     OW 3661   5.697   4.667   5.559
  921SOL    HW1 3662   5.758   4.719   5.619
  921SOL    HW2 3663   5.643   4.730   5.503
  922SOL     OW 3664   2.012   3.868   6.750
  922SOL    HW1 3665   2.095   3.875   6.805
  922SOL    HW2 3666   1.985   3.959   6.718
  923SOL     OW 3667   4.014   0.376   6.772
  923SOL    HW1 3668   4.112   0.384   6.792
  923SOL    HW2 3669   4.002   0.364   6.673
  924SOL     OW 3670   5.950   3.531   3.215
  924SOL    HW1 3671   6.005   3.485   3.145
  924SOL    HW2 3672   5.917   3.463   3.281
  925SOL     OW 3673   6.565   1.680   3.054
  925SOL    HW1 3674   6.561   1.611   2.981
  925SOL    HW2 3675   6.642   1.660   3.114
  926SOL     OW 3676   5.346   6.430   0.898
  926SOL    HW1 3677   5.309   6.414   0.989
  926SOL    HW2 3678   5.282   6.395   0.829
  927SOL     OW 3679   4.090   5.160   5.553
  927SOL    HW1 3680   4.186   5.132   5.550
  927SOL    HW2 3681   4.073   5.209   5.638
  928SOL     OW 3682   0.635   0.951   1.372
  928SOL    HW1 3683   0.692   1.009   1.314
  928SOL    HW2 3684   0.580   1.008   1.432
  929SOL     OW 3685   1.249   2.471   2.346
  929SOL    HW1 3686   1.182   2.514   2.286
  929SOL    HW2 3687   1.341   2.491   2.313
  930SOL     OW 3688   4.873   6.474   3.906
  930SOL    HW1 3689   4.887   6.394   3.847
  930SOL    HW2 3690   4.775   6.483   3.927
  931SOL     OW 3691   1.346   3.069   1.735
  931SOL    HW1 3692   1.426   3.126   1.752
  931SOL    HW2 3693   1.317   3.025   1.820
  932SOL     OW 3694   4.688   6.857   1.401
  932SOL    HW1 3695   4.645   6.772   1.433
  932SOL    HW2 3696   4.686   6.859   1.301
  933SOL     OW 3697   2.167   6.087   2.746
  933SOL    HW1 3698   2.139   6.180   2.768
  933SOL    HW2 3699   2.142   6.026   2.821
  934SOL     OW 3700   3.035   1.314   5.313
  934SOL    HW1 3701   3.022   1.220   5.344
  934SOL    HW2 3702   2.957   1.342   5.257
  935SOL     OW 3703   2.989   3.645   6.242
  935SOL    HW1 3704   3.010   3.736   6.278
  935SOL    HW2 3705   3.025   3.637   6.149
  936SOL     OW 3706   0.405   1.402   1.277
  936SOL    HW1 3707   0.419   1.397   1.376
  936SOL    HW2 3708   0.478   1.354   1.230
  937SOL     OW 3709   4.729   2.409   4.169
  937SOL    HW1 3710   4.652   2.348   4.149
  937SOL    HW2 3711   4.746   2.411   4.267
  938SOL     OW 3712   0.221   2.431   0.071
  938SOL    HW1 3713   0.234   2.434   0.170
  938SOL    HW2 3714   0.265   2.510   0.029
  939SOL     OW 3715   6.039   1.029   5.938
  939SOL    HW1 3716   6.076   1.106   5.989
  939SOL    HW2 3717   5.939   1.035   5.935
  940SOL     OW 3718   0.697   1.105   4.219
  940SOL    HW1 3719   0.777   1.076   4.272
  940SOL    HW2 3720   0.696   1.056   4.132
  941SOL     OW 3721   5.381   3.004   4.757
  941SOL    HW1 3722   5.479   3.007   4.738
  941SOL    HW2 3723   5.341   2.925   4.711
  942SOL     OW 3724   5.301   6.965   4.817
  942SOL    HW1 3725   5.290   0.021   4.757
  942SOL    HW2 3726   5.383   6.915   4.791
  943SOL     OW 3727   5.202   1.870   0.789
  943SOL    HW1 3728   5.228   1.779   0.760
  943SOL    HW2 3729   5.276   1.934   0.768
  944SOL     OW 3730   6.347   3.924   5.075
  944SOL    HW1 3731   6.293   3.946   5.156
  944SOL    HW2 3732   6.301   3.852   5.023
  945SOL     OW 3733   5.425   4.383   4.916
  945SOL    HW1 3734   5.365   4.360   4.839
  945SOL    HW2 3735   5.495   4.312   4.926
  946SOL     OW 3736   5.506   2.630   5.593
  946SOL    HW1 3737   5.490   2.627   5.692
  946SOL    HW2 3738   5.525   2.538   5.559
  947SOL     OW 3739   1.934   3.333   5.679
  947SOL    HW1 3740   1.885   3.344   5.593
  947SOL    HW2 3741   2.020   3.385   5.675
  948SOL     OW 3742   3.558   1.927   0.060
  948SOL    HW1 3743   3.579   2.014   0.104
  948SOL    HW2 3744   3.498   1.874   0.119
  949SOL     OW 3745   5.334   6.096   6.011
  949SOL    HW1 3746   5.342   6.191   5.980
  949SOL    HW2 3747   5.398   6.039   5.960
  950SOL     OW 3748   3.824   5.349   1.420
  950SOL    HW1 3749   3.904   5.378   1.367
  950SOL    HW2 3750   3.763   5.297   1.362
  951SOL     OW 3751   1.152   1.943   3.180
  951SOL    HW1 3752   1.159   2.031   3.227
  951SOL    HW2 3753   1.059   1.931   3.146
  952SOL     OW 3754   4.924   2.036   1.878
  952SOL    HW1 3755   4.875   2.033   1.792
  952SOL    HW2 3756   5.022   2.044   1.861
  953SOL     OW 3757   4.010   0.073   6.692
  953SOL    HW1 3758   3.949   0.029   6.758
  953SOL    HW2 3759   3.962   0.150   6.648
  954SOL     OW 3760   6.416   5.957   0.485
  954SOL    HW1 3761   6.338   5.948   0.547
  954SOL    HW2 3762   6.470   5.873   0.487
  955SOL     OW 3763   6.914   0.046   2.609
  955SOL    HW1 3764   6.943   6.974   2.605
  955SOL    HW2 3765   6.815   0.051   2.591
  956SOL     OW 3766   0.742   2.418   0.992
  956SOL    HW1 3767   0.676   2.476   0.946
  956SOL    HW2 3768   0.695   2.359   1.058
  957SOL     OW 3769   2.606   6.304   5.156
  957SOL    HW1 3770   2.641   6.396   5.136
  957SOL    HW2 3771   2.544   6.275   5.083
  958SOL     OW 3772   5.443   2.643   0.546
  958SOL    HW1 3773   5.487   2.683   0.626
  958SOL    HW2 3774   5.495   2.563   0.515
  959SOL     OW 3775   1.704   4.311   2.779
  959SOL    HW1 3776   1.752   4.263   2.852
  959SOL    HW2 3777   1.741   4.284   2.691
  960SOL     OW 3778   1.669   5.493   5.317
  960SOL    HW1 3779   1.732   5.426   5.279
  960SOL    HW2 3780   1.597   5.513   5.250
  961SOL     OW 3781   3.671   6.753   2.062
  961SOL    HW1 3782   3.721   6.794   1.986
  961SOL    HW2 3783   3.677   6.811   2.143
  962SOL     OW 3784   1.525   6.873   4.730
  962SOL    HW1 3785   1.543   6.933   4.653
  962SOL    HW2 3786   1.522   6.926   4.814
  963SOL     OW 3787   6.505   6.938   1.119
  963SOL    HW1 3788   6.490   6.914   1.023
  963SOL    HW2 3789   6.424   6.913   1.173
  964SOL     OW 3790   5.292   4.271   1.849
  964SOL    HW1 3791   5.309   4.297   1.755
  964SOL    HW2 3792   5.215   4.207   1.853
  965SOL     OW 3793   0.553   2.217   1.092
  965SOL    HW1 3794   0.490   2.160   1.038
  965SOL    HW2 3795   0.511   2.238   1.180
  966SOL     OW 3796   0.348   2.080   1.976
  966SOL    HW1 3797   0.405   2.149   2.021
  966SOL    HW2 3798   0.352   1.995   2.027
  967SOL     OW 3799   0.692   5.734   2.165
  967SOL    HW1 3800   0.702   5.830   2.139
  967SOL    HW2 3801   0.768   5.681   2.128
  968SOL     OW 3802   5.602   3.436   2.762
  968SOL    HW1 3803   5.611   3.534   2.780
  968SOL    HW2 3804   5.516   3.420   2.713
  969SOL     OW 3805   4.650   6.004   5.660
  969SOL    HW1 3806   4.719   5.932   5.674
  969SOL    HW2 3807   4.677   6.060   5.582
  970SOL     OW 3808   4.368   2.211   5.287
  970SOL    HW1 3809   4.317   2.125   5.275
  970SOL    HW2 3810   4.466   2.192   5.283
  971SOL     OW 3811   6.792   1.816   1.669
  971SOL    HW1 3812   6.892   1.819   1.663
  971SOL    HW2 3813   6.754   1.902   1.633
  972SOL     OW 3814   6.932   5.301   0.910
  972SOL    HW1 3815   6.992   5.245   0.967
  972SOL    HW2 3816   6.906   5.384   0.960
  973SOL     OW 3817   5.555   3.871   5.723
  973SOL    HW1 3818   5.569   3.778   5.756
  973SOL    HW2 3819   5.613   3.887   5.643
  974SOL     OW 3820   2.780   1.467   4.078
  974SOL    HW1 3821   2.764   1.534   4.006
  974SOL    HW2 3822   2.698   1.460   4.136
  975SOL     OW 3823   3.872   6.748   5.624
  975SOL    HW1 3824   3.834   6.667   5.580
  975SOL    HW2 3825   3.864   6.740   5.723
  976SOL     OW 3826   0.131   5.068   3.778
  976SOL    HW1 3827   0.163   5.052   3.685
  976SOL    HW2 3828   0.208   5.063   3.841
  977SOL     OW 3829   1.899   1.141   3.961
  977SOL    HW1 3830   1.869   1.215   3.902
  977SOL    HW2 3831   1.833   1.127   4.034
  978SOL     OW 3832   6.085   3.217   4.316
  978SOL    HW1 3833   5.986   3.230   4.311
  978SOL    HW2 3834   6.105   3.133   4.366
  979SOL     OW 3835   5.798   0.674   3.567
  979SOL    HW1 3836   5.866   0.609   3.602
  979SOL    HW2 3837   5.836   0.766   3.570
  980SOL     OW 3838   6.340   0.908   4.664
  980SOL    HW1 3839   6.416   0.912   4.599
  980SOL    HW2 3840   6.253   0.913   4.615
  981SOL     OW 3841   6.933   2.633   5.912
  981SOL    HW1 3842   0.001   2.621   5.949
  981SOL    HW2 3843   6.922   2.726   5.878
  982SOL     OW 3844   1.910   2.658   1.142
  982SOL    HW1 3845   1.837   2.711   1.186
  982SOL    HW2 3846   1.875   2.568   1.117
  983SOL     OW 3847   5.447   1.444   3.004
  983SOL    HW1 3848   5.507   1.429   2.926
  983SOL    HW2 3849   5.485   1.515   3.062
  984SOL     OW 3850   4.826   1.039   4.490
  984SOL    HW1 3851   4.849   0.956   4.541
  984SOL    HW2 3852   4.771   1.015   4.410
  985SOL     OW 3853   3.204   5.414   0.100
  985SOL    HW1 3854   3.250   5.382   0.017
  985SOL    HW2 3855   3.271   5.447   0.165
  986SOL     OW 3856   4.504   5.052   6.419
  986SOL    HW1 3857   4.457   5.100   6.345
  986SOL    HW2 3858   4.437   5.021   6.487
  987SOL     OW 3859   3.923   0.002   2.707
  987SOL    HW1 3860   3.882   0.080   2.755
  987SOL    HW2 3861   3.859   6.949   2.707
  988SOL     OW 3862   3.403   3.894   1.858
  988SOL    HW1 3863   3.315   3.925   1.822
  988SOL    HW2 3864   3.469   3.886   1.783
  989SOL     OW 3865   0.377   6.643   5.706
  989SOL    HW1 3866   0.338   6.557   5.672
  989SOL    HW2 3867   0.310   6.689   5.765
  990SOL     OW 3868   4.700   6.751   3.703
  990SOL    HW1 3869   4.739   6.660   3.694
  990SOL    HW2 3870   4.744   6.799   3.779
  991SOL     OW 3871   6.286   1.519   4.908
  991SOL    HW1 3872   6.215   1.577   4.948
  991SOL    HW2 3873   6.320   1.560   4.824
  992SOL     OW 3874   0.721   3.474   0.742
  992SOL    HW1 3875   0.692   3.567   0.719
  992SOL    HW2 3876   0.720   3.418   0.659
  993SOL     OW 3877   3.098   5.221   3.498
  993SOL    HW1 3878   3.100   5.241   3.400
  993SOL    HW2 3879   3.188   5.186   3.526
  994SOL     OW 3880   2.917   3.512   2.863
  994SOL    HW1 3881   2.933   3.561   2.949
  994SOL    HW2 3882   2.968   3.426   2.864
  995SOL     OW 3883   0.939   1.575   4.899
  995SOL    HW1 3884   1.036   1.552   4.892
  995SOL    HW2 3885   0.921   1.610   4.991
  996SOL     OW 3886   1.670   3.686   2.580
  996SOL    HW1 3887   1.611   3.661   2.503
  996SOL    HW2 3888   1.617   3.735   2.649
  997SOL     OW 3889   6.568   0.923   1.594
  997SOL    HW1 3890   6.584   1.021   1.583
  997SOL    HW2 3891   6.654   0.877   1.615
  998SOL     OW 3892   5.291   0.399   3.055
  998SOL    HW1 3893   5.230   0.454   2.998
  998SOL    HW2 3894   5.296   0.306   3.018
  999SOL     OW 3895   0.187   5.031   1.455
  999SOL    HW1 3896   0.203   5.009   1.551
  999SOL    HW2 3897   0.272   5.065   1.414
 1000SOL     OW 3898   3.701   1.523   3.829
 1000SOL    HW1 3899   3.641   1.548   3.905
 1000SOL    HW2 3900   3.647   1.511   3.746
 1001SOL     OW 3901   4.959   0.515   5.548
 1001SOL    HW1 3902   4.901   0.479   5.475
 1001SOL    HW2 3903   5.053   0.524   5.515
 1002SOL     OW 3904   6.451   1.181   1.271
 1002SOL    HW1 3905   6.403   1.243   1.332
 1002SOL    HW2 3906   6.473   1.228   1.185
 1003SOL     OW 3907   3.913   5.730   2.695
 1003SOL    HW1 3908   3.923   5.630   2.698
 1003SOL    HW2 3909   3.843   5.757   2.761
 1004SOL     OW 3910   6.250   6.161   7.003
 1004SOL    HW1 3911   6.306   6.080   0.000
 1004SOL    HW2 3912   6.176   6.168   0.047
 1005SOL     OW 3913   0.232   6.615   3.246
 1005SOL    HW1 3914   0.222   6.714   3.233
 1005SOL    HW2 3915   0.326   6.594   3.273
 1006SOL     OW 3916   2.142   4.691   1.096
 1006SOL    HW1 3917   2.170   4.667   1.189
 1006SOL    HW2 3918   2.224   4.706   1.039
 1007SOL     OW 3919   0.046   0.905   3.560
 1007SOL    HW1 3920   0.121   0.955   3.517
 1007SOL    HW2 3921   0.064   0.806   3.554
 1008SOL     OW 3922   2.103   3.419   3.329
 1008SOL    HW1 3923   2.087   3.501   3.274
 1008SOL    HW2 3924   2.114   3.340   3.269
 1009SOL     OW 3925   1.415   6.201   5.379
 1009SOL    HW1 3926   1.388   6.159   5.466
 1009SOL    HW2 3927   1.475   6.279   5.397
 1010SOL     OW 3928   4.928   1.884   0.150
 1010SOL    HW1 3929   4.890   1.968   0.112
 1010SOL    HW2 3930   4.872   1.806   0.122
 1011SOL     OW 3931   3.473   6.106   3.161
 1011SOL    HW1 3932   3.526   6.177   3.114
 1011SOL    HW2 3933   3.388   6.089   3.110
 1012SOL     OW 3934   4.761   5.584   6.755
 1012SOL    HW1 3935   4.800   5.516   6.694
 1012SOL    HW2 3936   4.722   5.659   6.701
 1013SOL     OW 3937   0.778   1.175   1.583
 1013SOL    HW1 3938   0.697   1.118   1.593
 1013SOL    HW2 3939   0.775   1.223   1.495
 1014SOL     OW 3940   4.717   0.060   5.867
 1014SOL    HW1 3941   4.815   0.079   5.879
 1014SOL    HW2 3942   4.694   6.998   5.913
 1015SOL     OW 3943   3.460   5.897   3.888
 1015SOL    HW1 3944   3.487   5.878   3.982
 1015SOL    HW2 3945   3.379   5.843   3.865
 1016SOL     OW 3946   4.172   2.617   1.240
 1016SOL    HW1 3947   4.078   2.584   1.230
 1016SOL    HW2 3948   4.172   2.713   1.266
 1017SOL     OW 3949   4.065   1.835   6.467
 1017SOL    HW1 3950   4.017   1.913   6.506
 1017SOL    HW2 3951   4.158   1.831   6.504
 1018SOL     OW 3952   1.714   3.482   2.968
 1018SOL    HW1 3953   1.759   3.473   2.879
 1018SOL    HW2 3954   1.730   3.574   3.004
 1019SOL     OW 3955   6.322   1.284   0.161
 1019SOL    HW1 3956   6.421   1.277   0.166
 1019SOL    HW2 3957   6.286   1.208   0.106
 1020SOL     OW 3958   2.713   1.864   1.680
 1020SOL    HW1 3959   2.665   1.821   1.756
 1020SOL    HW2 3960   2.674   1.954   1.662
 1021SOL     OW 3961   6.564   1.365   1.043
 1021SOL    HW1 3962   6.641   1.354   1.106
 1021SOL    HW2 3963   6.596   1.402   0.956
 1022SOL     OW 3964   4.210   3.400   6.517
 1022SOL    HW1 3965   4.280   3.331   6.497
 1022SOL    HW2 3966   4.130   3.383   6.460
 1023SOL     OW 3967   5.370   1.109   2.899
 1023SOL    HW1 3968   5.387   1.164   2.818
 1023SOL    HW2 3969   5.324   1.164   2.968
 1024SOL     OW 3970   6.536   1.575   3.409
 1024SOL    HW1 3971   6.518   1.478   3.394
 1024SOL    HW2 3972   6.455   1.617   3.452
 1025SOL     OW 3973   3.056   4.955   1.262
 1025SOL    HW1 3974   2.958   4.956   1.282
 1025SOL    HW2 3975   3.104   4.907   1.336
 1026SOL     OW 3976   1.097   2.460   0.413
 1026SOL    HW1 3977   1.155   2.533   0.376
 1026SOL    HW2 3978   1.030   2.432   0.345
 1027SOL     OW 3979   2.745   4.767   2.501
 1027SOL    HW1 3980   2.766   4.770   2.599
 1027SOL    HW2 3981   2.800   4.834   2.453
 1028SOL     OW 3982   1.691   6.456   0.856
 1028SOL    HW1 3983   1.636   6.492   0.931
 1028SOL    HW2 3984   1.781   6.429   0.890
 1029SOL     OW 3985   2.367   0.543   6.494
 1029SOL    HW1 3986   2.410   0.624   6.455
 1029SOL    HW2 3987   2.350   0.559   6.592
 1030SOL     OW 3988   3.902   3.988   4.967
 1030SOL    HW1 3989   3.912   3.955   4.873
 1030SOL    HW2 3990   3.840   4.067   4.968
 1031SOL     OW 3991   2.495   5.707   1.733
 1031SOL    HW1 3992   2.517   5.653   1.651
 1031SOL    HW2 3993   2.474   5.645   1.809
 1032SOL     OW 3994   2.246   0.640   4.284
 1032SOL    HW1 3995   2.162   0.626   4.233
 1032SOL    HW2 3996   2.267   0.738   4.289
 1033SOL     OW 3997   2.621   5.965   2.667
 1033SOL    HW1 3998   2.537   5.965   2.721
 1033SOL    HW2 3999   2.690   5.910   2.713
 1034SOL     OW 4000   1.184   4.659   3.813
 1034SOL    HW1 4001   1.274   4.625   3.841
 1034SOL    HW2 4002   1.115   4.620   3.874
 1035SOL     OW 4003   2.385   1.497   4.609
 1035SOL    HW1 4004   2.320   1.422   4.619
 1035SOL    HW2 4005   2.478   1.463   4.625
 1036SOL     OW 4006   4.447   2.258   0.199
 1036SOL    HW1 4007   4.390   2.268   0.117
 1036SOL    HW2 4008   4.471   2.349   0.233
 1037SOL     OW 4009   2.221   2.162   6.581
 1037SOL    HW1 4010   2.278   2.241   6.558
 1037SOL    HW2 4011   2.188   2.171   6.675
 1038SOL     OW 4012   2.114   0.870   4.703
 1038SOL    HW1 4013   2.104   0.786   4.651
 1038SOL    HW2 4014   2.090   0.948   4.645
 1039SOL     OW 4015   3.807   1.817   3.710
 1039SOL    HW1 4016   3.760   1.904   3.694
 1039SOL    HW2 4017   3.753   1.761   3.772
 1040SOL     OW 4018   6.643   4.257   3.144
 1040SOL    HW1 4019   6.561   4.202   3.157
 1040SOL    HW2 4020   6.621   4.338   3.089
 1041SOL     OW 4021   0.957   0.531   4.502
 1041SOL    HW1 4022   0.949   0.617   4.451
 1041SOL    HW2 4023   1.015   0.467   4.451
 1042SOL     OW 4024   5.414   4.427   0.993
 1042SOL    HW1 4025   5.390   4.440   0.896
 1042SOL    HW2 4026   5.381   4.338   1.023
 1043SOL     OW 4027   2.952   1.528   6.328
 1043SOL    HW1 4028   2.855   1.524   6.352
 1043SOL    HW2 4029   2.962   1.520   6.228
 1044SOL     OW 4030   4.120   3.224   1.948
 1044SOL    HW1 4031   4.090   3.196   1.857
 1044SOL    HW2 4032   4.044   3.269   1.996
 1045SOL     OW 4033   3.033   1.451   3.097
 1045SOL    HW1 4034   2.968   1.384   3.134
 1045SOL    HW2 4035   3.027   1.536   3.151
 1046SOL     OW 4036   4.190   0.358   1.851
 1046SOL    HW1 4037   4.230   0.311   1.929
 1046SOL    HW2 4038   4.254   0.357   1.774
 1047SOL     OW 4039   0.926   4.602   2.653
 1047SOL    HW1 4040   1.006   4.584   2.710
 1047SOL    HW2 4041   0.883   4.516   2.627
 1048SOL     OW 4042   5.115   4.450   5.373
 1048SOL    HW1 4043   5.214   4.452   5.389
 1048SOL    HW2 4044   5.095   4.499   5.288
 1049SOL     OW 4045   0.444   3.198   4.753
 1049SOL    HW1 4046   0.445   3.219   4.655
 1049SOL    HW2 4047   0.354   3.162   4.778
 1050SOL     OW 4048   2.983   0.496   0.032
 1050SOL    HW1 4049   2.886   0.491   0.054
 1050SOL    HW2 4050   3.035   0.520   0.114
 1051SOL     OW 4051   4.668   4.276   1.341
 1051SOL    HW1 4052   4.656   4.251   1.245
 1051SOL    HW2 4053   4.582   4.264   1.390
 1052SOL     OW 4054   3.581   0.337   4.714
 1052SOL    HW1 4055   3.519   0.395   4.767
 1052SOL    HW2 4056   3.639   0.286   4.777
 1053SOL     OW 4057   4.114   4.720   3.686
 1053SOL    HW1 4058   4.206   4.680   3.679
 1053SOL    HW2 4059   4.062   4.671   3.756
 1054SOL     OW 4060   3.746   6.073   4.376
 1054SOL    HW1 4061   3.833   6.041   4.413
 1054SOL    HW2 4062   3.755   6.168   4.348
 1055SOL     OW 4063   4.548   5.201   4.759
 1055SOL    HW1 4064   4.494   5.269   4.710
 1055SOL    HW2 4065   4.585   5.242   4.843
 1056SOL     OW 4066   1.834   6.278   5.280
 1056SOL    HW1 4067   1.819   6.184   5.252
 1056SOL    HW2 4068   1.922   6.310   5.243
 1057SOL     OW 4069   3.295   3.963   2.186
 1057SOL    HW1 4070   3.348   3.884   2.155
 1057SOL    HW2 4071   3.227   3.986   2.116
 1058SOL     OW 4072   3.718   1.277   1.712
 1058SOL    HW1 4073   3.778   1.224   1.652
 1058SOL    HW2 4074   3.624   1.245   1.702
 1059SOL     OW 4075   3.448   1.771   0.904
 1059SOL    HW1 4076   3.384   1.741   0.975
 1059SOL    HW2 4077   3.449   1.871   0.901
 1060SOL     OW 4078   2.412   2.086   5.581
 1060SOL    HW1 4079   2.381   2.059   5.489
 1060SOL    HW2 4080   2.463   2.171   5.575
 1061SOL     OW 4081   2.984   5.905   1.618
 1061SOL    HW1 4082   2.900   5.905   1.564
 1061SOL    HW2 4083   2.960   5.907   1.716
 1062SOL     OW 4084   5.733   5.000   4.528
 1062SOL    HW1 4085   5.708   5.036   4.438
 1062SOL    HW2 4086   5.656   5.013   4.591
 1063SOL     OW 4087   2.024   2.500   6.644
 1063SOL    HW1 4088   2.006   2.588   6.687
 1063SOL    HW2 4089   2.069   2.439   6.710
 1064SOL     OW 4090   6.611   2.943   1.470
 1064SOL    HW1 4091   6.704   2.925   1.437
 1064SOL    HW2 4092   6.612   2.957   1.569
 1065SOL     OW 4093   6.459   6.413   4.805
 1065SOL    HW1 4094   6.437   6.346   4.735
 1065SOL    HW2 4095   6.554   6.442   4.796
 1066SOL     OW 4096   3.724   0.480   3.252
 1066SOL    HW1 4097   3.659   0.555   3.263
 1066SOL    HW2 4098   3.783   0.475   3.332
 1067SOL     OW 4099   1.859   3.200   1.149
 1067SOL    HW1 4100   1.791   3.145   1.197
 1067SOL    HW2 4101   1.840   3.297   1.164
 1068SOL     OW 4102   0.636   3.506   2.239
 1068SOL    HW1 4103   0.656   3.604   2.241
 1068SOL    HW2 4104   0.601   3.481   2.149
 1069SOL     OW 4105   3.569   3.842   1.649
 1069SOL    HW1 4106   3.667   3.834   1.669
 1069SOL    HW2 4107   3.537   3.758   1.604
 1070SOL     OW 4108   2.105   0.916   0.188
 1070SOL    HW1 4109   2.194   0.960   0.180
 1070SOL    HW2 4110   2.094   0.877   0.279
 1071SOL     OW 4111   4.141   6.678   3.080
 1071SOL    HW1 4112   4.202   6.661   3.002
 1071SOL    HW2 4113   4.162   6.614   3.154
 1072SOL     OW 4114   3.831   5.727   3.161
 1072SOL    HW1 4115   3.921   5.684   3.157
 1072SOL    HW2 4116   3.827   5.791   3.238
 1073SOL     OW 4117   2.502   4.686   2.551
 1073SOL    HW1 4118   2.592   4.695   2.509
 1073SOL    HW2 4119   2.502   4.609   2.615
 1074SOL     OW 4120   1.409   5.543   2.046
 1074SOL    HW1 4121   1.401   5.615   2.115
 1074SOL    HW2 4122   1.323   5.492   2.041
 1075SOL     OW 4123   0.150   4.288   3.899
 1075SOL    HW1 4124   0.160   4.195   3.936
 1075SOL    HW2 4125   0.231   4.310   3.844
 1076SOL     OW 4126   0.207   4.698   3.418
 1076SOL    HW1 4127   0.279   4.715   3.352
 1076SOL    HW2 4128   0.194   4.778   3.476
 1077SOL     OW 4129   4.641   0.158   0.525
 1077SOL    HW1 4130   4.560   0.186   0.577
 1077SOL    HW2 4131   4.636   0.198   0.433
 1078SOL     OW 4132   0.663   2.065   1.367
 1078SOL    HW1 4133   0.673   2.155   1.324
 1078SOL    HW2 4134   0.728   2.056   1.442
 1079SOL     OW 4135   2.797   5.524   3.108
 1079SOL    HW1 4136   2.856   5.445   3.094
 1079SOL    HW2 4137   2.720   5.498   3.168
 1080SOL     OW 4138   1.930   5.188   4.258
 1080SOL    HW1 4139   1.960   5.100   4.223
 1080SOL    HW2 4140   1.980   5.261   4.210
 1081SOL     OW 4141   1.618   0.724   6.823
 1081SOL    HW1 4142   1.534   0.702   6.871
 1081SOL    HW2 4143   1.675   0.641   6.815
 1082SOL     OW 4144   2.186   0.120   6.218
 1082SOL    HW1 4145   2.111   0.119   6.284
 1082SOL    HW2 4146   2.229   0.210   6.217
 1083SOL     OW 4147   4.002   3.080   1.427
 1083SOL    HW1 4148   4.016   3.133   1.511
 1083SOL    HW2 4149   3.915   3.106   1.386
 1084SOL     OW 4150   6.383   3.673   0.654
 1084SOL    HW1 4151   6.311   3.604   0.667
 1084SOL    HW2 4152   6.342   3.758   0.620
 1085SOL     OW 4153   2.160   3.741   3.922
 1085SOL    HW1 4154   2.094   3.746   3.997
 1085SOL    HW2 4155   2.171   3.645   3.895
 1086SOL     OW 4156   4.192   4.757   1.856
 1086SOL    HW1 4157   4.192   4.680   1.791
 1086SOL    HW2 4158   4.104   4.759   1.904
 1087SOL     OW 4159   4.513   2.951   5.308
 1087SOL    HW1 4160   4.419   2.918   5.303
 1087SOL    HW2 4161   4.512   3.051   5.312
 1088SOL     OW 4162   5.063   3.708   3.260
 1088SOL    HW1 4163   5.084   3.806   3.266
 1088SOL    HW2 4164   5.029   3.688   3.168
 1089SOL     OW 4165   6.655   0.439   3.446
 1089SOL    HW1 4166   6.588   0.512   3.432
 1089SOL    HW2 4167   6.616   0.369   3.506
 1090SOL     OW 4168   0.397   1.986   5.494
 1090SOL    HW1 4169   0.447   1.960   5.576
 1090SOL    HW2 4170   0.462   2.010   5.422
 1091SOL     OW 4171   0.845   1.678   5.132
 1091SOL    HW1 4172   0.763   1.647   5.180
 1091SOL    HW2 4173   0.863   1.773   5.155
 1092SOL     OW 4174   1.965   4.470   1.224
 1092SOL    HW1 4175   2.043   4.516   1.266
 1092SOL    HW2 4176   1.995   4.384   1.181
 1093SOL     OW 4177   0.862   1.843   2.163
 1093SOL    HW1 4178   0.786   1.786   2.194
 1093SOL    HW2 4179   0.826   1.919   2.109
 1094SOL     OW 4180   0.435   6.544   1.867
 1094SOL    HW1 4181   0.368   6.471   1.864
 1094SOL    HW2 4182   0.453   6.569   1.962
 1095SOL     OW 4183   5.790   3.882   6.315
 1095SOL    HW1 4184   5.829   3.878   6.407
 1095SOL    HW2 4185   5.859   3.853   6.249
 1096SOL     OW 4186   3.455   4.424   1.693
 1096SOL    HW1 4187   3.473   4.487   1.769
 1096SOL    HW2 4188   3.458   4.330   1.727
 1097SOL     OW 4189   1.563   4.986   5.618
 1097SOL    HW1 4190   1.581   5.026   5.708
 1097SOL    HW2 4191   1.474   4.941   5.619
 1098SOL     OW 4192   4.439   1.811   2.655
 1098SOL    HW1 4193   4.538   1.802   2.667
 1098SOL    HW2 4194   4.393   1.746   2.715
 1099SOL     OW 4195   3.505   1.777   2.743
 1099SOL    HW1 4196   3.534   1.873   2.737
 1099SOL    HW2 4197   3.552   1.733   2.820
 1100SOL     OW 4198   1.053   0.540   0.284
 1100SOL    HW1 4199   1.004   0.467   0.238
 1100SOL    HW2 4200   1.090   0.507   0.371
 1101SOL     OW 4201   5.591   2.754   0.754
 1101SOL    HW1 4202   5.566   2.850   0.766
 1101SOL    HW2 4203   5.557   2.702   0.833
 1102SOL     OW 4204   0.641   4.876   3.238
 1102SOL    HW1 4205   0.642   4.970   3.202
 1102SOL    HW2 4206   0.639   4.878   3.337
 1103SOL     OW 4207   0.480   3.045   1.187
 1103SOL    HW1 4208   0.493   2.946   1.191
 1103SOL    HW2 4209   0.479   3.083   1.279
 1104SOL     OW 4210   2.738   5.090   5.940
 1104SOL    HW1 4211   2.751   4.995   5.913
 1104SOL    HW2 4212   2.650   5.123   5.905
 1105SOL     OW 4213   4.309   5.600   0.211
 1105SOL    HW1 4214   4.383   5.548   0.168
 1105SOL    HW2 4215   4.291   5.683   0.158
 1106SOL     OW 4216   0.219   2.129   6.717
 1106SOL    HW1 4217   0.316   2.153   6.713
 1106SOL    HW2 4218   0.207   2.049   6.776
 1107SOL     OW 4219   1.717   0.601   1.015
 1107SOL    HW1 4220   1.772   0.676   1.051
 1107SOL    HW2 4221   1.652   0.571   1.086
 1108SOL     OW 4222   0.503   2.173   5.262
 1108SOL    HW1 4223   0.587   2.227   5.250
 1108SOL    HW2 4224   0.450   2.211   5.337
 1109SOL     OW 4225   5.312   1.014   4.001
 1109SOL    HW1 4226   5.383   1.004   4.070
 1109SOL    HW2 4227   5.225   1.037   4.046
 1110SOL     OW 4228   3.513   3.110   2.369
 1110SOL    HW1 4229   3.599   3.062   2.382
 1110SOL    HW2 4230   3.446   3.048   2.327
 1111SOL     OW 4231   5.863   6.680   0.233
 1111SOL    HW1 4232   5.909   6.712   0.316
 1111SOL    HW2 4233   5.838   6.583   0.243
 1112SOL     OW 4234   6.130   0.769   2.837
 1112SOL    HW1 4235   6.130   0.734   2.743
 1112SOL    HW2 4236   6.123   0.868   2.836
 1113SOL     OW 4237   6.455   3.887   1.952
 1113SOL    HW1 4238   6.412   3.797   1.944
 1113SOL    HW2 4239   6.539   3.880   2.005
 1114SOL     OW 4240   4.925   1.155   4.894
 1114SOL    HW1 4241   4.901   1.204   4.978
 1114SOL    HW2 4242   5.019   1.124   4.899
 1115SOL     OW 4243   2.552   3.151   0.794
 1115SOL    HW1 4244   2.550   3.248   0.815
 1115SOL    HW2 4245   2.464   3.124   0.754
 1116SOL     OW 4246   4.717   6.152   4.465
 1116SOL    HW1 4247   4.674   6.205   4.393
 1116SOL    HW2 4248   4.649   6.127   4.534
 1117SOL     OW 4249   2.540   3.433   1.249
 1117SOL    HW1 4250   2.511   3.427   1.344
 1117SOL    HW2 4251   2.535   3.342   1.207
 1118SOL     OW 4252   1.946   3.797   3.746
 1118SOL    HW1 4253   1.912   3.874   3.800
 1118SOL    HW2 4254   2.015   3.747   3.799
 1119SOL     OW 4255   3.587   4.027   2.259
 1119SOL    HW1 4256   3.580   4.068   2.350
 1119SOL    HW2 4257   3.497   4.030   2.215
 1120SOL     OW 4258   4.505   0.576   4.182
 1120SOL    HW1 4259   4.413   0.584   4.221
 1120SOL    HW2 4260   4.560   0.515   4.239
 1121SOL     OW 4261   5.507   3.468   1.964
 1121SOL    HW1 4262   5.482   3.545   2.023
 1121SOL    HW2 4263   5.454   3.473   1.879
 1122SOL     OW 4264   5.008   4.424   6.768
 1122SOL    HW1 4265   5.043   4.369   6.693
 1122SOL    HW2 4266   5.012   4.521   6.743
 1123SOL     OW 4267   3.278   0.893   2.472
 1123SOL    HW1 4268   3.295   0.935   2.383
 1123SOL    HW2 4269   3.199   0.937   2.515
 1124SOL     OW 4270   0.800   4.407   4.899
 1124SOL    HW1 4271   0.824   4.340   4.970
 1124SOL    HW2 4272   0.736   4.366   4.834
 1125SOL     OW 4273   3.724   3.416   5.065
 1125SOL    HW1 4274   3.766   3.427   4.975
 1125SOL    HW2 4275   3.720   3.319   5.089
 1126SOL     OW 4276   6.057   6.591   2.102
 1126SOL    HW1 4277   6.135   6.642   2.064
 1126SOL    HW2 4278   5.995   6.655   2.148
 1127SOL     OW 4279   1.639   5.062   0.215
 1127SOL    HW1 4280   1.711   5.095   0.154
 1127SOL    HW2 4281   1.558   5.120   0.205
 1128SOL     OW 4282   2.777   2.004   4.610
 1128SOL    HW1 4283   2.711   1.940   4.571
 1128SOL    HW2 4284   2.831   2.045   4.537
 1129SOL     OW 4285   5.894   0.140   0.134
 1129SOL    HW1 4286   5.796   0.139   0.114
 1129SOL    HW2 4287   5.934   0.050   0.113
 1130SOL     OW 4288   7.001   4.448   6.002
 1130SOL    HW1 4289   0.026   4.368   5.968
 1130SOL    HW2 4290   0.029   4.489   6.077
 1131SOL     OW 4291   0.901   4.800   6.395
 1131SOL    HW1 4292   0.839   4.834   6.466
 1131SOL    HW2 4293   0.895   4.860   6.315
 1132SOL     OW 4294   4.997   0.185   5.694
 1132SOL    HW1 4295   5.051   0.269   5.686
 1132SOL    HW2 4296   5.001   0.151   5.788
 1133SOL     OW 4297   0.616   3.301   1.636
 1133SOL    HW1 4298   0.606   3.229   1.705
 1133SOL    HW2 4299   0.612   3.390   1.680
 1134SOL     OW 4300   5.644   3.300   6.043
 1134SOL    HW1 4301   5.642   3.387   5.994
 1134SOL    HW2 4302   5.630   3.225   5.979
 1135SOL     OW 4303   3.860   2.102   3.031
 1135SOL    HW1 4304   3.881   2.005   3.040
 1135SOL    HW2 4305   3.881   2.133   2.938
 1136SOL     OW 4306   3.579   4.969   4.053
 1136SOL    HW1 4307   3.639   4.917   4.114
 1136SOL    HW2 4308   3.629   5.047   4.017
 1137SOL     OW 4309   1.775   1.329   5.584
 1137SOL    HW1 4310   1.855   1.317   5.642
 1137SOL    HW2 4311   1.734   1.418   5.601
 1138SOL     OW 4312   0.960   4.261   5.492
 1138SOL    HW1 4313   1.017   4.253   5.574
 1138SOL    HW2 4314   1.019   4.278   5.412
 1139SOL     OW 4315   1.327   6.391   1.641
 1139SOL    HW1 4316   1.245   6.443   1.618
 1139SOL    HW2 4317   1.301   6.309   1.691
 1140SOL     OW 4318   3.400   1.941   3.593
 1140SOL    HW1 4319   3.301   1.944   3.605
 1140SOL    HW2 4320   3.445   2.000   3.659
 1141SOL     OW 4321   6.829   5.570   5.722
 1141SOL    HW1 4322   6.925   5.598   5.732
 1141SOL    HW2 4323   6.810   5.493   5.783
 1142SOL     OW 4324   6.154   0.973   3.799
 1142SOL    HW1 4325   6.226   0.960   3.868
 1142SOL    HW2 4326   6.115   1.064   3.810
 1143SOL     OW 4327   4.098   1.883   3.366
 1143SOL    HW1 4328   4.053   1.853   3.282
 1143SOL    HW2 4329   4.106   1.983   3.365
 1144SOL     OW 4330   0.089   6.069   5.097
 1144SOL    HW1 4331   7.014   6.077   5.113
 1144SOL    HW2 4332   0.108   5.983   5.050
 1145SOL     OW 4333   0.896   5.314   5.213
 1145SOL    HW1 4334   0.971   5.319   5.147
 1145SOL    HW2 4335   0.870   5.219   5.227
 1146SOL     OW 4336   5.626   2.376   0.739
 1146SOL    HW1 4337   5.708   2.434   0.734
 1146SOL    HW2 4338   5.643   2.289   0.693
 1147SOL     OW 4339   6.383   2.442   1.636
 1147SOL    HW1 4340   6.401   2.346   1.614
 1147SOL    HW2 4341   6.316   2.479   1.571
 1148SOL     OW 4342   3.923   0.285   0.694
 1148SOL    HW1 4343   3.873   0.225   0.757
 1148SOL    HW2 4344   3.912   0.380   0.723
 1149SOL     OW 4345   6.727   3.433   2.393
 1149SOL    HW1 4346   6.798   3.427   2.463
 1149SOL    HW2 4347   6.738   3.358   2.327
 1150SOL     OW 4348   1.275   4.558   6.365
 1150SOL    HW1 4349   1.336   4.497   6.315
 1150SOL    HW2 4350   1.252   4.637   6.308
 1151SOL     OW 4351   4.678   5.343   6.876
 1151SOL    HW1 4352   4.710   5.430   6.838
 1151SOL    HW2 4353   4.753   5.299   6.926
 1152SOL     OW 4354   0.297   0.478   4.696
 1152SOL    HW1 4355   0.258   0.486   4.787
 1152SOL    HW2 4356   0.370   0.545   4.685
 1153SOL     OW 4357   2.203   5.209   2.221
 1153SOL    HW1 4358   2.207   5.118   2.263
 1153SOL    HW2 4359   2.263   5.212   2.142
 1154SOL     OW 4360   1.841   5.273   1.533
 1154SOL    HW1 4361   1.894   5.212   1.592
 1154SOL    HW2 4362   1.781   5.330   1.590
 1155SOL     OW 4363   3.294   5.910   2.149
 1155SOL    HW1 4364   3.372   5.965   2.182
 1155SOL    HW2 4365   3.210   5.943   2.192
 1156SOL     OW 4366   2.501   0.511   4.288
 1156SOL    HW1 4367   2.406   0.497   4.316
 1156SOL    HW2 4368   2.528   0.605   4.307
 1157SOL     OW 4369   1.051   2.817   4.451
 1157SOL    HW1 4370   1.038   2.782   4.358
 1157SOL    HW2 4371   0.971   2.794   4.506
 1158SOL     OW 4372   4.620   5.454   5.361
 1158SOL    HW1 4373   4.600   5.356   5.368
 1158SOL    HW2 4374   4.690   5.478   5.428
 1159SOL     OW 4375   5.023   5.068   3.099
 1159SOL    HW1 4376   4.975   5.155   3.093
 1159SOL    HW2 4377   5.092   5.073   3.172
 1160SOL     OW 4378   3.078   3.271   0.299
 1160SOL    HW1 4379   3.141   3.298   0.372
 1160SOL    HW2 4380   2.991   3.244   0.339
 1161SOL     OW 4381   4.467   0.424   3.899
 1161SOL    HW1 4382   4.519   0.503   3.934
 1161SOL    HW2 4383   4.480   0.346   3.960
 1162SOL     OW 4384   3.691   4.188   1.836
 1162SOL    HW1 4385   3.622   4.190   1.763
 1162SOL    HW2 4386   3.646   4.170   1.923
 1163SOL     OW 4387   4.902   2.434   2.967
 1163SOL    HW1 4388   4.934   2.355   2.914
 1163SOL    HW2 4389   4.805   2.448   2.951
 1164SOL     OW 4390   5.790   3.272   3.393
 1164SOL    HW1 4391   5.766   3.303   3.485
 1164SOL    HW2 4392   5.871   3.215   3.397
 1165SOL     OW 4393   1.097   4.847   2.184
 1165SOL    HW1 4394   1.052   4.757   2.178
 1165SOL    HW2 4395   1.195   4.834   2.195
 1166SOL     OW 4396   4.030   3.032   6.701
 1166SOL    HW1 4397   4.123   3.068   6.689
 1166SOL    HW2 4398   4.030   2.934   6.680
 1167SOL     OW 4399   4.909   1.353   5.093
 1167SOL    HW1 4400   4.911   1.335   5.192
 1167SOL    HW2 4401   5.000   1.383   5.064
 1168SOL     OW 4402   5.937   6.041   3.671
 1168SOL    HW1 4403   5.842   6.011   3.681
 1168SOL    HW2 4404   5.999   5.968   3.698
 1169SOL     OW 4405   1.178   3.518   1.777
 1169SOL    HW1 4406   1.201   3.612   1.754
 1169SOL    HW2 4407   1.085   3.497   1.745
 1170SOL     OW 4408   2.779   0.378   1.051
 1170SOL    HW1 4409   2.727   0.304   1.094
 1170SOL    HW2 4410   2.724   0.461   1.051
 1171SOL     OW 4411   1.862   6.468   0.589
 1171SOL    HW1 4412   1.771   6.498   0.617
 1171SOL    HW2 4413   1.900   6.408   0.659
 1172SOL     OW 4414   3.132   3.824   5.138
 1172SOL    HW1 4415   3.148   3.726   5.146
 1172SOL    HW2 4416   3.138   3.852   5.042
 1173SOL     OW 4417   4.250   1.090   6.131
 1173SOL    HW1 4418   4.330   1.132   6.176
 1173SOL    HW2 4419   4.167   1.115   6.181
 1174SOL     OW 4420   3.141   6.250   0.940
 1174SOL    HW1 4421   3.133   6.348   0.923
 1174SOL    HW2 4422   3.223   6.215   0.893
 1175SOL     OW 4423   6.109   4.751   6.132
 1175SOL    HW1 4424   6.074   4.771   6.223
 1175SOL    HW2 4425   6.084   4.659   6.105
 1176SOL     OW 4426   6.217   3.986   0.711
 1176SOL    HW1 4427   6.264   4.065   0.670
 1176SOL    HW2 4428   6.274   3.948   0.785
 1177SOL     OW 4429   6.167   2.563   6.746
 1177SOL    HW1 4430   6.081   2.511   6.743
 1177SOL    HW2 4431   6.151   2.656   6.713
 1178SOL     OW 4432   5.358   4.585   2.178
 1178SOL    HW1 4433   5.440   4.640   2.164
 1178SOL    HW2 4434   5.374   4.518   2.250
 1179SOL     OW 4435   2.726   6.019   6.265
 1179SOL    HW1 4436   2.678   5.940   6.302
 1179SOL    HW2 4437   2.824   6.009   6.283
 1180SOL     OW 4438   2.134   1.654   4.166
 1180SOL    HW1 4439   2.105   1.726   4.103
 1180SOL    HW2 4440   2.138   1.691   4.259
 1181SOL     OW 4441   2.499   4.495   2.730
 1181SOL    HW1 4442   2.427   4.482   2.798
 1181SOL    HW2 4443   2.495   4.421   2.662
 1182SOL     OW 4444   1.442   4.093   2.889
 1182SOL    HW1 4445   1.532   4.129   2.863
 1182SOL    HW2 4446   1.444   4.067   2.986
 1183SOL     OW 4447   4.796   6.029   1.414
 1183SOL    HW1 4448   4.838   5.939   1.426
 1183SOL    HW2 4449   4.741   6.030   1.330
 1184SOL     OW 4450   3.066   3.089   5.395
 1184SOL    HW1 4451   2.990   3.043   5.441
 1184SOL    HW2 4452   3.152   3.056   5.434
 1185SOL     OW 4453   1.936   1.729   6.438
 1185SOL    HW1 4454   2.025   1.705   6.400
 1185SOL    HW2 4455   1.880   1.646   6.448
 1186SOL     OW 4456   3.947   1.458   4.860
 1186SOL    HW1 4457   4.006   1.463   4.941
 1186SOL    HW2 4458   3.952   1.366   4.821
 1187SOL     OW 4459   6.875   0.743   5.138
 1187SOL    HW1 4460   6.819   0.665   5.109
 1187SOL    HW2 4461   6.868   0.817   5.071
 1188SOL     OW 4462   1.043   6.832   5.844
 1188SOL    HW1 4463   1.036   6.746   5.793
 1188SOL    HW2 4464   1.008   6.907   5.788
 1189SOL     OW 4465   6.132   1.060   1.554
 1189SOL    HW1 4466   6.226   1.041   1.582
 1189SOL    HW2 4467   6.069   1.003   1.607
 1190SOL     OW 4468   4.131   4.925   3.137
 1190SOL    HW1 4469   4.174   4.904   3.225
 1190SOL    HW2 4470   4.072   5.006   3.148
 1191SOL     OW 4471   3.408   5.092   6.726
 1191SOL    HW1 4472   3.453   5.009   6.760
 1191SOL    HW2 4473   3.411   5.093   6.626
 1192SOL     OW 4474   4.583   5.041   2.555
 1192SOL    HW1 4475   4.536   4.966   2.510
 1192SOL    HW2 4476   4.599   5.116   2.490
 1193SOL     OW 4477   4.396   0.518   3.657
 1193SOL    HW1 4478   4.473   0.546   3.600
 1193SOL    HW2 4479   4.425   0.513   3.752
 1194SOL     OW 4480   5.947   0.258   0.858
 1194SOL    HW1 4481   6.038   0.272   0.896
 1194SOL    HW2 4482   5.889   0.212   0.925
 1195SOL     OW 4483   4.142   0.816   6.200
 1195SOL    HW1 4484   4.183   0.814   6.291
 1195SOL    HW2 4485   4.184   0.889   6.146
 1196SOL     OW 4486   0.432   5.332   2.043
 1196SOL    HW1 4487   0.378   5.310   1.962
 1196SOL    HW2 4488   0.528   5.346   2.016
 1197SOL     OW 4489   3.176   5.197   6.122
 1197SOL    HW1 4490   3.248   5.136   6.088
 1197SOL    HW2 4491   3.123   5.233   6.045
 1198SOL     OW 4492   3.163   1.868   3.027
 1198SOL    HW1 4493   3.226   1.943   3.048
 1198SOL    HW2 4494   3.191   1.824   2.942
 1199SOL     OW 4495   3.915   3.964   2.945
 1199SOL    HW1 4496   3.991   3.913   2.985
 1199SOL    HW2 4497   3.912   3.948   2.846
 1200SOL     OW 4498   3.444   4.435   6.937
 1200SOL    HW1 4499   3.357   4.482   6.920
 1200SOL    HW2 4500   3.447   4.404   0.008
 1201SOL     OW 4501   1.312   0.693   4.972
 1201SOL    HW1 4502   1.241   0.682   5.041
 1201SOL    HW2 4503   1.321   0.790   4.948
 1202SOL     OW 4504   5.911   6.635   5.053
 1202SOL    HW1 4505   5.956   6.579   4.983
 1202SOL    HW2 4506   5.977   6.663   5.122
 1203SOL     OW 4507   6.132   0.121   1.891
 1203SOL    HW1 4508   6.177   0.184   1.827
 1203SOL    HW2 4509   6.201   0.082   1.952
 1204SOL     OW 4510   2.968   0.268   0.506
 1204SOL    HW1 4511   3.056   0.314   0.496
 1204SOL    HW2 4512   2.932   0.282   0.598
 1205SOL     OW 4513   0.564   2.638   5.365
 1205SOL    HW1 4514   0.628   2.662   5.292
 1205SOL    HW2 4515   0.473   2.674   5.343
 1206SOL     OW 4516   1.133   1.485   4.718
 1206SOL    HW1 4517   1.095   1.420   4.652
 1206SOL    HW2 4518   1.150   1.572   4.673
 1207SOL     OW 4519   5.637   6.293   6.970
 1207SOL    HW1 4520   5.698   6.239   6.912
 1207SOL    HW2 4521   5.663   6.389   6.965
 1208SOL     OW 4522   3.903   3.228   3.699
 1208SOL    HW1 4523   3.958   3.201   3.778
 1208SOL    HW2 4524   3.822   3.170   3.693
 1209SOL     OW 4525   5.988   5.232   4.200
 1209SOL    HW1 4526   6.020   5.148   4.243
 1209SOL    HW2 4527   5.890   5.243   4.216
 1210SOL     OW 4528   3.415   6.736   2.503
 1210SOL    HW1 4529   3.430   6.808   2.437
 1210SOL    HW2 4530   3.356   6.769   2.576
 1211SOL     OW 4531   1.197   4.044   4.753
 1211SOL    HW1 4532   1.282   4.032   4.804
 1211SOL    HW2 4533   1.124   4.073   4.816
 1212SOL     OW 4534   2.166   3.821   4.635
 1212SOL    HW1 4535   2.236   3.817   4.564
 1212SOL    HW2 4536   2.084   3.772   4.605
 1213SOL     OW 4537   5.786   2.609   5.484
 1213SOL    HW1 4538   5.697   2.616   5.528
 1213SOL    HW2 4539   5.853   2.573   5.549
 1214SOL     OW 4540   2.341   2.730   3.516
 1214SOL    HW1 4541   2.307   2.818   3.482
 1214SOL    HW2 4542   2.267   2.663   3.511
 1215SOL     OW 4543   0.491   5.023   1.636
 1215SOL    HW1 4544   0.518   5.030   1.540
 1215SOL    HW2 4545   0.485   5.114   1.676
 1216SOL     OW 4546   2.685   0.088   2.080
 1216SOL    HW1 4547   2.770   0.044   2.052
 1216SOL    HW2 4548   2.695   0.188   2.072
 1217SOL     OW 4549   1.379   0.889   2.726
 1217SOL    HW1 4550   1.397   0.984   2.700
 1217SOL    HW2 4551   1.449   0.858   2.790
 1218SOL     OW 4552   0.829   3.471   3.646
 1218SOL    HW1 4553   0.810   3.549   3.586
 1218SOL    HW2 4554   0.744   3.439   3.688
 1219SOL     OW 4555   2.964   5.936   2.551
 1219SOL    HW1 4556   2.896   6.003   2.521
 1219SOL    HW2 4557   2.949   5.849   2.504
 1220SOL     OW 4558   6.517   3.504   2.861
 1220SOL    HW1 4559   6.486   3.471   2.950
 1220SOL    HW2 4560   6.446   3.559   2.819
 1221SOL     OW 4561   4.697   2.977   0.193
 1221SOL    HW1 4562   4.694   2.984   0.093
 1221SOL    HW2 4563   4.749   2.895   0.218
 1222SOL     OW 4564   6.569   6.120   1.280
 1222SOL    HW1 4565   6.582   6.049   1.212
 1222SOL    HW2 4566   6.656   6.166   1.297
 1223SOL     OW 4567   6.347   6.169   5.397
 1223SOL    HW1 4568   6.334   6.094   5.332
 1223SOL    HW2 4569   6.273   6.235   5.387
 1224SOL     OW 4570   5.601   4.996   2.182
 1224SOL    HW1 4571   5.671   5.065   2.163
 1224SOL    HW2 4572   5.514   5.027   2.144
 1225SOL     OW 4573   5.123   1.707   0.157
 1225SOL    HW1 4574   5.068   1.625   0.142
 1225SOL    HW2 4575   5.063   1.787   0.163
 1226SOL     OW 4576   5.321   4.918   0.757
 1226SOL    HW1 4577   5.340   5.002   0.808
 1226SOL    HW2 4578   5.362   4.840   0.806
 1227SOL     OW 4579   4.893   4.011   6.664
 1227SOL    HW1 4580   4.891   4.091   6.724
 1227SOL    HW2 4581   4.859   4.036   6.573
 1228SOL     OW 4582   3.848   3.217   3.403
 1228SOL    HW1 4583   3.848   3.119   3.382
 1228SOL    HW2 4584   3.911   3.235   3.478
 1229SOL     OW 4585   1.731   5.483   2.951
 1229SOL    HW1 4586   1.644   5.435   2.940
 1229SOL    HW2 4587   1.806   5.418   2.944
 1230SOL     OW 4588   5.644   4.815   1.588
 1230SOL    HW1 4589   5.602   4.810   1.497
 1230SOL    HW2 4590   5.584   4.866   1.649
 1231SOL     OW 4591   1.741   1.876   6.636
 1231SOL    HW1 4592   1.722   1.961   6.587
 1231SOL    HW2 4593   1.830   1.841   6.607
 1232SOL     OW 4594   2.711   0.628   5.674
 1232SOL    HW1 4595   2.769   0.549   5.692
 1232SOL    HW2 4596   2.768   0.708   5.657
 1233SOL     OW 4597   1.011   5.579   5.356
 1233SOL    HW1 4598   0.916   5.594   5.385
 1233SOL    HW2 4599   1.046   5.496   5.399
 1234SOL     OW 4600   0.436   3.222   0.539
 1234SOL    HW1 4601   0.360   3.156   0.540
 1234SOL    HW2 4602   0.410   3.304   0.589
 1235SOL     OW 4603   6.209   4.772   1.345
 1235SOL    HW1 4604   6.127   4.716   1.335
 1235SOL    HW2 4605   6.236   4.807   1.255
 1236SOL     OW 4606   1.829   1.259   2.737
 1236SOL    HW1 4607   1.796   1.237   2.645
 1236SOL    HW2 4608   1.927   1.277   2.734
 1237SOL     OW 4609   0.372   0.298   5.319
 1237SOL    HW1 4610   0.347   0.213   5.365
 1237SOL    HW2 4611   0.305   0.369   5.342
 1238SOL     OW 4612   0.478   0.492   4.384
 1238SOL    HW1 4613   0.538   0.413   4.401
 1238SOL    HW2 4614   0.403   0.464   4.324
 1239SOL     OW 4615   5.412   5.202   4.957
 1239SOL    HW1 4616   5.497   5.156   4.932
 1239SOL    HW2 4617   5.354   5.139   5.010
 1240SOL     OW 4618   6.829   4.085   2.729
 1240SOL    HW1 4619   6.830   4.093   2.829
 1240SOL    HW2 4620   6.883   4.159   2.689
 1241SOL     OW 4621   4.912   4.905   5.308
 1241SOL    HW1 4622   4.848   4.981   5.297
 1241SOL    HW2 4623   4.869   4.820   5.277
 1242SOL     OW 4624   1.195   5.169   0.185
 1242SOL    HW1 4625   1.142   5.153   0.268
 1242SOL    HW2 4626   1.157   5.246   0.134
 1243SOL     OW 4627   1.284   4.325   5.002
 1243SOL    HW1 4628   1.338   4.321   4.918
 1243SOL    HW2 4629   1.202   4.381   4.987
 1244SOL     OW 4630   5.898   0.187   5.593
 1244SOL    HW1 4631   5.896   0.153   5.687
 1244SOL    HW2 4632   5.949   0.124   5.535
 1245SOL     OW 4633   4.714   6.744   0.724
 1245SOL    HW1 4634   4.722   6.833   0.767
 1245SOL    HW2 4635   4.652   6.750   0.646
 1246SOL     OW 4636   4.964   0.789   0.206
 1246SOL    HW1 4637   5.050   0.825   0.168
 1246SOL    HW2 4638   4.947   0.698   0.169
 1247SOL     OW 4639   6.795   6.982   2.995
 1247SOL    HW1 4640   6.837   6.895   3.017
 1247SOL    HW2 4641   6.732   7.008   3.069
 1248SOL     OW 4642   1.399   6.372   4.140
 1248SOL    HW1 4643   1.429   6.361   4.046
 1248SOL    HW2 4644   1.377   6.282   4.179
 1249SOL     OW 4645   5.507   5.688   6.931
 1249SOL    HW1 4646   5.528   5.591   6.945
 1249SOL    HW2 4647   5.430   5.697   6.869
 1250SOL     OW 4648   6.825   3.084   4.942
 1250SOL    HW1 4649   6.821   3.006   4.880
 1250SOL    HW2 4650   6.740   3.090   4.994
 1251SOL     OW 4651   3.032   0.557   2.630
 1251SOL    HW1 4652   3.013   0.597   2.540
 1251SOL    HW2 4653   3.028   0.628   2.700
 1252SOL     OW 4654   1.973   6.306   6.531
 1252SOL    HW1 4655   2.046   6.361   6.489
 1252SOL    HW2 4656   1.977   6.315   6.630
 1253SOL     OW 4657   2.915   0.942   0.577
 1253SOL    HW1 4658   2.882   0.899   0.493
 1253SOL    HW2 4659   2.884   0.888   0.656
 1254SOL     OW 4660   6.019   0.622   2.586
 1254SOL    HW1 4661   5.925   0.653   2.601
 1254SOL    HW2 4662   6.037   0.542   2.642
 1255SOL     OW 4663   5.865   1.533   5.519
 1255SOL    HW1 4664   5.946   1.474   5.521
 1255SOL    HW2 4665   5.866   1.588   5.436
 1256SOL     OW 4666   0.972   5.228   4.096
 1256SOL    HW1 4667   1.008   5.259   4.008
 1256SOL    HW2 4668   1.018   5.144   4.123
 1257SOL     OW 4669   0.784   6.531   4.077
 1257SOL    HW1 4670   0.878   6.557   4.101
 1257SOL    HW2 4671   0.747   6.470   4.147
 1258SOL     OW 4672   4.506   6.536   5.034
 1258SOL    HW1 4673   4.471   6.529   4.940
 1258SOL    HW2 4674   4.443   6.592   5.088
 1259SOL     OW 4675   6.135   0.191   4.169
 1259SOL    HW1 4676   6.123   0.290   4.177
 1259SOL    HW2 4677   6.227   0.166   4.201
 1260SOL     OW 4678   2.434   1.173   1.554
 1260SOL    HW1 4679   2.398   1.095   1.504
 1260SOL    HW2 4680   2.374   1.252   1.540
 1261SOL     OW 4681   6.407   4.349   6.221
 1261SOL    HW1 4682   6.310   4.323   6.216
 1261SOL    HW2 4683   6.453   4.324   6.137
 1262SOL     OW 4684   4.164   4.915   0.741
 1262SOL    HW1 4685   4.099   4.922   0.665
 1262SOL    HW2 4686   4.242   4.858   0.712
 1263SOL     OW 4687   6.603   1.889   1.375
 1263SOL    HW1 4688   6.692   1.879   1.330
 1263SOL    HW2 4689   6.608   1.963   1.442
 1264SOL     OW 4690   0.586   3.410   3.751
 1264SOL    HW1 4691   0.573   3.314   3.776
 1264SOL    HW2 4692   0.515   3.439   3.688
 1265SOL     OW 4693   6.767   5.457   4.667
 1265SOL    HW1 4694   6.759   5.460   4.767
 1265SOL    HW2 4695   6.749   5.548   4.629
 1266SOL     OW 4696   2.031   1.617   4.568
 1266SOL    HW1 4697   2.124   1.588   4.593
 1266SOL    HW2 4698   1.973   1.537   4.556
 1267SOL     OW 4699   0.117   4.997   2.633
 1267SOL    HW1 4700   0.086   5.036   2.720
 1267SOL    HW2 4701   0.191   5.054   2.596
 1268SOL     OW 4702   6.846   2.862   0.211
 1268SOL    HW1 4703   6.796   2.851   0.125
 1268SOL    HW2 4704   6.824   2.951   0.252
 1269SOL     OW 4705   0.049   5.714   5.734
 1269SOL    HW1 4706   0.144   5.702   5.762
 1269SOL    HW2 4707   0.031   5.811   5.717
 1270SOL     OW 4708   1.658   3.090   4.399
 1270SOL    HW1 4709   1.668   3.177   4.351
 1270SOL    HW2 4710   1.599   3.103   4.478
 1271SOL     OW 4711   5.000   1.203   2.835
 1271SOL    HW1 4712   4.979   1.293   2.873
 1271SOL    HW2 4713   4.990   1.133   2.906
 1272SOL     OW 4714   0.591   6.153   1.534
 1272SOL    HW1 4715   0.503   6.119   1.566
 1272SOL    HW2 4716   0.623   6.226   1.594
 1273SOL     OW 4717   2.834   6.568   6.349
 1273SOL    HW1 4718   2.823   6.622   6.265
 1273SOL    HW2 4719   2.839   6.630   6.427
 1274SOL     OW 4720   6.863   2.553   1.931
 1274SOL    HW1 4721   6.856   2.466   1.882
 1274SOL    HW2 4722   6.816   2.546   2.019
 1275SOL     OW 4723   3.268   2.181   4.285
 1275SOL    HW1 4724   3.320   2.167   4.369
 1275SOL    HW2 4725   3.189   2.240   4.304
 1276SOL     OW 4726   6.498   0.285   3.613
 1276SOL    HW1 4727   6.406   0.317   3.590
 1276SOL    HW2 4728   6.507   0.280   3.712
 1277SOL     OW 4729   0.450   1.040   5.033
 1277SOL    HW1 4730   0.500   1.001   5.111
 1277SOL    HW2 4731   0.370   0.983   5.014
 1278SOL     OW 4732   1.992   1.730   5.848
 1278SOL    HW1 4733   1.961   1.816   5.888
 1278SOL    HW2 4734   2.051   1.683   5.914
 1279SOL     OW 4735   2.432   5.423   6.829
 1279SOL    HW1 4736   2.414   5.501   6.889
 1279SOL    HW2 4737   2.525   5.430   6.793
 1280SOL     OW 4738   2.084   0.165   3.358
 1280SOL    HW1 4739   2.081   0.244   3.298
 1280SOL    HW2 4740   2.158   0.103   3.329
 1281SOL     OW 4741   1.108   6.068   3.367
 1281SOL    HW1 4742   1.039   6.049   3.437
 1281SOL    HW2 4743   1.166   6.143   3.397
 1282SOL     OW 4744   0.961   0.386   2.181
 1282SOL    HW1 4745   0.990   0.378   2.276
 1282SOL    HW2 4746   0.883   0.449   2.175
 1283SOL     OW 4747   5.210   5.543   6.342
 1283SOL    HW1 4748   5.190   5.450   6.311
 1283SOL    HW2 4749   5.155   5.565   6.422
 1284SOL     OW 4750   2.631   2.355   1.925
 1284SOL    HW1 4751   2.570   2.373   2.002
 1284SOL    HW2 4752   2.726   2.356   1.956
 1285SOL     OW 4753   4.483   2.505   5.437
 1285SOL    HW1 4754   4.472   2.587   5.494
 1285SOL    HW2 4755   4.570   2.461   5.459
 1286SOL     OW 4756   6.038   4.983   1.477
 1286SOL    HW1 4757   5.982   5.065   1.488
 1286SOL    HW2 4758   6.017   4.918   1.550
 1287SOL     OW 4759   6.986   5.298   6.746
 1287SOL    HW1 4760   6.954   5.207   6.772
 1287SOL    HW2 4761   6.922   5.338   6.680
 1288SOL     OW 4762   6.256   3.284   2.270
 1288SOL    HW1 4763   6.193   3.288   2.193
 1288SOL    HW2 4764   6.221   3.340   2.345
 1289SOL     OW 4765   0.335   6.175   2.649
 1289SOL    HW1 4766   0.235   6.168   2.644
 1289SOL    HW2 4767   0.376   6.087   2.626
 1290SOL     OW 4768   0.746   6.296   1.364
 1290SOL    HW1 4769   0.698   6.242   1.433
 1290SOL    HW2 4770   0.840   6.312   1.394
 1291SOL     OW 4771   2.543   6.020   0.126
 1291SOL    HW1 4772   2.467   6.077   0.159
 1291SOL    HW2 4773   2.615   6.079   0.090
 1292SOL     OW 4774   1.058   5.935   0.832
 1292SOL    HW1 4775   0.975   5.987   0.810
 1292SOL    HW2 4776   1.135   5.970   0.780
 1293SOL     OW 4777   6.837   1.901   6.067
 1293SOL    HW1 4778   6.772   1.975   6.049
 1293SOL    HW2 4779   6.869   1.907   6.162
 1294SOL     OW 4780   1.076   1.981   2.277
 1294SOL    HW1 4781   1.013   1.918   2.231
 1294SOL    HW2 4782   1.079   1.960   2.374
 1295SOL     OW 4783   6.178   3.330   1.576
 1295SOL    HW1 4784   6.120   3.250   1.564
 1295SOL    HW2 4785   6.243   3.313   1.651
 1296SOL     OW 4786   3.820   2.177   5.734
 1296SOL    HW1 4787   3.858   2.114   5.666
 1296SOL    HW2 4788   3.761   2.244   5.689
 1297SOL     OW 4789   6.170   1.241   6.059
 1297SOL    HW1 4790   6.202   1.259   6.152
 1297SOL    HW2 4791   6.229   1.287   5.993
 1298SOL     OW 4792   5.491   2.990   3.099
 1298SOL    HW1 4793   5.454   2.990   3.192
 1298SOL    HW2 4794   5.430   3.040   3.038
 1299SOL     OW 4795   0.762   4.095   4.054
 1299SOL    HW1 4796   0.770   4.126   4.149
 1299SOL    HW2 4797   0.829   4.023   4.036
 1300SOL     OW 4798   3.286   3.127   1.462
 1300SOL    HW1 4799   3.259   3.172   1.547
 1300SOL    HW2 4800   3.330   3.039   1.483
 1301SOL     OW 4801   1.229   0.204   3.304
 1301SOL    HW1 4802   1.150   0.178   3.249
 1301SOL    HW2 4803   1.198   0.249   3.388
 1302SOL     OW 4804   3.132   6.222   4.857
 1302SOL    HW1 4805   3.051   6.166   4.838
 1302SOL    HW2 4806   3.199   6.209   4.784
 1303SOL     OW 4807   3.758   1.888   1.270
 1303SOL    HW1 4808   3.780   1.937   1.354
 1303SOL    HW2 4809   3.742   1.954   1.196
 1304SOL     OW 4810   3.065   0.656   6.824
 1304SOL    HW1 4811   2.993   0.724   6.816
 1304SOL    HW2 4812   3.060   0.612   6.914
 1305SOL     OW 4813   4.605   6.896   5.039
 1305SOL    HW1 4814   4.619   6.803   5.072
 1305SOL    HW2 4815   4.576   6.893   4.943
 1306SOL     OW 4816   0.868   4.350   4.519
 1306SOL    HW1 4817   0.825   4.265   4.489
 1306SOL    HW2 4818   0.937   4.329   4.589
 1307SOL     OW 4819   1.383   2.225   4.692
 1307SOL    HW1 4820   1.466   2.171   4.706
 1307SOL    HW2 4821   1.358   2.271   4.777
 1308SOL     OW 4822   4.820   5.805   3.168
 1308SOL    HW1 4823   4.804   5.891   3.119
 1308SOL    HW2 4824   4.733   5.772   3.206
 1309SOL     OW 4825   6.108   2.499   4.642
 1309SOL    HW1 4826   6.117   2.557   4.562
 1309SOL    HW2 4827   6.148   2.544   4.722
 1310SOL     OW 4828   5.225   3.680   5.098
 1310SOL    HW1 4829   5.146   3.637   5.142
 1310SOL    HW2 4830   5.214   3.677   4.999
 1311SOL     OW 4831   6.280   5.976   5.224
 1311SOL    HW1 4832   6.294   5.887   5.182
 1311SOL    HW2 4833   6.188   6.009   5.203
 1312SOL     OW 4834   0.697   6.494   0.555
 1312SOL    HW1 4835   0.769   6.560   0.537
 1312SOL    HW2 4836   0.695   6.426   0.482
 1313SOL     OW 4837   3.543   5.371   5.056
 1313SOL    HW1 4838   3.448   5.343   5.041
 1313SOL    HW2 4839   3.604   5.295   5.035
 1314SOL     OW 4840   7.011   1.564   5.046
 1314SOL    HW1 4841   6.959   1.501   5.105
 1314SOL    HW2 4842   6.951   1.598   4.974
 1315SOL     OW 4843   2.343   1.371   2.659
 1315SOL    HW1 4844   2.412   1.418   2.715
 1315SOL    HW2 4845   2.372   1.372   2.564
 1316SOL     OW 4846   3.032   6.597   3.034
 1316SOL    HW1 4847   3.016   6.513   3.084
 1316SOL    HW2 4848   3.115   6.588   2.978
 1317SOL     OW 4849   0.164   5.568   4.063
 1317SOL    HW1 4850   0.163   5.584   3.965
 1317SOL    HW2 4851   0.254   5.533   4.090
 1318SOL     OW 4852   0.167   6.349   0.549
 1318SOL    HW1 4853   0.213   6.363   0.637
 1318SOL    HW2 4854   0.146   6.438   0.508
 1319SOL     OW 4855   6.357   1.005   6.413
 1319SOL    HW1 4856   6.303   0.993   6.496
 1319SOL    HW2 4857   6.298   0.988   6.333
 1320SOL     OW 4858   5.062   5.629   6.566
 1320SOL    HW1 4859   5.017   5.541   6.583
 1320SOL    HW2 4860   4.994   5.702   6.562
 1321SOL     OW 4861   3.486   2.840   6.766
 1321SOL    HW1 4862   3.537   2.754   6.767
 1321SOL    HW2 4863   3.550   2.917   6.760
 1322SOL     OW 4864   6.363   1.423   4.373
 1322SOL    HW1 4865   6.459   1.452   4.369
 1322SOL    HW2 4866   6.316   1.453   4.289
 1323SOL     OW 4867   6.581   1.576   4.802
 1323SOL    HW1 4868   6.582   1.488   4.850
 1323SOL    HW2 4869   6.533   1.567   4.715
 1324SOL     OW 4870   1.847   3.461   1.132
 1324SOL    HW1 4871   1.912   3.528   1.168
 1324SOL    HW2 4872   1.812   3.492   1.044
 1325SOL     OW 4873   2.995   5.995   2.183
 1325SOL    HW1 4874   2.984   6.082   2.233
 1325SOL    HW2 4875   2.928   5.929   2.217
 1326SOL     OW 4876   5.589   3.376   4.406
 1326SOL    HW1 4877   5.624   3.409   4.493
 1326SOL    HW2 4878   5.547   3.452   4.356
 1327SOL     OW 4879   3.731   5.351   2.963
 1327SOL    HW1 4880   3.686   5.395   3.040
 1327SOL    HW2 4881   3.718   5.252   2.969
 1328SOL     OW 4882   1.982   2.754   6.756
 1328SOL    HW1 4883   2.065   2.788   6.712
 1328SOL    HW2 4884   1.902   2.799   6.717
 1329SOL     OW 4885   0.464   0.388   0.488
 1329SOL    HW1 4886   0.556   0.423   0.471
 1329SOL    HW2 4887   0.397   0.461   0.472
 1330SOL     OW 4888   5.711   6.672   1.379
 1330SOL    HW1 4889   5.631   6.649   1.434
 1330SOL    HW2 4890   5.777   6.597   1.384
 1331SOL     OW 4891   5.487   0.324   2.139
 1331SOL    HW1 4892   5.474   0.252   2.208
 1331SOL    HW2 4893   5.548   0.291   2.067
 1332SOL     OW 4894   4.414   1.391   1.581
 1332SOL    HW1 4895   4.494   1.405   1.522
 1332SOL    HW2 4896   4.344   1.460   1.559
 1333SOL     OW 4897   4.003   4.362   5.272
 1333SOL    HW1 4898   4.091   4.372   5.227
 1333SOL    HW2 4899   4.003   4.412   5.359
 1334SOL     OW 4900   0.002   3.882   4.551
 1334SOL    HW1 4901   6.931   3.905   4.526
 1334SOL    HW2 4902   0.016   3.902   4.648
 1335SOL     OW 4903   2.688   4.963   3.189
 1335SOL    HW1 4904   2.608   4.956   3.130
 1335SOL    HW2 4905   2.753   4.890   3.167
 1336SOL     OW 4906   0.530   0.587   5.027
 1336SOL    HW1 4907   0.516   0.652   5.101
 1336SOL    HW2 4908   0.614   0.609   4.978
 1337SOL     OW 4909   2.182   1.951   6.279
 1337SOL    HW1 4910   2.202   1.963   6.182
 1337SOL    HW2 4911   2.085   1.935   6.292
 1338SOL     OW 4912   3.924   5.538   0.500
 1338SOL    HW1 4913   3.880   5.448   0.508
 1338SOL    HW2 4914   4.007   5.539   0.556
 1339SOL     OW 4915   6.511   4.153   5.614
 1339SOL    HW1 4916   6.417   4.178   5.636
 1339SOL    HW2 4917   6.557   4.122   5.698
 1340SOL     OW 4918   1.462   2.257   6.578
 1340SOL    HW1 4919   1.476   2.252   6.479
 1340SOL    HW2 4920   1.549   2.276   6.623
 1341SOL     OW 4921   3.683   0.971   4.033
 1341SOL    HW1 4922   3.775   1.001   4.010
 1341SOL    HW2 4923   3.622   1.050   4.038
 1342SOL     OW 4924   0.241   6.365   0.821
 1342SOL    HW1 4925   0.189   6.302   0.879
 1342SOL    HW2 4926   0.339   6.354   0.839
 1343SOL     OW 4927   4.300   5.135   3.523
 1343SOL    HW1 4928   4.204   5.127   3.498
 1343SOL    HW2 4929   4.350   5.179   3.448
 1344SOL     OW 4930   6.593   1.488   2.689
 1344SOL    HW1 4931   6.546   1.500   2.601
 1344SOL    HW2 4932   6.596   1.391   2.713
 1345SOL     OW 4933   0.386   0.065   3.710
 1345SOL    HW1 4934   0.361   0.072   3.613
 1345SOL    HW2 4935   0.317   0.010   3.758
 1346SOL     OW 4936   0.339   1.127   4.057
 1346SOL    HW1 4937   0.341   1.039   4.105
 1346SOL    HW2 4938   0.285   1.118   3.974
 1347SOL     OW 4939   5.967   0.342   3.226
 1347SOL    HW1 4940   5.896   0.393   3.275
 1347SOL    HW2 4941   6.057   0.381   3.245
 1348SOL     OW 4942   5.499   4.825   5.067
 1348SOL    HW1 4943   5.446   4.852   4.987
 1348SOL    HW2 4944   5.470   4.734   5.098
 1349SOL     OW 4945   4.031   3.167   6.955
 1349SOL    HW1 4946   3.994   3.159   6.862
 1349SOL    HW2 4947   3.985   3.242   7.003
 1350SOL     OW 4948   2.894   0.653   6.377
 1350SOL    HW1 4949   2.917   0.750   6.380
 1350SOL    HW2 4950   2.860   0.624   6.467
 1351SOL     OW 4951   0.635   0.714   4.349
 1351SOL    HW1 4952   0.579   0.793   4.371
 1351SOL    HW2 4953   0.584   0.630   4.370
 1352SOL     OW 4954   0.333   1.000   3.431
 1352SOL    HW1 4955   0.385   1.047   3.502
 1352SOL    HW2 4956   0.280   1.068   3.379
 1353SOL     OW 4957   1.386   4.252   3.909
 1353SOL    HW1 4958   1.293   4.278   3.936
 1353SOL    HW2 4959   1.427   4.327   3.856
 1354SOL     OW 4960   0.330   6.674   2.142
 1354SOL    HW1 4961   0.261   6.746   2.140
 1354SOL    HW2 4962   0.414   6.709   2.184
 1355SOL     OW 4963   4.722   3.010   6.928
 1355SOL    HW1 4964   4.749   3.102   6.956
 1355SOL    HW2 4965   4.781   2.979   6.854
 1356SOL     OW 4966   3.050   3.887   2.858
 1356SOL    HW1 4967   3.045   3.892   2.758
 1356SOL    HW2 4968   3.012   3.799   2.889
 1357SOL     OW 4969   2.835   3.009   5.506
 1357SOL    HW1 4970   2.792   2.921   5.487
 1357SOL    HW2 4971   2.878   3.007   5.596
 1358SOL     OW 4972   1.931   1.957   6.009
 1358SOL    HW1 4973   1.876   2.034   5.978
 1358SOL    HW2 4974   1.907   1.935   6.104
 1359SOL     OW 4975   6.149   1.364   6.875
 1359SOL    HW1 4976   6.181   1.344   6.782
 1359SOL    HW2 4977   6.215   1.423   6.921
 1360SOL     OW 4978   3.596   3.812   4.244
 1360SOL    HW1 4979   3.507   3.796   4.202
 1360SOL    HW2 4980   3.647   3.878   4.190
 1361SOL     OW 4981   0.975   6.088   0.431
 1361SOL    HW1 4982   0.962   6.021   0.504
 1361SOL    HW2 4983   1.004   6.040   0.348
 1362SOL     OW 4984   2.488   3.317   6.044
 1362SOL    HW1 4985   2.568   3.265   6.072
 1362SOL    HW2 4986   2.449   3.365   6.123
 1363SOL     OW 4987   5.890   6.374   2.115
 1363SOL    HW1 4988   5.942   6.457   2.092
 1363SOL    HW2 4989   5.812   6.398   2.173
 1364SOL     OW 4990   0.030   3.419   1.698
 1364SOL    HW1 4991   6.985   3.480   1.740
 1364SOL    HW2 4992   7.016   3.382   1.613
 1365SOL     OW 4993   0.840   4.012   5.915
 1365SOL    HW1 4994   0.772   4.016   5.988
 1365SOL    HW2 4995   0.848   3.918   5.881
 1366SOL     OW 4996   5.669   0.762   0.631
 1366SOL    HW1 4997   5.766   0.785   0.638
 1366SOL    HW2 4998   5.625   0.775   0.720
 1367SOL     OW 4999   0.782   5.598   4.483
 1367SOL    HW1 5000   0.867   5.615   4.531
 1367SOL    HW2 5001   0.789   5.511   4.434
 1368SOL     OW 5002   0.829   6.496   5.513
 1368SOL    HW1 5003   0.789   6.452   5.594
 1368SOL    HW2 5004   0.928   6.488   5.516
 1369SOL     OW 5005   2.639   6.702   3.110
 1369SOL    HW1 5006   2.643   6.732   3.205
 1369SOL    HW2 5007   2.671   6.607   3.103
 1370SOL     OW 5008   6.557   2.251   2.750
 1370SOL    HW1 5009   6.473   2.302   2.729
 1370SOL    HW2 5010   6.600   2.221   2.666
 1371SOL     OW 5011   6.048   1.906   4.983
 1371SOL    HW1 5012   5.967   1.940   4.935
 1371SOL    HW2 5013   6.123   1.896   4.917
 1372SOL     OW 5014   6.575   2.258   0.026
 1372SOL    HW1 5015   6.659   2.234   0.076
 1372SOL    HW2 5016   6.565   2.357   0.022
 1373SOL     OW 5017   4.904   2.546   1.474
 1373SOL    HW1 5018   4.956   2.577   1.395
 1373SOL    HW2 5019   4.871   2.453   1.458
 1374SOL     OW 5020   4.206   4.515   6.957
 1374SOL    HW1 5021   4.249   4.601   6.984
 1374SOL    HW2 5022   4.187   4.460   0.015
 1375SOL     OW 5023   5.558   5.718   4.389
 1375SOL    HW1 5024   5.460   5.715   4.369
 1375SOL    HW2 5025   5.573   5.769   4.474
 1376SOL     OW 5026   2.315   5.027   5.863
 1376SOL    HW1 5027   2.291   5.013   5.767
 1376SOL    HW2 5028   2.383   4.960   5.891
 1377SOL     OW 5029   1.692   1.312   2.980
 1377SOL    HW1 5030   1.706   1.410   2.997
 1377SOL    HW2 5031   1.751   1.282   2.905
 1378SOL     OW 5032   4.606   2.267   4.484
 1378SOL    HW1 5033   4.700   2.276   4.451
 1378SOL    HW2 5034   4.572   2.175   4.461
 1379SOL     OW 5035   5.000   5.603   1.230
 1379SOL    HW1 5036   5.044   5.516   1.253
 1379SOL    HW2 5037   4.970   5.602   1.135
 1380SOL     OW 5038   6.836   5.440   1.863
 1380SOL    HW1 5039   6.887   5.394   1.937
 1380SOL    HW2 5040   6.900   5.483   1.800
 1381SOL     OW 5041   5.937   2.429   5.663
 1381SOL    HW1 5042   6.027   2.456   5.629
 1381SOL    HW2 5043   5.930   2.450   5.760
 1382SOL     OW 5044   4.507   2.521   0.286
 1382SOL    HW1 5045   4.460   2.533   0.373
 1382SOL    HW2 5046   4.529   2.611   0.248
 1383SOL     OW 5047   0.223   1.009   2.179
 1383SOL    HW1 5048   0.163   0.996   2.258
 1383SOL    HW2 5049   0.273   1.095   2.189
 1384SOL     OW 5050   5.728   1.067   2.018
 1384SOL    HW1 5051   5.762   0.977   1.991
 1384SOL    HW2 5052   5.798   1.115   2.070
 1385SOL     OW 5053   0.944   5.568   2.031
 1385SOL    HW1 5054   0.944   5.668   2.027
 1385SOL    HW2 5055   0.961   5.539   2.125
 1386SOL     OW 5056   2.958   5.729   4.314
 1386SOL    HW1 5057   3.009   5.696   4.393
 1386SOL    HW2 5058   2.953   5.657   4.245
 1387SOL     OW 5059   3.143   5.539   2.136
 1387SOL    HW1 5060   3.103   5.547   2.044
 1387SOL    HW2 5061   3.212   5.467   2.135
 1388SOL     OW 5062   6.647   0.219   1.423
 1388SOL    HW1 5063   6.739   0.230   1.461
 1388SOL    HW2 5064   6.596   0.153   1.477
 1389SOL     OW 5065   6.175   1.390   2.914
 1389SOL    HW1 5066   6.266   1.392   2.957
 1389SOL    HW2 5067   6.135   1.482   2.917
 1390SOL     OW 5068   6.806   1.721   6.509
 1390SOL    HW1 5069   6.741   1.784   6.467
 1390SOL    HW2 5070   6.757   1.661   6.572
 1391SOL     OW 5071   0.855   2.668   2.926
 1391SOL    HW1 5072   0.764   2.699   2.954
 1391SOL    HW2 5073   0.908   2.745   2.892
 1392SOL     OW 5074   5.034   4.848   5.542
 1392SOL    HW1 5075   4.996   4.853   5.449
 1392SOL    HW2 5076   5.024   4.755   5.577
 1393SOL     OW 5077   4.265   6.990   5.823
 1393SOL    HW1 5078   4.357   6.982   5.784
 1393SOL    HW2 5079   4.213   0.035   5.773
 1394SOL     OW 5080   2.729   6.101   5.515
 1394SOL    HW1 5081   2.814   6.087   5.464
 1394SOL    HW2 5082   2.688   6.188   5.489
 1395SOL     OW 5083   3.784   4.808   5.750
 1395SOL    HW1 5084   3.715   4.737   5.737
 1395SOL    HW2 5085   3.742   4.887   5.794
 1396SOL     OW 5086   5.917   5.602   4.477
 1396SOL    HW1 5087   6.009   5.611   4.514
 1396SOL    HW2 5088   5.859   5.676   4.511
 1397SOL     OW 5089   4.812   6.071   4.791
 1397SOL    HW1 5090   4.901   6.113   4.772
 1397SOL    HW2 5091   4.799   6.065   4.890
 1398SOL     OW 5092   1.380   1.188   4.998
 1398SOL    HW1 5093   1.435   1.197   5.081
 1398SOL    HW2 5094   1.328   1.272   4.983
 1399SOL     OW 5095   3.138   6.295   1.607
 1399SOL    HW1 5096   3.180   6.235   1.538
 1399SOL    HW2 5097   3.047   6.322   1.577
 1400SOL     OW 5098   1.020   0.114   2.085
 1400SOL    HW1 5099   0.993   0.194   2.139
 1400SOL    HW2 5100   0.986   0.123   1.991
 1401SOL     OW 5101   0.262   1.182   4.626
 1401SOL    HW1 5102   0.323   1.193   4.548
 1401SOL    HW2 5103   0.231   1.087   4.632
 1402SOL     OW 5104   6.695   2.900   0.652
 1402SOL    HW1 5105   6.619   2.860   0.600
 1402SOL    HW2 5106   6.661   2.932   0.740
 1403SOL     OW 5107   2.658   6.928   2.274
 1403SOL    HW1 5108   2.623   6.861   2.209
 1403SOL    HW2 5109   2.669   7.016   2.229
 1404SOL     OW 5110   5.614   0.408   0.208
 1404SOL    HW1 5111   5.686   0.382   0.273
 1404SOL    HW2 5112   5.525   0.403   0.253
 1405SOL     OW 5113   1.967   3.725   0.865
 1405SOL    HW1 5114   1.941   3.628   0.870
 1405SOL    HW2 5115   1.930   3.765   0.782
 1406SOL     OW 5116   1.180   4.075   1.316
 1406SOL    HW1 5117   1.237   3.996   1.338
 1406SOL    HW2 5118   1.238   4.154   1.295
 1407SOL     OW 5119   6.705   2.030   2.206
 1407SOL    HW1 5120   6.773   2.100   2.184
 1407SOL    HW2 5121   6.738   1.975   2.283
 1408SOL     OW 5122   5.430   0.784   6.115
 1408SOL    HW1 5123   5.514   0.830   6.086
 1408SOL    HW2 5124   5.446   0.737   6.202
 1409SOL     OW 5125   0.195   0.617   4.430
 1409SOL    HW1 5126   0.238   0.544   4.484
 1409SOL    HW2 5127   0.214   0.602   4.333
 1410SOL     OW 5128   0.210   2.776   6.497
 1410SOL    HW1 5129   0.276   2.705   6.523
 1410SOL    HW2 5130   0.258   2.862   6.482
 1411SOL     OW 5131   1.995   6.958   2.560
 1411SOL    HW1 5132   2.079   6.915   2.591
 1411SOL    HW2 5133   2.006   6.989   2.466
 1412SOL     OW 5134   1.553   2.631   0.228
 1412SOL    HW1 5135   1.602   2.689   0.163
 1412SOL    HW2 5136   1.569   2.535   0.206
 1413SOL     OW 5137   2.268   0.348   4.155
 1413SOL    HW1 5138   2.187   0.400   4.128
 1413SOL    HW2 5139   2.350   0.398   4.128
 1414SOL     OW 5140   2.342   1.680   1.825
 1414SOL    HW1 5141   2.437   1.710   1.839
 1414SOL    HW2 5142   2.339   1.581   1.823
 1415SOL     OW 5143   3.916   6.367   5.317
 1415SOL    HW1 5144   3.964   6.428   5.254
 1415SOL    HW2 5145   3.979   6.334   5.387
 1416SOL     OW 5146   4.442   4.772   1.985
 1416SOL    HW1 5147   4.474   4.867   1.991
 1416SOL    HW2 5148   4.350   4.771   1.945
 1417SOL     OW 5149   2.585   1.917   6.794
 1417SOL    HW1 5150   2.554   1.984   6.861
 1417SOL    HW2 5151   2.684   1.923   6.782
 1418SOL     OW 5152   3.412   4.101   3.016
 1418SOL    HW1 5153   3.420   4.190   2.971
 1418SOL    HW2 5154   3.472   4.098   3.096
 1419SOL     OW 5155   3.656   6.770   4.915
 1419SOL    HW1 5156   3.598   6.717   4.852
 1419SOL    HW2 5157   3.668   6.862   4.879
 1420SOL     OW 5158   0.992   5.846   2.030
 1420SOL    HW1 5159   0.956   5.939   2.031
 1420SOL    HW2 5160   1.006   5.817   1.935
 1421SOL     OW 5161   3.003   2.111   2.477
 1421SOL    HW1 5162   2.955   2.027   2.504
 1421SOL    HW2 5163   3.021   2.166   2.559
 1422SOL     OW 5164   1.941   5.060   0.934
 1422SOL    HW1 5165   1.992   5.127   0.880
 1422SOL    HW2 5166   1.897   4.995   0.873
 1423SOL     OW 5167   5.019   6.963   2.736
 1423SOL    HW1 5168   5.063   0.004   2.800
 1423SOL    HW2 5169   4.961   6.900   2.788
 1424SOL     OW 5170   6.205   5.082   4.821
 1424SOL    HW1 5171   6.244   5.142   4.890
 1424SOL    HW2 5172   6.260   4.998   4.814
 1425SOL     OW 5173   1.976   6.662   3.873
 1425SOL    HW1 5174   1.901   6.695   3.931
 1425SOL    HW2 5175   1.948   6.666   3.777
 1426SOL     OW 5176   0.989   1.727   5.588
 1426SOL    HW1 5177   0.957   1.635   5.567
 1426SOL    HW2 5178   0.911   1.784   5.615
 1427SOL     OW 5179   6.274   0.353   3.506
 1427SOL    HW1 5180   6.225   0.274   3.471
 1427SOL    HW2 5181   6.270   0.428   3.439
 1428SOL     OW 5182   5.562   1.805   0.029
 1428SOL    HW1 5183   5.486   1.776   6.995
 1428SOL    HW2 5184   5.526   1.840   0.116
 1429SOL     OW 5185   6.896   0.431   0.735
 1429SOL    HW1 5186   6.981   0.379   0.739
 1429SOL    HW2 5187   6.827   0.388   0.793
 1430SOL     OW 5188   1.836   4.658   3.663
 1430SOL    HW1 5189   1.875   4.670   3.572
 1430SOL    HW2 5190   1.894   4.596   3.717
 1431SOL     OW 5191   2.787   0.863   1.608
 1431SOL    HW1 5192   2.722   0.936   1.627
 1431SOL    HW2 5193   2.819   0.824   1.694
 1432SOL     OW 5194   2.133   0.742   2.642
 1432SOL    HW1 5195   2.129   0.818   2.707
 1432SOL    HW2 5196   2.115   0.777   2.549
 1433SOL     OW 5197   4.219   0.405   4.093
 1433SOL    HW1 5198   4.215   0.500   4.061
 1433SOL    HW2 5199   4.154   0.350   4.041
 1434SOL     OW 5200   0.490   0.852   5.693
 1434SOL    HW1 5201   0.429   0.865   5.771
 1434SOL    HW2 5202   0.579   0.820   5.725
 1435SOL     OW 5203   5.812   1.538   2.752
 1435SOL    HW1 5204   5.854   1.562   2.664
 1435SOL    HW2 5205   5.781   1.621   2.798
 1436SOL     OW 5206   4.053   3.875   0.169
 1436SOL    HW1 5207   4.097   3.866   0.258
 1436SOL    HW2 5208   3.969   3.929   0.178
 1437SOL     OW 5209   3.182   1.070   2.757
 1437SOL    HW1 5210   3.171   1.160   2.800
 1437SOL    HW2 5211   3.168   1.078   2.659
 1438SOL     OW 5212   3.229   6.867   0.915
 1438SOL    HW1 5213   3.180   6.787   0.881
 1438SOL    HW2 5214   3.318   6.839   0.951
 1439SOL     OW 5215   0.151   5.991   2.346
 1439SOL    HW1 5216   0.064   5.944   2.358
 1439SOL    HW2 5217   0.133   6.088   2.325
 1440SOL     OW 5218   2.796   3.769   0.562
 1440SOL    HW1 5219   2.741   3.767   0.478
 1440SOL    HW2 5220   2.866   3.698   0.557
 1441SOL     OW 5221   5.787   6.712   1.060
 1441SOL    HW1 5222   5.819   6.806   1.050
 1441SOL    HW2 5223   5.712   6.709   1.126
 1442SOL     OW 5224   5.616   5.430   0.473
 1442SOL    HW1 5225   5.520   5.454   0.461
 1442SOL    HW2 5226   5.664   5.435   0.385
 1443SOL     OW 5227   1.509   2.606   3.009
 1443SOL    HW1 5228   1.556   2.690   2.983
 1443SOL    HW2 5229   1.502   2.600   3.108
 1444SOL     OW 5230   6.368   5.889   6.987
 1444SOL    HW1 5231   6.391   5.822   0.034
 1444SOL    HW2 5232   6.449   5.909   6.932
 1445SOL     OW 5233   0.907   3.429   2.591
 1445SOL    HW1 5234   0.878   3.334   2.580
 1445SOL    HW2 5235   0.860   3.470   2.668
 1446SOL     OW 5236   6.560   6.854   6.402
 1446SOL    HW1 5237   6.505   6.772   6.411
 1446SOL    HW2 5238   6.586   6.867   6.307
 1447SOL     OW 5239   6.324   5.196   4.592
 1447SOL    HW1 5240   6.258   5.142   4.644
 1447SOL    HW2 5241   6.276   5.260   4.533
 1448SOL     OW 5242   0.933   3.037   5.768
 1448SOL    HW1 5243   0.959   3.020   5.863
 1448SOL    HW2 5244   1.014   3.059   5.714
 1449SOL     OW 5245   1.565   4.131   4.566
 1449SOL    HW1 5246   1.625   4.204   4.534
 1449SOL    HW2 5247   1.507   4.099   4.491
 1450SOL     OW 5248   2.049   2.072   5.202
 1450SOL    HW1 5249   1.956   2.041   5.220
 1450SOL    HW2 5250   2.104   1.994   5.169
 1451SOL     OW 5251   2.602   6.668   1.593
 1451SOL    HW1 5252   2.701   6.674   1.608
 1451SOL    HW2 5253   2.581   6.696   1.499
 1452SOL     OW 5254   4.923   3.596   5.859
 1452SOL    HW1 5255   4.826   3.603   5.836
 1452SOL    HW2 5256   4.933   3.578   5.957
 1453SOL     OW 5257   0.463   4.235   5.443
 1453SOL    HW1 5258   0.555   4.197   5.428
 1453SOL    HW2 5259   0.465   4.297   5.521
 1454SOL     OW 5260   2.794   2.033   3.670
 1454SOL    HW1 5261   2.696   2.052   3.676
 1454SOL    HW2 5262   2.832   2.081   3.591
 1455SOL     OW 5263   1.246   5.805   2.184
 1455SOL    HW1 5264   1.258   5.742   2.260
 1455SOL    HW2 5265   1.149   5.809   2.158
 1456SOL     OW 5266   6.341   5.337   5.908
 1456SOL    HW1 5267   6.377   5.417   5.955
 1456SOL    HW2 5268   6.343   5.258   5.970
 1457SOL     OW 5269   0.650   4.008   6.105
 1457SOL    HW1 5270   0.566   4.058   6.082
 1457SOL    HW2 5271   0.626   3.919   6.143
 1458SOL     OW 5272   5.786   5.002   5.393
 1458SOL    HW1 5273   5.711   4.941   5.368
 1458SOL    HW2 5274   5.841   5.022   5.312
 1459SOL     OW 5275   4.754   6.656   5.116
 1459SOL    HW1 5276   4.697   6.592   5.065
 1459SOL    HW2 5277   4.784   6.613   5.201
 1460SOL     OW 5278   2.151   6.197   5.312
 1460SOL    HW1 5279   2.231   6.165   5.361
 1460SOL    HW2 5280   2.078   6.130   5.319
 1461SOL     OW 5281   0.048   2.790   2.399
 1461SOL    HW1 5282   0.056   2.694   2.424
 1461SOL    HW2 5283   0.037   2.845   2.482
 1462SOL     OW 5284   0.582   7.005   0.550
 1462SOL    HW1 5285   0.487   7.007   0.518
 1462SOL    HW2 5286   0.642   6.987   0.472
 1463SOL     OW 5287   1.703   5.959   6.843
 1463SOL    HW1 5288   1.675   6.028   6.777
 1463SOL    HW2 5289   1.799   5.974   6.869
 1464SOL     OW 5290   6.918   4.314   4.381
 1464SOL    HW1 5291   6.868   4.237   4.421
 1464SOL    HW2 5292   6.989   4.279   4.321
 1465SOL     OW 5293   1.414   1.579   3.482
 1465SOL    HW1 5294   1.502   1.599   3.439
 1465SOL    HW2 5295   1.399   1.641   3.559
 1466SOL     OW 5296   4.203   2.138   1.684
 1466SOL    HW1 5297   4.196   2.039   1.672
 1466SOL    HW2 5298   4.138   2.169   1.753
 1467SOL     OW 5299   1.364   0.491   3.862
 1467SOL    HW1 5300   1.364   0.591   3.861
 1467SOL    HW2 5301   1.308   0.458   3.938
 1468SOL     OW 5302   2.384   6.283   2.146
 1468SOL    HW1 5303   2.458   6.240   2.198
 1468SOL    HW2 5304   2.406   6.282   2.048
 1469SOL     OW 5305   6.279   5.623   3.168
 1469SOL    HW1 5306   6.330   5.571   3.100
 1469SOL    HW2 5307   6.199   5.570   3.196
 1470SOL     OW 5308   6.453   2.456   0.577
 1470SOL    HW1 5309   6.373   2.416   0.531
 1470SOL    HW2 5310   6.448   2.435   0.675
 1471SOL     OW 5311   5.531   6.655   1.627
 1471SOL    HW1 5312   5.597   6.651   1.702
 1471SOL    HW2 5313   5.487   6.744   1.626
 1472SOL     OW 5314   2.296   7.017   5.961
 1472SOL    HW1 5315   2.307   0.081   5.912
 1472SOL    HW2 5316   2.249   0.010   6.048
 1473SOL     OW 5317   3.166   4.940   4.708
 1473SOL    HW1 5318   3.204   5.013   4.764
 1473SOL    HW2 5319   3.125   4.870   4.767
 1474SOL     OW 5320   4.279   4.510   1.174
 1474SOL    HW1 5321   4.335   4.592   1.183
 1474SOL    HW2 5322   4.259   4.493   1.077
 1475SOL     OW 5323   5.053   0.378   0.489
 1475SOL    HW1 5324   5.119   0.452   0.489
 1475SOL    HW2 5325   5.090   0.300   0.438
 1476SOL     OW 5326   4.207   1.086   1.869
 1476SOL    HW1 5327   4.263   1.049   1.943
 1476SOL    HW2 5328   4.163   1.170   1.900
 1477SOL     OW 5329   4.297   5.204   1.139
 1477SOL    HW1 5330   4.334   5.293   1.113
 1477SOL    HW2 5331   4.316   5.137   1.067
 1478SOL     OW 5332   5.033   5.876   5.616
 1478SOL    HW1 5333   5.093   5.819   5.672
 1478SOL    HW2 5334   5.018   5.963   5.662
 1479SOL     OW 5335   3.759   3.177   1.318
 1479SOL    HW1 5336   3.697   3.170   1.397
 1479SOL    HW2 5337   3.721   3.125   1.241
 1480SOL     OW 5338   3.093   0.643   4.893
 1480SOL    HW1 5339   3.076   0.732   4.936
 1480SOL    HW2 5340   3.020   0.623   4.828
 1481SOL     OW 5341   4.981   2.402   5.206
 1481SOL    HW1 5342   4.979   2.453   5.120
 1481SOL    HW2 5343   4.973   2.466   5.282
 1482SOL     OW 5344   4.447   0.987   0.341
 1482SOL    HW1 5345   4.496   0.921   0.284
 1482SOL    HW2 5346   4.350   0.964   0.343
 1483SOL     OW 5347   4.499   1.212   6.268
 1483SOL    HW1 5348   4.559   1.134   6.285
 1483SOL    HW2 5349   4.534   1.293   6.316
 1484SOL     OW 5350   3.051   5.668   4.562
 1484SOL    HW1 5351   3.098   5.602   4.621
 1484SOL    HW2 5352   3.092   5.759   4.573
 1485SOL     OW 5353   5.317   2.631   2.718
 1485SOL    HW1 5354   5.350   2.718   2.756
 1485SOL    HW2 5355   5.303   2.641   2.620
 1486SOL     OW 5356   5.147   6.680   4.062
 1486SOL    HW1 5357   5.159   6.632   3.976
 1486SOL    HW2 5358   5.145   6.779   4.046
 1487SOL     OW 5359   6.835   0.433   0.468
 1487SOL    HW1 5360   6.738   0.419   0.450
 1487SOL    HW2 5361   6.849   0.442   0.567
 1488SOL     OW 5362   6.147   1.268   3.192
 1488SOL    HW1 5363   6.195   1.217   3.120
 1488SOL    HW2 5364   6.206   1.277   3.272
 1489SOL     OW 5365   4.174   4.891   6.379
 1489SOL    HW1 5366   4.172   4.990   6.370
 1489SOL    HW2 5367   4.224   4.851   6.302
 1490SOL     OW 5368   0.778   2.209   2.116
 1490SOL    HW1 5369   0.819   2.202   2.207
 1490SOL    HW2 5370   0.746   2.303   2.101
 1491SOL     OW 5371   0.153   2.962   2.209
 1491SOL    HW1 5372   0.205   2.905   2.145
 1491SOL    HW2 5373   0.080   2.907   2.251
 1492SOL     OW 5374   6.403   1.358   3.064
 1492SOL    HW1 5375   6.414   1.388   3.159
 1492SOL    HW2 5376   6.492   1.326   3.028
 1493SOL     OW 5377   4.653   2.428   5.946
 1493SOL    HW1 5378   4.673   2.331   5.938
 1493SOL    HW2 5379   4.641   2.452   6.042
 1494SOL     OW 5380   5.950   3.691   6.067
 1494SOL    HW1 5381   5.890   3.670   5.990
 1494SOL    HW2 5382   6.038   3.724   6.033
 1495SOL     OW 5383   5.899   4.045   4.187
 1495SOL    HW1 5384   5.965   4.117   4.206
 1495SOL    HW2 5385   5.836   4.037   4.264
 1496SOL     OW 5386   0.216   5.915   6.852
 1496SOL    HW1 5387   0.210   6.005   6.896
 1496SOL    HW2 5388   0.255   5.849   6.917
 1497SOL     OW 5389   5.392   3.085   2.628
 1497SOL    HW1 5390   5.392   3.177   2.667
 1497SOL    HW2 5391   5.318   3.031   2.669
 1498SOL     OW 5392   3.277   5.070   1.133
 1498SOL    HW1 5393   3.295   5.167   1.148
 1498SOL    HW2 5394   3.186   5.047   1.169
 1499SOL     OW 5395   0.360   3.969   5.579
 1499SOL    HW1 5396   0.261   3.962   5.580
 1499SOL    HW2 5397   0.387   4.056   5.536
 1500SOL     OW 5398   0.638   5.594   1.197
 1500SOL    HW1 5399   0.683   5.550   1.275
 1500SOL    HW2 5400   0.657   5.692   1.199
 1501SOL     OW 5401   5.239   1.768   5.903
 1501SOL    HW1 5402   5.220   1.844   5.841
 1501SOL    HW2 5403   5.179   1.774   5.982
 1502SOL     OW 5404   6.490   0.512   6.487
 1502SOL    HW1 5405   6.547   0.481   6.563
 1502SOL    HW2 5406   6.463   0.607   6.501
 1503SOL     OW 5407   0.521   3.881   2.189
 1503SOL    HW1 5408   0.617   3.853   2.198
 1503SOL    HW2 5409   0.509   3.936   2.107
 1504SOL     OW 5410   0.659   0.930   3.279
 1504SOL    HW1 5411   0.575   0.902   3.234
 1504SOL    HW2 5412   0.736   0.921   3.216
 1505SOL     OW 5413   5.724   6.296   4.884
 1505SOL    HW1 5414   5.811   6.251   4.905
 1505SOL    HW2 5415   5.677   6.246   4.811
 1506SOL     OW 5416   1.106   1.298   0.195
 1506SOL    HW1 5417   1.184   1.237   0.209
 1506SOL    HW2 5418   1.070   1.326   0.284
 1507SOL     OW 5419   1.536   2.632   4.652
 1507SOL    HW1 5420   1.450   2.668   4.614
 1507SOL    HW2 5421   1.543   2.658   4.748
 1508SOL     OW 5422   0.959   0.806   0.235
 1508SOL    HW1 5423   0.964   0.709   0.257
 1508SOL    HW2 5424   0.988   0.820   0.140
 1509SOL     OW 5425   5.336   0.716   4.030
 1509SOL    HW1 5426   5.429   0.734   3.996
 1509SOL    HW2 5427   5.282   0.799   4.026
 1510SOL     OW 5428   3.754   5.987   3.992
 1510SOL    HW1 5429   3.667   6.009   4.038
 1510SOL    HW2 5430   3.779   6.063   3.931
 1511SOL     OW 5431   4.014   3.498   4.414
 1511SOL    HW1 5432   4.083   3.525   4.347
 1511SOL    HW2 5433   4.037   3.536   4.503
 1512SOL     OW 5434   6.421   5.839   0.918
 1512SOL    HW1 5435   6.500   5.797   0.872
 1512SOL    HW2 5436   6.342   5.779   0.909
 1513SOL     OW 5437   3.159   0.431   5.863
 1513SOL    HW1 5438   3.182   0.337   5.887
 1513SOL    HW2 5439   3.232   0.492   5.894
 1514SOL     OW 5440   3.679   2.388   5.349
 1514SOL    HW1 5441   3.643   2.302   5.315
 1514SOL    HW2 5442   3.664   2.394   5.447
 1515SOL     OW 5443   6.514   1.628   1.936
 1515SOL    HW1 5444   6.522   1.726   1.953
 1515SOL    HW2 5445   6.451   1.588   2.003
 1516SOL     OW 5446   6.000   6.183   4.898
 1516SOL    HW1 5447   6.099   6.195   4.903
 1516SOL    HW2 5448   5.979   6.104   4.840
 1517SOL     OW 5449   4.216   6.645   3.610
 1517SOL    HW1 5450   4.139   6.601   3.564
 1517SOL    HW2 5451   4.181   6.718   3.670
 1518SOL     OW 5452   0.121   2.637   0.659
 1518SOL    HW1 5453   0.166   2.575   0.723
 1518SOL    HW2 5454   0.028   2.656   0.690
 1519SOL     OW 5455   6.802   4.170   0.444
 1519SOL    HW1 5456   6.722   4.159   0.386
 1519SOL    HW2 5457   6.812   4.090   0.503
 1520SOL     OW 5458   0.113   5.561   1.837
 1520SOL    HW1 5459   0.190   5.516   1.883
 1520SOL    HW2 5460   0.126   5.557   1.738
 1521SOL     OW 5461   2.133   5.245   6.138
 1521SOL    HW1 5462   2.091   5.187   6.069
 1521SOL    HW2 5463   2.179   5.322   6.094
 1522SOL     OW 5464   4.979   5.228   5.117
 1522SOL    HW1 5465   4.926   5.280   5.050
 1522SOL    HW2 5466   4.980   5.131   5.090
 1523SOL     OW 5467   3.368   6.140   6.562
 1523SOL    HW1 5468   3.462   6.153   6.529
 1523SOL    HW2 5469   3.346   6.042   6.561
 1524SOL     OW 5470   2.149   1.918   2.476
 1524SOL    HW1 5471   2.207   1.870   2.410
 1524SOL    HW2 5472   2.189   1.910   2.568
 1525SOL     OW 5473   5.519   3.014   0.699
 1525SOL    HW1 5474   5.470   3.030   0.614
 1525SOL    HW2 5475   5.460   3.036   0.776
 1526SOL     OW 5476   0.930   1.129   0.541
 1526SOL    HW1 5477   0.981   1.215   0.532
 1526SOL    HW2 5478   0.864   1.137   0.615
 1527SOL     OW 5479   3.707   1.184   4.334
 1527SOL    HW1 5480   3.742   1.127   4.409
 1527SOL    HW2 5481   3.609   1.199   4.347
 1528SOL     OW 5482   4.665   3.680   1.156
 1528SOL    HW1 5483   4.696   3.773   1.173
 1528SOL    HW2 5484   4.661   3.664   1.057
 1529SOL     OW 5485   5.071   1.367   6.237
 1529SOL    HW1 5486   5.116   1.449   6.201
 1529SOL    HW2 5487   5.015   1.325   6.167
 1530SOL     OW 5488   3.760   6.847   1.545
 1530SOL    HW1 5489   3.826   6.915   1.511
 1530SOL    HW2 5490   3.806   6.783   1.606
 1531SOL     OW 5491   3.738   6.908   4.210
 1531SOL    HW1 5492   3.783   6.950   4.132
 1531SOL    HW2 5493   3.678   6.834   4.178
 1532SOL     OW 5494   3.062   5.367   5.894
 1532SOL    HW1 5495   3.098   5.447   5.846
 1532SOL    HW2 5496   2.984   5.394   5.951
 1533SOL     OW 5497   5.282   5.482   1.482
 1533SOL    HW1 5498   5.367   5.451   1.526
 1533SOL    HW2 5499   5.212   5.411   1.492
 1534SOL     OW 5500   3.751   6.237   6.424
 1534SOL    HW1 5501   3.753   6.150   6.473
 1534SOL    HW2 5502   3.675   6.292   6.459
 1535SOL     OW 5503   6.274   6.546   4.492
 1535SOL    HW1 5504   6.339   6.572   4.563
 1535SOL    HW2 5505   6.317   6.555   4.402
 1536SOL     OW 5506   4.029   4.079   6.516
 1536SOL    HW1 5507   4.028   4.005   6.583
 1536SOL    HW2 5508   3.934   4.102   6.491
 1537SOL     OW 5509   3.258   5.408   3.321
 1537SOL    HW1 5510   3.290   5.377   3.231
 1537SOL    HW2 5511   3.315   5.484   3.352
 1538SOL     OW 5512   3.594   1.408   0.233
 1538SOL    HW1 5513   3.565   1.434   0.325
 1538SOL    HW2 5514   3.559   1.475   0.168
 1539SOL     OW 5515   5.771   3.390   1.142
 1539SOL    HW1 5516   5.812   3.463   1.195
 1539SOL    HW2 5517   5.674   3.382   1.165
 1540SOL     OW 5518   2.640   0.126   4.544
 1540SOL    HW1 5519   2.569   0.173   4.597
 1540SOL    HW2 5520   2.671   0.185   4.470
 1541SOL     OW 5521   3.347   2.883   4.830
 1541SOL    HW1 5522   3.419   2.854   4.767
 1541SOL    HW2 5523   3.384   2.887   4.923
 1542SOL     OW 5524   6.755   0.350   2.308
 1542SOL    HW1 5525   6.737   0.251   2.308
 1542SOL    HW2 5526   6.720   0.390   2.223
 1543SOL     OW 5527   2.862   5.301   6.437
 1543SOL    HW1 5528   2.879   5.324   6.533
 1543SOL    HW2 5529   2.764   5.308   6.418
 1544SOL     OW 5530   3.795   2.925   3.389
 1544SOL    HW1 5531   3.797   2.867   3.470
 1544SOL    HW2 5532   3.700   2.944   3.364
 1545SOL     OW 5533   6.350   7.001   2.541
 1545SOL    HW1 5534   6.351   7.003   2.641
 1545SOL    HW2 5535   6.442   6.985   2.507
 1546SOL     OW 5536   5.136   6.506   5.793
 1546SOL    HW1 5537   5.143   6.452   5.877
 1546SOL    HW2 5538   5.114   6.601   5.815
 1547SOL     OW 5539   1.485   4.120   6.963
 1547SOL    HW1 5540   1.432   4.078   6.889
 1547SOL    HW2 5541   1.425   4.181   7.015
 1548SOL     OW 5542   6.018   1.963   0.333
 1548SOL    HW1 5543   6.034   1.938   0.428
 1548SOL    HW2 5544   6.095   1.933   0.277
 1549SOL     OW 5545   4.123   1.288   4.443
 1549SOL    HW1 5546   4.132   1.227   4.522
 1549SOL    HW2 5547   4.214   1.317   4.413
 1550SOL     OW 5548   3.457   3.212   2.646
 1550SOL    HW1 5549   3.487   3.160   2.567
 1550SOL    HW2 5550   3.377   3.268   2.622
 1551SOL     OW 5551   0.764   5.216   6.586
 1551SOL    HW1 5552   0.743   5.227   6.684
 1551SOL    HW2 5553   0.778   5.119   6.566
 1552SOL     OW 5554   2.448   4.226   1.727
 1552SOL    HW1 5555   2.385   4.192   1.797
 1552SOL    HW2 5556   2.499   4.304   1.764
 1553SOL     OW 5557   6.815   1.587   5.929
 1553SOL    HW1 5558   6.898   1.639   5.907
 1553SOL    HW2 5559   6.836   1.518   5.998
 1554SOL     OW 5560   2.882   2.074   3.391
 1554SOL    HW1 5561   2.976   2.085   3.421
 1554SOL    HW2 5562   2.862   1.977   3.377
 1555SOL     OW 5563   6.326   3.279   6.116
 1555SOL    HW1 5564   6.374   3.338   6.181
 1555SOL    HW2 5565   6.383   3.266   6.035
 1556SOL     OW 5566   2.005   1.339   5.720
 1556SOL    HW1 5567   2.079   1.343   5.653
 1556SOL    HW2 5568   2.030   1.394   5.800
 1557SOL     OW 5569   1.129   3.460   6.721
 1557SOL    HW1 5570   1.178   3.429   6.802
 1557SOL    HW2 5571   1.074   3.385   6.684
 1558SOL     OW 5572   6.962   0.431   5.111
 1558SOL    HW1 5573   6.977   0.355   5.175
 1558SOL    HW2 5574   0.025   0.454   5.067
 1559SOL     OW 5575   0.492   2.285   6.142
 1559SOL    HW1 5576   0.415   2.221   6.136
 1559SOL    HW2 5577   0.457   2.379   6.135
 1560SOL     OW 5578   0.213   0.733   6.571
 1560SOL    HW1 5579   0.136   0.738   6.636
 1560SOL    HW2 5580   0.266   0.650   6.588
 1561SOL     OW 5581   5.052   5.994   2.696
 1561SOL    HW1 5582   5.069   6.093   2.692
 1561SOL    HW2 5583   5.069   5.954   2.606
 1562SOL     OW 5584   5.415   0.342   2.745
 1562SOL    HW1 5585   5.476   0.268   2.716
 1562SOL    HW2 5586   5.325   0.305   2.767
 1563SOL     OW 5587   3.265   1.420   6.170
 1563SOL    HW1 5588   3.267   1.469   6.082
 1563SOL    HW2 5589   3.217   1.333   6.157
 1564SOL     OW 5590   2.098   2.044   2.139
 1564SOL    HW1 5591   2.042   1.966   2.165
 1564SOL    HW2 5592   2.178   2.050   2.200
 1565SOL     OW 5593   5.053   3.626   1.964
 1565SOL    HW1 5594   5.078   3.535   1.998
 1565SOL    HW2 5595   4.956   3.627   1.940
 1566SOL     OW 5596   5.431   4.051   3.441
 1566SOL    HW1 5597   5.399   4.117   3.510
 1566SOL    HW2 5598   5.458   3.966   3.486
 1567SOL     OW 5599   6.963   5.369   5.997
 1567SOL    HW1 5600   6.912   5.341   5.916
 1567SOL    HW2 5601   6.929   5.319   6.077
 1568SOL     OW 5602   0.934   0.619   0.549
 1568SOL    HW1 5603   0.985   0.594   0.631
 1568SOL    HW2 5604   0.994   0.670   0.487
 1569SOL     OW 5605   3.875   6.368   4.972
 1569SOL    HW1 5606   3.830   6.325   5.050
 1569SOL    HW2 5607   3.813   6.368   4.893
 1570SOL     OW 5608   2.904   1.797   1.506
 1570SOL    HW1 5609   2.809   1.812   1.535
 1570SOL    HW2 5610   2.920   1.843   1.419
 1571SOL     OW 5611   6.448   3.598   1.644
 1571SOL    HW1 5612   6.381   3.590   1.719
 1571SOL    HW2 5613   6.498   3.685   1.653
 1572SOL     OW 5614   0.882   0.420   1.929
 1572SOL    HW1 5615   0.940   0.395   1.851
 1572SOL    HW2 5616   0.921   0.382   2.013
 1573SOL     OW 5617   4.514   0.223   1.944
 1573SOL    HW1 5618   4.539   0.318   1.924
 1573SOL    HW2 5619   4.589   0.179   1.993
 1574SOL     OW 5620   6.597   2.413   1.985
 1574SOL    HW1 5621   6.656   2.438   2.062
 1574SOL    HW2 5622   6.649   2.358   1.920
 1575SOL     OW 5623   1.899   2.154   0.268
 1575SOL    HW1 5624   1.809   2.187   0.294
 1575SOL    HW2 5625   1.900   2.054   0.269
 1576SOL     OW 5626   5.751   6.129   3.962
 1576SOL    HW1 5627   5.828   6.183   3.928
 1576SOL    HW2 5628   5.707   6.082   3.885
 1577SOL     OW 5629   2.818   0.337   5.556
 1577SOL    HW1 5630   2.864   0.293   5.633
 1577SOL    HW2 5631   2.884   0.391   5.504
 1578SOL     OW 5632   5.300   4.319   5.613
 1578SOL    HW1 5633   5.253   4.360   5.691
 1578SOL    HW2 5634   5.368   4.253   5.646
 1579SOL     OW 5635   0.937   0.797   3.932
 1579SOL    HW1 5636   0.981   0.765   4.015
 1579SOL    HW2 5637   1.002   0.850   3.878
 1580SOL     OW 5638   2.968   4.357   5.354
 1580SOL    HW1 5639   2.926   4.267   5.354
 1580SOL    HW2 5640   2.943   4.405   5.269
 1581SOL     OW 5641   6.783   4.048   4.457
 1581SOL    HW1 5642   6.775   4.030   4.555
 1581SOL    HW2 5643   6.698   4.090   4.424
 1582SOL     OW 5644   0.362   5.155   4.290
 1582SOL    HW1 5645   0.263   5.162   4.305
 1582SOL    HW2 5646   0.381   5.076   4.231
 1583SOL     OW 5647   1.768   2.686   3.554
 1583SOL    HW1 5648   1.813   2.596   3.557
 1583SOL    HW2 5649   1.744   2.714   3.647
 1584SOL     OW 5650   2.265   0.241   5.865
 1584SOL    HW1 5651   2.202   0.248   5.942
 1584SOL    HW2 5652   2.325   0.321   5.865
 1585SOL     OW 5653   5.564   1.163   4.106
 1585SOL    HW1 5654   5.500   1.209   4.045
 1585SOL    HW2 5655   5.564   1.209   4.195
 1586SOL     OW 5656   4.055   3.787   2.464
 1586SOL    HW1 5657   4.087   3.814   2.372
 1586SOL    HW2 5658   4.026   3.691   2.462
 1587SOL     OW 5659   3.613   6.408   6.929
 1587SOL    HW1 5660   3.521   6.373   6.950
 1587SOL    HW2 5661   3.661   6.427   7.015
 1588SOL     OW 5662   5.644   2.550   1.351
 1588SOL    HW1 5663   5.604   2.530   1.441
 1588SOL    HW2 5664   5.595   2.627   1.310
 1589SOL     OW 5665   6.203   4.320   4.901
 1589SOL    HW1 5666   6.198   4.415   4.871
 1589SOL    HW2 5667   6.136   4.305   4.974
 1590SOL     OW 5668   1.818   0.417   6.331
 1590SOL    HW1 5669   1.728   0.437   6.292
 1590SOL    HW2 5670   1.809   0.346   6.401
 1591SOL     OW 5671   0.938   4.567   2.161
 1591SOL    HW1 5672   0.925   4.618   2.246
 1591SOL    HW2 5673   0.849   4.540   2.124
 1592SOL     OW 5674   3.208   3.663   2.657
 1592SOL    HW1 5675   3.176   3.743   2.607
 1592SOL    HW2 5676   3.146   3.586   2.639
 1593SOL     OW 5677   1.254   5.487   4.488
 1593SOL    HW1 5678   1.186   5.505   4.559
 1593SOL    HW2 5679   1.332   5.439   4.528
 1594SOL     OW 5680   6.553   5.319   2.771
 1594SOL    HW1 5681   6.619   5.306   2.697
 1594SOL    HW2 5682   6.559   5.243   2.836
 1595SOL     OW 5683   6.576   4.897   6.165
 1595SOL    HW1 5684   6.508   4.824   6.168
 1595SOL    HW2 5685   6.630   4.890   6.081
 1596SOL     OW 5686   2.507   5.222   5.913
 1596SOL    HW1 5687   2.494   5.321   5.920
 1596SOL    HW2 5688   2.420   5.179   5.891
 1597SOL     OW 5689   2.843   6.351   1.533
 1597SOL    HW1 5690   2.861   6.313   1.442
 1597SOL    HW2 5691   2.781   6.291   1.582
 1598SOL     OW 5692   0.223   4.874   1.161
 1598SOL    HW1 5693   0.254   4.784   1.130
 1598SOL    HW2 5694   0.207   4.871   1.260
 1599SOL     OW 5695   3.667   5.249   6.752
 1599SOL    HW1 5696   3.744   5.192   6.725
 1599SOL    HW2 5697   3.600   5.194   6.801
 1600SOL     OW 5698   4.503   0.949   4.154
 1600SOL    HW1 5699   4.603   0.947   4.166
 1600SOL    HW2 5700   4.482   0.958   4.057
 1601SOL     OW 5701   1.349   5.114   4.225
 1601SOL    HW1 5702   1.323   5.022   4.253
 1601SOL    HW2 5703   1.325   5.128   4.129
 1602SOL     OW 5704   0.974   5.167   3.544
 1602SOL    HW1 5705   0.989   5.265   3.556
 1602SOL    HW2 5706   1.053   5.127   3.499
 1603SOL     OW 5707   0.035   6.436   1.988
 1603SOL    HW1 5708   7.009   6.513   1.947
 1603SOL    HW2 5709   0.071   6.462   2.077
 1604SOL     OW 5710   0.037   4.823   6.401
 1604SOL    HW1 5711   0.066   4.808   6.496
 1604SOL    HW2 5712   6.994   4.898   6.398
 1605SOL     OW 5713   5.985   6.784   2.854
 1605SOL    HW1 5714   5.928   6.703   2.842
 1605SOL    HW2 5715   6.080   6.756   2.869
 1606SOL     OW 5716   5.129   7.000   6.343
 1606SOL    HW1 5717   5.056   0.029   6.385
 1606SOL    HW2 5718   5.142   0.008   6.249
 1607SOL     OW 5719   3.900   2.648   0.958
 1607SOL    HW1 5720   3.967   2.706   0.913
 1607SOL    HW2 5721   3.935   2.555   0.964
 1608SOL     OW 5722   2.220   6.761   0.474
 1608SOL    HW1 5723   2.269   6.847   0.470
 1608SOL    HW2 5724   2.214   6.722   0.382
 1609SOL     OW 5725   4.606   2.112   5.533
 1609SOL    HW1 5726   4.522   2.060   5.519
 1609SOL    HW2 5727   4.679   2.049   5.561
 1610SOL     OW 5728   6.470   5.847   4.322
 1610SOL    HW1 5729   6.462   5.756   4.281
 1610SOL    HW2 5730   6.549   5.849   4.384
 1611SOL     OW 5731   3.147   3.676   1.753
 1611SOL    HW1 5732   3.081   3.627   1.696
 1611SOL    HW2 5733   3.235   3.627   1.752
 1612SOL     OW 5734   2.463   0.769   4.583
 1612SOL    HW1 5735   2.407   0.762   4.666
 1612SOL    HW2 5736   2.494   0.678   4.556
 1613SOL     OW 5737   2.328   5.945   0.324
 1613SOL    HW1 5738   2.386   6.006   0.378
 1613SOL    HW2 5739   2.385   5.877   0.277
 1614SOL     OW 5740   5.881   2.139   0.153
 1614SOL    HW1 5741   5.919   2.107   0.240
 1614SOL    HW2 5742   5.910   2.078   0.079
 1615SOL     OW 5743   6.793   4.374   0.144
 1615SOL    HW1 5744   6.798   4.460   0.194
 1615SOL    HW2 5745   6.880   4.326   0.153
 1616SOL     OW 5746   3.495   2.206   5.960
 1616SOL    HW1 5747   3.464   2.274   5.894
 1616SOL    HW2 5748   3.595   2.207   5.965
 1617SOL     OW 5749   5.033   0.505   3.583
 1617SOL    HW1 5750   5.111   0.514   3.645
 1617SOL    HW2 5751   5.008   0.409   3.575
 1618SOL     OW 5752   5.795   2.965   0.678
 1618SOL    HW1 5753   5.819   2.937   0.771
 1618SOL    HW2 5754   5.698   2.947   0.662
 1619SOL     OW 5755   1.879   3.436   4.549
 1619SOL    HW1 5756   1.832   3.469   4.630
 1619SOL    HW2 5757   1.813   3.394   4.486
 1620SOL     OW 5758   2.797   5.271   1.453
 1620SOL    HW1 5759   2.794   5.205   1.528
 1620SOL    HW2 5760   2.830   5.225   1.370
 1621SOL     OW 5761   1.590   0.939   1.142
 1621SOL    HW1 5762   1.636   1.025   1.165
 1621SOL    HW2 5763   1.656   0.876   1.100
 1622SOL     OW 5764   2.407   2.268   5.109
 1622SOL    HW1 5765   2.343   2.299   5.180
 1622SOL    HW2 5766   2.369   2.288   5.019
 1623SOL     OW 5767   2.866   2.300   5.396
 1623SOL    HW1 5768   2.933   2.373   5.402
 1623SOL    HW2 5769   2.810   2.313   5.315
 1624SOL     OW 5770   2.615   1.160   0.074
 1624SOL    HW1 5771   2.583   1.149   7.003
 1624SOL    HW2 5772   2.715   1.169   0.075
 1625SOL     OW 5773   0.581   5.021   2.429
 1625SOL    HW1 5774   0.496   5.044   2.381
 1625SOL    HW2 5775   0.559   4.984   2.520
 1626SOL     OW 5776   1.744   2.540   6.481
 1626SOL    HW1 5777   1.769   2.444   6.464
 1626SOL    HW2 5778   1.824   2.598   6.464
 1627SOL     OW 5779   5.872   2.873   3.295
 1627SOL    HW1 5780   5.876   2.823   3.381
 1627SOL    HW2 5781   5.804   2.831   3.235
 1628SOL     OW 5782   3.190   4.224   0.500
 1628SOL    HW1 5783   3.220   4.192   0.590
 1628SOL    HW2 5784   3.204   4.322   0.493
 1629SOL     OW 5785   3.517   2.129   4.027
 1629SOL    HW1 5786   3.539   2.032   4.018
 1629SOL    HW2 5787   3.551   2.163   4.115
 1630SOL     OW 5788   0.092   4.467   5.261
 1630SOL    HW1 5789   0.123   4.383   5.216
 1630SOL    HW2 5790   0.021   4.510   5.207
 1631SOL     OW 5791   6.997   6.951   5.850
 1631SOL    HW1 5792   6.919   6.936   5.910
 1631SOL    HW2 5793   6.986   0.015   5.803
 1632SOL     OW 5794   6.458   0.915   1.242
 1632SOL    HW1 5795   6.459   1.015   1.249
 1632SOL    HW2 5796   6.418   0.876   1.325
 1633SOL     OW 5797   5.839   2.300   3.719
 1633SOL    HW1 5798   5.757   2.354   3.699
 1633SOL    HW2 5799   5.861   2.308   3.817
 1634SOL     OW 5800   3.292   0.802   6.702
 1634SOL    HW1 5801   3.387   0.792   6.730
 1634SOL    HW2 5802   3.241   0.719   6.724
 1635SOL     OW 5803   0.337   5.535   4.907
 1635SOL    HW1 5804   0.356   5.458   4.968
 1635SOL    HW2 5805   0.421   5.588   4.893
 1636SOL     OW 5806   2.267   6.205   1.383
 1636SOL    HW1 5807   2.169   6.213   1.399
 1636SOL    HW2 5808   2.290   6.249   1.296
 1637SOL     OW 5809   0.150   3.239   1.870
 1637SOL    HW1 5810   0.106   3.303   1.807
 1637SOL    HW2 5811   0.081   3.199   1.930
 1638SOL     OW 5812   0.344   3.193   5.061
 1638SOL    HW1 5813   0.286   3.192   4.980
 1638SOL    HW2 5814   0.418   3.127   5.051
 1639SOL     OW 5815   5.229   5.377   2.218
 1639SOL    HW1 5816   5.208   5.279   2.217
 1639SOL    HW2 5817   5.144   5.430   2.211
 1640SOL     OW 5818   6.786   7.016   1.192
 1640SOL    HW1 5819   6.818   0.087   1.185
 1640SOL    HW2 5820   6.688   7.012   1.173
 1641SOL     OW 5821   5.585   2.771   5.122
 1641SOL    HW1 5822   5.562   2.866   5.143
 1641SOL    HW2 5823   5.518   2.710   5.164
 1642SOL     OW 5824   0.119   1.924   1.346
 1642SOL    HW1 5825   0.071   1.842   1.380
 1642SOL    HW2 5826   0.146   1.981   1.424
 1643SOL     OW 5827   4.575   0.336   5.541
 1643SOL    HW1 5828   4.517   0.288   5.475
 1643SOL    HW2 5829   4.669   0.304   5.531
 1644SOL     OW 5830   2.898   1.126   1.478
 1644SOL    HW1 5831   2.989   1.151   1.512
 1644SOL    HW2 5832   2.849   1.076   1.549
 1645SOL     OW 5833   2.566   6.643   6.574
 1645SOL    HW1 5834   2.582   6.545   6.581
 1645SOL    HW2 5835   2.511   6.663   6.493
 1646SOL     OW 5836   1.125   4.021   0.947
 1646SOL    HW1 5837   1.142   4.030   1.045
 1646SOL    HW2 5838   1.045   3.963   0.932
 1647SOL     OW 5839   5.932   2.752   3.544
 1647SOL    HW1 5840   5.972   2.779   3.632
 1647SOL    HW2 5841   5.940   2.653   3.533
 1648SOL     OW 5842   4.411   6.970   2.199
 1648SOL    HW1 5843   4.427   6.902   2.127
 1648SOL    HW2 5844   4.474   6.954   2.275
 1649SOL     OW 5845   3.386   0.845   3.968
 1649SOL    HW1 5846   3.356   0.883   3.881
 1649SOL    HW2 5847   3.475   0.885   3.993
 1650SOL     OW 5848   2.704   6.775   4.167
 1650SOL    HW1 5849   2.802   6.762   4.184
 1650SOL    HW2 5850   2.653   6.758   4.251
 1651SOL     OW 5851   1.213   6.942   0.509
 1651SOL    HW1 5852   1.239   7.023   0.458
 1651SOL    HW2 5853   1.151   6.886   0.454
 1652SOL     OW 5854   2.760   2.542   1.783
 1652SOL    HW1 5855   2.699   2.482   1.836
 1652SOL    HW2 5856   2.855   2.514   1.797
 1653SOL     OW 5857   0.851   5.555   1.347
 1653SOL    HW1 5858   0.842   5.645   1.305
 1653SOL    HW2 5859   0.942   5.518   1.329
 1654SOL     OW 5860   6.905   3.403   3.050
 1654SOL    HW1 5861   6.900   3.393   3.150
 1654SOL    HW2 5862   6.885   3.497   3.025
 1655SOL     OW 5863   4.858   4.559   6.450
 1655SOL    HW1 5864   4.914   4.570   6.368
 1655SOL    HW2 5865   4.883   4.627   6.518
 1656SOL     OW 5866   0.892   4.931   3.667
 1656SOL    HW1 5867   0.967   4.868   3.649
 1656SOL    HW2 5868   0.915   5.022   3.631
 1657SOL     OW 5869   1.677   0.479   5.302
 1657SOL    HW1 5870   1.607   0.492   5.232
 1657SOL    HW2 5871   1.657   0.537   5.381
 1658SOL     OW 5872   5.785   5.978   3.132
 1658SOL    HW1 5873   5.805   5.986   3.230
 1658SOL    HW2 5874   5.687   5.984   3.118
 1659SOL     OW 5875   3.847   2.641   5.960
 1659SOL    HW1 5876   3.844   2.738   5.983
 1659SOL    HW2 5877   3.837   2.586   6.044
 1660SOL     OW 5878   2.001   5.650   3.599
 1660SOL    HW1 5879   1.950   5.589   3.540
 1660SOL    HW2 5880   2.081   5.687   3.550
 1661SOL     OW 5881   3.152   0.499   2.226
 1661SOL    HW1 5882   3.058   0.503   2.260
 1661SOL    HW2 5883   3.155   0.536   2.133
 1662SOL     OW 5884   0.725   0.622   3.753
 1662SOL    HW1 5885   0.712   0.689   3.680
 1662SOL    HW2 5886   0.805   0.647   3.807
 1663SOL     OW 5887   2.507   0.134   2.690
 1663SOL    HW1 5888   2.582   0.162   2.629
 1663SOL    HW2 5889   2.465   0.216   2.730
 1664SOL     OW 5890   2.349   5.664   3.680
 1664SOL    HW1 5891   2.306   5.612   3.753
 1664SOL    HW2 5892   2.339   5.762   3.699
 1665SOL     OW 5893   0.032   0.467   4.114
 1665SOL    HW1 5894   0.040   0.390   4.050
 1665SOL    HW2 5895   6.961   0.498   4.117
 1666SOL     OW 5896   5.937   2.841   6.350
 1666SOL    HW1 5897   5.864   2.774   6.334
 1666SOL    HW2 5898   5.902   2.915   6.407
 1667SOL     OW 5899   6.738   0.279   5.802
 1667SOL    HW1 5900   6.744   0.329   5.888
 1667SOL    HW2 5901   6.678   0.327   5.738
 1668SOL     OW 5902   4.165   0.558   5.373
 1668SOL    HW1 5903   4.142   0.653   5.396
 1668SOL    HW2 5904   4.247   0.557   5.317
 1669SOL     OW 5905   5.633   6.882   5.559
 1669SOL    HW1 5906   5.704   6.848   5.497
 1669SOL    HW2 5907   5.554   6.912   5.505
 1670SOL     OW 5908   5.497   4.549   6.002
 1670SOL    HW1 5909   5.478   4.596   6.088
 1670SOL    HW2 5910   5.470   4.607   5.926
 1671SOL     OW 5911   4.716   3.298   6.954
 1671SOL    HW1 5912   4.684   3.352   6.876
 1671SOL    HW2 5913   4.720   3.356   0.012
 1672SOL     OW 5914   1.554   5.142   2.382
 1672SOL    HW1 5915   1.583   5.086   2.460
 1672SOL    HW2 5916   1.586   5.236   2.395
 1673SOL     OW 5917   6.947   3.160   4.291
 1673SOL    HW1 5918   0.016   3.180   4.325
 1673SOL    HW2 5919   6.901   3.246   4.268
 1674SOL     OW 5920   0.472   4.157   6.683
 1674SOL    HW1 5921   0.402   4.088   6.667
 1674SOL    HW2 5922   0.557   4.113   6.715
 1675SOL     OW 5923   4.542   1.698   6.584
 1675SOL    HW1 5924   4.633   1.741   6.576
 1675SOL    HW2 5925   4.488   1.748   6.651
 1676SOL     OW 5926   1.561   0.055   2.815
 1676SOL    HW1 5927   1.601   0.147   2.803
 1676SOL    HW2 5928   1.632   7.010   2.802
 1677SOL     OW 5929   5.609   2.003   4.961
 1677SOL    HW1 5930   5.692   2.030   4.911
 1677SOL    HW2 5931   5.533   1.994   4.896
 1678SOL     OW 5932   5.167   0.353   1.649
 1678SOL    HW1 5933   5.080   0.317   1.685
 1678SOL    HW2 5934   5.174   0.450   1.671
 1679SOL     OW 5935   0.380   3.339   6.629
 1679SOL    HW1 5936   0.334   3.259   6.669
 1679SOL    HW2 5937   0.313   3.401   6.590
 1680SOL     OW 5938   1.236   1.981   4.367
 1680SOL    HW1 5939   1.197   1.894   4.338
 1680SOL    HW2 5940   1.175   2.026   4.432
 1681SOL     OW 5941   6.358   5.487   1.098
 1681SOL    HW1 5942   6.418   5.459   1.024
 1681SOL    HW2 5943   6.324   5.405   1.146
 1682SOL     OW 5944   6.480   3.869   6.082
 1682SOL    HW1 5945   6.396   3.882   6.136
 1682SOL    HW2 5946   6.514   3.776   6.097
 1683SOL     OW 5947   5.442   6.488   1.432
 1683SOL    HW1 5948   5.461   6.528   1.522
 1683SOL    HW2 5949   5.450   6.388   1.438
 1684SOL     OW 5950   0.917   5.927   4.933
 1684SOL    HW1 5951   1.011   5.958   4.919
 1684SOL    HW2 5952   0.916   5.851   4.998
 1685SOL     OW 5953   1.455   1.136   6.922
 1685SOL    HW1 5954   1.436   1.229   6.950
 1685SOL    HW2 5955   1.533   1.135   6.859
 1686SOL     OW 5956   1.435   6.848   6.971
 1686SOL    HW1 5957   1.375   6.871   6.894
 1686SOL    HW2 5958   1.435   6.923   0.014
 1687SOL     OW 5959   1.658   6.284   2.062
 1687SOL    HW1 5960   1.668   6.240   1.973
 1687SOL    HW2 5961   1.713   6.234   2.130
 1688SOL     OW 5962   1.279   1.709   3.214
 1688SOL    HW1 5963   1.264   1.695   3.312
 1688SOL    HW2 5964   1.229   1.790   3.184
 1689SOL     OW 5965   2.103   2.106   3.065
 1689SOL    HW1 5966   2.172   2.057   3.118
 1689SOL    HW2 5967   2.098   2.201   3.095
 1690SOL     OW 5968   1.349   1.227   1.110
 1690SOL    HW1 5969   1.388   1.159   1.047
 1690SOL    HW2 5970   1.353   1.317   1.067
 1691SOL     OW 5971   5.633   4.306   2.583
 1691SOL    HW1 5972   5.696   4.374   2.620
 1691SOL    HW2 5973   5.577   4.347   2.511
 1692SOL     OW 5974   1.502   0.479   2.179
 1692SOL    HW1 5975   1.442   0.509   2.254
 1692SOL    HW2 5976   1.478   0.385   2.153
 1693SOL     OW 5977   2.773   2.311   3.226
 1693SOL    HW1 5978   2.803   2.234   3.282
 1693SOL    HW2 5979   2.772   2.395   3.281
 1694SOL     OW 5980   5.417   5.646   5.013
 1694SOL    HW1 5981   5.424   5.723   4.950
 1694SOL    HW2 5982   5.380   5.678   5.100
 1695SOL     OW 5983   3.184   2.665   5.697
 1695SOL    HW1 5984   3.127   2.625   5.769
 1695SOL    HW2 5985   3.130   2.676   5.614
 1696SOL     OW 5986   4.355   6.142   0.887
 1696SOL    HW1 5987   4.426   6.212   0.878
 1696SOL    HW2 5988   4.274   6.182   0.930
 1697SOL     OW 5989   0.974   1.453   1.906
 1697SOL    HW1 5990   1.014   1.473   1.816
 1697SOL    HW2 5991   1.032   1.490   1.978
 1698SOL     OW 5992   4.536   1.942   1.709
 1698SOL    HW1 5993   4.478   1.878   1.659
 1698SOL    HW2 5994   4.534   2.032   1.664
 1699SOL     OW 5995   2.190   3.392   1.008
 1699SOL    HW1 5996   2.235   3.458   0.950
 1699SOL    HW2 5997   2.110   3.434   1.052
 1700SOL     OW 5998   6.625   3.145   3.121
 1700SOL    HW1 5999   6.623   3.182   3.214
 1700SOL    HW2 6000   6.638   3.220   3.056
 1701SOL     OW 6001   5.736   3.419   4.074
 1701SOL    HW1 6002   5.660   3.472   4.036
 1701SOL    HW2 6003   5.756   3.342   4.013
 1702SOL     OW 6004   4.622   3.836   0.803
 1702SOL    HW1 6005   4.676   3.788   0.734
 1702SOL    HW2 6006   4.681   3.861   0.880
 1703SOL     OW 6007   1.726   3.753   0.215
 1703SOL    HW1 6008   1.677   3.781   0.133
 1703SOL    HW2 6009   1.710   3.656   0.232
 1704SOL     OW 6010   0.627   0.738   1.692
 1704SOL    HW1 6011   0.605   0.640   1.697
 1704SOL    HW2 6012   0.726   0.748   1.681
 1705SOL     OW 6013   4.355   3.119   1.766
 1705SOL    HW1 6014   4.292   3.155   1.835
 1705SOL    HW2 6015   4.442   3.096   1.809
 1706SOL     OW 6016   3.325   0.641   0.585
 1706SOL    HW1 6017   3.326   0.666   0.682
 1706SOL    HW2 6018   3.386   0.700   0.534
 1707SOL     OW 6019   5.229   2.287   3.487
 1707SOL    HW1 6020   5.278   2.311   3.571
 1707SOL    HW2 6021   5.271   2.206   3.446
 1708SOL     OW 6022   0.111   5.148   3.164
 1708SOL    HW1 6023   0.193   5.188   3.206
 1708SOL    HW2 6024   0.134   5.059   3.126
 1709SOL     OW 6025   2.768   6.362   2.080
 1709SOL    HW1 6026   2.715   6.417   2.014
 1709SOL    HW2 6027   2.775   6.412   2.166
 1710SOL     OW 6028   0.530   5.635   4.588
 1710SOL    HW1 6029   0.474   5.570   4.538
 1710SOL    HW2 6030   0.624   5.630   4.554
 1711SOL     OW 6031   1.129   4.603   5.360
 1711SOL    HW1 6032   1.138   4.579   5.457
 1711SOL    HW2 6033   1.069   4.536   5.315
 1712SOL     OW 6034   0.325   4.328   0.471
 1712SOL    HW1 6035   0.309   4.410   0.525
 1712SOL    HW2 6036   0.381   4.264   0.524
 1713SOL     OW 6037   0.971   2.315   1.241
 1713SOL    HW1 6038   1.025   2.394   1.270
 1713SOL    HW2 6039   0.874   2.332   1.259
 1714SOL     OW 6040   3.045   1.809   0.727
 1714SOL    HW1 6041   3.028   1.793   0.630
 1714SOL    HW2 6042   3.049   1.721   0.774
 1715SOL     OW 6043   0.092   3.110   2.975
 1715SOL    HW1 6044   7.015   3.112   2.979
 1715SOL    HW2 6045   0.125   3.018   2.997
 1716SOL     OW 6046   0.351   5.756   0.051
 1716SOL    HW1 6047   0.300   5.837   0.081
 1716SOL    HW2 6048   0.446   5.762   0.083
 1717SOL     OW 6049   2.904   0.304   6.736
 1717SOL    HW1 6050   2.966   0.283   6.812
 1717SOL    HW2 6051   2.813   0.323   6.771
 1718SOL     OW 6052   1.197   4.275   6.415
 1718SOL    HW1 6053   1.214   4.372   6.395
 1718SOL    HW2 6054   1.196   4.261   6.514
 1719SOL     OW 6055   2.285   3.666   1.456
 1719SOL    HW1 6056   2.346   3.720   1.397
 1719SOL    HW2 6057   2.338   3.626   1.531
 1720SOL     OW 6058   6.674   0.576   1.005
 1720SOL    HW1 6059   6.656   0.668   0.971
 1720SOL    HW2 6060   6.629   0.563   1.093
 1721SOL     OW 6061   2.230   6.467   3.215
 1721SOL    HW1 6062   2.242   6.495   3.120
 1721SOL    HW2 6063   2.237   6.548   3.274
 1722SOL     OW 6064   5.875   6.576   2.493
 1722SOL    HW1 6065   5.904   6.485   2.520
 1722SOL    HW2 6066   5.779   6.589   2.518
 1723SOL     OW 6067   6.425   1.595   2.254
 1723SOL    HW1 6068   6.417   1.537   2.334
 1723SOL    HW2 6069   6.522   1.607   2.231
 1724SOL     OW 6070   4.931   1.071   0.347
 1724SOL    HW1 6071   4.927   1.057   0.248
 1724SOL    HW2 6072   4.891   0.991   0.393
 1725SOL     OW 6073   4.047   4.288   1.590
 1725SOL    HW1 6074   3.988   4.210   1.569
 1725SOL    HW2 6075   4.087   4.324   1.506
 1726SOL     OW 6076   0.360   3.832   4.829
 1726SOL    HW1 6077   0.361   3.764   4.903
 1726SOL    HW2 6078   0.439   3.892   4.838
 1727SOL     OW 6079   3.723   4.064   5.272
 1727SOL    HW1 6080   3.656   4.002   5.231
 1727SOL    HW2 6081   3.805   4.012   5.295
 1728SOL     OW 6082   4.350   4.554   3.106
 1728SOL    HW1 6083   4.405   4.486   3.058
 1728SOL    HW2 6084   4.294   4.604   3.040
 1729SOL     OW 6085   2.163   3.776   2.723
 1729SOL    HW1 6086   2.151   3.679   2.744
 1729SOL    HW2 6087   2.221   3.786   2.642
 1730SOL     OW 6088   6.217   2.543   5.553
 1730SOL    HW1 6089   6.285   2.488   5.505
 1730SOL    HW2 6090   6.260   2.625   5.590
 1731SOL     OW 6091   2.124   5.396   0.769
 1731SOL    HW1 6092   2.192   5.336   0.729
 1731SOL    HW2 6093   2.066   5.434   0.697
 1732SOL     OW 6094   0.354   4.388   6.769
 1732SOL    HW1 6095   0.377   4.294   6.745
 1732SOL    HW2 6096   0.381   4.406   6.864
 1733SOL     OW 6097   1.597   3.123   0.927
 1733SOL    HW1 6098   1.569   3.203   0.980
 1733SOL    HW2 6099   1.685   3.141   0.884
 1734SOL     OW 6100   4.905   2.242   1.490
 1734SOL    HW1 6101   4.994   2.251   1.535
 1734SOL    HW2 6102   4.855   2.166   1.532
 1735SOL     OW 6103   6.296   5.104   1.462
 1735SOL    HW1 6104   6.378   5.080   1.410
 1735SOL    HW2 6105   6.222   5.041   1.438
 1736SOL     OW 6106   3.917   3.253   0.213
 1736SOL    HW1 6107   3.990   3.218   0.272
 1736SOL    HW2 6108   3.925   3.352   0.205
 1737SOL     OW 6109   2.299   6.703   3.364
 1737SOL    HW1 6110   2.249   6.751   3.436
 1737SOL    HW2 6111   2.397   6.706   3.383
 1738SOL     OW 6112   1.990   3.136   2.233
 1738SOL    HW1 6113   2.040   3.059   2.274
 1738SOL    HW2 6114   1.985   3.123   2.134
 1739SOL     OW 6115   4.401   1.958   5.054
 1739SOL    HW1 6116   4.314   2.007   5.059
 1739SOL    HW2 6117   4.447   1.980   4.968
 1740SOL     OW 6118   0.417   1.216   5.965
 1740SOL    HW1 6119   0.449   1.224   5.871
 1740SOL    HW2 6120   0.487   1.249   6.027
 1741SOL     OW 6121   1.268   0.190   2.839
 1741SOL    HW1 6122   1.342   0.124   2.853
 1741SOL    HW2 6123   1.268   0.219   2.743
 1742SOL     OW 6124   6.605   0.547   4.212
 1742SOL    HW1 6125   6.521   0.536   4.265
 1742SOL    HW2 6126   6.636   0.642   4.219
 1743SOL     OW 6127   3.787   1.381   1.302
 1743SOL    HW1 6128   3.783   1.429   1.390
 1743SOL    HW2 6129   3.725   1.302   1.305
 1744SOL     OW 6130   2.769   0.535   1.472
 1744SOL    HW1 6131   2.771   0.614   1.411
 1744SOL    HW2 6132   2.713   0.463   1.432
 1745SOL     OW 6133   0.241   2.420   2.887
 1745SOL    HW1 6134   0.249   2.515   2.857
 1745SOL    HW2 6135   0.146   2.401   2.913
 1746SOL     OW 6136   2.858   0.869   5.636
 1746SOL    HW1 6137   2.809   0.902   5.716
 1746SOL    HW2 6138   2.817   0.907   5.553
 1747SOL     OW 6139   3.138   0.127   1.984
 1747SOL    HW1 6140   3.230   0.124   2.024
 1747SOL    HW2 6141   3.136   0.193   1.909
 1748SOL     OW 6142   5.421   2.296   2.582
 1748SOL    HW1 6143   5.398   2.199   2.578
 1748SOL    HW2 6144   5.401   2.339   2.493
 1749SOL     OW 6145   4.154   0.203   6.303
 1749SOL    HW1 6146   4.171   0.180   6.207
 1749SOL    HW2 6147   4.193   0.293   6.323
 1750SOL     OW 6148   4.606   1.412   2.988
 1750SOL    HW1 6149   4.627   1.510   2.991
 1750SOL    HW2 6150   4.660   1.364   3.057
 1751SOL     OW 6151   1.613   5.240   3.835
 1751SOL    HW1 6152   1.520   5.263   3.808
 1751SOL    HW2 6153   1.652   5.316   3.888
 1752SOL     OW 6154   6.082   1.410   0.668
 1752SOL    HW1 6155   6.029   1.349   0.728
 1752SOL    HW2 6156   6.171   1.427   0.709
 1753SOL     OW 6157   1.304   0.112   1.550
 1753SOL    HW1 6158   1.289   0.119   1.452
 1753SOL    HW2 6159   1.330   0.018   1.574
 1754SOL     OW 6160   4.007   3.304   0.788
 1754SOL    HW1 6161   3.988   3.208   0.809
 1754SOL    HW2 6162   3.968   3.327   0.699
 1755SOL     OW 6163   5.063   3.924   0.689
 1755SOL    HW1 6164   5.031   4.016   0.668
 1755SOL    HW2 6165   5.091   3.919   0.785
 1756SOL     OW 6166   6.716   5.611   4.374
 1756SOL    HW1 6167   6.753   5.665   4.299
 1756SOL    HW2 6168   6.751   5.518   4.369
 1757SOL     OW 6169   3.515   6.613   4.717
 1757SOL    HW1 6170   3.442   6.546   4.732
 1757SOL    HW2 6171   3.495   6.667   4.636
 1758SOL     OW 6172   2.114   0.703   3.212
 1758SOL    HW1 6173   2.019   0.721   3.238
 1758SOL    HW2 6174   2.142   0.614   3.248
 1759SOL     OW 6175   0.578   5.491   6.405
 1759SOL    HW1 6176   0.529   5.578   6.406
 1759SOL    HW2 6177   0.575   5.450   6.496
 1760SOL     OW 6178   6.449   0.755   2.893
 1760SOL    HW1 6179   6.351   0.770   2.880
 1760SOL    HW2 6180   6.486   0.706   2.814
 1761SOL     OW 6181   6.347   1.365   1.440
 1761SOL    HW1 6182   6.312   1.452   1.405
 1761SOL    HW2 6183   6.388   1.379   1.530
 1762SOL     OW 6184   5.928   1.710   5.993
 1762SOL    HW1 6185   5.923   1.647   6.070
 1762SOL    HW2 6186   5.836   1.727   5.957
 1763SOL     OW 6187   2.084   3.813   4.200
 1763SOL    HW1 6188   2.016   3.837   4.270
 1763SOL    HW2 6189   2.149   3.748   4.238
 1764SOL     OW 6190   0.401   3.408   3.540
 1764SOL    HW1 6191   0.459   3.382   3.462
 1764SOL    HW2 6192   0.334   3.336   3.556
 1765SOL     OW 6193   2.850   1.959   6.710
 1765SOL    HW1 6194   2.893   1.882   6.663
 1765SOL    HW2 6195   2.805   2.018   6.644
 1766SOL     OW 6196   5.547   3.041   5.183
 1766SOL    HW1 6197   5.457   3.079   5.203
 1766SOL    HW2 6198   5.594   3.101   5.118
 1767SOL     OW 6199   5.451   3.404   2.264
 1767SOL    HW1 6200   5.489   3.474   2.324
 1767SOL    HW2 6201   5.504   3.399   2.180
 1768SOL     OW 6202   5.112   6.614   3.791
 1768SOL    HW1 6203   5.137   6.571   3.704
 1768SOL    HW2 6204   5.037   6.564   3.833
 1769SOL     OW 6205   3.662   1.519   2.302
 1769SOL    HW1 6206   3.608   1.545   2.383
 1769SOL    HW2 6207   3.623   1.564   2.221
 1770SOL     OW 6208   2.579   5.869   5.457
 1770SOL    HW1 6209   2.619   5.949   5.503
 1770SOL    HW2 6210   2.637   5.843   5.379
 1771SOL     OW 6211   3.777   5.642   6.468
 1771SOL    HW1 6212   3.754   5.549   6.496
 1771SOL    HW2 6213   3.701   5.681   6.415
 1772SOL     OW 6214   2.850   6.581   3.327
 1772SOL    HW1 6215   2.854   6.558   3.229
 1772SOL    HW2 6216   2.938   6.617   3.356
 1773SOL     OW 6217   1.755   5.705   6.279
 1773SOL    HW1 6218   1.726   5.627   6.224
 1773SOL    HW2 6219   1.834   5.678   6.335
 1774SOL     OW 6220   4.426   5.791   1.233
 1774SOL    HW1 6221   4.436   5.746   1.322
 1774SOL    HW2 6222   4.333   5.826   1.223
 1775SOL     OW 6223   0.932   4.096   2.238
 1775SOL    HW1 6224   1.030   4.076   2.239
 1775SOL    HW2 6225   0.894   4.073   2.148
 1776SOL     OW 6226   4.091   6.246   4.485
 1776SOL    HW1 6227   4.155   6.251   4.562
 1776SOL    HW2 6228   4.060   6.152   4.474
 1777SOL     OW 6229   4.158   6.155   0.643
 1777SOL    HW1 6230   4.242   6.142   0.695
 1777SOL    HW2 6231   4.107   6.069   0.639
 1778SOL     OW 6232   5.066   3.947   5.910
 1778SOL    HW1 6233   5.129   4.024   5.902
 1778SOL    HW2 6234   4.983   3.977   5.958
 1779SOL     OW 6235   3.868   0.661   4.935
 1779SOL    HW1 6236   3.942   0.613   4.887
 1779SOL    HW2 6237   3.787   0.602   4.938
 1780SOL     OW 6238   3.125   2.946   6.494
 1780SOL    HW1 6239   3.126   2.950   6.395
 1780SOL    HW2 6240   3.056   2.880   6.524
 1781SOL     OW 6241   3.989   5.453   3.171
 1781SOL    HW1 6242   3.892   5.437   3.151
 1781SOL    HW2 6243   4.035   5.488   3.089
 1782SOL     OW 6244   2.657   0.987   3.364
 1782SOL    HW1 6245   2.637   1.035   3.279
 1782SOL    HW2 6246   2.747   0.945   3.358
 1783SOL     OW 6247   2.604   5.855   6.421
 1783SOL    HW1 6248   2.509   5.861   6.449
 1783SOL    HW2 6249   2.657   5.809   6.493
 1784SOL     OW 6250   3.490   0.324   5.981
 1784SOL    HW1 6251   3.489   0.421   5.958
 1784SOL    HW2 6252   3.441   0.272   5.911
 1785SOL     OW 6253   6.037   3.239   2.524
 1785SOL    HW1 6254   6.018   3.315   2.463
 1785SOL    HW2 6255   6.013   3.153   2.478
 1786SOL     OW 6256   2.319   2.687   0.299
 1786SOL    HW1 6257   2.247   2.708   0.232
 1786SOL    HW2 6258   2.301   2.736   0.384
 1787SOL     OW 6259   3.509   1.929   5.964
 1787SOL    HW1 6260   3.484   2.024   5.946
 1787SOL    HW2 6261   3.544   1.921   6.057
 1788SOL     OW 6262   1.712   5.158   5.239
 1788SOL    HW1 6263   1.717   5.152   5.140
 1788SOL    HW2 6264   1.720   5.066   5.278
 1789SOL     OW 6265   5.927   1.582   0.156
 1789SOL    HW1 6266   6.022   1.557   0.139
 1789SOL    HW2 6267   5.891   1.526   0.230
 1790SOL     OW 6268   3.755   0.051   3.456
 1790SOL    HW1 6269   3.684   0.045   3.526
 1790SOL    HW2 6270   3.837   0.004   3.487
 1791SOL     OW 6271   0.294   0.338   2.783
 1791SOL    HW1 6272   0.205   0.297   2.764
 1791SOL    HW2 6273   0.318   0.324   2.879
 1792SOL     OW 6274   1.126   3.632   5.468
 1792SOL    HW1 6275   1.156   3.543   5.503
 1792SOL    HW2 6276   1.078   3.681   5.540
 1793SOL     OW 6277   6.922   0.367   3.458
 1793SOL    HW1 6278   6.823   0.377   3.469
 1793SOL    HW2 6279   6.954   0.423   3.381
 1794SOL     OW 6280   4.998   5.575   6.109
 1794SOL    HW1 6281   4.934   5.518   6.058
 1794SOL    HW2 6282   4.948   5.644   6.162
 1795SOL     OW 6283   6.850   2.655   0.709
 1795SOL    HW1 6284   6.808   2.565   0.724
 1795SOL    HW2 6285   6.781   2.726   0.723
 1796SOL     OW 6286   2.065   0.866   5.558
 1796SOL    HW1 6287   2.131   0.906   5.494
 1796SOL    HW2 6288   2.110   0.851   5.646
 1797SOL     OW 6289   1.284   6.705   0.736
 1797SOL    HW1 6290   1.286   6.803   0.715
 1797SOL    HW2 6291   1.309   6.653   0.654
 1798SOL     OW 6292   4.580   2.637   3.685
 1798SOL    HW1 6293   4.482   2.616   3.686
 1798SOL    HW2 6294   4.617   2.626   3.778
 1799SOL     OW 6295   0.290   1.966   5.992
 1799SOL    HW1 6296   0.194   1.993   5.984
 1799SOL    HW2 6297   0.308   1.937   6.086
 1800SOL     OW 6298   4.139   4.356   1.356
 1800SOL    HW1 6299   4.201   4.392   1.285
 1800SOL    HW2 6300   4.090   4.277   1.320
 1801SOL     OW 6301   7.015   0.415   2.384
 1801SOL    HW1 6302   6.930   0.377   2.348
 1801SOL    HW2 6303   7.001   0.510   2.411
 1802SOL     OW 6304   6.459   5.969   4.684
 1802SOL    HW1 6305   6.388   5.925   4.739
 1802SOL    HW2 6306   6.538   5.907   4.676
 1803SOL     OW 6307   7.001   5.524   0.204
 1803SOL    HW1 6308   0.020   5.503   0.116
 1803SOL    HW2 6309   6.915   5.574   0.188
 1804SOL     OW 6310   2.928   4.009   5.129
 1804SOL    HW1 6311   2.985   4.066   5.070
 1804SOL    HW2 6312   2.968   3.917   5.135
 1805SOL     OW 6313   5.237   3.761   6.025
 1805SOL    HW1 6314   5.163   3.815   5.986
 1805SOL    HW2 6315   5.206   3.717   6.109
 1806SOL     OW 6316   1.640   0.137   1.462
 1806SOL    HW1 6317   1.622   0.041   1.479
 1806SOL    HW2 6318   1.573   0.172   1.396
 1807SOL     OW 6319   6.228   1.852   4.742
 1807SOL    HW1 6320   6.269   1.781   4.685
 1807SOL    HW2 6321   6.265   1.941   4.717
 1808SOL     OW 6322   0.228   5.050   4.805
 1808SOL    HW1 6323   0.315   5.038   4.853
 1808SOL    HW2 6324   0.238   5.022   4.709
 1809SOL     OW 6325   2.815   2.061   6.175
 1809SOL    HW1 6326   2.857   2.124   6.240
 1809SOL    HW2 6327   2.803   1.971   6.218
 1810SOL     OW 6328   3.152   6.373   3.748
 1810SOL    HW1 6329   3.183   6.284   3.716
 1810SOL    HW2 6330   3.157   6.439   3.673
 1811SOL     OW 6331   6.048   5.465   3.184
 1811SOL    HW1 6332   5.957   5.428   3.203
 1811SOL    HW2 6333   6.047   5.515   3.097
 1812SOL     OW 6334   4.307   5.818   5.397
 1812SOL    HW1 6335   4.311   5.724   5.432
 1812SOL    HW2 6336   4.302   5.816   5.298
 1813SOL     OW 6337   5.691   4.463   0.138
 1813SOL    HW1 6338   5.744   4.385   0.104
 1813SOL    HW2 6339   5.642   4.436   0.221
 1814SOL     OW 6340   4.545   0.048   2.464
 1814SOL    HW1 6341   4.625   0.105   2.483
 1814SOL    HW2 6342   4.469   0.077   2.522
 1815SOL     OW 6343   0.087   0.955   3.180
 1815SOL    HW1 6344   0.094   0.866   3.224
 1815SOL    HW2 6345   0.001   0.999   3.209
 1816SOL     OW 6346   1.651   3.497   0.227
 1816SOL    HW1 6347   1.731   3.459   0.179
 1816SOL    HW2 6348   1.568   3.458   0.188
 1817SOL     OW 6349   1.989   5.541   2.664
 1817SOL    HW1 6350   1.936   5.539   2.579
 1817SOL    HW2 6351   2.016   5.635   2.685
 1818SOL     OW 6352   1.670   0.501   2.944
 1818SOL    HW1 6353   1.640   0.444   2.867
 1818SOL    HW2 6354   1.591   0.543   2.988
 1819SOL     OW 6355   1.431   3.948   1.336
 1819SOL    HW1 6356   1.450   3.927   1.432
 1819SOL    HW2 6357   1.469   4.038   1.314
 1820SOL     OW 6358   4.834   0.442   2.664
 1820SOL    HW1 6359   4.793   0.523   2.705
 1820SOL    HW2 6360   4.884   0.469   2.582
 1821SOL     OW 6361   2.165   1.647   3.120
 1821SOL    HW1 6362   2.072   1.680   3.106
 1821SOL    HW2 6363   2.182   1.639   3.218
 1822SOL     OW 6364   3.330   2.589   1.655
 1822SOL    HW1 6365   3.234   2.610   1.675
 1822SOL    HW2 6366   3.346   2.490   1.666
 1823SOL     OW 6367   4.228   6.699   2.169
 1823SOL    HW1 6368   4.211   6.790   2.208
 1823SOL    HW2 6369   4.305   6.656   2.215
 1824SOL     OW 6370   4.572   2.569   1.311
 1824SOL    HW1 6371   4.534   2.623   1.387
 1824SOL    HW2 6372   4.630   2.496   1.348
 1825SOL     OW 6373   0.814   0.370   1.490
 1825SOL    HW1 6374   0.823   0.470   1.487
 1825SOL    HW2 6375   0.717   0.346   1.495
 1826SOL     OW 6376   3.152   0.504   0.249
 1826SOL    HW1 6377   3.129   0.429   0.311
 1826SOL    HW2 6378   3.244   0.491   0.213
 1827SOL     OW 6379   6.620   5.584   1.739
 1827SOL    HW1 6380   6.638   5.493   1.777
 1827SOL    HW2 6381   6.686   5.649   1.776
 1828SOL     OW 6382   0.502   2.623   6.296
 1828SOL    HW1 6383   0.469   2.557   6.364
 1828SOL    HW2 6384   0.600   2.609   6.281
 1829SOL     OW 6385   5.287   5.830   2.930
 1829SOL    HW1 6386   5.281   5.917   2.882
 1829SOL    HW2 6387   5.307   5.757   2.864
 1830SOL     OW 6388   4.641   6.332   3.233
 1830SOL    HW1 6389   4.660   6.410   3.293
 1830SOL    HW2 6390   4.543   6.317   3.227
 1831SOL     OW 6391   5.269   6.135   1.815
 1831SOL    HW1 6392   5.319   6.197   1.876
 1831SOL    HW2 6393   5.282   6.164   1.720
 1832SOL     OW 6394   4.453   2.644   0.909
 1832SOL    HW1 6395   4.440   2.567   0.972
 1832SOL    HW2 6396   4.516   2.710   0.950
 1833SOL     OW 6397   5.127   0.318   5.112
 1833SOL    HW1 6398   5.045   0.356   5.155
 1833SOL    HW2 6399   5.206   0.375   5.135
 1834SOL     OW 6400   3.756   3.457   1.373
 1834SOL    HW1 6401   3.836   3.516   1.384
 1834SOL    HW2 6402   3.785   3.368   1.340
 1835SOL     OW 6403   1.590   5.008   0.884
 1835SOL    HW1 6404   1.599   4.958   0.970
 1835SOL    HW2 6405   1.520   4.965   0.827
 1836SOL     OW 6406   0.613   0.164   0.297
 1836SOL    HW1 6407   0.594   0.209   0.384
 1836SOL    HW2 6408   0.652   0.231   0.233
 1837SOL     OW 6409   1.015   2.491   4.609
 1837SOL    HW1 6410   0.993   2.400   4.644
 1837SOL    HW2 6411   1.100   2.486   4.556
 1838SOL     OW 6412   7.020   2.733   4.636
 1838SOL    HW1 6413   7.003   2.638   4.663
 1838SOL    HW2 6414   0.074   2.736   4.573
 1839SOL     OW 6415   6.466   2.876   5.270
 1839SOL    HW1 6416   6.386   2.864   5.211
 1839SOL    HW2 6417   6.463   2.966   5.312
 1840SOL     OW 6418   2.802   5.636   0.610
 1840SOL    HW1 6419   2.859   5.560   0.579
 1840SOL    HW2 6420   2.813   5.713   0.548
 1841SOL     OW 6421   2.228   3.108   3.752
 1841SOL    HW1 6422   2.259   3.151   3.837
 1841SOL    HW2 6423   2.184   3.177   3.694
 1842SOL     OW 6424   0.705   4.250   0.978
 1842SOL    HW1 6425   0.687   4.185   1.052
 1842SOL    HW2 6426   0.720   4.341   1.018
 1843SOL     OW 6427   2.466   1.604   5.319
 1843SOL    HW1 6428   2.397   1.655   5.371
 1843SOL    HW2 6429   2.553   1.606   5.369
 1844SOL     OW 6430   4.169   2.271   4.076
 1844SOL    HW1 6431   4.084   2.260   4.128
 1844SOL    HW2 6432   4.152   2.247   3.980
 1845SOL     OW 6433   3.775   0.047   0.139
 1845SOL    HW1 6434   3.849   0.064   0.205
 1845SOL    HW2 6435   3.793   0.096   0.054
 1846SOL     OW 6436   2.633   2.410   6.678
 1846SOL    HW1 6437   2.662   2.383   6.770
 1846SOL    HW2 6438   2.676   2.497   6.653
 1847SOL     OW 6439   0.947   0.183   1.027
 1847SOL    HW1 6440   0.974   0.175   1.123
 1847SOL    HW2 6441   1.017   0.140   0.969
 1848SOL     OW 6442   3.181   6.709   2.130
 1848SOL    HW1 6443   3.144   6.672   2.045
 1848SOL    HW2 6444   3.107   6.746   2.186
 1849SOL     OW 6445   3.405   1.915   6.710
 1849SOL    HW1 6446   3.332   1.969   6.751
 1849SOL    HW2 6447   3.450   1.860   6.781
 1850SOL     OW 6448   6.137   2.643   2.944
 1850SOL    HW1 6449   6.131   2.704   3.023
 1850SOL    HW2 6450   6.217   2.584   2.955
 1851SOL     OW 6451   0.401   2.333   2.232
 1851SOL    HW1 6452   0.449   2.264   2.285
 1851SOL    HW2 6453   0.389   2.415   2.288
 1852SOL     OW 6454   4.181   3.165   0.309
 1852SOL    HW1 6455   4.191   3.069   0.336
 1852SOL    HW2 6456   4.265   3.215   0.330
 1853SOL     OW 6457   0.939   4.035   1.478
 1853SOL    HW1 6458   0.846   4.016   1.445
 1853SOL    HW2 6459   0.995   4.067   1.402
 1854SOL     OW 6460   2.805   5.815   4.636
 1854SOL    HW1 6461   2.734   5.768   4.583
 1854SOL    HW2 6462   2.888   5.760   4.635
 1855SOL     OW 6463   5.570   5.228   0.721
 1855SOL    HW1 6464   5.519   5.199   0.802
 1855SOL    HW2 6465   5.508   5.243   0.645
 1856SOL     OW 6466   5.351   2.388   4.890
 1856SOL    HW1 6467   5.420   2.344   4.832
 1856SOL    HW2 6468   5.273   2.415   4.834
 1857SOL     OW 6469   3.920   1.090   3.965
 1857SOL    HW1 6470   3.853   1.151   3.923
 1857SOL    HW2 6471   4.011   1.111   3.928
 1858SOL     OW 6472   5.257   2.947   3.767
 1858SOL    HW1 6473   5.192   2.902   3.706
 1858SOL    HW2 6474   5.342   2.894   3.769
 1859SOL     OW 6475   4.373   2.164   3.550
 1859SOL    HW1 6476   4.355   2.132   3.457
 1859SOL    HW2 6477   4.457   2.120   3.583
 1860SOL     OW 6478   6.178   1.196   4.410
 1860SOL    HW1 6479   6.121   1.214   4.490
 1860SOL    HW2 6480   6.230   1.278   4.386
 1861SOL     OW 6481   5.345   6.457   2.943
 1861SOL    HW1 6482   5.272   6.405   2.989
 1861SOL    HW2 6483   5.433   6.412   2.959
 1862SOL     OW 6484   1.967   1.293   0.339
 1862SOL    HW1 6485   1.993   1.221   0.403
 1862SOL    HW2 6486   2.016   1.281   0.253
 1863SOL     OW 6487   2.813   2.698   1.355
 1863SOL    HW1 6488   2.753   2.706   1.435
 1863SOL    HW2 6489   2.772   2.747   1.278
 1864SOL     OW 6490   1.102   6.216   4.754
 1864SOL    HW1 6491   1.043   6.210   4.674
 1864SOL    HW2 6492   1.089   6.306   4.797
 1865SOL     OW 6493   4.287   1.902   5.885
 1865SOL    HW1 6494   4.219   1.895   5.958
 1865SOL    HW2 6495   4.241   1.901   5.796
 1866SOL     OW 6496   4.565   4.390   2.252
 1866SOL    HW1 6497   4.527   4.344   2.172
 1866SOL    HW2 6498   4.623   4.327   2.303
 1867SOL     OW 6499   6.939   3.970   7.001
 1867SOL    HW1 6500   6.941   3.876   6.966
 1867SOL    HW2 6501   6.940   3.969   0.077
 1868SOL     OW 6502   5.794   4.605   6.118
 1868SOL    HW1 6503   5.817   4.598   6.215
 1868SOL    HW2 6504   5.818   4.519   6.072
 1869SOL     OW 6505   6.545   1.326   5.350
 1869SOL    HW1 6506   6.570   1.249   5.290
 1869SOL    HW2 6507   6.477   1.383   5.304
 1870SOL     OW 6508   1.817   5.348   4.442
 1870SOL    HW1 6509   1.873   5.359   4.524
 1870SOL    HW2 6510   1.849   5.270   4.389
 1871SOL     OW 6511   2.112   0.014   0.289
 1871SOL    HW1 6512   2.038   0.007   0.356
 1871SOL    HW2 6513   2.100   6.968   0.219
 1872SOL     OW 6514   1.888   4.547   0.304
 1872SOL    HW1 6515   1.962   4.581   0.247
 1872SOL    HW2 6516   1.916   4.549   0.400
 1873SOL     OW 6517   4.195   1.528   6.416
 1873SOL    HW1 6518   4.217   1.591   6.341
 1873SOL    HW2 6519   4.097   1.508   6.415
 1874SOL     OW 6520   1.872   1.687   1.980
 1874SOL    HW1 6521   1.871   1.587   1.977
 1874SOL    HW2 6522   1.795   1.719   2.035
 1875SOL     OW 6523   0.376   6.722   6.435
 1875SOL    HW1 6524   0.469   6.706   6.466
 1875SOL    HW2 6525   0.318   6.644   6.460
 1876SOL     OW 6526   2.885   6.917   4.528
 1876SOL    HW1 6527   2.947   6.981   4.482
 1876SOL    HW2 6528   2.854   6.957   4.614
 1877SOL     OW 6529   1.245   0.038   3.823
 1877SOL    HW1 6530   1.234   0.012   3.919
 1877SOL    HW2 6531   1.155   0.042   3.779
 1878SOL     OW 6532   6.627   2.617   4.544
 1878SOL    HW1 6533   6.555   2.682   4.518
 1878SOL    HW2 6534   6.651   2.631   4.640
 1879SOL     OW 6535   1.012   4.111   4.960
 1879SOL    HW1 6536   0.956   4.028   4.966
 1879SOL    HW2 6537   0.967   4.184   5.012
 1880SOL     OW 6538   6.107   1.637   5.042
 1880SOL    HW1 6539   6.096   1.736   5.034
 1880SOL    HW2 6540   6.060   1.605   5.125
 1881SOL     OW 6541   6.422   1.849   0.548
 1881SOL    HW1 6542   6.426   1.750   0.563
 1881SOL    HW2 6543   6.349   1.889   0.603
 1882SOL     OW 6544   1.049   4.051   6.099
 1882SOL    HW1 6545   0.962   4.062   6.053
 1882SOL    HW2 6546   1.119   4.023   6.033
 1883SOL     OW 6547   0.198   2.873   3.104
 1883SOL    HW1 6548   0.122   2.914   3.155
 1883SOL    HW2 6549   0.267   2.840   3.168
 1884SOL     OW 6550   0.243   1.954   1.615
 1884SOL    HW1 6551   0.291   1.869   1.640
 1884SOL    HW2 6552   0.244   2.016   1.693
 1885SOL     OW 6553   2.027   2.226   5.759
 1885SOL    HW1 6554   2.048   2.246   5.855
 1885SOL    HW2 6555   2.084   2.282   5.700
 1886SOL     OW 6556   1.374   6.543   3.255
 1886SOL    HW1 6557   1.466   6.566   3.288
 1886SOL    HW2 6558   1.311   6.617   3.278
 1887SOL     OW 6559   1.237   6.167   6.218
 1887SOL    HW1 6560   1.306   6.200   6.154
 1887SOL    HW2 6561   1.180   6.098   6.174
 1888SOL     OW 6562   2.747   1.288   1.097
 1888SOL    HW1 6563   2.740   1.387   1.081
 1888SOL    HW2 6564   2.745   1.270   1.196
 1889SOL     OW 6565   1.603   3.577   3.391
 1889SOL    HW1 6566   1.533   3.641   3.358
 1889SOL    HW2 6567   1.692   3.602   3.351
 1890SOL     OW 6568   1.052   5.843   3.864
 1890SOL    HW1 6569   1.013   5.755   3.892
 1890SOL    HW2 6570   1.123   5.827   3.796
 1891SOL     OW 6571   4.056   3.492   2.508
 1891SOL    HW1 6572   4.059   3.503   2.408
 1891SOL    HW2 6573   3.998   3.414   2.531
 1892SOL     OW 6574   7.004   0.393   2.108
 1892SOL    HW1 6575   0.006   0.389   2.204
 1892SOL    HW2 6576   6.924   0.451   2.096
 1893SOL     OW 6577   3.602   3.408   3.391
 1893SOL    HW1 6578   3.670   3.338   3.415
 1893SOL    HW2 6579   3.586   3.407   3.292
 1894SOL     OW 6580   3.784   3.721   4.446
 1894SOL    HW1 6581   3.712   3.762   4.390
 1894SOL    HW2 6582   3.825   3.645   4.397
 1895SOL     OW 6583   4.238   0.095   0.346
 1895SOL    HW1 6584   4.248   0.138   0.436
 1895SOL    HW2 6585   4.324   0.052   0.319
 1896SOL     OW 6586   5.119   1.891   1.073
 1896SOL    HW1 6587   5.140   1.889   0.976
 1896SOL    HW2 6588   5.102   1.985   1.102
 1897SOL     OW 6589   2.500   4.720   3.376
 1897SOL    HW1 6590   2.578   4.771   3.412
 1897SOL    HW2 6591   2.416   4.772   3.391
 1898SOL     OW 6592   1.374   5.902   3.464
 1898SOL    HW1 6593   1.462   5.855   3.460
 1898SOL    HW2 6594   1.373   5.977   3.399
 1899SOL     OW 6595   0.073   0.030   1.827
 1899SOL    HW1 6596   0.049   0.032   1.730
 1899SOL    HW2 6597   0.004   0.078   1.880
 1900SOL     OW 6598   3.123   0.295   6.922
 1900SOL    HW1 6599   3.120   0.212   6.978
 1900SOL    HW2 6600   3.087   0.372   6.975
 1901SOL     OW 6601   3.051   3.783   0.955
 1901SOL    HW1 6602   3.040   3.844   1.033
 1901SOL    HW2 6603   2.973   3.721   0.950
 1902SOL     OW 6604   1.621   6.522   5.009
 1902SOL    HW1 6605   1.564   6.440   4.998
 1902SOL    HW2 6606   1.697   6.518   4.944
 1903SOL     OW 6607   1.008   3.099   4.458
 1903SOL    HW1 6608   1.027   3.155   4.378
 1903SOL    HW2 6609   1.038   3.005   4.441
 1904SOL     OW 6610   5.712   5.440   2.591
 1904SOL    HW1 6611   5.738   5.359   2.538
 1904SOL    HW2 6612   5.671   5.508   2.531
 1905SOL     OW 6613   0.427   0.630   3.626
 1905SOL    HW1 6614   0.435   0.604   3.722
 1905SOL    HW2 6615   0.513   0.669   3.594
 1906SOL     OW 6616   2.648   0.130   5.514
 1906SOL    HW1 6617   2.688   0.042   5.488
 1906SOL    HW2 6618   2.720   0.193   5.544
 1907SOL     OW 6619   4.846   2.749   0.209
 1907SOL    HW1 6620   4.850   2.655   0.243
 1907SOL    HW2 6621   4.939   2.786   0.204
 1908SOL     OW 6622   3.618   1.312   1.018
 1908SOL    HW1 6623   3.619   1.312   1.118
 1908SOL    HW2 6624   3.527   1.285   0.986
 1909SOL     OW 6625   0.010   4.831   5.112
 1909SOL    HW1 6626   0.010   4.839   5.012
 1909SOL    HW2 6627   0.078   4.893   5.150
 1910SOL     OW 6628   6.491   6.254   6.075
 1910SOL    HW1 6629   6.391   6.251   6.077
 1910SOL    HW2 6630   6.526   6.165   6.045
 1911SOL     OW 6631   6.944   5.227   4.186
 1911SOL    HW1 6632   0.011   5.207   4.223
 1911SOL    HW2 6633   6.935   5.186   4.095
 1912SOL     OW 6634   2.499   4.926   2.661
 1912SOL    HW1 6635   2.497   4.835   2.618
 1912SOL    HW2 6636   2.477   4.917   2.758
 1913SOL     OW 6637   2.725   4.683   5.290
 1913SOL    HW1 6638   2.792   4.641   5.229
 1913SOL    HW2 6639   2.732   4.641   5.381
 1914SOL     OW 6640   2.577   4.252   6.297
 1914SOL    HW1 6641   2.616   4.195   6.370
 1914SOL    HW2 6642   2.488   4.286   6.326
 1915SOL     OW 6643   4.889   2.611   6.288
 1915SOL    HW1 6644   4.923   2.573   6.373
 1915SOL    HW2 6645   4.940   2.695   6.266
 1916SOL     OW 6646   3.902   0.729   2.060
 1916SOL    HW1 6647   3.946   0.692   1.978
 1916SOL    HW2 6648   3.972   0.766   2.121
 1917SOL     OW 6649   2.642   4.525   1.432
 1917SOL    HW1 6650   2.626   4.506   1.529
 1917SOL    HW2 6651   2.725   4.580   1.422
 1918SOL     OW 6652   6.755   1.822   4.523
 1918SOL    HW1 6653   6.817   1.901   4.527
 1918SOL    HW2 6654   6.802   1.745   4.480
 1919SOL     OW 6655   1.195   1.920   0.886
 1919SOL    HW1 6656   1.201   1.823   0.862
 1919SOL    HW2 6657   1.124   1.933   0.955
 1920SOL     OW 6658   5.239   2.484   0.670
 1920SOL    HW1 6659   5.191   2.506   0.754
 1920SOL    HW2 6660   5.313   2.550   0.656
 1921SOL     OW 6661   2.110   3.184   6.813
 1921SOL    HW1 6662   2.046   3.229   6.751
 1921SOL    HW2 6663   2.079   3.090   6.830
 1922SOL     OW 6664   2.972   3.535   2.305
 1922SOL    HW1 6665   2.986   3.517   2.402
 1922SOL    HW2 6666   3.060   3.538   2.258
 1923SOL     OW 6667   4.492   0.582   5.424
 1923SOL    HW1 6668   4.532   0.504   5.472
 1923SOL    HW2 6669   4.515   0.577   5.327
 1924SOL     OW 6670   4.502   6.880   0.871
 1924SOL    HW1 6671   4.430   6.872   0.802
 1924SOL    HW2 6672   4.579   6.933   0.834
 1925SOL     OW 6673   1.027   4.293   1.006
 1925SOL    HW1 6674   1.011   4.269   1.101
 1925SOL    HW2 6675   1.009   4.214   0.947
 1926SOL     OW 6676   3.389   0.113   2.077
 1926SOL    HW1 6677   3.374   0.036   2.138
 1926SOL    HW2 6678   3.483   0.112   2.045
 1927SOL     OW 6679   2.116   5.334   1.443
 1927SOL    HW1 6680   2.017   5.324   1.442
 1927SOL    HW2 6681   2.159   5.248   1.416
 1928SOL     OW 6682   4.729   4.201   2.913
 1928SOL    HW1 6683   4.652   4.238   2.966
 1928SOL    HW2 6684   4.711   4.214   2.815
 1929SOL     OW 6685   2.986   0.629   2.960
 1929SOL    HW1 6686   2.910   0.602   2.902
 1929SOL    HW2 6687   2.962   0.613   3.056
 1930SOL     OW 6688   4.820   2.884   6.705
 1930SOL    HW1 6689   4.899   2.865   6.647
 1930SOL    HW2 6690   4.748   2.818   6.687
 1931SOL     OW 6691   0.733   1.721   4.770
 1931SOL    HW1 6692   0.761   1.809   4.731
 1931SOL    HW2 6693   0.814   1.674   4.806
 1932SOL     OW 6694   4.403   2.385   2.249
 1932SOL    HW1 6695   4.429   2.475   2.284
 1932SOL    HW2 6696   4.395   2.320   2.324
 1933SOL     OW 6697   0.948   1.280   0.951
 1933SOL    HW1 6698   0.967   1.209   1.018
 1933SOL    HW2 6699   1.033   1.309   0.907
 1934SOL     OW 6700   0.219   0.234   5.985
 1934SOL    HW1 6701   0.208   0.137   6.005
 1934SOL    HW2 6702   0.180   0.288   6.060
 1935SOL     OW 6703   6.939   5.081   3.963
 1935SOL    HW1 6704   7.016   5.070   3.900
 1935SOL    HW2 6705   6.915   4.993   4.003
 1936SOL     OW 6706   4.747   2.934   5.195
 1936SOL    HW1 6707   4.660   2.936   5.244
 1936SOL    HW2 6708   4.770   2.840   5.171
 1937SOL     OW 6709   5.090   5.295   6.737
 1937SOL    HW1 6710   5.041   5.231   6.678
 1937SOL    HW2 6711   5.178   5.318   6.696
 1938SOL     OW 6712   0.717   2.914   6.254
 1938SOL    HW1 6713   0.781   2.838   6.260
 1938SOL    HW2 6714   0.647   2.894   6.186
 1939SOL     OW 6715   1.276   0.148   4.634
 1939SOL    HW1 6716   1.213   0.207   4.685
 1939SOL    HW2 6717   1.277   0.057   4.675
 1940SOL     OW 6718   6.381   4.507   1.044
 1940SOL    HW1 6719   6.469   4.492   0.997
 1940SOL    HW2 6720   6.394   4.496   1.142
 1941SOL     OW 6721   0.031   2.456   4.293
 1941SOL    HW1 6722   0.108   2.520   4.300
 1941SOL    HW2 6723   6.970   2.502   4.321
 1942SOL     OW 6724   5.328   3.700   2.629
 1942SOL    HW1 6725   5.265   3.638   2.582
 1942SOL    HW2 6726   5.368   3.763   2.562
 1943SOL     OW 6727   1.204   1.552   2.571
 1943SOL    HW1 6728   1.135   1.496   2.617
 1943SOL    HW2 6729   1.256   1.603   2.640
 1944SOL     OW 6730   0.058   2.717   2.020
 1944SOL    HW1 6731   0.141   2.770   2.036
 1944SOL    HW2 6732   0.056   2.687   1.925
 1945SOL     OW 6733   5.017   0.486   1.940
 1945SOL    HW1 6734   5.039   0.394   1.975
 1945SOL    HW2 6735   5.102   0.536   1.923
 1946SOL     OW 6736   5.893   5.206   1.528
 1946SOL    HW1 6737   5.794   5.195   1.521
 1946SOL    HW2 6738   5.914   5.288   1.582
 1947SOL     OW 6739   6.150   4.748   4.210
 1947SOL    HW1 6740   6.195   4.773   4.124
 1947SOL    HW2 6741   6.057   4.785   4.211
 1948SOL     OW 6742   4.862   3.654   3.441
 1948SOL    HW1 6743   4.936   3.631   3.377
 1948SOL    HW2 6744   4.793   3.708   3.394
 1949SOL     OW 6745   3.892   4.986   6.379
 1949SOL    HW1 6746   3.978   4.936   6.388
 1949SOL    HW2 6747   3.815   4.922   6.379
 1950SOL     OW 6748   3.499   4.112   3.984
 1950SOL    HW1 6749   3.401   4.094   3.971
 1950SOL    HW2 6750   3.515   4.148   4.075
 1951SOL     OW 6751   6.100   4.504   5.992
 1951SOL    HW1 6752   6.134   4.526   5.900
 1951SOL    HW2 6753   6.013   4.456   5.984
 1952SOL     OW 6754   5.427   5.224   6.827
 1952SOL    HW1 6755   5.355   5.293   6.823
 1952SOL    HW2 6756   5.496   5.253   6.893
 1953SOL     OW 6757   0.298   1.395   6.613
 1953SOL    HW1 6758   0.342   1.308   6.589
 1953SOL    HW2 6759   0.199   1.388   6.595
 1954SOL     OW 6760   4.287   0.094   2.003
 1954SOL    HW1 6761   4.276   0.055   2.095
 1954SOL    HW2 6762   4.380   0.128   1.992
 1955SOL     OW 6763   1.084   1.870   2.553
 1955SOL    HW1 6764   1.034   1.818   2.623
 1955SOL    HW2 6765   1.179   1.881   2.581
 1956SOL     OW 6766   5.960   0.448   2.038
 1956SOL    HW1 6767   5.915   0.394   2.109
 1956SOL    HW2 6768   5.902   0.453   1.958
 1957SOL     OW 6769   5.346   1.664   4.100
 1957SOL    HW1 6770   5.370   1.570   4.076
 1957SOL    HW2 6771   5.428   1.712   4.132
 1958SOL     OW 6772   4.254   1.936   1.092
 1958SOL    HW1 6773   4.160   1.933   1.127
 1958SOL    HW2 6774   4.291   1.843   1.090
 1959SOL     OW 6775   0.482   0.650   4.662
 1959SOL    HW1 6776   0.568   0.657   4.712
 1959SOL    HW2 6777   0.481   0.717   4.587
 1960SOL     OW 6778   5.870   4.093   3.719
 1960SOL    HW1 6779   5.775   4.099   3.687
 1960SOL    HW2 6780   5.880   4.142   3.805
 1961SOL     OW 6781   6.752   3.958   4.735
 1961SOL    HW1 6782   6.677   4.015   4.768
 1961SOL    HW2 6783   6.818   3.943   4.808
 1962SOL     OW 6784   0.932   0.319   2.685
 1962SOL    HW1 6785   0.988   0.402   2.691
 1962SOL    HW2 6786   0.951   0.260   2.764
 1963SOL     OW 6787   0.743   1.634   1.944
 1963SOL    HW1 6788   0.788   1.723   1.939
 1963SOL    HW2 6789   0.806   1.563   1.914
 1964SOL     OW 6790   5.128   3.915   0.959
 1964SOL    HW1 6791   5.108   4.011   0.979
 1964SOL    HW2 6792   5.221   3.894   0.990
 1965SOL     OW 6793   0.228   4.704   4.194
 1965SOL    HW1 6794   0.161   4.653   4.138
 1965SOL    HW2 6795   0.253   4.649   4.273
 1966SOL     OW 6796   1.704   4.616   6.792
 1966SOL    HW1 6797   1.685   4.583   6.884
 1966SOL    HW2 6798   1.734   4.712   6.796
 1967SOL     OW 6799   5.657   3.473   3.099
 1967SOL    HW1 6800   5.742   3.467   3.152
 1967SOL    HW2 6801   5.663   3.412   3.020
 1968SOL     OW 6802   2.787   1.554   5.340
 1968SOL    HW1 6803   2.763   1.487   5.269
 1968SOL    HW2 6804   2.864   1.610   5.309
 1969SOL     OW 6805   2.870   6.706   0.478
 1969SOL    HW1 6806   2.778   6.731   0.447
 1969SOL    HW2 6807   2.866   6.623   0.534
 1970SOL     OW 6808   6.007   5.666   5.199
 1970SOL    HW1 6809   5.983   5.741   5.260
 1970SOL    HW2 6810   6.008   5.580   5.250
 1971SOL     OW 6811   1.517   6.085   5.153
 1971SOL    HW1 6812   1.554   5.994   5.172
 1971SOL    HW2 6813   1.493   6.131   5.238
 1972SOL     OW 6814   5.951   2.690   2.763
 1972SOL    HW1 6815   5.987   2.735   2.681
 1972SOL    HW2 6816   6.026   2.674   2.828
 1973SOL     OW 6817   1.986   4.074   7.015
 1973SOL    HW1 6818   1.941   4.081   6.925
 1973SOL    HW2 6819   1.963   3.985   0.033
 1974SOL     OW 6820   3.713   6.400   4.741
 1974SOL    HW1 6821   3.641   6.461   4.774
 1974SOL    HW2 6822   3.772   6.449   4.677
 1975SOL     OW 6823   1.435   2.046   3.560
 1975SOL    HW1 6824   1.511   2.098   3.597
 1975SOL    HW2 6825   1.422   2.069   3.463
 1976SOL     OW 6826   0.041   6.825   6.321
 1976SOL    HW1 6827   6.967   6.845   6.331
 1976SOL    HW2 6828   0.095   6.905   6.347
 1977SOL     OW 6829   2.123   4.616   5.596
 1977SOL    HW1 6830   2.027   4.607   5.571
 1977SOL    HW2 6831   2.138   4.575   5.686
 1978SOL     OW 6832   2.865   0.201   1.773
 1978SOL    HW1 6833   2.931   0.153   1.832
 1978SOL    HW2 6834   2.879   0.174   1.678
 1979SOL     OW 6835   0.223   4.875   6.748
 1979SOL    HW1 6836   0.198   4.779   6.744
 1979SOL    HW2 6837   0.221   4.915   6.656
 1980SOL     OW 6838   3.720   1.771   0.958
 1980SOL    HW1 6839   3.762   1.701   1.017
 1980SOL    HW2 6840   3.624   1.747   0.941
 1981SOL     OW 6841   4.200   2.223   3.169
 1981SOL    HW1 6842   4.172   2.204   3.075
 1981SOL    HW2 6843   4.127   2.197   3.232
 1982SOL     OW 6844   6.865   2.432   5.542
 1982SOL    HW1 6845   6.907   2.394   5.624
 1982SOL    HW2 6846   6.783   2.380   5.518
 1983SOL     OW 6847   0.102   0.638   2.085
 1983SOL    HW1 6848   0.051   0.552   2.092
 1983SOL    HW2 6849   0.190   0.628   2.130
 1984SOL     OW 6850   5.029   2.856   5.252
 1984SOL    HW1 6851   4.976   2.771   5.249
 1984SOL    HW2 6852   4.973   2.929   5.292
 1985SOL     OW 6853   5.887   3.672   2.768
 1985SOL    HW1 6854   5.788   3.663   2.768
 1985SOL    HW2 6855   5.929   3.582   2.753
 1986SOL     OW 6856   3.711   2.210   1.642
 1986SOL    HW1 6857   3.679   2.256   1.725
 1986SOL    HW2 6858   3.669   2.120   1.635
 1987SOL     OW 6859   2.549   1.157   2.128
 1987SOL    HW1 6860   2.496   1.224   2.179
 1987SOL    HW2 6861   2.528   1.164   2.030
 1988SOL     OW 6862   6.708   1.933   0.953
 1988SOL    HW1 6863   6.739   1.891   1.038
 1988SOL    HW2 6864   6.772   2.005   0.926
 1989SOL     OW 6865   3.065   5.078   5.078
 1989SOL    HW1 6866   2.973   5.116   5.084
 1989SOL    HW2 6867   3.111   5.116   4.997
 1990SOL     OW 6868   3.760   0.529   0.749
 1990SOL    HW1 6869   3.726   0.493   0.836
 1990SOL    HW2 6870   3.849   0.573   0.763
 1991SOL     OW 6871   2.866   5.039   0.625
 1991SOL    HW1 6872   2.958   5.066   0.597
 1991SOL    HW2 6873   2.815   5.119   0.655
 1992SOL     OW 6874   0.347   5.726   1.085
 1992SOL    HW1 6875   0.381   5.782   1.010
 1992SOL    HW2 6876   0.423   5.674   1.125
 1993SOL     OW 6877   2.161   3.226   3.976
 1993SOL    HW1 6878   2.193   3.221   4.071
 1993SOL    HW2 6879   2.063   3.206   3.973
 1994SOL     OW 6880   2.933   2.977   0.309
 1994SOL    HW1 6881   2.845   3.002   0.350
 1994SOL    HW2 6882   2.940   3.015   0.217
 1995SOL     OW 6883   5.499   2.467   5.096
 1995SOL    HW1 6884   5.439   2.458   5.016
 1995SOL    HW2 6885   5.452   2.519   5.167
 1996SOL     OW 6886   3.814   1.866   0.718
 1996SOL    HW1 6887   3.766   1.820   0.792
 1996SOL    HW2 6888   3.748   1.911   0.658
 1997SOL     OW 6889   3.948   0.769   3.429
 1997SOL    HW1 6890   3.868   0.725   3.468
 1997SOL    HW2 6891   4.029   0.744   3.482
 1998SOL     OW 6892   1.920   3.111   0.908
 1998SOL    HW1 6893   1.892   3.117   1.004
 1998SOL    HW2 6894   1.974   3.028   0.895
 1999SOL     OW 6895   2.025   6.867   6.222
 1999SOL    HW1 6896   1.944   6.908   6.181
 1999SOL    HW2 6897   2.099   6.935   6.225
 2000SOL     OW 6898   3.990   4.281   5.770
 2000SOL    HW1 6899   3.917   4.216   5.788
 2000SOL    HW2 6900   3.982   4.359   5.832
 2001SOL     OW 6901   1.997   1.507   0.108
 2001SOL    HW1 6902   1.928   1.575   0.083
 2001SOL    HW2 6903   2.086   1.534   0.069
 2002SOL     OW 6904   7.020   4.276   0.277
 2002SOL    HW1 6905   6.946   4.215   0.307
 2002SOL    HW2 6906   7.022   4.357   0.335
 2003SOL     OW 6907   6.716   5.506   2.578
 2003SOL    HW1 6908   6.628   5.551   2.592
 2003SOL    HW2 6909   6.731   5.490   2.481
 2004SOL     OW 6910   2.954   6.879   3.037
 2004SOL    HW1 6911   2.963   6.780   3.048
 2004SOL    HW2 6912   2.968   6.903   2.941
 2005SOL     OW 6913   1.579   6.357   1.159
 2005SOL    HW1 6914   1.519   6.347   1.239
 2005SOL    HW2 6915   1.591   6.454   1.139
 2006SOL     OW 6916   5.701   0.084   2.966
 2006SOL    HW1 6917   5.679   0.101   2.870
 2006SOL    HW2 6918   5.794   0.116   2.985
 2007SOL     OW 6919   5.842   4.854   0.102
 2007SOL    HW1 6920   5.848   4.949   0.069
 2007SOL    HW2 6921   5.747   4.831   0.119
 2008SOL     OW 6922   1.767   3.524   3.851
 2008SOL    HW1 6923   1.763   3.433   3.808
 2008SOL    HW2 6924   1.725   3.591   3.790
 2009SOL     OW 6925   6.198   0.003   2.320
 2009SOL    HW1 6926   6.252   7.018   2.404
 2009SOL    HW2 6927   6.200   0.097   2.288
 2010SOL     OW 6928   1.390   1.679   1.517
 2010SOL    HW1 6929   1.378   1.776   1.539
 2010SOL    HW2 6930   1.331   1.655   1.441
 2011SOL     OW 6931   0.594   7.015   5.972
 2011SOL    HW1 6932   0.571   0.089   5.969
 2011SOL    HW2 6933   0.558   6.970   5.891
 2012SOL     OW 6934   1.447   3.632   1.367
 2012SOL    HW1 6935   1.470   3.719   1.324
 2012SOL    HW2 6936   1.437   3.645   1.466
 2013SOL     OW 6937   0.416   3.451   2.904
 2013SOL    HW1 6938   0.376   3.391   2.973
 2013SOL    HW2 6939   0.346   3.482   2.841
 2014SOL     OW 6940   3.623   0.283   4.195
 2014SOL    HW1 6941   3.579   0.218   4.258
 2014SOL    HW2 6942   3.580   0.373   4.204
 2015SOL     OW 6943   4.380   0.459   1.637
 2015SOL    HW1 6944   4.423   0.542   1.600
 2015SOL    HW2 6945   4.299   0.437   1.582
 2016SOL     OW 6946   1.390   0.389   5.922
 2016SOL    HW1 6947   1.445   0.346   5.850
 2016SOL    HW2 6948   1.332   0.321   5.965
 2017SOL     OW 6949   4.097   6.361   3.104
 2017SOL    HW1 6950   4.138   6.407   3.182
 2017SOL    HW2 6951   4.020   6.415   3.070
 2018SOL     OW 6952   1.083   1.031   3.819
 2018SOL    HW1 6953   1.051   1.124   3.835
 2018SOL    HW2 6954   1.112   1.021   3.724
 2019SOL     OW 6955   6.187   5.114   6.384
 2019SOL    HW1 6956   6.255   5.187   6.391
 2019SOL    HW2 6957   6.150   5.112   6.291
 2020SOL     OW 6958   2.501   5.967   6.044
 2020SOL    HW1 6959   2.411   5.965   6.001
 2020SOL    HW2 6960   2.501   6.035   6.117
 2021SOL     OW 6961   0.151   5.906   3.980
 2021SOL    HW1 6962   0.193   5.994   4.003
 2021SOL    HW2 6963   0.182   5.836   4.045
 2022SOL     OW 6964   1.882   4.144   4.963
 2022SOL    HW1 6965   1.932   4.134   5.050
 2022SOL    HW2 6966   1.833   4.059   4.944
 2023SOL     OW 6967   6.987   6.428   0.295
 2023SOL    HW1 6968   6.902   6.447   0.345
 2023SOL    HW2 6969   0.040   6.474   0.339
 2024SOL     OW 6970   0.698   5.821   4.311
 2024SOL    HW1 6971   0.780   5.848   4.260
 2024SOL    HW2 6972   0.722   5.751   4.378
 2025SOL     OW 6973   1.426   6.601   4.748
 2025SOL    HW1 6974   1.474   6.573   4.832
 2025SOL    HW2 6975   1.445   6.698   4.731
 2026SOL     OW 6976   6.996   0.184   5.776
 2026SOL    HW1 6977   6.912   0.238   5.773
 2026SOL    HW2 6978   0.032   0.220   5.848
 2027SOL     OW 6979   6.690   6.115   2.391
 2027SOL    HW1 6980   6.642   6.203   2.390
 2027SOL    HW2 6981   6.675   6.069   2.478
 2028SOL     OW 6982   3.457   5.038   4.315
 2028SOL    HW1 6983   3.494   5.005   4.228
 2028SOL    HW2 6984   3.488   5.131   4.332
 2029SOL     OW 6985   6.007   2.349   6.667
 2029SOL    HW1 6986   6.041   2.313   6.754
 2029SOL    HW2 6987   5.907   2.344   6.665
 2030SOL     OW 6988   2.380   6.632   2.364
 2030SOL    HW1 6989   2.315   6.613   2.290
 2030SOL    HW2 6990   2.379   6.730   2.384
 2031SOL     OW 6991   6.856   6.292   3.780
 2031SOL    HW1 6992   6.849   6.345   3.864
 2031SOL    HW2 6993   6.907   6.207   3.797
 2032SOL     OW 6994   2.485   2.106   6.093
 2032SOL    HW1 6995   2.447   2.112   6.001
 2032SOL    HW2 6996   2.576   2.064   6.088
 2033SOL     OW 6997   2.087   2.014   0.823
 2033SOL    HW1 6998   2.045   2.065   0.898
 2033SOL    HW2 6999   2.171   2.059   0.794
 2034SOL     OW 7000   6.869   4.465   5.105
 2034SOL    HW1 7001   6.773   4.469   5.133
 2034SOL    HW2 7002   6.880   4.402   5.029
 2035SOL     OW 7003   5.639   0.441   3.036
 2035SOL    HW1 7004   5.651   0.397   3.125
 2035SOL    HW2 7005   5.543   0.436   3.009
 2036SOL     OW 7006   1.057   3.935   1.907
 2036SOL    HW1 7007   0.993   4.011   1.918
 2036SOL    HW2 7008   1.081   3.924   1.811
 2037SOL     OW 7009   0.252   2.839   0.266
 2037SOL    HW1 7010   0.323   2.775   0.297
 2037SOL    HW2 7011   0.291   2.901   0.198
 2038SOL     OW 7012   1.334   1.556   6.353
 2038SOL    HW1 7013   1.405   1.621   6.326
 2038SOL    HW2 7014   1.296   1.512   6.271
 2039SOL     OW 7015   5.843   6.531   2.960
 2039SOL    HW1 7016   5.762   6.548   2.904
 2039SOL    HW2 7017   5.902   6.465   2.913
 2040SOL     OW 7018   1.844   2.689   0.622
 2040SOL    HW1 7019   1.752   2.688   0.584
 2040SOL    HW2 7020   1.843   2.738   0.709
 2041SOL     OW 7021   2.139   0.328   6.477
 2041SOL    HW1 7022   2.238   0.323   6.460
 2041SOL    HW2 7023   2.101   0.405   6.425
 2042SOL     OW 7024   5.054   0.836   5.540
 2042SOL    HW1 7025   5.119   0.768   5.574
 2042SOL    HW2 7026   5.104   0.907   5.490
 2043SOL     OW 7027   6.905   3.856   1.393
 2043SOL    HW1 7028   6.844   3.889   1.466
 2043SOL    HW2 7029   6.903   3.756   1.391
 2044SOL     OW 7030   4.314   0.366   1.253
 2044SOL    HW1 7031   4.274   0.369   1.345
 2044SOL    HW2 7032   4.357   0.453   1.233
 2045SOL     OW 7033   1.185   6.178   5.800
 2045SOL    HW1 7034   1.249   6.212   5.868
 2045SOL    HW2 7035   1.113   6.125   5.845
 2046SOL     OW 7036   1.177   2.157   5.008
 2046SOL    HW1 7037   1.155   2.177   5.104
 2046SOL    HW2 7038   1.255   2.212   4.980
 2047SOL     OW 7039   0.327   0.317   1.059
 2047SOL    HW1 7040   0.400   0.354   1.002
 2047SOL    HW2 7041   0.255   0.386   1.069
 2048SOL     OW 7042   0.840   1.910   4.621
 2048SOL    HW1 7043   0.840   1.939   4.525
 2048SOL    HW2 7044   0.926   1.937   4.665
 2049SOL     OW 7045   5.084   1.676   4.998
 2049SOL    HW1 7046   5.124   1.710   4.913
 2049SOL    HW2 7047   5.103   1.578   5.008
 2050SOL     OW 7048   1.225   1.548   4.114
 2050SOL    HW1 7049   1.299   1.543   4.047
 2050SOL    HW2 7050   1.144   1.589   4.071
 2051SOL     OW 7051   2.723   6.312   0.293
 2051SOL    HW1 7052   2.627   6.305   0.267
 2051SOL    HW2 7053   2.763   6.394   0.252
 2052SOL     OW 7054   0.771   4.320   6.485
 2052SOL    HW1 7055   0.809   4.311   6.393
 2052SOL    HW2 7056   0.809   4.401   6.530
 2053SOL     OW 7057   0.225   5.591   3.796
 2053SOL    HW1 7058   0.250   5.499   3.765
 2053SOL    HW2 7059   0.152   5.627   3.737
 2054SOL     OW 7060   3.523   3.268   3.747
 2054SOL    HW1 7061   3.431   3.232   3.765
 2054SOL    HW2 7062   3.515   3.358   3.703
 2055SOL     OW 7063   2.972   2.397   5.681
 2055SOL    HW1 7064   3.063   2.429   5.653
 2055SOL    HW2 7065   2.960   2.302   5.653
 2056SOL     OW 7066   3.995   4.801   0.925
 2056SOL    HW1 7067   4.059   4.836   0.857
 2056SOL    HW2 7068   3.973   4.705   0.904
 2057SOL     OW 7069   5.389   2.215   4.220
 2057SOL    HW1 7070   5.438   2.243   4.302
 2057SOL    HW2 7071   5.376   2.115   4.222
 2058SOL     OW 7072   0.057   6.341   2.873
 2058SOL    HW1 7073   7.005   6.399   2.903
 2058SOL    HW2 7074   0.141   6.368   2.920
 2059SOL     OW 7075   1.559   0.466   6.292
 2059SOL    HW1 7076   1.500   0.515   6.228
 2059SOL    HW2 7077   1.573   0.521   6.374
 2060SOL     OW 7078   1.173   3.052   6.428
 2060SOL    HW1 7079   1.240   3.079   6.497
 2060SOL    HW2 7080   1.093   3.013   6.473
 2061SOL     OW 7081   1.646   2.809   1.962
 2061SOL    HW1 7082   1.556   2.852   1.971
 2061SOL    HW2 7083   1.645   2.720   2.006
 2062SOL     OW 7084   0.116   5.167   4.364
 2062SOL    HW1 7085   0.038   5.199   4.420
 2062SOL    HW2 7086   0.123   5.068   4.372
 2063SOL     OW 7087   0.738   0.944   4.659
 2063SOL    HW1 7088   0.825   0.987   4.684
 2063SOL    HW2 7089   0.691   1.000   4.591
 2064SOL     OW 7090   0.880   2.940   3.393
 2064SOL    HW1 7091   0.848   3.012   3.454
 2064SOL    HW2 7092   0.858   2.851   3.432
 2065SOL     OW 7093   4.326   3.278   5.631
 2065SOL    HW1 7094   4.333   3.178   5.630
 2065SOL    HW2 7095   4.245   3.306   5.580
 2066SOL     OW 7096   0.111   2.995   5.471
 2066SOL    HW1 7097   0.030   2.937   5.480
 2066SOL    HW2 7098   0.193   2.938   5.463
 2067SOL     OW 7099   6.534   5.171   1.284
 2067SOL    HW1 7100   6.619   5.179   1.335
 2067SOL    HW2 7101   6.546   5.104   1.211
 2068SOL     OW 7102   3.985   0.794   4.354
 2068SOL    HW1 7103   4.004   0.888   4.327
 2068SOL    HW2 7104   3.911   0.792   4.421
 2069SOL     OW 7105   0.575   2.552   3.967
 2069SOL    HW1 7106   0.667   2.589   3.983
 2069SOL    HW2 7107   0.583   2.464   3.919
 2070SOL     OW 7108   0.781   4.859   0.489
 2070SOL    HW1 7109   0.867   4.854   0.540
 2070SOL    HW2 7110   0.794   4.914   0.407
 2071SOL     OW 7111   0.148   1.440   5.648
 2071SOL    HW1 7112   0.151   1.527   5.697
 2071SOL    HW2 7113   0.132   1.458   5.551
 2072SOL     OW 7114   4.299   4.512   5.394
 2072SOL    HW1 7115   4.279   4.466   5.307
 2072SOL    HW2 7116   4.250   4.467   5.468
 2073SOL     OW 7117   3.039   5.574   6.192
 2073SOL    HW1 7118   2.989   5.659   6.180
 2073SOL    HW2 7119   2.982   5.497   6.163
 2074SOL     OW 7120   1.047   4.140   5.775
 2074SOL    HW1 7121   0.972   4.088   5.815
 2074SOL    HW2 7122   1.133   4.113   5.819
 2075SOL     OW 7123   6.475   1.647   1.439
 2075SOL    HW1 7124   6.515   1.739   1.440
 2075SOL    HW2 7125   6.386   1.649   1.484
 2076SOL     OW 7126   6.095   6.907   4.947
 2076SOL    HW1 7127   6.034   6.947   4.880
 2076SOL    HW2 7128   6.171   6.861   4.901
 2077SOL     OW 7129   6.335   4.637   0.450
 2077SOL    HW1 7130   6.249   4.592   0.473
 2077SOL    HW2 7131   6.412   4.585   0.488
 2078SOL     OW 7132   1.115   3.121   5.591
 2078SOL    HW1 7133   1.076   3.208   5.621
 2078SOL    HW2 7134   1.185   3.138   5.521
 2079SOL     OW 7135   5.050   1.680   1.878
 2079SOL    HW1 7136   5.120   1.612   1.902
 2079SOL    HW2 7137   4.963   1.633   1.863
 2080SOL     OW 7138   2.168   3.110   6.173
 2080SOL    HW1 7139   2.168   3.030   6.233
 2080SOL    HW2 7140   2.231   3.095   6.097
 2081SOL     OW 7141   5.756   6.030   2.513
 2081SOL    HW1 7142   5.810   5.985   2.442
 2081SOL    HW2 7143   5.660   6.034   2.484
 2082SOL     OW 7144   6.843   5.889   3.959
 2082SOL    HW1 7145   6.887   5.966   3.912
 2082SOL    HW2 7146   6.835   5.811   3.896
 2083SOL     OW 7147   0.785   6.466   3.800
 2083SOL    HW1 7148   0.789   6.490   3.897
 2083SOL    HW2 7149   0.810   6.370   3.789
 2084SOL     OW 7150   6.030   1.982   1.382
 2084SOL    HW1 7151   6.023   2.003   1.479
 2084SOL    HW2 7152   5.984   1.895   1.363
 2085SOL     OW 7153   5.515   6.058   0.900
 2085SOL    HW1 7154   5.533   6.143   0.948
 2085SOL    HW2 7155   5.587   5.992   0.921
 2086SOL     OW 7156   4.820   1.042   6.807
 2086SOL    HW1 7157   4.731   1.022   6.847
 2086SOL    HW2 7158   4.811   1.119   6.743
 2087SOL     OW 7159   4.167   1.562   6.844
 2087SOL    HW1 7160   4.203   1.539   6.754
 2087SOL    HW2 7161   4.168   1.661   6.857
 2088SOL     OW 7162   0.746   5.666   6.277
 2088SOL    HW1 7163   0.681   5.590   6.274
 2088SOL    HW2 7164   0.833   5.638   6.236
 2089SOL     OW 7165   2.576   3.824   0.398
 2089SOL    HW1 7166   2.580   3.816   0.298
 2089SOL    HW2 7167   2.486   3.796   0.430
 2090SOL     OW 7168   5.162   2.739   5.897
 2090SOL    HW1 7169   5.168   2.708   5.802
 2090SOL    HW2 7170   5.066   2.750   5.922
 2091SOL     OW 7171   5.506   6.250   2.169
 2091SOL    HW1 7172   5.566   6.295   2.235
 2091SOL    HW2 7173   5.523   6.151   2.171
 2092SOL     OW 7174   4.228   3.531   1.636
 2092SOL    HW1 7175   4.130   3.512   1.638
 2092SOL    HW2 7176   4.277   3.448   1.608
 2093SOL     OW 7177   3.428   0.975   1.992
 2093SOL    HW1 7178   3.382   0.970   2.080
 2093SOL    HW2 7179   3.520   0.936   2.000
 2094SOL     OW 7180   5.088   2.256   6.292
 2094SOL    HW1 7181   5.021   2.307   6.237
 2094SOL    HW2 7182   5.118   2.175   6.241
 2095SOL     OW 7183   5.425   5.881   3.994
 2095SOL    HW1 7184   5.446   5.968   4.039
 2095SOL    HW2 7185   5.363   5.897   3.917
 2096SOL     OW 7186   5.014   6.906   2.466
 2096SOL    HW1 7187   4.992   6.932   2.560
 2096SOL    HW2 7188   5.045   6.986   2.415
 2097SOL     OW 7189   0.991   5.574   6.602
 2097SOL    HW1 7190   1.087   5.589   6.580
 2097SOL    HW2 7191   0.961   5.486   6.566
 2098SOL     OW 7192   3.016   5.952   3.602
 2098SOL    HW1 7193   3.005   5.859   3.567
 2098SOL    HW2 7194   2.926   5.992   3.618
 2099SOL     OW 7195   4.924   1.760   6.079
 2099SOL    HW1 7196   4.895   1.809   6.162
 2099SOL    HW2 7197   4.890   1.667   6.082
 2100SOL     OW 7198   5.011   0.073   1.340
 2100SOL    HW1 7199   5.050   0.044   1.427
 2100SOL    HW2 7200   5.037   0.168   1.322
 2101SOL     OW 7201   0.655   7.020   2.305
 2101SOL    HW1 7202   0.612   6.941   2.349
 2101SOL    HW2 7203   0.740   0.019   2.353
 2102SOL     OW 7204   3.350   2.538   0.681
 2102SOL    HW1 7205   3.448   2.546   0.660
 2102SOL    HW2 7206   3.332   2.582   0.769
 2103SOL     OW 7207   2.961   6.045   0.653
 2103SOL    HW1 7208   2.964   6.144   0.666
 2103SOL    HW2 7209   3.047   6.005   0.683
 2104SOL     OW 7210   2.061   4.574   3.054
 2104SOL    HW1 7211   2.019   4.570   3.144
 2104SOL    HW2 7212   1.993   4.554   2.984
 2105SOL     OW 7213   6.197   5.405   5.159
 2105SOL    HW1 7214   6.186   5.306   5.173
 2105SOL    HW2 7215   6.291   5.431   5.181
 2106SOL     OW 7216   4.277   3.229   0.702
 2106SOL    HW1 7217   4.198   3.190   0.749
 2106SOL    HW2 7218   4.265   3.328   0.692
 2107SOL     OW 7219   5.054   4.558   5.601
 2107SOL    HW1 7220   5.061   4.496   5.523
 2107SOL    HW2 7221   5.107   4.521   5.678
 2108SOL     OW 7222   5.207   0.368   5.708
 2108SOL    HW1 7223   5.237   0.381   5.614
 2108SOL    HW2 7224   5.285   0.344   5.765
 2109SOL     OW 7225   2.873   6.701   2.604
 2109SOL    HW1 7226   2.818   6.672   2.682
 2109SOL    HW2 7227   2.870   6.630   2.533
 2110SOL     OW 7228   4.030   6.974   0.033
 2110SOL    HW1 7229   4.125   6.993   0.008
 2110SOL    HW2 7230   4.014   7.005   0.127
 2111SOL     OW 7231   1.049   2.438   5.808
 2111SOL    HW1 7232   1.011   2.420   5.717
 2111SOL    HW2 7233   1.137   2.392   5.817
 2112SOL     OW 7234   0.513   0.895   6.710
 2112SOL    HW1 7235   0.600   0.904   6.760
 2112SOL    HW2 7236   0.437   0.913   6.772
 2113SOL     OW 7237   0.466   0.875   4.502
 2113SOL    HW1 7238   0.467   0.964   4.456
 2113SOL    HW2 7239   0.388   0.872   4.565
 2114SOL     OW 7240   1.167   1.420   6.134
 2114SOL    HW1 7241   1.209   1.473   6.059
 2114SOL    HW2 7242   1.209   1.329   6.137
 2115SOL     OW 7243   6.391   6.390   2.982
 2115SOL    HW1 7244   6.410   6.301   3.023
 2115SOL    HW2 7245   6.358   6.378   2.888
 2116SOL     OW 7246   0.952   2.057   0.216
 2116SOL    HW1 7247   0.951   2.127   0.287
 2116SOL    HW2 7248   0.927   1.969   0.256
 2117SOL     OW 7249   6.151   1.652   1.770
 2117SOL    HW1 7250   6.183   1.559   1.790
 2117SOL    HW2 7251   6.164   1.671   1.672
 2118SOL     OW 7252   6.754   2.957   2.106
 2118SOL    HW1 7253   6.662   2.925   2.084
 2118SOL    HW2 7254   6.815   2.878   2.117
 2119SOL     OW 7255   1.713   1.279   0.120
 2119SOL    HW1 7256   1.735   1.331   0.203
 2119SOL    HW2 7257   1.736   1.183   0.133
 2120SOL     OW 7258   5.487   1.078   1.106
 2120SOL    HW1 7259   5.418   1.013   1.073
 2120SOL    HW2 7260   5.442   1.153   1.153
 2121SOL     OW 7261   1.427   0.434   6.889
 2121SOL    HW1 7262   1.361   0.461   6.959
 2121SOL    HW2 7263   1.389   0.452   6.798
 2122SOL     OW 7264   6.309   1.095   4.109
 2122SOL    HW1 7265   6.260   1.158   4.048
 2122SOL    HW2 7266   6.262   1.091   4.197
 2123SOL     OW 7267   1.081   5.276   2.780
 2123SOL    HW1 7268   1.104   5.186   2.818
 2123SOL    HW2 7269   1.164   5.321   2.747
 2124SOL     OW 7270   3.936   3.632   6.131
 2124SOL    HW1 7271   3.838   3.648   6.123
 2124SOL    HW2 7272   3.978   3.639   6.040
 2125SOL     OW 7273   2.105   6.030   3.813
 2125SOL    HW1 7274   2.025   5.972   3.799
 2125SOL    HW2 7275   2.103   6.067   3.906
 2126SOL     OW 7276   3.018   4.490   0.107
 2126SOL    HW1 7277   3.045   4.580   0.073
 2126SOL    HW2 7278   3.069   4.419   0.057
 2127SOL     OW 7279   0.891   2.214   4.501
 2127SOL    HW1 7280   0.982   2.192   4.536
 2127SOL    HW2 7281   0.852   2.134   4.456
 2128SOL     OW 7282   5.204   3.059   1.402
 2128SOL    HW1 7283   5.255   2.978   1.373
 2128SOL    HW2 7284   5.130   3.077   1.338
 2129SOL     OW 7285   5.255   4.086   4.181
 2129SOL    HW1 7286   5.354   4.099   4.189
 2129SOL    HW2 7287   5.233   3.989   4.191
 2130SOL     OW 7288   2.606   1.047   1.718
 2130SOL    HW1 7289   2.588   1.098   1.802
 2130SOL    HW2 7290   2.567   1.096   1.640
 2131SOL     OW 7291   5.437   0.827   4.686
 2131SOL    HW1 7292   5.434   0.781   4.774
 2131SOL    HW2 7293   5.358   0.799   4.631
 2132SOL     OW 7294   2.155   2.553   0.725
 2132SOL    HW1 7295   2.093   2.475   0.730
 2132SOL    HW2 7296   2.243   2.523   0.690
 2133SOL     OW 7297   3.135   2.038   1.520
 2133SOL    HW1 7298   3.097   1.947   1.538
 2133SOL    HW2 7299   3.072   2.107   1.556
 2134SOL     OW 7300   1.882   6.287   4.458
 2134SOL    HW1 7301   1.832   6.205   4.485
 2134SOL    HW2 7302   1.834   6.368   4.494
 2135SOL     OW 7303   1.280   0.464   4.418
 2135SOL    HW1 7304   1.252   0.370   4.396
 2135SOL    HW2 7305   1.365   0.462   4.470
 2136SOL     OW 7306   0.799   4.162   3.772
 2136SOL    HW1 7307   0.796   4.122   3.864
 2136SOL    HW2 7308   0.870   4.233   3.769
 2137SOL     OW 7309   1.071   0.670   5.141
 2137SOL    HW1 7310   1.006   0.594   5.144
 2137SOL    HW2 7311   1.079   0.710   5.233
 2138SOL     OW 7312   0.502   2.950   0.408
 2138SOL    HW1 7313   0.499   2.866   0.355
 2138SOL    HW2 7314   0.475   3.027   0.350
 2139SOL     OW 7315   2.833   1.405   5.129
 2139SOL    HW1 7316   2.775   1.352   5.068
 2139SOL    HW2 7317   2.885   1.472   5.076
 2140SOL     OW 7318   1.867   5.610   3.155
 2140SOL    HW1 7319   1.822   5.577   3.072
 2140SOL    HW2 7320   1.961   5.638   3.133
 2141SOL     OW 7321   5.845   1.387   0.403
 2141SOL    HW1 7322   5.930   1.374   0.454
 2141SOL    HW2 7323   5.844   1.326   0.325
 2142SOL     OW 7324   2.709   1.919   3.211
 2142SOL    HW1 7325   2.652   1.862   3.271
 2142SOL    HW2 7326   2.799   1.878   3.203
 2143SOL     OW 7327   3.744   6.779   0.357
 2143SOL    HW1 7328   3.826   6.732   0.391
 2143SOL    HW2 7329   3.739   6.871   0.396
 2144SOL     OW 7330   6.798   1.065   3.032
 2144SOL    HW1 7331   6.739   0.987   3.012
 2144SOL    HW2 7332   6.883   1.056   2.981
 2145SOL     OW 7333   3.716   5.742   2.906
 2145SOL    HW1 7334   3.767   5.743   2.992
 2145SOL    HW2 7335   3.707   5.836   2.871
 2146SOL     OW 7336   3.554   3.208   1.853
 2146SOL    HW1 7337   3.594   3.289   1.810
 2146SOL    HW2 7338   3.620   3.168   1.917
 2147SOL     OW 7339   0.256   0.874   5.325
 2147SOL    HW1 7340   0.248   0.969   5.355
 2147SOL    HW2 7341   0.329   0.829   5.376
 2148SOL     OW 7342   4.977   3.348   3.124
 2148SOL    HW1 7343   5.071   3.379   3.142
 2148SOL    HW2 7344   4.952   3.372   3.031
 2149SOL     OW 7345   3.273   1.185   3.154
 2149SOL    HW1 7346   3.242   1.259   3.095
 2149SOL    HW2 7347   3.351   1.139   3.111
 2150SOL     OW 7348   3.886   1.616   2.574
 2150SOL    HW1 7349   3.794   1.652   2.562
 2150SOL    HW2 7350   3.883   1.527   2.619
 2151SOL     OW 7351   3.877   2.924   5.678
 2151SOL    HW1 7352   3.908   2.968   5.594
 2151SOL    HW2 7353   3.837   2.835   5.657
 2152SOL     OW 7354   6.559   5.870   1.697
 2152SOL    HW1 7355   6.536   5.902   1.606
 2152SOL    HW2 7356   6.558   5.770   1.699
 2153SOL     OW 7357   4.864   3.074   3.110
 2153SOL    HW1 7358   4.852   3.033   3.200
 2153SOL    HW2 7359   4.889   3.171   3.120
 2154SOL     OW 7360   4.842   6.266   5.017
 2154SOL    HW1 7361   4.846   6.295   4.922
 2154SOL    HW2 7362   4.910   6.317   5.071
 2155SOL     OW 7363   7.013   3.295   0.178
 2155SOL    HW1 7364   0.060   3.308   0.107
 2155SOL    HW2 7365   0.015   3.348   0.259
 2156SOL     OW 7366   1.240   1.168   1.632
 2156SOL    HW1 7367   1.277   1.207   1.717
 2156SOL    HW2 7368   1.277   1.217   1.554
 2157SOL     OW 7369   0.847   1.442   4.480
 2157SOL    HW1 7370   0.844   1.400   4.571
 2157SOL    HW2 7371   0.938   1.428   4.441
 2158SOL     OW 7372   4.385   6.586   2.373
 2158SOL    HW1 7373   4.351   6.603   2.465
 2158SOL    HW2 7374   4.485   6.592   2.373
 2159SOL     OW 7375   1.908   5.782   4.231
 2159SOL    HW1 7376   1.951   5.865   4.268
 2159SOL    HW2 7377   1.947   5.702   4.276
 2160SOL     OW 7378   2.934   3.567   0.395
 2160SOL    HW1 7379   2.922   3.476   0.434
 2160SOL    HW2 7380   3.032   3.591   0.395
 2161SOL     OW 7381   5.391   2.309   3.706
 2161SOL    HW1 7382   5.379   2.364   3.789
 2161SOL    HW2 7383   5.420   2.216   3.732
 2162SOL     OW 7384   0.740   1.336   0.053
 2162SOL    HW1 7385   0.701   1.365   0.140
 2162SOL    HW2 7386   0.742   1.413   7.013
 2163SOL     OW 7387   2.209   1.980   0.032
 2163SOL    HW1 7388   2.303   2.015   0.026
 2163SOL    HW2 7389   2.182   1.975   0.128
 2164SOL     OW 7390   1.276   6.880   1.810
 2164SOL    HW1 7391   1.355   6.833   1.850
 2164SOL    HW2 7392   1.200   6.817   1.801
 2165SOL     OW 7393   2.869   6.604   1.649
 2165SOL    HW1 7394   2.866   6.508   1.622
 2165SOL    HW2 7395   2.932   6.616   1.725
 2166SOL     OW 7396   6.295   1.958   6.872
 2166SOL    HW1 7397   6.388   1.995   6.872
 2166SOL    HW2 7398   6.282   1.902   6.790
 2167SOL     OW 7399   2.635   0.028   1.774
 2167SOL    HW1 7400   2.562   0.094   1.792
 2167SOL    HW2 7401   2.722   0.066   1.806
 2168SOL     OW 7402   6.134   5.626   4.652
 2168SOL    HW1 7403   6.135   5.559   4.726
 2168SOL    HW2 7404   6.154   5.717   4.690
 2169SOL     OW 7405   4.948   2.023   4.919
 2169SOL    HW1 7406   4.939   2.041   5.017
 2169SOL    HW2 7407   4.898   1.939   4.896
 2170SOL     OW 7408   5.186   4.712   4.321
 2170SOL    HW1 7409   5.150   4.637   4.377
 2170SOL    HW2 7410   5.113   4.747   4.262
 2171SOL     OW 7411   6.818   2.220   0.183
 2171SOL    HW1 7412   6.800   2.188   0.276
 2171SOL    HW2 7413   6.875   2.154   0.135
 2172SOL     OW 7414   3.161   0.975   0.771
 2172SOL    HW1 7415   3.112   0.892   0.801
 2172SOL    HW2 7416   3.095   1.042   0.738
 2173SOL     OW 7417   5.069   0.999   5.116
 2173SOL    HW1 7418   5.099   1.061   5.189
 2173SOL    HW2 7419   4.975   0.971   5.134
 2174SOL     OW 7420   1.352   5.187   4.718
 2174SOL    HW1 7421   1.286   5.162   4.647
 2174SOL    HW2 7422   1.398   5.272   4.693
 2175SOL     OW 7423   2.639   6.290   4.769
 2175SOL    HW1 7424   2.619   6.199   4.734
 2175SOL    HW2 7425   2.555   6.334   4.799
 2176SOL     OW 7426   1.873   2.414   1.999
 2176SOL    HW1 7427   1.914   2.420   1.908
 2176SOL    HW2 7428   1.933   2.460   2.066
 2177SOL     OW 7429   6.545   1.371   1.679
 2177SOL    HW1 7430   6.486   1.323   1.745
 2177SOL    HW2 7431   6.570   1.460   1.716
 2178SOL     OW 7432   0.573   5.120   0.385
 2178SOL    HW1 7433   0.532   5.192   0.329
 2178SOL    HW2 7434   0.650   5.079   0.335
 2179SOL     OW 7435   0.744   4.700   3.615
 2179SOL    HW1 7436   0.645   4.708   3.605
 2179SOL    HW2 7437   0.779   4.778   3.667
 2180SOL     OW 7438   3.895   3.273   2.120
 2180SOL    HW1 7439   3.943   3.252   2.205
 2180SOL    HW2 7440   3.852   3.189   2.085
 2181SOL     OW 7441   4.530   6.471   6.990
 2181SOL    HW1 7442   4.530   6.561   6.946
 2181SOL    HW2 7443   4.442   6.455   0.011
 2182SOL     OW 7444   6.050   1.840   0.586
 2182SOL    HW1 7445   5.987   1.764   0.602
 2182SOL    HW2 7446   6.068   1.888   0.671
 2183SOL     OW 7447   2.988   2.920   0.687
 2183SOL    HW1 7448   2.985   2.842   0.624
 2183SOL    HW2 7449   2.895   2.949   0.709
 2184SOL     OW 7450   4.212   3.113   6.237
 2184SOL    HW1 7451   4.246   3.054   6.310
 2184SOL    HW2 7452   4.220   3.066   6.149
 2185SOL     OW 7453   1.414   1.436   0.948
 2185SOL    HW1 7454   1.483   1.462   1.015
 2185SOL    HW2 7455   1.459   1.420   0.859
 2186SOL     OW 7456   0.010   5.481   2.414
 2186SOL    HW1 7457   0.058   5.543   2.351
 2186SOL    HW2 7458   6.942   5.462   2.377
 2187SOL     OW 7459   0.024   1.581   6.456
 2187SOL    HW1 7460   6.974   1.648   6.445
 2187SOL    HW2 7461   0.017   1.537   6.545
 2188SOL     OW 7462   5.449   0.683   2.813
 2188SOL    HW1 7463   5.367   0.677   2.871
 2188SOL    HW2 7464   5.454   0.602   2.755
 2189SOL     OW 7465   2.659   0.314   6.868
 2189SOL    HW1 7466   2.577   0.324   6.811
 2189SOL    HW2 7467   2.648   0.368   6.952
 2190SOL     OW 7468   5.063   1.672   1.241
 2190SOL    HW1 7469   5.107   1.685   1.329
 2190SOL    HW2 7470   5.077   1.753   1.184
 2191SOL     OW 7471   3.015   1.554   0.347
 2191SOL    HW1 7472   3.080   1.520   0.415
 2191SOL    HW2 7473   3.003   1.653   0.358
 2192SOL     OW 7474   4.040   5.396   4.138
 2192SOL    HW1 7475   4.031   5.374   4.235
 2192SOL    HW2 7476   3.950   5.390   4.094
 2193SOL     OW 7477   0.353   5.119   5.928
 2193SOL    HW1 7478   0.420   5.154   5.862
 2193SOL    HW2 7479   0.375   5.024   5.950
 2194SOL     OW 7480   3.060   0.386   1.143
 2194SOL    HW1 7481   3.054   0.320   1.218
 2194SOL    HW2 7482   2.969   0.404   1.107
 2195SOL     OW 7483   1.522   4.558   2.891
 2195SOL    HW1 7484   1.524   4.647   2.845
 2195SOL    HW2 7485   1.587   4.496   2.847
 2196SOL     OW 7486   3.883   3.571   0.230
 2196SOL    HW1 7487   3.839   3.549   0.143
 2196SOL    HW2 7488   3.908   3.667   0.231
 2197SOL     OW 7489   4.478   4.206   0.520
 2197SOL    HW1 7490   4.402   4.230   0.580
 2197SOL    HW2 7491   4.551   4.274   0.530
 2198SOL     OW 7492   6.092   4.526   0.443
 2198SOL    HW1 7493   6.124   4.433   0.423
 2198SOL    HW2 7494   6.041   4.562   0.365
 2199SOL     OW 7495   4.612   0.563   2.131
 2199SOL    HW1 7496   4.567   0.558   2.042
 2199SOL    HW2 7497   4.587   0.484   2.186
 2200SOL     OW 7498   2.685   0.065   4.131
 2200SOL    HW1 7499   2.659   0.149   4.178
 2200SOL    HW2 7500   2.782   0.046   4.150
 2201SOL     OW 7501   4.771   4.245   1.888
 2201SOL    HW1 7502   4.685   4.289   1.913
 2201SOL    HW2 7503   4.847   4.298   1.925
 2202SOL     OW 7504   4.897   6.064   3.581
 2202SOL    HW1 7505   4.881   6.013   3.666
 2202SOL    HW2 7506   4.919   6.000   3.508
 2203SOL     OW 7507   3.365   2.055   2.973
 2203SOL    HW1 7508   3.438   2.018   3.030
 2203SOL    HW2 7509   3.399   2.071   2.880
 2204SOL     OW 7510   2.838   2.578   0.734
 2204SOL    HW1 7511   2.854   2.563   0.832
 2204SOL    HW2 7512   2.921   2.559   0.683
 2205SOL     OW 7513   2.427   0.261   0.149
 2205SOL    HW1 7514   2.513   0.210   0.161
 2205SOL    HW2 7515   2.364   0.207   0.093
 2206SOL     OW 7516   2.046   2.948   6.938
 2206SOL    HW1 7517   2.139   2.927   6.909
 2206SOL    HW2 7518   1.982   2.884   6.894
 2207SOL     OW 7519   0.876   4.229   5.160
 2207SOL    HW1 7520   0.812   4.171   5.211
 2207SOL    HW2 7521   0.969   4.209   5.188
 2208SOL     OW 7522   0.226   4.282   1.559
 2208SOL    HW1 7523   0.126   4.276   1.551
 2208SOL    HW2 7524   0.267   4.264   1.470
 2209SOL     OW 7525   1.039   5.862   1.086
 2209SOL    HW1 7526   1.057   5.876   0.988
 2209SOL    HW2 7527   1.076   5.773   1.114
 2210SOL     OW 7528   1.092   5.455   4.233
 2210SOL    HW1 7529   1.163   5.474   4.301
 2210SOL    HW2 7530   1.083   5.356   4.220
 2211SOL     OW 7531   6.643   1.203   5.727
 2211SOL    HW1 7532   6.735   1.172   5.748
 2211SOL    HW2 7533   6.644   1.302   5.711
 2212SOL     OW 7534   1.683   6.983   6.168
 2212SOL    HW1 7535   1.725   0.050   6.178
 2212SOL    HW2 7536   1.606   6.989   6.105
 2213SOL     OW 7537   3.102   1.007   3.263
 2213SOL    HW1 7538   3.157   1.078   3.221
 2213SOL    HW2 7539   3.054   0.955   3.192
 2214SOL     OW 7540   4.628   0.262   5.169
 2214SOL    HW1 7541   4.689   0.184   5.157
 2214SOL    HW2 7542   4.541   0.231   5.206
 2215SOL     OW 7543   5.630   3.209   4.997
 2215SOL    HW1 7544   5.608   3.307   4.991
 2215SOL    HW2 7545   5.695   3.185   4.924
 2216SOL     OW 7546   2.075   0.312   1.709
 2216SOL    HW1 7547   2.062   0.290   1.806
 2216SOL    HW2 7548   2.114   0.233   1.663
 2217SOL     OW 7549   4.444   0.787   1.879
 2217SOL    HW1 7550   4.357   0.796   1.831
 2217SOL    HW2 7551   4.499   0.716   1.835
 2218SOL     OW 7552   0.977   6.658   1.984
 2218SOL    HW1 7553   0.945   6.735   2.039
 2218SOL    HW2 7554   1.043   6.605   2.037
 2219SOL     OW 7555   1.315   2.023   2.944
 2219SOL    HW1 7556   1.374   2.075   3.006
 2219SOL    HW2 7557   1.255   1.964   2.998
 2220SOL     OW 7558   0.566   0.454   0.943
 2220SOL    HW1 7559   0.614   0.375   0.979
 2220SOL    HW2 7560   0.621   0.497   0.872
 2221SOL     OW 7561   0.157   1.732   0.417
 2221SOL    HW1 7562   0.104   1.650   0.393
 2221SOL    HW2 7563   0.254   1.710   0.418
 2222SOL     OW 7564   5.459   5.994   3.100
 2222SOL    HW1 7565   5.390   5.930   3.066
 2222SOL    HW2 7566   5.505   5.955   3.180
 2223SOL     OW 7567   5.916   4.838   1.666
 2223SOL    HW1 7568   5.927   4.821   1.764
 2223SOL    HW2 7569   5.819   4.833   1.642
 2224SOL     OW 7570   0.737   4.836   2.267
 2224SOL    HW1 7571   0.682   4.917   2.288
 2224SOL    HW2 7572   0.830   4.849   2.300
 2225SOL     OW 7573   0.401   4.437   0.926
 2225SOL    HW1 7574   0.329   4.393   0.873
 2225SOL    HW2 7575   0.489   4.395   0.904
 2226SOL     OW 7576   4.084   4.045   1.357
 2226SOL    HW1 7577   4.171   4.034   1.310
 2226SOL    HW2 7578   4.084   3.990   1.441
 2227SOL     OW 7579   1.003   3.194   3.993
 2227SOL    HW1 7580   0.913   3.170   3.958
 2227SOL    HW2 7581   1.036   3.277   3.948
 2228SOL     OW 7582   2.893   5.095   4.786
 2228SOL    HW1 7583   2.863   5.143   4.869
 2228SOL    HW2 7584   2.836   5.123   4.709
 2229SOL     OW 7585   5.357   0.624   3.202
 2229SOL    HW1 7586   5.346   0.695   3.133
 2229SOL    HW2 7587   5.364   0.535   3.158
 2230SOL     OW 7588   2.449   5.476   0.814
 2230SOL    HW1 7589   2.508   5.554   0.835
 2230SOL    HW2 7590   2.451   5.459   0.715
 2231SOL     OW 7591   2.925   6.285   1.258
 2231SOL    HW1 7592   2.952   6.346   1.184
 2231SOL    HW2 7593   2.842   6.236   1.233
 2232SOL     OW 7594   6.329   2.843   3.550
 2232SOL    HW1 7595   6.249   2.904   3.545
 2232SOL    HW2 7596   6.299   2.750   3.568
 2233SOL     OW 7597   3.207   1.665   6.880
 2233SOL    HW1 7598   3.234   1.613   6.961
 2233SOL    HW2 7599   3.148   1.741   6.907
 2234SOL     OW 7600   2.546   2.309   0.890
 2234SOL    HW1 7601   2.602   2.226   0.891
 2234SOL    HW2 7602   2.540   2.343   0.796
 2235SOL     OW 7603   2.082   0.171   1.205
 2235SOL    HW1 7604   2.152   0.127   1.149
 2235SOL    HW2 7605   2.079   0.269   1.185
 2236SOL     OW 7606   6.792   4.158   6.878
 2236SOL    HW1 7607   6.849   4.086   6.919
 2236SOL    HW2 7608   6.717   4.179   6.940
 2237SOL     OW 7609   6.584   2.464   4.304
 2237SOL    HW1 7610   6.610   2.517   4.223
 2237SOL    HW2 7611   6.612   2.513   4.386
 2238SOL     OW 7612   0.108   5.836   1.905
 2238SOL    HW1 7613   0.031   5.836   1.969
 2238SOL    HW2 7614   0.107   5.751   1.852
 2239SOL     OW 7615   5.487   5.468   3.023
 2239SOL    HW1 7616   5.542   5.385   3.017
 2239SOL    HW2 7617   5.523   5.537   2.960
 2240SOL     OW 7618   5.656   3.874   2.018
 2240SOL    HW1 7619   5.684   3.941   1.950
 2240SOL    HW2 7620   5.620   3.793   1.972
 2241SOL     OW 7621   0.850   6.766   2.495
 2241SOL    HW1 7622   0.854   6.821   2.578
 2241SOL    HW2 7623   0.767   6.709   2.496
 2242SOL     OW 7624   4.721   2.730   2.445
 2242SOL    HW1 7625   4.680   2.641   2.425
 2242SOL    HW2 7626   4.732   2.739   2.544
 2243SOL     OW 7627   3.101   6.100   5.708
 2243SOL    HW1 7628   3.126   6.087   5.612
 2243SOL    HW2 7629   3.031   6.033   5.733
 2244SOL     OW 7630   2.503   0.984   5.154
 2244SOL    HW1 7631   2.473   1.010   5.246
 2244SOL    HW2 7632   2.525   0.886   5.152
 2245SOL     OW 7633   0.403   1.866   2.152
 2245SOL    HW1 7634   0.473   1.852   2.222
 2245SOL    HW2 7635   0.418   1.801   2.077
 2246SOL     OW 7636   1.066   4.308   4.685
 2246SOL    HW1 7637   1.133   4.382   4.697
 2246SOL    HW2 7638   1.049   4.264   4.773
 2247SOL     OW 7639   1.792   1.651   5.679
 2247SOL    HW1 7640   1.846   1.668   5.762
 2247SOL    HW2 7641   1.713   1.713   5.678
 2248SOL     OW 7642   4.709   4.320   5.156
 2248SOL    HW1 7643   4.780   4.289   5.094
 2248SOL    HW2 7644   4.672   4.408   5.124
 2249SOL     OW 7645   4.673   5.225   4.479
 2249SOL    HW1 7646   4.649   5.190   4.570
 2249SOL    HW2 7647   4.655   5.323   4.475
 2250SOL     OW 7648   5.310   5.644   0.605
 2250SOL    HW1 7649   5.357   5.702   0.672
 2250SOL    HW2 7650   5.371   5.626   0.528
 2251SOL     OW 7651   0.070   0.529   6.374
 2251SOL    HW1 7652   6.994   0.539   6.367
 2251SOL    HW2 7653   0.111   0.620   6.382
 2252SOL     OW 7654   3.308   1.493   5.569
 2252SOL    HW1 7655   3.361   1.408   5.577
 2252SOL    HW2 7656   3.220   1.481   5.615
 2253SOL     OW 7657   1.315   2.387   5.751
 2253SOL    HW1 7658   1.406   2.357   5.779
 2253SOL    HW2 7659   1.318   2.417   5.656
 2254SOL     OW 7660   1.680   4.028   5.935
 2254SOL    HW1 7661   1.767   4.001   5.976
 2254SOL    HW2 7662   1.611   3.958   5.956
 2255SOL     OW 7663   5.511   2.562   0.968
 2255SOL    HW1 7664   5.454   2.489   0.930
 2255SOL    HW2 7665   5.595   2.522   1.005
 2256SOL     OW 7666   3.305   5.091   1.721
 2256SOL    HW1 7667   3.314   5.153   1.643
 2256SOL    HW2 7668   3.324   5.140   1.805
 2257SOL     OW 7669   2.087   3.463   3.841
 2257SOL    HW1 7670   1.995   3.437   3.869
 2257SOL    HW2 7671   2.153   3.397   3.878
 2258SOL     OW 7672   2.583   5.484   4.946
 2258SOL    HW1 7673   2.514   5.411   4.942
 2258SOL    HW2 7674   2.638   5.482   4.862
 2259SOL     OW 7675   5.881   3.523   6.298
 2259SOL    HW1 7676   5.906   3.579   6.219
 2259SOL    HW2 7677   5.936   3.549   6.377
 2260SOL     OW 7678   4.774   4.221   0.724
 2260SOL    HW1 7679   4.819   4.183   0.805
 2260SOL    HW2 7680   4.678   4.193   0.723
 2261SOL     OW 7681   4.028   6.764   5.409
 2261SOL    HW1 7682   4.108   6.728   5.457
 2261SOL    HW2 7683   3.949   6.764   5.471
 2262SOL     OW 7684   3.567   1.846   3.983
 2262SOL    HW1 7685   3.592   1.764   4.034
 2262SOL    HW2 7686   3.490   1.825   3.923
 2263SOL     OW 7687   6.906   4.053   6.231
 2263SOL    HW1 7688   6.939   3.959   6.220
 2263SOL    HW2 7689   6.917   4.082   6.326
 2264SOL     OW 7690   4.128   3.539   3.898
 2264SOL    HW1 7691   4.205   3.495   3.851
 2264SOL    HW2 7692   4.114   3.630   3.861
 2265SOL     OW 7693   0.044   0.543   2.841
 2265SOL    HW1 7694   0.022   0.446   2.827
 2265SOL    HW2 7695   0.122   0.551   2.904
 2266SOL     OW 7696   6.263   0.062   6.870
 2266SOL    HW1 7697   6.251   0.083   6.968
 2266SOL    HW2 7698   6.222   6.997   6.850
 2267SOL     OW 7699   5.158   1.045   5.390
 2267SOL    HW1 7700   5.159   1.109   5.467
 2267SOL    HW2 7701   5.229   1.070   5.324
 2268SOL     OW 7702   6.419   4.987   0.349
 2268SOL    HW1 7703   6.433   5.079   0.311
 2268SOL    HW2 7704   6.428   4.991   0.448
 2269SOL     OW 7705   0.126   5.476   4.464
 2269SOL    HW1 7706   0.101   5.500   4.558
 2269SOL    HW2 7707   0.045   5.483   4.406
 2270SOL     OW 7708   3.803   3.460   1.966
 2270SOL    HW1 7709   3.889   3.504   1.940
 2270SOL    HW2 7710   3.820   3.391   2.036
 2271SOL     OW 7711   0.008   4.277   3.122
 2271SOL    HW1 7712   6.959   4.210   3.109
 2271SOL    HW2 7713   0.070   4.247   3.194
 2272SOL     OW 7714   4.690   2.003   6.185
 2272SOL    HW1 7715   4.721   2.080   6.241
 2272SOL    HW2 7716   4.686   2.031   6.089
 2273SOL     OW 7717   0.433   1.583   3.909
 2273SOL    HW1 7718   0.452   1.632   3.994
 2273SOL    HW2 7719   0.341   1.608   3.876
 2274SOL     OW 7720   1.467   3.345   3.107
 2274SOL    HW1 7721   1.549   3.373   3.157
 2274SOL    HW2 7722   1.493   3.282   3.034
 2275SOL     OW 7723   5.086   6.886   3.679
 2275SOL    HW1 7724   5.090   6.801   3.732
 2275SOL    HW2 7725   5.125   6.871   3.588
 2276SOL     OW 7726   4.044   5.475   1.699
 2276SOL    HW1 7727   3.984   5.397   1.682
 2276SOL    HW2 7728   4.026   5.547   1.632
 2277SOL     OW 7729   3.241   3.421   0.768
 2277SOL    HW1 7730   3.260   3.380   0.857
 2277SOL    HW2 7731   3.288   3.371   0.696
 2278SOL     OW 7732   5.493   6.610   0.728
 2278SOL    HW1 7733   5.466   6.561   0.811
 2278SOL    HW2 7734   5.478   6.551   0.648
 2279SOL     OW 7735   4.859   4.647   5.145
 2279SOL    HW1 7736   4.912   4.563   5.130
 2279SOL    HW2 7737   4.886   4.716   5.078
 2280SOL     OW 7738   5.441   6.715   6.226
 2280SOL    HW1 7739   5.342   6.722   6.237
 2280SOL    HW2 7740   5.466   6.619   6.215
 2281SOL     OW 7741   2.680   2.767   0.506
 2281SOL    HW1 7742   2.603   2.779   0.569
 2281SOL    HW2 7743   2.759   2.735   0.557
 2282SOL     OW 7744   4.117   5.639   2.114
 2282SOL    HW1 7745   4.119   5.608   2.209
 2282SOL    HW2 7746   4.049   5.586   2.064
 2283SOL     OW 7747   0.044   3.762   2.448
 2283SOL    HW1 7748   0.073   3.666   2.439
 2283SOL    HW2 7749   0.005   3.776   2.539
 2284SOL     OW 7750   2.711   2.284   2.277
 2284SOL    HW1 7751   2.620   2.306   2.243
 2284SOL    HW2 7752   2.779   2.315   2.211
 2285SOL     OW 7753   1.342   3.999   6.771
 2285SOL    HW1 7754   1.252   3.987   6.812
 2285SOL    HW2 7755   1.390   3.911   6.770
 2286SOL     OW 7756   5.561   6.801   4.506
 2286SOL    HW1 7757   5.463   6.786   4.489
 2286SOL    HW2 7758   5.614   6.757   4.434
 2287SOL     OW 7759   2.111   3.034   1.665
 2287SOL    HW1 7760   2.130   2.949   1.715
 2287SOL    HW2 7761   2.182   3.101   1.686
 2288SOL     OW 7762   1.905   6.360   3.638
 2288SOL    HW1 7763   1.909   6.365   3.737
 2288SOL    HW2 7764   1.991   6.322   3.603
 2289SOL     OW 7765   4.678   1.955   0.393
 2289SOL    HW1 7766   4.618   2.035   0.398
 2289SOL    HW2 7767   4.706   1.940   0.298
 2290SOL     OW 7768   3.596   3.326   3.112
 2290SOL    HW1 7769   3.621   3.229   3.121
 2290SOL    HW2 7770   3.672   3.377   3.072
 2291SOL     OW 7771   0.817   2.571   6.789
 2291SOL    HW1 7772   0.825   2.479   6.750
 2291SOL    HW2 7773   0.751   2.624   6.736
 2292SOL     OW 7774   5.470   2.037   2.531
 2292SOL    HW1 7775   5.554   2.021   2.479
 2292SOL    HW2 7776   5.443   1.953   2.578
 2293SOL     OW 7777   0.333   0.347   0.163
 2293SOL    HW1 7778   0.380   0.276   0.214
 2293SOL    HW2 7779   0.255   0.380   0.216
 2294SOL     OW 7780   6.566   0.906   5.327
 2294SOL    HW1 7781   6.475   0.918   5.287
 2294SOL    HW2 7782   6.626   0.979   5.294
 2295SOL     OW 7783   5.802   6.277   1.223
 2295SOL    HW1 7784   5.852   6.358   1.255
 2295SOL    HW2 7785   5.709   6.303   1.199
 2296SOL     OW 7786   3.574   5.246   3.607
 2296SOL    HW1 7787   3.484   5.287   3.622
 2296SOL    HW2 7788   3.638   5.316   3.574
 2297SOL     OW 7789   4.384   3.832   5.391
 2297SOL    HW1 7790   4.415   3.741   5.364
 2297SOL    HW2 7791   4.432   3.861   5.474
 2298SOL     OW 7792   3.642   3.873   4.849
 2298SOL    HW1 7793   3.553   3.853   4.810
 2298SOL    HW2 7794   3.691   3.937   4.789
 2299SOL     OW 7795   5.988   3.151   4.894
 2299SOL    HW1 7796   6.025   3.066   4.857
 2299SOL    HW2 7797   5.896   3.167   4.859
 2300SOL     OW 7798   4.903   6.218   2.385
 2300SOL    HW1 7799   4.892   6.299   2.328
 2300SOL    HW2 7800   4.976   6.234   2.451
 2301SOL     OW 7801   3.884   3.067   4.693
 2301SOL    HW1 7802   3.841   3.025   4.773
 2301SOL    HW2 7803   3.962   3.122   4.721
 2302SOL     OW 7804   6.063   3.403   6.672
 2302SOL    HW1 7805   6.108   3.453   6.598
 2302SOL    HW2 7806   5.968   3.433   6.680
 2303SOL     OW 7807   2.798   2.211   0.074
 2303SOL    HW1 7808   2.792   2.234   0.171
 2303SOL    HW2 7809   2.871   2.144   0.060
 2304SOL     OW 7810   6.079   6.169   2.489
 2304SOL    HW1 7811   6.044   6.168   2.395
 2304SOL    HW2 7812   6.103   6.076   2.517
 2305SOL     OW 7813   3.022   0.098   4.352
 2305SOL    HW1 7814   3.033   0.074   4.255
 2305SOL    HW2 7815   3.104   0.146   4.384
 2306SOL     OW 7816   0.799   4.616   4.473
 2306SOL    HW1 7817   0.820   4.520   4.493
 2306SOL    HW2 7818   0.750   4.656   4.550
 2307SOL     OW 7819   6.490   3.224   5.887
 2307SOL    HW1 7820   6.445   3.254   5.803
 2307SOL    HW2 7821   6.553   3.148   5.866
 2308SOL     OW 7822   1.833   4.731   1.972
 2308SOL    HW1 7823   1.929   4.751   1.949
 2308SOL    HW2 7824   1.779   4.729   1.888
 2309SOL     OW 7825   1.362   0.271   5.513
 2309SOL    HW1 7826   1.361   0.188   5.570
 2309SOL    HW2 7827   1.398   0.347   5.567
 2310SOL     OW 7828   4.476   0.149   1.266
 2310SOL    HW1 7829   4.427   0.236   1.281
 2310SOL    HW2 7830   4.444   0.107   1.182
 2311SOL     OW 7831   3.082   5.300   1.195
 2311SOL    HW1 7832   2.998   5.246   1.206
 2311SOL    HW2 7833   3.060   5.397   1.203
 2312SOL     OW 7834   3.428   5.389   2.130
 2312SOL    HW1 7835   3.385   5.387   2.040
 2312SOL    HW2 7836   3.437   5.483   2.161
 2313SOL     OW 7837   5.170   6.121   1.560
 2313SOL    HW1 7838   5.091   6.117   1.622
 2313SOL    HW2 7839   5.148   6.179   1.482
 2314SOL     OW 7840   1.502   4.849   4.466
 2314SOL    HW1 7841   1.506   4.861   4.565
 2314SOL    HW2 7842   1.536   4.757   4.442
 2315SOL     OW 7843   3.907   2.818   6.427
 2315SOL    HW1 7844   3.889   2.856   6.517
 2315SOL    HW2 7845   3.914   2.719   6.433
 2316SOL     OW 7846   5.500   4.404   2.382
 2316SOL    HW1 7847   5.573   4.465   2.351
 2316SOL    HW2 7848   5.472   4.344   2.306
 2317SOL     OW 7849   0.415   5.526   3.439
 2317SOL    HW1 7850   0.490   5.533   3.373
 2317SOL    HW2 7851   0.448   5.482   3.522
 2318SOL     OW 7852   6.789   1.002   4.125
 2318SOL    HW1 7853   6.717   1.013   4.057
 2318SOL    HW2 7854   6.877   1.027   4.084
 2319SOL     OW 7855   0.690   4.640   3.144
 2319SOL    HW1 7856   0.695   4.570   3.215
 2319SOL    HW2 7857   0.677   4.730   3.188
 2320SOL     OW 7858   6.457   5.205   5.019
 2320SOL    HW1 7859   6.476   5.271   4.946
 2320SOL    HW2 7860   6.406   5.249   5.092
 2321SOL     OW 7861   3.284   5.305   5.137
 2321SOL    HW1 7862   3.264   5.233   5.070
 2321SOL    HW2 7863   3.233   5.287   5.222
 2322SOL     OW 7864   3.444   0.977   5.576
 2322SOL    HW1 7865   3.499   1.060   5.567
 2322SOL    HW2 7866   3.359   0.987   5.524
 2323SOL     OW 7867   5.174   4.438   2.019
 2323SOL    HW1 7868   5.196   4.377   1.943
 2323SOL    HW2 7869   5.252   4.498   2.038
 2324SOL     OW 7870   6.735   4.642   3.664
 2324SOL    HW1 7871   6.677   4.720   3.640
 2324SOL    HW2 7872   6.687   4.585   3.730
 2325SOL     OW 7873   6.720   2.426   0.741
 2325SOL    HW1 7874   6.686   2.335   0.721
 2325SOL    HW2 7875   6.645   2.483   0.774
 2326SOL     OW 7876   1.733   4.357   6.644
 2326SOL    HW1 7877   1.635   4.376   6.637
 2326SOL    HW2 7878   1.783   4.443   6.655
 2327SOL     OW 7879   5.803   1.724   3.859
 2327SOL    HW1 7880   5.717   1.721   3.806
 2327SOL    HW2 7881   5.876   1.759   3.800
 2328SOL     OW 7882   6.289   0.097   3.719
 2328SOL    HW1 7883   6.236   0.043   3.784
 2328SOL    HW2 7884   6.338   0.170   3.766
 2329SOL     OW 7885   6.462   5.795   3.254
 2329SOL    HW1 7886   6.433   5.878   3.302
 2329SOL    HW2 7887   6.386   5.760   3.200
 2330SOL     OW 7888   0.306   3.538   2.133
 2330SOL    HW1 7889   0.308   3.604   2.209
 2330SOL    HW2 7890   0.212   3.514   2.111
 2331SOL     OW 7891   0.607   4.678   5.651
 2331SOL    HW1 7892   0.640   4.758   5.700
 2331SOL    HW2 7893   0.682   4.639   5.597
 2332SOL     OW 7894   5.827   2.416   4.711
 2332SOL    HW1 7895   5.811   2.503   4.665
 2332SOL    HW2 7896   5.865   2.434   4.802
 2333SOL     OW 7897   2.516   4.540   3.739
 2333SOL    HW1 7898   2.572   4.591   3.804
 2333SOL    HW2 7899   2.441   4.496   3.787
 2334SOL     OW 7900   3.279   0.436   0.839
 2334SOL    HW1 7901   3.286   0.357   0.899
 2334SOL    HW2 7902   3.215   0.416   0.765
 2335SOL     OW 7903   4.433   5.262   4.250
 2335SOL    HW1 7904   4.363   5.191   4.250
 2335SOL    HW2 7905   4.494   5.250   4.328
 2336SOL     OW 7906   4.476   2.846   6.046
 2336SOL    HW1 7907   4.563   2.808   6.076
 2336SOL    HW2 7908   4.436   2.785   5.977
 2337SOL     OW 7909   5.687   0.583   3.818
 2337SOL    HW1 7910   5.716   0.578   3.723
 2337SOL    HW2 7911   5.587   0.578   3.824
 2338SOL     OW 7912   1.208   6.709   6.179
 2338SOL    HW1 7913   1.146   6.655   6.235
 2338SOL    HW2 7914   1.277   6.649   6.138
 2339SOL     OW 7915   4.020   4.589   6.158
 2339SOL    HW1 7916   3.974   4.677   6.143
 2339SOL    HW2 7917   4.033   4.575   6.256
 2340SOL     OW 7918   3.595   5.239   3.887
 2340SOL    HW1 7919   3.607   5.234   3.788
 2340SOL    HW2 7920   3.499   5.254   3.909
 2341SOL     OW 7921   6.633   5.250   6.834
 2341SOL    HW1 7922   6.635   5.258   6.734
 2341SOL    HW2 7923   6.572   5.176   6.860
 2342SOL     OW 7924   6.357   0.163   5.312
 2342SOL    HW1 7925   6.437   0.218   5.287
 2342SOL    HW2 7926   6.323   0.114   5.232
 2343SOL     OW 7927   0.988   6.798   0.396
 2343SOL    HW1 7928   0.961   6.701   0.397
 2343SOL    HW2 7929   0.924   6.849   0.339
 2344SOL     OW 7930   2.261   1.969   3.242
 2344SOL    HW1 7931   2.190   1.899   3.253
 2344SOL    HW2 7932   2.351   1.926   3.242
 2345SOL     OW 7933   1.744   1.316   3.687
 2345SOL    HW1 7934   1.732   1.414   3.700
 2345SOL    HW2 7935   1.703   1.288   3.600
 2346SOL     OW 7936   5.050   3.784   5.703
 2346SOL    HW1 7937   5.063   3.849   5.778
 2346SOL    HW2 7938   4.994   3.708   5.735
 2347SOL     OW 7939   1.159   3.354   1.024
 2347SOL    HW1 7940   1.228   3.425   1.034
 2347SOL    HW2 7941   1.082   3.389   0.971
 2348SOL     OW 7942   2.801   5.686   1.401
 2348SOL    HW1 7943   2.820   5.783   1.386
 2348SOL    HW2 7944   2.712   5.676   1.444
 2349SOL     OW 7945   4.953   4.984   6.020
 2349SOL    HW1 7946   4.955   5.060   5.955
 2349SOL    HW2 7947   4.929   4.900   5.972
 2350SOL     OW 7948   2.351   5.850   5.218
 2350SOL    HW1 7949   2.308   5.912   5.152
 2350SOL    HW2 7950   2.439   5.818   5.182
 2351SOL     OW 7951   2.225   5.773   3.463
 2351SOL    HW1 7952   2.291   5.794   3.390
 2351SOL    HW2 7953   2.273   5.732   3.540
 2352SOL     OW 7954   5.795   3.953   2.532
 2352SOL    HW1 7955   5.850   3.999   2.601
 2352SOL    HW2 7956   5.811   3.994   2.443
 2353SOL     OW 7957   3.071   3.662   5.988
 2353SOL    HW1 7958   3.098   3.746   5.943
 2353SOL    HW2 7959   3.145   3.595   5.982
 2354SOL     OW 7960   3.759   2.817   1.654
 2354SOL    HW1 7961   3.713   2.735   1.688
 2354SOL    HW2 7962   3.843   2.791   1.608
 2355SOL     OW 7963   6.568   0.404   1.189
 2355SOL    HW1 7964   6.641   0.420   1.256
 2355SOL    HW2 7965   6.563   0.306   1.168
 2356SOL     OW 7966   2.567   4.931   3.808
 2356SOL    HW1 7967   2.627   4.987   3.866
 2356SOL    HW2 7968   2.519   4.989   3.744
 2357SOL     OW 7969   6.379   4.687   0.770
 2357SOL    HW1 7970   6.479   4.680   0.765
 2357SOL    HW2 7971   6.341   4.596   0.787
 2358SOL     OW 7972   3.535   1.858   5.383
 2358SOL    HW1 7973   3.556   1.948   5.419
 2358SOL    HW2 7974   3.492   1.867   5.293
 2359SOL     OW 7975   2.227   1.451   5.558
 2359SOL    HW1 7976   2.209   1.547   5.582
 2359SOL    HW2 7977   2.311   1.421   5.603
 2360SOL     OW 7978   3.631   4.306   6.812
 2360SOL    HW1 7979   3.597   4.220   6.776
 2360SOL    HW2 7980   3.560   4.351   6.865
 2361SOL     OW 7981   4.626   5.812   1.652
 2361SOL    HW1 7982   4.722   5.785   1.648
 2361SOL    HW2 7983   4.620   5.910   1.669
 2362SOL     OW 7984   4.326   4.980   3.746
 2362SOL    HW1 7985   4.395   4.909   3.729
 2362SOL    HW2 7986   4.323   5.042   3.668
 2363SOL     OW 7987   1.794   3.942   0.384
 2363SOL    HW1 7988   1.766   3.869   0.321
 2363SOL    HW2 7989   1.818   4.024   0.332
 2364SOL     OW 7990   3.496   1.346   2.595
 2364SOL    HW1 7991   3.461   1.394   2.676
 2364SOL    HW2 7992   3.592   1.321   2.611
 2365SOL     OW 7993   5.072   4.207   3.445
 2365SOL    HW1 7994   5.164   4.189   3.480
 2365SOL    HW2 7995   5.044   4.299   3.471
 2366SOL     OW 7996   3.057   4.820   4.953
 2366SOL    HW1 7997   3.068   4.884   5.028
 2366SOL    HW2 7998   3.013   4.736   4.986
 2367SOL     OW 7999   5.776   4.953   6.194
 2367SOL    HW1 8000   5.779   4.907   6.282
 2367SOL    HW2 8001   5.770   4.885   6.121
 2368SOL     OW 8002   5.543   6.783   4.791
 2368SOL    HW1 8003   5.634   6.803   4.826
 2368SOL    HW2 8004   5.547   6.767   4.692
 2369SOL     OW 8005   2.935   1.788   4.522
 2369SOL    HW1 8006   2.866   1.839   4.573
 2369SOL    HW2 8007   3.002   1.852   4.484
 2370SOL     OW 8008   5.907   2.640   1.472
 2370SOL    HW1 8009   5.849   2.579   1.527
 2370SOL    HW2 8010   5.915   2.729   1.517
 2371SOL     OW 8011   0.038   6.178   2.647
 2371SOL    HW1 8012   0.039   6.241   2.725
 2371SOL    HW2 8013   0.027   6.084   2.679
 2372SOL     OW 8014   5.917   6.625   6.620
 2372SOL    HW1 8015   5.947   6.530   6.616
 2372SOL    HW2 8016   5.988   6.680   6.665
 2373SOL     OW 8017   6.865   5.324   6.286
 2373SOL    HW1 8018   6.808   5.361   6.359
 2373SOL    HW2 8019   6.953   5.296   6.323
 2374SOL     OW 8020   6.417   6.195   2.595
 2374SOL    HW1 8021   6.390   6.115   2.542
 2374SOL    HW2 8022   6.509   6.182   2.632
 2375SOL     OW 8023   1.495   0.120   4.251
 2375SOL    HW1 8024   1.456   0.064   4.179
 2375SOL    HW2 8025   1.569   0.176   4.214
 2376SOL     OW 8026   5.086   1.954   3.714
 2376SOL    HW1 8027   5.106   1.878   3.652
 2376SOL    HW2 8028   5.042   2.028   3.663
 2377SOL     OW 8029   4.523   4.548   6.065
 2377SOL    HW1 8030   4.512   4.647   6.066
 2377SOL    HW2 8031   4.457   4.508   6.000
 2378SOL     OW 8032   7.004   1.267   0.516
 2378SOL    HW1 8033   0.055   1.306   0.570
 2378SOL    HW2 8034   7.005   1.167   0.526
 2379SOL     OW 8035   6.571   5.381   2.004
 2379SOL    HW1 8036   6.483   5.419   1.975
 2379SOL    HW2 8037   6.645   5.438   1.970
 2380SOL     OW 8038   4.967   5.521   5.779
 2380SOL    HW1 8039   4.962   5.575   5.863
 2380SOL    HW2 8040   5.060   5.489   5.765
 2381SOL     OW 8041   2.306   4.800   4.350
 2381SOL    HW1 8042   2.250   4.739   4.406
 2381SOL    HW2 8043   2.402   4.772   4.357
 2382SOL     OW 8044   7.021   5.911   2.745
 2382SOL    HW1 8045   6.985   5.873   2.830
 2382SOL    HW2 8046   6.958   5.891   2.670
 2383SOL     OW 8047   5.687   5.056   5.764
 2383SOL    HW1 8048   5.634   5.102   5.835
 2383SOL    HW2 8049   5.708   4.962   5.793
 2384SOL     OW 8050   0.809   2.004   2.746
 2384SOL    HW1 8051   0.860   1.923   2.719
 2384SOL    HW2 8052   0.734   1.977   2.807
 2385SOL     OW 8053   0.488   1.617   0.714
 2385SOL    HW1 8054   0.402   1.577   0.683
 2385SOL    HW2 8055   0.500   1.707   0.672
 2386SOL     OW 8056   6.132   5.860   4.010
 2386SOL    HW1 8057   6.092   5.862   4.102
 2386SOL    HW2 8058   6.228   5.886   4.015
 2387SOL     OW 8059   1.521   1.251   3.874
 2387SOL    HW1 8060   1.502   1.172   3.932
 2387SOL    HW2 8061   1.592   1.227   3.808
 2388SOL     OW 8062   6.436   2.425   5.156
 2388SOL    HW1 8063   6.530   2.410   5.126
 2388SOL    HW2 8064   6.405   2.345   5.208
 2389SOL     OW 8065   4.515   4.511   3.893
 2389SOL    HW1 8066   4.560   4.438   3.843
 2389SOL    HW2 8067   4.568   4.596   3.884
 2390SOL     OW 8068   4.984   3.345   5.761
 2390SOL    HW1 8069   4.892   3.305   5.763
 2390SOL    HW2 8070   4.979   3.442   5.781
 2391SOL     OW 8071   3.115   4.233   5.849
 2391SOL    HW1 8072   3.091   4.146   5.806
 2391SOL    HW2 8073   3.053   4.252   5.925
 2392SOL     OW 8074   4.528   4.547   5.577
 2392SOL    HW1 8075   4.453   4.613   5.569
 2392SOL    HW2 8076   4.505   4.464   5.526
 2393SOL     OW 8077   4.122   4.206   1.087
 2393SOL    HW1 8078   4.027   4.205   1.056
 2393SOL    HW2 8079   4.167   4.289   1.055
 2394SOL     OW 8080   0.391   2.797   3.836
 2394SOL    HW1 8081   0.426   2.796   3.743
 2394SOL    HW2 8082   0.448   2.739   3.894
 2395SOL     OW 8083   0.635   2.663   4.705
 2395SOL    HW1 8084   0.631   2.578   4.654
 2395SOL    HW2 8085   0.724   2.706   4.691
 2396SOL     OW 8086   0.660   0.662   5.405
 2396SOL    HW1 8087   0.633   0.685   5.498
 2396SOL    HW2 8088   0.644   0.564   5.389
 2397SOL     OW 8089   0.312   3.916   5.179
 2397SOL    HW1 8090   0.297   3.854   5.102
 2397SOL    HW2 8091   0.242   3.987   5.179
 2398SOL     OW 8092   3.751   6.327   4.259
 2398SOL    HW1 8093   3.731   6.351   4.164
 2398SOL    HW2 8094   3.832   6.376   4.289
 2399SOL     OW 8095   3.082   2.179   3.776
 2399SOL    HW1 8096   3.125   2.149   3.861
 2399SOL    HW2 8097   2.993   2.220   3.796
 2400SOL     OW 8098   1.344   3.747   0.826
 2400SOL    HW1 8099   1.409   3.697   0.769
 2400SOL    HW2 8100   1.389   3.776   0.911
 2401SOL     OW 8101   2.562   0.399   5.907
 2401SOL    HW1 8102   2.518   0.454   5.978
 2401SOL    HW2 8103   2.651   0.439   5.885
 2402SOL     OW 8104   1.379   4.284   1.863
 2402SOL    HW1 8105   1.289   4.323   1.881
 2402SOL    HW2 8106   1.417   4.326   1.781
 2403SOL     OW 8107   4.070   3.100   3.092
 2403SOL    HW1 8108   4.143   3.060   3.035
 2403SOL    HW2 8109   3.982   3.059   3.066
 2404SOL     OW 8110   5.863   0.845   0.892
 2404SOL    HW1 8111   5.882   0.748   0.875
 2404SOL    HW2 8112   5.926   0.880   0.961
 2405SOL     OW 8113   2.568   3.410   0.878
 2405SOL    HW1 8114   2.502   3.471   0.923
 2405SOL    HW2 8115   2.642   3.465   0.840
 2406SOL     OW 8116   3.236   6.504   4.763
 2406SOL    HW1 8117   3.204   6.545   4.848
 2406SOL    HW2 8118   3.294   6.425   4.784
 2407SOL     OW 8119   2.464   0.957   3.553
 2407SOL    HW1 8120   2.535   0.953   3.484
 2407SOL    HW2 8121   2.379   0.919   3.516
 2408SOL     OW 8122   3.855   5.979   5.010
 2408SOL    HW1 8123   3.939   6.015   4.971
 2408SOL    HW2 8124   3.871   5.955   5.106
 2409SOL     OW 8125   1.411   3.309   0.682
 2409SOL    HW1 8126   1.330   3.356   0.646
 2409SOL    HW2 8127   1.383   3.239   0.748
 2410SOL     OW 8128   0.808   3.079   4.627
 2410SOL    HW1 8129   0.846   3.042   4.712
 2410SOL    HW2 8130   0.880   3.082   4.557
 2411SOL     OW 8131   2.902   3.051   0.031
 2411SOL    HW1 8132   2.965   3.129   0.038
 2411SOL    HW2 8133   2.920   3.000   6.971
 2412SOL     OW 8134   3.767   1.932   6.493
 2412SOL    HW1 8135   3.684   1.987   6.495
 2412SOL    HW2 8136   3.844   1.986   6.527
 2413SOL     OW 8137   0.441   3.328   0.002
 2413SOL    HW1 8138   0.479   3.396   0.064
 2413SOL    HW2 8139   0.483   3.338   6.935
 2414SOL     OW 8140   5.861   2.111   4.880
 2414SOL    HW1 8141   5.865   2.175   4.957
 2414SOL    HW2 8142   5.892   2.157   4.796
 2415SOL     OW 8143   2.681   5.723   0.327
 2415SOL    HW1 8144   2.725   5.670   0.255
 2415SOL    HW2 8145   2.749   5.751   0.395
 2416SOL     OW 8146   0.381   3.506   2.511
 2416SOL    HW1 8147   0.394   3.581   2.445
 2416SOL    HW2 8148   0.457   3.442   2.504
 2417SOL     OW 8149   3.055   2.645   1.752
 2417SOL    HW1 8150   3.025   2.601   1.667
 2417SOL    HW2 8151   3.039   2.582   1.828
 2418SOL     OW 8152   4.638   4.199   6.925
 2418SOL    HW1 8153   4.553   4.186   6.873
 2418SOL    HW2 8154   4.686   4.112   6.933
 2419SOL     OW 8155   2.657   6.759   3.379
 2419SOL    HW1 8156   2.644   6.790   3.474
 2419SOL    HW2 8157   2.728   6.689   3.377
 2420SOL     OW 8158   1.174   4.104   2.862
 2420SOL    HW1 8159   1.273   4.111   2.875
 2420SOL    HW2 8160   1.141   4.185   2.814
 2421SOL     OW 8161   2.782   6.430   4.573
 2421SOL    HW1 8162   2.748   6.382   4.654
 2421SOL    HW2 8163   2.846   6.501   4.601
 2422SOL     OW 8164   4.666   5.630   1.189
 2422SOL    HW1 8165   4.567   5.642   1.180
 2422SOL    HW2 8166   4.710   5.720   1.190
 2423SOL     OW 8167   2.600   5.612   2.731
 2423SOL    HW1 8168   2.588   5.571   2.641
 2423SOL    HW2 8169   2.599   5.540   2.801
 2424SOL     OW 8170   5.768   0.121   6.134
 2424SOL    HW1 8171   5.748   0.088   6.042
 2424SOL    HW2 8172   5.686   0.165   6.171
 2425SOL     OW 8173   5.259   5.791   4.661
 2425SOL    HW1 8174   5.243   5.882   4.622
 2425SOL    HW2 8175   5.235   5.792   4.758
 2426SOL     OW 8176   2.211   3.436   5.602
 2426SOL    HW1 8177   2.226   3.385   5.687
 2426SOL    HW2 8178   2.291   3.426   5.543
 2427SOL     OW 8179   5.267   0.745   6.886
 2427SOL    HW1 8180   5.304   0.654   6.902
 2427SOL    HW2 8181   5.337   0.813   6.904
 2428SOL     OW 8182   1.326   0.772   3.076
 2428SOL    HW1 8183   1.297   0.852   3.129
 2428SOL    HW2 8184   1.415   0.790   3.034
 2429SOL     OW 8185   5.611   5.190   1.623
 2429SOL    HW1 8186   5.626   5.144   1.711
 2429SOL    HW2 8187   5.532   5.150   1.577
 2430SOL     OW 8188   5.932   1.179   6.452
 2430SOL    HW1 8189   5.906   1.273   6.476
 2430SOL    HW2 8190   5.954   1.128   6.535
 2431SOL     OW 8191   0.519   3.040   1.786
 2431SOL    HW1 8192   0.575   2.976   1.839
 2431SOL    HW2 8193   0.431   2.998   1.765
 2432SOL     OW 8194   2.788   5.399   2.277
 2432SOL    HW1 8195   2.766   5.322   2.217
 2432SOL    HW2 8196   2.887   5.407   2.287
 2433SOL     OW 8197   6.304   3.892   5.727
 2433SOL    HW1 8198   6.382   3.887   5.664
 2433SOL    HW2 8199   6.307   3.979   5.776
 2434SOL     OW 8200   4.594   0.617   2.787
 2434SOL    HW1 8201   4.496   0.634   2.784
 2434SOL    HW2 8202   4.641   0.683   2.727
 2435SOL     OW 8203   6.557   6.691   6.780
 2435SOL    HW1 8204   6.472   6.688   6.728
 2435SOL    HW2 8205   6.559   6.775   6.835
 2436SOL     OW 8206   2.050   2.357   1.787
 2436SOL    HW1 8207   1.978   2.401   1.733
 2436SOL    HW2 8208   2.072   2.268   1.746
 2437SOL     OW 8209   7.014   4.294   2.723
 2437SOL    HW1 8210   0.085   4.292   2.691
 2437SOL    HW2 8211   7.004   4.366   2.792
 2438SOL     OW 8212   3.337   1.188   4.792
 2438SOL    HW1 8213   3.395   1.269   4.803
 2438SOL    HW2 8214   3.270   1.206   4.720
 2439SOL     OW 8215   1.587   6.881   1.493
 2439SOL    HW1 8216   1.525   6.805   1.474
 2439SOL    HW2 8217   1.668   6.847   1.542
 2440SOL     OW 8218   5.402   1.096   5.227
 2440SOL    HW1 8219   5.466   1.061   5.296
 2440SOL    HW2 8220   5.429   1.062   5.137
 2441SOL     OW 8221   6.487   6.947   0.248
 2441SOL    HW1 8222   6.535   6.889   0.182
 2441SOL    HW2 8223   6.552   6.983   0.315
 2442SOL     OW 8224   4.870   3.389   1.766
 2442SOL    HW1 8225   4.797   3.337   1.723
 2442SOL    HW2 8226   4.908   3.336   1.842
 2443SOL     OW 8227   0.902   2.714   1.617
 2443SOL    HW1 8228   0.929   2.769   1.695
 2443SOL    HW2 8229   0.933   2.758   1.532
 2444SOL     OW 8230   3.924   5.534   1.961
 2444SOL    HW1 8231   3.853   5.603   1.951
 2444SOL    HW2 8232   3.962   5.511   1.872
 2445SOL     OW 8233   0.096   2.443   1.310
 2445SOL    HW1 8234   0.079   2.508   1.236
 2445SOL    HW2 8235   0.082   2.350   1.278
 2446SOL     OW 8236   1.367   4.854   1.233
 2446SOL    HW1 8237   1.451   4.887   1.191
 2446SOL    HW2 8238   1.371   4.869   1.332
 2447SOL     OW 8239   2.519   6.717   0.056
 2447SOL    HW1 8240   2.481   6.806   0.082
 2447SOL    HW2 8241   2.505   6.652   0.131
 2448SOL     OW 8242   6.612   1.465   4.269
 2448SOL    HW1 8243   6.691   1.523   4.288
 2448SOL    HW2 8244   6.582   1.480   4.174
 2449SOL     OW 8245   1.520   3.948   1.593
 2449SOL    HW1 8246   1.594   3.985   1.649
 2449SOL    HW2 8247   1.440   3.931   1.651
 2450SOL     OW 8248   1.365   6.874   5.858
 2450SOL    HW1 8249   1.277   6.839   5.889
 2450SOL    HW2 8250   1.389   6.955   5.911
 2451SOL     OW 8251   0.945   0.103   4.638
 2451SOL    HW1 8252   0.871   0.037   4.648
 2451SOL    HW2 8253   0.983   0.124   4.728
 2452SOL     OW 8254   2.553   1.924   3.942
 2452SOL    HW1 8255   2.492   1.916   4.022
 2452SOL    HW2 8256   2.648   1.931   3.973
 2453SOL     OW 8257   0.808   1.146   6.508
 2453SOL    HW1 8258   0.844   1.054   6.494
 2453SOL    HW2 8259   0.835   1.179   6.598
 2454SOL     OW 8260   3.286   5.896   1.365
 2454SOL    HW1 8261   3.344   5.925   1.441
 2454SOL    HW2 8262   3.217   5.966   1.348
 2455SOL     OW 8263   3.920   2.888   0.581
 2455SOL    HW1 8264   3.982   2.848   0.648
 2455SOL    HW2 8265   3.856   2.949   0.627
 2456SOL     OW 8266   0.886   4.212   6.256
 2456SOL    HW1 8267   0.978   4.178   6.235
 2456SOL    HW2 8268   0.874   4.302   6.214
 2457SOL     OW 8269   4.650   2.259   4.961
 2457SOL    HW1 8270   4.590   2.334   4.934
 2457SOL    HW2 8271   4.649   2.250   5.060
 2458SOL     OW 8272   1.251   0.767   1.785
 2458SOL    HW1 8273   1.293   0.689   1.832
 2458SOL    HW2 8274   1.297   0.851   1.813
 2459SOL     OW 8275   2.648   6.586   0.827
 2459SOL    HW1 8276   2.690   6.651   0.889
 2459SOL    HW2 8277   2.581   6.633   0.769
 2460SOL     OW 8278   1.626   0.825   4.771
 2460SOL    HW1 8279   1.548   0.884   4.793
 2460SOL    HW2 8280   1.696   0.834   4.842
 2461SOL     OW 8281   4.306   0.799   3.455
 2461SOL    HW1 8282   4.238   0.777   3.525
 2461SOL    HW2 8283   4.296   0.894   3.426
 2462SOL     OW 8284   0.088   3.865   0.849
 2462SOL    HW1 8285   0.181   3.850   0.883
 2462SOL    HW2 8286   0.025   3.804   0.897
 2463SOL     OW 8287   6.766   0.950   6.749
 2463SOL    HW1 8288   6.767   0.875   6.682
 2463SOL    HW2 8289   6.674   0.957   6.789
 2464SOL     OW 8290   0.580   2.437   3.271
 2464SOL    HW1 8291   0.505   2.485   3.224
 2464SOL    HW2 8292   0.664   2.447   3.218
 2465SOL     OW 8293   0.444   5.605   5.540
 2465SOL    HW1 8294   0.544   5.603   5.541
 2465SOL    HW2 8295   0.412   5.655   5.460
 2466SOL     OW 8296   0.933   2.522   1.968
 2466SOL    HW1 8297   0.966   2.453   1.903
 2466SOL    HW2 8298   0.835   2.509   1.984
 2467SOL     OW 8299   5.764   2.116   5.358
 2467SOL    HW1 8300   5.833   2.065   5.307
 2467SOL    HW2 8301   5.686   2.135   5.298
 2468SOL     OW 8302   3.152   6.735   5.493
 2468SOL    HW1 8303   3.248   6.761   5.490
 2468SOL    HW2 8304   3.130   6.703   5.586
 2469SOL     OW 8305   3.416   2.420   5.810
 2469SOL    HW1 8306   3.401   2.489   5.880
 2469SOL    HW2 8307   3.333   2.365   5.798
 2470SOL     OW 8308   3.013   4.701   6.190
 2470SOL    HW1 8309   2.916   4.712   6.167
 2470SOL    HW2 8310   3.032   4.606   6.212
 2471SOL     OW 8311   3.725   5.730   1.976
 2471SOL    HW1 8312   3.679   5.663   1.918
 2471SOL    HW2 8313   3.754   5.808   1.920
 2472SOL     OW 8314   4.690   1.781   4.377
 2472SOL    HW1 8315   4.648   1.728   4.450
 2472SOL    HW2 8316   4.788   1.763   4.375
 2473SOL     OW 8317   0.467   4.326   5.175
 2473SOL    HW1 8318   0.549   4.383   5.173
 2473SOL    HW2 8319   0.454   4.289   5.267
 2474SOL     OW 8320   1.702   5.461   1.664
 2474SOL    HW1 8321   1.621   5.517   1.685
 2474SOL    HW2 8322   1.780   5.494   1.716
 2475SOL     OW 8323   4.934   0.439   0.793
 2475SOL    HW1 8324   4.983   0.444   0.706
 2475SOL    HW2 8325   4.859   0.506   0.793
 2476SOL     OW 8326   5.902   0.610   6.925
 2476SOL    HW1 8327   5.890   0.672   7.003
 2476SOL    HW2 8328   5.847   0.528   6.939
 2477SOL     OW 8329   3.328   0.036   3.330
 2477SOL    HW1 8330   3.255   0.026   3.261
 2477SOL    HW2 8331   3.297   0.100   3.401
 2478SOL     OW 8332   4.497   0.809   3.203
 2478SOL    HW1 8333   4.536   0.899   3.217
 2478SOL    HW2 8334   4.505   0.755   3.287
 2479SOL     OW 8335   0.422   3.915   0.372
 2479SOL    HW1 8336   0.387   3.975   0.300
 2479SOL    HW2 8337   0.509   3.875   0.343
 2480SOL     OW 8338   3.362   2.621   1.397
 2480SOL    HW1 8339   3.458   2.621   1.370
 2480SOL    HW2 8340   3.354   2.592   1.492
 2481SOL     OW 8341   3.261   0.238   1.000
 2481SOL    HW1 8342   3.168   0.265   1.023
 2481SOL    HW2 8343   3.319   0.246   1.082
 2482SOL     OW 8344   5.481   3.451   0.082
 2482SOL    HW1 8345   5.533   3.424   0.162
 2482SOL    HW2 8346   5.509   3.396   0.003
 2483SOL     OW 8347   0.750   2.046   0.997
 2483SOL    HW1 8348   0.706   1.956   0.997
 2483SOL    HW2 8349   0.685   2.115   1.028
 2484SOL     OW 8350   5.434   1.390   1.627
 2484SOL    HW1 8351   5.463   1.480   1.661
 2484SOL    HW2 8352   5.468   1.377   1.535
 2485SOL     OW 8353   5.317   2.692   6.343
 2485SOL    HW1 8354   5.352   2.759   6.409
 2485SOL    HW2 8355   5.283   2.612   6.393
 2486SOL     OW 8356   0.739   3.909   5.364
 2486SOL    HW1 8357   0.656   3.853   5.366
 2486SOL    HW2 8358   0.807   3.867   5.303
 2487SOL     OW 8359   4.495   6.006   0.458
 2487SOL    HW1 8360   4.442   6.017   0.374
 2487SOL    HW2 8361   4.445   5.947   0.521
 2488SOL     OW 8362   6.796   3.960   1.669
 2488SOL    HW1 8363   6.846   3.932   1.750
 2488SOL    HW2 8364   6.751   4.048   1.685
 2489SOL     OW 8365   0.525   6.165   4.449
 2489SOL    HW1 8366   0.432   6.146   4.479
 2489SOL    HW2 8367   0.540   6.123   4.359
 2490SOL     OW 8368   3.178   6.307   2.076
 2490SOL    HW1 8369   3.243   6.383   2.069
 2490SOL    HW2 8370   3.185   6.250   1.994
 2491SOL     OW 8371   4.164   4.536   1.702
 2491SOL    HW1 8372   4.256   4.505   1.682
 2491SOL    HW2 8373   4.099   4.460   1.688
 2492SOL     OW 8374   6.229   4.091   1.183
 2492SOL    HW1 8375   6.327   4.101   1.162
 2492SOL    HW2 8376   6.206   3.994   1.184
 2493SOL     OW 8377   6.781   6.453   1.556
 2493SOL    HW1 8378   6.761   6.512   1.635
 2493SOL    HW2 8379   6.752   6.498   1.472
 2494SOL     OW 8380   5.960   2.871   1.593
 2494SOL    HW1 8381   5.880   2.863   1.653
 2494SOL    HW2 8382   5.962   2.962   1.552
 2495SOL     OW 8383   6.679   5.154   3.668
 2495SOL    HW1 8384   6.590   5.193   3.647
 2495SOL    HW2 8385   6.750   5.201   3.615
 2496SOL     OW 8386   6.559   5.117   6.348
 2496SOL    HW1 8387   6.617   5.100   6.427
 2496SOL    HW2 8388   6.581   5.051   6.276
 2497SOL     OW 8389   0.108   6.874   2.064
 2497SOL    HW1 8390   0.097   6.913   1.972
 2497SOL    HW2 8391   0.147   6.943   2.125
 2498SOL     OW 8392   2.206   2.652   5.648
 2498SOL    HW1 8393   2.277   2.722   5.647
 2498SOL    HW2 8394   2.118   2.693   5.671
 2499SOL     OW 8395   6.512   3.419   1.153
 2499SOL    HW1 8396   6.524   3.337   1.210
 2499SOL    HW2 8397   6.474   3.493   1.208
 2500SOL     OW 8398   3.071   4.039   6.705
 2500SOL    HW1 8399   3.093   4.108   6.773
 2500SOL    HW2 8400   3.023   4.082   6.628
 2501SOL     OW 8401   6.037   5.343   0.317
 2501SOL    HW1 8402   6.057   5.247   0.299
 2501SOL    HW2 8403   5.992   5.351   0.406
 2502SOL     OW 8404   3.012   5.531   4.123
 2502SOL    HW1 8405   2.954   5.568   4.050
 2502SOL    HW2 8406   3.103   5.514   4.087
 2503SOL     OW 8407   2.694   6.987   5.054
 2503SOL    HW1 8408   2.685   6.888   5.059
 2503SOL    HW2 8409   2.783   7.014   5.090
 2504SOL     OW 8410   3.083   5.362   2.337
 2504SOL    HW1 8411   3.106   5.438   2.278
 2504SOL    HW2 8412   3.166   5.325   2.379
 2505SOL     OW 8413   6.684   6.167   2.734
 2505SOL    HW1 8414   6.698   6.182   2.832
 2505SOL    HW2 8415   6.681   6.069   2.715
 2506SOL     OW 8416   5.887   4.868   5.615
 2506SOL    HW1 8417   5.829   4.918   5.551
 2506SOL    HW2 8418   5.937   4.932   5.673
 2507SOL     OW 8419   0.203   3.104   0.639
 2507SOL    HW1 8420   0.138   3.169   0.677
 2507SOL    HW2 8421   0.154   3.032   0.590
 2508SOL     OW 8422   3.722   1.600   4.603
 2508SOL    HW1 8423   3.712   1.502   4.622
 2508SOL    HW2 8424   3.735   1.614   4.505
 2509SOL     OW 8425   6.719   3.668   6.183
 2509SOL    HW1 8426   6.653   3.620   6.125
 2509SOL    HW2 8427   6.675   3.689   6.271
 2510SOL     OW 8428   3.203   4.104   1.770
 2510SOL    HW1 8429   3.130   4.157   1.726
 2510SOL    HW2 8430   3.195   4.114   1.869
 2511SOL     OW 8431   2.672   0.744   4.849
 2511SOL    HW1 8432   2.715   0.788   4.771
 2511SOL    HW2 8433   2.573   0.761   4.847
 2512SOL     OW 8434   3.778   4.947   4.972
 2512SOL    HW1 8435   3.864   4.924   4.927
 2512SOL    HW2 8436   3.703   4.940   4.907
 2513SOL     OW 8437   2.247   6.224   6.137
 2513SOL    HW1 8438   2.342   6.222   6.171
 2513SOL    HW2 8439   2.185   6.237   6.215
 2514SOL     OW 8440   1.146   2.959   3.250
 2514SOL    HW1 8441   1.055   2.971   3.289
 2514SOL    HW2 8442   1.144   2.886   3.182
 2515SOL     OW 8443   2.237   1.272   1.147
 2515SOL    HW1 8444   2.171   1.256   1.220
 2515SOL    HW2 8445   2.276   1.185   1.118
 2516SOL     OW 8446   5.637   1.649   3.295
 2516SOL    HW1 8447   5.642   1.748   3.293
 2516SOL    HW2 8448   5.670   1.611   3.209
 2517SOL     OW 8449   1.081   0.783   4.650
 2517SOL    HW1 8450   1.041   0.797   4.741
 2517SOL    HW2 8451   1.014   0.810   4.580
 2518SOL     OW 8452   2.774   4.932   1.324
 2518SOL    HW1 8453   2.778   4.834   1.344
 2518SOL    HW2 8454   2.718   4.977   1.393
 2519SOL     OW 8455   2.441   1.471   1.098
 2519SOL    HW1 8456   2.388   1.394   1.133
 2519SOL    HW2 8457   2.493   1.513   1.172
 2520SOL     OW 8458   3.223   2.644   1.183
 2520SOL    HW1 8459   3.157   2.717   1.200
 2520SOL    HW2 8460   3.264   2.615   1.269
 2521SOL     OW 8461   4.047   1.505   5.114
 2521SOL    HW1 8462   4.115   1.574   5.140
 2521SOL    HW2 8463   4.091   1.416   5.106
 2522SOL     OW 8464   0.957   1.410   5.454
 2522SOL    HW1 8465   0.988   1.403   5.549
 2522SOL    HW2 8466   0.857   1.411   5.451
 2523SOL     OW 8467   1.754   4.527   0.052
 2523SOL    HW1 8468   1.768   4.437   0.011
 2523SOL    HW2 8469   1.771   4.522   0.151
 2524SOL     OW 8470   1.603   6.734   4.323
 2524SOL    HW1 8471   1.532   6.690   4.268
 2524SOL    HW2 8472   1.563   6.768   4.408
 2525SOL     OW 8473   0.868   2.589   4.360
 2525SOL    HW1 8474   0.816   2.504   4.367
 2525SOL    HW2 8475   0.962   2.574   4.392
 2526SOL     OW 8476   1.212   5.283   6.737
 2526SOL    HW1 8477   1.192   5.366   6.789
 2526SOL    HW2 8478   1.309   5.260   6.748
 2527SOL     OW 8479   5.268   5.572   6.049
 2527SOL    HW1 8480   5.170   5.567   6.067
 2527SOL    HW2 8481   5.315   5.607   6.130
 2528SOL     OW 8482   5.194   5.405   5.820
 2528SOL    HW1 8483   5.247   5.396   5.735
 2528SOL    HW2 8484   5.255   5.401   5.898
 2529SOL     OW 8485   0.526   6.750   6.149
 2529SOL    HW1 8486   0.456   6.737   6.219
 2529SOL    HW2 8487   0.494   6.816   6.081
 2530SOL     OW 8488   2.789   5.553   5.364
 2530SOL    HW1 8489   2.886   5.528   5.368
 2530SOL    HW2 8490   2.749   5.548   5.456
 2531SOL     OW 8491   6.519   5.533   5.843
 2531SOL    HW1 8492   6.616   5.521   5.864
 2531SOL    HW2 8493   6.503   5.516   5.746
 2532SOL     OW 8494   0.948   6.270   0.954
 2532SOL    HW1 8495   0.942   6.211   1.035
 2532SOL    HW2 8496   1.044   6.281   0.928
 2533SOL     OW 8497   5.169   0.925   3.520
 2533SOL    HW1 8498   5.148   0.965   3.431
 2533SOL    HW2 8499   5.124   0.836   3.528
 2534SOL     OW 8500   4.654   1.788   1.942
 2534SOL    HW1 8501   4.646   1.834   2.030
 2534SOL    HW2 8502   4.601   1.839   1.873
 2535SOL     OW 8503   3.366   2.775   6.344
 2535SOL    HW1 8504   3.403   2.849   6.400
 2535SOL    HW2 8505   3.441   2.717   6.312
 2536SOL     OW 8506   1.881   0.655   6.654
 2536SOL    HW1 8507   1.954   0.701   6.603
 2536SOL    HW2 8508   1.907   0.560   6.670
 2537SOL     OW 8509   4.338   0.863   0.064
 2537SOL    HW1 8510   4.272   0.928   0.101
 2537SOL    HW2 8511   4.429   0.904   0.065
 2538SOL     OW 8512   6.951   3.629   3.868
 2538SOL    HW1 8513   6.919   3.720   3.842
 2538SOL    HW2 8514   6.951   3.569   3.788
 2539SOL     OW 8515   5.931   1.164   4.279
 2539SOL    HW1 8516   5.910   1.068   4.294
 2539SOL    HW2 8517   6.023   1.184   4.312
 2540SOL     OW 8518   3.582   1.712   2.994
 2540SOL    HW1 8519   3.585   1.802   3.038
 2540SOL    HW2 8520   3.570   1.641   3.064
 2541SOL     OW 8521   2.944   0.025   5.127
 2541SOL    HW1 8522   3.006   6.982   5.086
 2541SOL    HW2 8523   2.973   0.045   5.221
 2542SOL     OW 8524   1.487   4.407   6.575
 2542SOL    HW1 8525   1.411   4.353   6.612
 2542SOL    HW2 8526   1.508   4.375   6.483
 2543SOL     OW 8527   1.081   2.295   4.292
 2543SOL    HW1 8528   1.164   2.333   4.332
 2543SOL    HW2 8529   1.008   2.293   4.361
 2544SOL     OW 8530   1.093   5.074   0.743
 2544SOL    HW1 8531   1.184   5.072   0.703
 2544SOL    HW2 8532   1.044   4.990   0.717
 2545SOL     OW 8533   1.655   6.653   2.674
 2545SOL    HW1 8534   1.619   6.570   2.717
 2545SOL    HW2 8535   1.662   6.639   2.575
 2546SOL     OW 8536   5.956   0.980   0.589
 2546SOL    HW1 8537   5.955   1.035   0.506
 2546SOL    HW2 8538   5.911   1.030   0.663
 2547SOL     OW 8539   6.997   3.628   5.949
 2547SOL    HW1 8540   6.991   3.540   5.997
 2547SOL    HW2 8541   6.970   3.616   5.854
 2548SOL     OW 8542   0.644   6.416   4.276
 2548SOL    HW1 8543   0.603   6.359   4.206
 2548SOL    HW2 8544   0.609   6.390   4.366
 2549SOL     OW 8545   0.607   0.098   1.849
 2549SOL    HW1 8546   0.647   0.175   1.899
 2549SOL    HW2 8547   0.513   0.083   1.880
 2550SOL     OW 8548   5.840   6.511   0.631
 2550SOL    HW1 8549   5.748   6.487   0.599
 2550SOL    HW2 8550   5.883   6.573   0.566
 2551SOL     OW 8551   2.106   4.234   6.627
 2551SOL    HW1 8552   2.194   4.187   6.633
 2551SOL    HW2 8553   2.121   4.333   6.629
 2552SOL     OW 8554   3.056   4.895   3.795
 2552SOL    HW1 8555   3.009   4.827   3.851
 2552SOL    HW2 8556   3.154   4.892   3.814
 2553SOL     OW 8557   4.009   3.907   6.281
 2553SOL    HW1 8558   3.968   3.831   6.331
 2553SOL    HW2 8559   4.081   3.874   6.221
 2554SOL     OW 8560   1.707   1.530   0.791
 2554SOL    HW1 8561   1.696   1.623   0.756
 2554SOL    HW2 8562   1.655   1.466   0.734
 2555SOL     OW 8563   5.221   3.044   4.966
 2555SOL    HW1 8564   5.276   3.032   4.883
 2555SOL    HW2 8565   5.277   3.020   5.046
 2556SOL     OW 8566   4.008   5.929   0.627
 2556SOL    HW1 8567   3.955   5.923   0.543
 2556SOL    HW2 8568   3.948   5.919   0.706
 2557SOL     OW 8569   1.708   4.046   6.520
 2557SOL    HW1 8570   1.717   4.097   6.434
 2557SOL    HW2 8571   1.739   4.103   6.596
 2558SOL     OW 8572   5.052   1.238   5.830
 2558SOL    HW1 8573   5.136   1.285   5.859
 2558SOL    HW2 8574   5.076   1.153   5.785
 2559SOL     OW 8575   0.422   4.950   5.549
 2559SOL    HW1 8576   0.378   5.022   5.496
 2559SOL    HW2 8577   0.359   4.874   5.562
 2560SOL     OW 8578   5.908   2.137   6.008
 2560SOL    HW1 8579   5.886   2.189   6.091
 2560SOL    HW2 8580   5.897   2.039   6.027
 2561SOL     OW 8581   3.259   5.162   4.849
 2561SOL    HW1 8582   3.251   5.185   4.752
 2561SOL    HW2 8583   3.356   5.153   4.873
 2562SOL     OW 8584   2.087   3.847   0.372
 2562SOL    HW1 8585   1.996   3.870   0.406
 2562SOL    HW2 8586   2.127   3.926   0.326
 2563SOL     OW 8587   2.907   0.895   0.082
 2563SOL    HW1 8588   2.897   0.995   0.080
 2563SOL    HW2 8589   2.858   0.855   0.004
 2564SOL     OW 8590   2.410   5.308   1.012
 2564SOL    HW1 8591   2.316   5.284   1.039
 2564SOL    HW2 8592   2.409   5.345   0.919
 2565SOL     OW 8593   1.364   0.777   1.201
 2565SOL    HW1 8594   1.414   0.690   1.210
 2565SOL    HW2 8595   1.429   0.852   1.200
 2566SOL     OW 8596   2.203   6.624   0.217
 2566SOL    HW1 8597   2.212   6.648   0.120
 2566SOL    HW2 8598   2.119   6.572   0.231
 2567SOL     OW 8599   1.857   6.830   0.477
 2567SOL    HW1 8600   1.926   6.796   0.541
 2567SOL    HW2 8601   1.800   6.754   0.446
 2568SOL     OW 8602   4.485   1.884   6.934
 2568SOL    HW1 8603   4.449   1.961   6.881
 2568SOL    HW2 8604   4.410   1.829   6.970
 2569SOL     OW 8605   3.709   0.559   3.783
 2569SOL    HW1 8606   3.676   0.465   3.768
 2569SOL    HW2 8607   3.670   0.594   3.868
 2570SOL     OW 8608   5.597   1.539   5.426
 2570SOL    HW1 8609   5.591   1.553   5.327
 2570SOL    HW2 8610   5.693   1.544   5.455
 2571SOL     OW 8611   1.240   4.936   3.789
 2571SOL    HW1 8612   1.263   4.934   3.691
 2571SOL    HW2 8613   1.179   4.860   3.810
 2572SOL     OW 8614   3.124   5.031   2.627
 2572SOL    HW1 8615   3.148   5.118   2.670
 2572SOL    HW2 8616   3.026   5.014   2.639
 2573SOL     OW 8617   0.124   1.163   1.455
 2573SOL    HW1 8618   0.144   1.093   1.387
 2573SOL    HW2 8619   0.121   1.122   1.546
 2574SOL     OW 8620   6.199   3.456   0.657
 2574SOL    HW1 8621   6.242   3.366   0.669
 2574SOL    HW2 8622   6.179   3.495   0.747
 2575SOL     OW 8623   6.696   5.919   0.042
 2575SOL    HW1 8624   6.694   5.993   6.999
 2575SOL    HW2 8625   6.685   5.956   0.134
 2576SOL     OW 8626   4.950   6.259   3.778
 2576SOL    HW1 8627   4.929   6.210   3.694
 2576SOL    HW2 8628   4.990   6.196   3.844
 2577SOL     OW 8629   2.905   4.921   2.338
 2577SOL    HW1 8630   2.911   4.847   2.271
 2577SOL    HW2 8631   2.915   5.009   2.290
 2578SOL     OW 8632   3.702   1.495   4.306
 2578SOL    HW1 8633   3.675   1.404   4.336
 2578SOL    HW2 8634   3.800   1.496   4.285
 2579SOL     OW 8635   0.961   6.936   3.710
 2579SOL    HW1 8636   0.969   6.914   3.807
 2579SOL    HW2 8637   0.941   6.853   3.658
 2580SOL     OW 8638   2.621   3.393   0.417
 2580SOL    HW1 8639   2.690   3.341   0.466
 2580SOL    HW2 8640   2.648   3.489   0.412
 2581SOL     OW 8641   2.849   6.799   5.677
 2581SOL    HW1 8642   2.835   6.874   5.742
 2581SOL    HW2 8643   2.917   6.735   5.713
 2582SOL     OW 8644   6.648   3.505   1.449
 2582SOL    HW1 8645   6.577   3.519   1.518
 2582SOL    HW2 8646   6.647   3.410   1.418
 2583SOL     OW 8647   6.102   6.582   0.753
 2583SOL    HW1 8648   6.157   6.533   0.820
 2583SOL    HW2 8649   6.021   6.529   0.731
 2584SOL     OW 8650   4.593   4.858   5.826
 2584SOL    HW1 8651   4.572   4.867   5.923
 2584SOL    HW2 8652   4.653   4.779   5.813
 2585SOL     OW 8653   3.327   5.419   6.519
 2585SOL    HW1 8654   3.237   5.460   6.509
 2585SOL    HW2 8655   3.365   5.442   6.609
 2586SOL     OW 8656   1.997   0.438   5.357
 2586SOL    HW1 8657   1.965   0.448   5.451
 2586SOL    HW2 8658   1.929   0.389   5.303
 2587SOL     OW 8659   0.339   1.814   2.685
 2587SOL    HW1 8660   0.256   1.816   2.740
 2587SOL    HW2 8661   0.314   1.817   2.588
 2588SOL     OW 8662   4.101   1.873   5.023
 2588SOL    HW1 8663   4.117   1.966   4.989
 2588SOL    HW2 8664   4.093   1.810   4.945
 2589SOL     OW 8665   1.282   6.625   6.943
 2589SOL    HW1 8666   1.339   6.701   6.913
 2589SOL    HW2 8667   1.265   6.563   6.865
 2590SOL     OW 8668   2.756   4.982   6.832
 2590SOL    HW1 8669   2.701   5.028   6.763
 2590SOL    HW2 8670   2.772   4.887   6.804
 2591SOL     OW 8671   6.190   5.615   4.213
 2591SOL    HW1 8672   6.285   5.612   4.244
 2591SOL    HW2 8673   6.156   5.708   4.218
 2592SOL     OW 8674   2.799   4.500   6.466
 2592SOL    HW1 8675   2.723   4.445   6.500
 2592SOL    HW2 8676   2.779   4.597   6.479
 2593SOL     OW 8677   2.845   5.333   0.376
 2593SOL    HW1 8678   2.902   5.256   0.351
 2593SOL    HW2 8679   2.816   5.382   0.294
 2594SOL     OW 8680   1.562   4.571   4.476
 2594SOL    HW1 8681   1.579   4.555   4.573
 2594SOL    HW2 8682   1.641   4.541   4.423
 2595SOL     OW 8683   1.997   0.856   4.099
 2595SOL    HW1 8684   2.076   0.856   4.037
 2595SOL    HW2 8685   2.012   0.921   4.173
 2596SOL     OW 8686   1.035   2.284   0.643
 2596SOL    HW1 8687   1.066   2.366   0.595
 2596SOL    HW2 8688   1.059   2.290   0.739
 2597SOL     OW 8689   0.693   6.389   6.374
 2597SOL    HW1 8690   0.679   6.292   6.354
 2597SOL    HW2 8691   0.725   6.436   6.292
 2598SOL     OW 8692   5.223   2.630   2.176
 2598SOL    HW1 8693   5.165   2.699   2.217
 2598SOL    HW2 8694   5.167   2.556   2.138
 2599SOL     OW 8695   2.717   0.227   2.538
 2599SOL    HW1 8696   2.770   0.143   2.535
 2599SOL    HW2 8697   2.694   0.257   2.446
 2600SOL     OW 8698   6.474   4.567   4.615
 2600SOL    HW1 8699   6.385   4.531   4.643
 2600SOL    HW2 8700   6.509   4.513   4.539
 2601SOL     OW 8701   1.321   1.919   2.690
 2601SOL    HW1 8702   1.399   1.859   2.706
 2601SOL    HW2 8703   1.296   1.965   2.776
 2602SOL     OW 8704   1.744   5.002   4.121
 2602SOL    HW1 8705   1.778   5.063   4.049
 2602SOL    HW2 8706   1.723   5.055   4.203
 2603SOL     OW 8707   3.066   0.826   2.706
 2603SOL    HW1 8708   2.983   0.882   2.697
 2603SOL    HW2 8709   3.141   0.884   2.738
 2604SOL     OW 8710   5.808   2.057   2.688
 2604SOL    HW1 8711   5.771   2.149   2.703
 2604SOL    HW2 8712   5.905   2.056   2.714
 2605SOL     OW 8713   1.447   3.660   1.642
 2605SOL    HW1 8714   1.435   3.585   1.707
 2605SOL    HW2 8715   1.413   3.745   1.683
 2606SOL     OW 8716   4.267   4.148   0.775
 2606SOL    HW1 8717   4.237   4.239   0.803
 2606SOL    HW2 8718   4.189   4.085   0.780
 2607SOL     OW 8719   2.457   2.026   0.549
 2607SOL    HW1 8720   2.462   1.938   0.597
 2607SOL    HW2 8721   2.419   2.095   0.611
 2608SOL     OW 8722   3.092   5.563   6.492
 2608SOL    HW1 8723   3.053   5.554   6.400
 2608SOL    HW2 8724   3.036   5.625   6.546
 2609SOL     OW 8725   0.674   6.802   1.148
 2609SOL    HW1 8726   0.604   6.846   1.204
 2609SOL    HW2 8727   0.761   6.799   1.199
 2610SOL     OW 8728   1.339   4.846   4.232
 2610SOL    HW1 8729   1.397   4.793   4.170
 2610SOL    HW2 8730   1.373   4.836   4.326
 2611SOL     OW 8731   5.407   6.546   6.681
 2611SOL    HW1 8732   5.479   6.547   6.612
 2611SOL    HW2 8733   5.320   6.568   6.639
 2612SOL     OW 8734   5.771   0.288   5.348
 2612SOL    HW1 8735   5.766   0.387   5.362
 2612SOL    HW2 8736   5.825   0.247   5.422
 2613SOL     OW 8737   0.699   5.983   6.850
 2613SOL    HW1 8738   0.644   6.057   6.813
 2613SOL    HW2 8739   0.639   5.910   6.883
 2614SOL     OW 8740   6.785   0.914   6.061
 2614SOL    HW1 8741   6.819   0.952   5.975
 2614SOL    HW2 8742   6.740   0.986   6.114
 2615SOL     OW 8743   1.168   2.928   0.461
 2615SOL    HW1 8744   1.149   3.022   0.431
 2615SOL    HW2 8745   1.240   2.930   0.531
 2616SOL     OW 8746   1.580   0.253   5.755
 2616SOL    HW1 8747   1.534   0.171   5.720
 2616SOL    HW2 8748   1.669   0.262   5.712
 2617SOL     OW 8749   5.315   0.043   0.955
 2617SOL    HW1 8750   5.301   0.067   1.051
 2617SOL    HW2 8751   5.233   7.019   0.921
 2618SOL     OW 8752   1.931   6.378   6.227
 2618SOL    HW1 8753   1.873   6.363   6.307
 2618SOL    HW2 8754   1.984   6.462   6.239
 2619SOL     OW 8755   5.150   1.300   2.261
 2619SOL    HW1 8756   5.088   1.242   2.315
 2619SOL    HW2 8757   5.170   1.256   2.174
 2620SOL     OW 8758   0.013   6.610   1.439
 2620SOL    HW1 8759   0.081   6.554   1.486
 2620SOL    HW2 8760   6.994   6.556   1.367
 2621SOL     OW 8761   1.670   5.655   2.744
 2621SOL    HW1 8762   1.709   5.622   2.830
 2621SOL    HW2 8763   1.738   5.711   2.696
 2622SOL     OW 8764   3.377   3.611   6.045
 2622SOL    HW1 8765   3.344   3.534   6.100
 2622SOL    HW2 8766   3.450   3.658   6.095
 2623SOL     OW 8767   1.045   6.564   4.194
 2623SOL    HW1 8768   1.123   6.562   4.132
 2623SOL    HW2 8769   1.068   6.513   4.278
 2624SOL     OW 8770   0.279   2.626   4.406
 2624SOL    HW1 8771   0.250   2.684   4.330
 2624SOL    HW2 8772   0.374   2.648   4.429
 2625SOL     OW 8773   1.797   5.208   4.916
 2625SOL    HW1 8774   1.771   5.159   4.834
 2625SOL    HW2 8775   1.880   5.168   4.954
 2626SOL     OW 8776   6.914   5.044   6.348
 2626SOL    HW1 8777   6.824   5.063   6.387
 2626SOL    HW2 8778   6.971   5.125   6.355
 2627SOL     OW 8779   1.809   6.940   5.535
 2627SOL    HW1 8780   1.742   7.011   5.559
 2627SOL    HW2 8781   1.883   6.982   5.482
 2628SOL     OW 8782   1.728   4.175   2.097
 2628SOL    HW1 8783   1.733   4.211   2.190
 2628SOL    HW2 8784   1.656   4.223   2.047
 2629SOL     OW 8785   3.191   4.032   3.442
 2629SOL    HW1 8786   3.158   4.051   3.350
 2629SOL    HW2 8787   3.115   4.001   3.499
 2630SOL     OW 8788   4.196   0.654   4.250
 2630SOL    HW1 8789   4.122   0.707   4.291
 2630SOL    HW2 8790   4.202   0.565   4.294
 2631SOL     OW 8791   5.710   0.870   0.365
 2631SOL    HW1 8792   5.693   0.823   0.451
 2631SOL    HW2 8793   5.630   0.925   0.341
 2632SOL     OW 8794   5.587   4.731   2.166
 2632SOL    HW1 8795   5.637   4.697   2.245
 2632SOL    HW2 8796   5.584   4.831   2.168
 2633SOL     OW 8797   0.250   3.036   6.241
 2633SOL    HW1 8798   0.303   3.026   6.326
 2633SOL    HW2 8799   0.154   3.054   6.264
 2634SOL     OW 8800   6.287   0.287   5.555
 2634SOL    HW1 8801   6.216   0.357   5.549
 2634SOL    HW2 8802   6.272   0.219   5.484
 2635SOL     OW 8803   5.693   5.175   3.970
 2635SOL    HW1 8804   5.769   5.201   3.911
 2635SOL    HW2 8805   5.632   5.253   3.982
 2636SOL     OW 8806   4.516   6.984   5.702
 2636SOL    HW1 8807   4.580   0.015   5.757
 2636SOL    HW2 8808   4.542   6.989   5.606
 2637SOL     OW 8809   1.650   1.672   3.302
 2637SOL    HW1 8810   1.687   1.764   3.316
 2637SOL    HW2 8811   1.604   1.668   3.213
 2638SOL     OW 8812   1.367   6.514   4.396
 2638SOL    HW1 8813   1.362   6.457   4.478
 2638SOL    HW2 8814   1.363   6.456   4.315
 2639SOL     OW 8815   4.132   4.767   5.236
 2639SOL    HW1 8816   4.082   4.779   5.150
 2639SOL    HW2 8817   4.071   4.785   5.313
 2640SOL     OW 8818   1.614   6.209   4.689
 2640SOL    HW1 8819   1.564   6.265   4.623
 2640SOL    HW2 8820   1.647   6.126   4.644
 2641SOL     OW 8821   5.550   2.657   6.664
 2641SOL    HW1 8822   5.638   2.620   6.635
 2641SOL    HW2 8823   5.521   2.728   6.599
 2642SOL     OW 8824   6.700   1.708   3.621
 2642SOL    HW1 8825   6.613   1.682   3.579
 2642SOL    HW2 8826   6.750   1.769   3.559
 2643SOL     OW 8827   1.614   4.841   3.598
 2643SOL    HW1 8828   1.697   4.804   3.639
 2643SOL    HW2 8829   1.556   4.882   3.668
 2644SOL     OW 8830   5.327   4.921   4.388
 2644SOL    HW1 8831   5.399   4.870   4.341
 2644SOL    HW2 8832   5.238   4.886   4.363
 2645SOL     OW 8833   5.007   5.518   2.965
 2645SOL    HW1 8834   4.927   5.574   2.942
 2645SOL    HW2 8835   5.074   5.574   3.013
 2646SOL     OW 8836   0.272   3.132   5.994
 2646SOL    HW1 8837   0.265   3.095   6.087
 2646SOL    HW2 8838   0.368   3.136   5.968
 2647SOL     OW 8839   5.141   0.677   1.543
 2647SOL    HW1 8840   5.168   0.765   1.582
 2647SOL    HW2 8841   5.041   0.673   1.535
 2648SOL     OW 8842   0.883   6.894   6.041
 2648SOL    HW1 8843   0.944   6.854   5.972
 2648SOL    HW2 8844   0.790   6.860   6.028
 2649SOL     OW 8845   5.045   2.802   1.495
 2649SOL    HW1 8846   5.119   2.803   1.562
 2649SOL    HW2 8847   4.996   2.715   1.501
 2650SOL     OW 8848   3.455   6.702   4.410
 2650SOL    HW1 8849   3.417   6.794   4.412
 2650SOL    HW2 8850   3.381   6.635   4.413
 2651SOL     OW 8851   3.908   2.145   4.936
 2651SOL    HW1 8852   3.995   2.194   4.937
 2651SOL    HW2 8853   3.871   2.144   4.843
 2652SOL     OW 8854   5.242   4.925   5.805
 2652SOL    HW1 8855   5.268   4.967   5.718
 2652SOL    HW2 8856   5.174   4.983   5.850
 2653SOL     OW 8857   2.839   5.890   0.464
 2653SOL    HW1 8858   2.875   5.920   0.552
 2653SOL    HW2 8859   2.883   5.941   0.390
 2654SOL     OW 8860   6.190   0.377   0.959
 2654SOL    HW1 8861   6.143   0.447   0.906
 2654SOL    HW2 8862   6.194   0.405   1.055
 2655SOL     OW 8863   4.575   6.045   2.638
 2655SOL    HW1 8864   4.599   6.126   2.692
 2655SOL    HW2 8865   4.624   6.049   2.550
 2656SOL     OW 8866   3.757   6.208   3.440
 2656SOL    HW1 8867   3.759   6.226   3.342
 2656SOL    HW2 8868   3.848   6.226   3.479
 2657SOL     OW 8869   1.314   3.615   6.965
 2657SOL    HW1 8870   1.369   3.688   6.925
 2657SOL    HW2 8871   1.375   3.543   7.001
 2658SOL     OW 8872   4.199   5.331   6.692
 2658SOL    HW1 8873   4.292   5.298   6.710
 2658SOL    HW2 8874   4.134   5.257   6.705
 2659SOL     OW 8875   0.006   1.940   4.543
 2659SOL    HW1 8876   0.042   2.030   4.570
 2659SOL    HW2 8877   0.042   1.871   4.605
 2660SOL     OW 8878   1.183   1.532   2.077
 2660SOL    HW1 8879   1.164   1.583   2.160
 2660SOL    HW2 8880   1.240   1.453   2.098
 2661SOL     OW 8881   1.759   1.144   0.562
 2661SOL    HW1 8882   1.851   1.118   0.533
 2661SOL    HW2 8883   1.726   1.079   0.631
 2662SOL     OW 8884   2.802   0.818   2.209
 2662SOL    HW1 8885   2.759   0.867   2.133
 2662SOL    HW2 8886   2.900   0.835   2.209
 2663SOL     OW 8887   4.549   6.713   0.478
 2663SOL    HW1 8888   4.570   6.744   0.385
 2663SOL    HW2 8889   4.581   6.619   0.489
 2664SOL     OW 8890   4.386   3.299   5.902
 2664SOL    HW1 8891   4.386   3.304   5.802
 2664SOL    HW2 8892   4.460   3.238   5.931
 2665SOL     OW 8893   2.184   3.601   4.346
 2665SOL    HW1 8894   2.171   3.545   4.264
 2665SOL    HW2 8895   2.178   3.543   4.427
 2666SOL     OW 8896   1.812   3.721   1.993
 2666SOL    HW1 8897   1.892   3.733   2.052
 2666SOL    HW2 8898   1.838   3.735   1.898
 2667SOL     OW 8899   6.297   3.513   4.974
 2667SOL    HW1 8900   6.197   3.507   4.977
 2667SOL    HW2 8901   6.333   3.433   4.927
 2668SOL     OW 8902   6.545   1.040   3.953
 2668SOL    HW1 8903   6.495   1.070   4.035
 2668SOL    HW2 8904   6.536   1.110   3.883
 2669SOL     OW 8905   2.476   0.745   0.557
 2669SOL    HW1 8906   2.510   0.839   0.563
 2669SOL    HW2 8907   2.538   0.692   0.499
 2670SOL     OW 8908   0.223   6.949   6.672
 2670SOL    HW1 8909   0.215   6.856   6.710
 2670SOL    HW2 8910   0.144   6.967   6.613
 2671SOL     OW 8911   4.436   4.807   6.631
 2671SOL    HW1 8912   4.381   4.768   6.556
 2671SOL    HW2 8913   4.492   4.735   6.671
 2672SOL     OW 8914   3.481   0.753   1.837
 2672SOL    HW1 8915   3.581   0.759   1.843
 2672SOL    HW2 8916   3.440   0.839   1.867
 2673SOL     OW 8917   4.330   0.654   2.762
 2673SOL    HW1 8918   4.330   0.648   2.862
 2673SOL    HW2 8919   4.251   0.706   2.732
 2674SOL     OW 8920   0.372   4.811   2.317
 2674SOL    HW1 8921   0.344   4.776   2.227
 2674SOL    HW2 8922   0.388   4.909   2.310
 2675SOL     OW 8923   5.822   0.125   4.126
 2675SOL    HW1 8924   5.900   0.187   4.137
 2675SOL    HW2 8925   5.746   0.175   4.084
 2676SOL     OW 8926   3.949   3.979   2.620
 2676SOL    HW1 8927   3.995   3.905   2.571
 2676SOL    HW2 8928   4.005   4.062   2.616
 2677SOL     OW 8929   2.454   4.809   1.206
 2677SOL    HW1 8930   2.391   4.789   1.282
 2677SOL    HW2 8931   2.416   4.884   1.151
 2678SOL     OW 8932   5.257   2.380   2.776
 2678SOL    HW1 8933   5.304   2.346   2.694
 2678SOL    HW2 8934   5.275   2.477   2.787
 2679SOL     OW 8935   2.130   4.641   3.512
 2679SOL    HW1 8936   2.212   4.584   3.513
 2679SOL    HW2 8937   2.143   4.718   3.575
 2680SOL     OW 8938   6.628   1.376   0.157
 2680SOL    HW1 8939   6.705   1.324   0.194
 2680SOL    HW2 8940   6.620   1.462   0.206
 2681SOL     OW 8941   1.787   2.136   5.334
 2681SOL    HW1 8942   1.767   2.057   5.277
 2681SOL    HW2 8943   1.815   2.105   5.425
 2682SOL     OW 8944   3.878   3.963   1.849
 2682SOL    HW1 8945   3.848   3.912   1.930
 2682SOL    HW2 8946   3.835   4.053   1.848
 2683SOL     OW 8947   2.396   4.550   2.300
 2683SOL    HW1 8948   2.447   4.623   2.347
 2683SOL    HW2 8949   2.324   4.592   2.244
 2684SOL     OW 8950   6.132   0.020   2.940
 2684SOL    HW1 8951   6.051   0.078   2.951
 2684SOL    HW2 8952   6.106   6.947   2.949
 2685SOL     OW 8953   1.718   5.728   5.506
 2685SOL    HW1 8954   1.664   5.810   5.490
 2685SOL    HW2 8955   1.715   5.669   5.425
 2686SOL     OW 8956   0.873   1.369   4.728
 2686SOL    HW1 8957   0.902   1.439   4.793
 2686SOL    HW2 8958   0.881   1.278   4.771
 2687SOL     OW 8959   3.766   1.498   1.536
 2687SOL    HW1 8960   3.836   1.552   1.582
 2687SOL    HW2 8961   3.744   1.418   1.591
 2688SOL     OW 8962   3.401   3.012   6.192
 2688SOL    HW1 8963   3.432   2.930   6.142
 2688SOL    HW2 8964   3.480   3.060   6.230
 2689SOL     OW 8965   1.419   3.537   2.812
 2689SOL    HW1 8966   1.352   3.542   2.737
 2689SOL    HW2 8967   1.446   3.630   2.838
 2690SOL     OW 8968   4.131   1.907   5.651
 2690SOL    HW1 8969   4.068   1.834   5.625
 2690SOL    HW2 8970   4.110   1.989   5.599
 2691SOL     OW 8971   6.781   4.229   3.950
 2691SOL    HW1 8972   6.817   4.307   4.000
 2691SOL    HW2 8973   6.714   4.180   4.006
 2692SOL     OW 8974   2.669   5.399   2.519
 2692SOL    HW1 8975   2.641   5.303   2.529
 2692SOL    HW2 8976   2.694   5.416   2.424
 2693SOL     OW 8977   2.152   5.651   3.161
 2693SOL    HW1 8978   2.232   5.696   3.199
 2693SOL    HW2 8979   2.180   5.583   3.093
 2694SOL     OW 8980   3.101   6.889   3.885
 2694SOL    HW1 8981   3.129   6.927   3.798
 2694SOL    HW2 8982   3.127   6.792   3.889
 2695SOL     OW 8983   7.003   5.665   3.670
 2695SOL    HW1 8984   6.944   5.734   3.713
 2695SOL    HW2 8985   6.948   5.600   3.620
 2696SOL     OW 8986   5.333   4.295   6.653
 2696SOL    HW1 8987   5.388   4.379   6.647
 2696SOL    HW2 8988   5.247   4.308   6.604
 2697SOL     OW 8989   3.789   2.113   6.805
 2697SOL    HW1 8990   3.724   2.038   6.794
 2697SOL    HW2 8991   3.757   2.176   6.875
 2698SOL     OW 8992   1.687   4.612   6.087
 2698SOL    HW1 8993   1.767   4.558   6.060
 2698SOL    HW2 8994   1.673   4.685   6.021
 2699SOL     OW 8995   3.355   6.504   2.066
 2699SOL    HW1 8996   3.439   6.506   2.120
 2699SOL    HW2 8997   3.303   6.588   2.083
 2700SOL     OW 8998   3.930   1.878   1.808
 2700SOL    HW1 8999   4.025   1.907   1.797
 2700SOL    HW2 9000   3.925   1.798   1.868
 2701SOL     OW 9001   5.288   3.003   5.245
 2701SOL    HW1 9002   5.335   2.951   5.317
 2701SOL    HW2 9003   5.191   2.979   5.244
 2702SOL     OW 9004   2.562   1.438   4.933
 2702SOL    HW1 9005   2.462   1.442   4.929
 2702SOL    HW2 9006   2.597   1.396   4.850
 2703SOL     OW 9007   1.740   6.851   2.240
 2703SOL    HW1 9008   1.701   6.909   2.168
 2703SOL    HW2 9009   1.802   6.906   2.296
 2704SOL     OW 9010   4.953   7.000   4.214
 2704SOL    HW1 9011   5.024   6.988   4.145
 2704SOL    HW2 9012   4.974   0.058   4.269
 2705SOL     OW 9013   0.015   0.244   5.303
 2705SOL    HW1 9014   0.062   0.205   5.224
 2705SOL    HW2 9015   0.021   0.180   5.380
 2706SOL     OW 9016   6.995   3.721   3.267
 2706SOL    HW1 9017   0.003   3.710   3.362
 2706SOL    HW2 9018   0.017   3.800   3.226
 2707SOL     OW 9019   3.265   0.578   3.324
 2707SOL    HW1 9020   3.351   0.615   3.360
 2707SOL    HW2 9021   3.264   0.585   3.225
 2708SOL     OW 9022   6.230   3.315   6.868
 2708SOL    HW1 9023   6.167   3.375   6.819
 2708SOL    HW2 9024   6.216   3.324   6.966
 2709SOL     OW 9025   4.448   1.152   4.506
 2709SOL    HW1 9026   4.388   1.103   4.443
 2709SOL    HW2 9027   4.511   1.209   4.454
 2710SOL     OW 9028   1.247   2.930   3.821
 2710SOL    HW1 9029   1.301   2.850   3.845
 2710SOL    HW2 9030   1.193   2.959   3.901
 2711SOL     OW 9031   3.324   1.796   1.936
 2711SOL    HW1 9032   3.333   1.881   1.987
 2711SOL    HW2 9033   3.337   1.815   1.838
 2712SOL     OW 9034   3.972   6.047   1.938
 2712SOL    HW1 9035   3.981   5.995   2.022
 2712SOL    HW2 9036   4.061   6.050   1.891
 2713SOL     OW 9037   3.485   4.753   6.579
 2713SOL    HW1 9038   3.391   4.766   6.548
 2713SOL    HW2 9039   3.511   4.657   6.565
 2714SOL     OW 9040   2.513   4.775   6.568
 2714SOL    HW1 9041   2.462   4.761   6.483
 2714SOL    HW2 9042   2.611   4.777   6.548
 2715SOL     OW 9043   4.300   0.881   0.593
 2715SOL    HW1 9044   4.375   0.947   0.602
 2715SOL    HW2 9045   4.263   0.885   0.500
 2716SOL     OW 9046   3.948   1.855   3.110
 2716SOL    HW1 9047   4.009   1.794   3.060
 2716SOL    HW2 9048   3.883   1.802   3.163
 2717SOL     OW 9049   1.044   0.756   2.934
 2717SOL    HW1 9050   1.136   0.731   2.965
 2717SOL    HW2 9051   1.048   0.788   2.839
 2718SOL     OW 9052   0.262   0.732   6.114
 2718SOL    HW1 9053   0.285   0.803   6.047
 2718SOL    HW2 9054   0.182   0.681   6.081
 2719SOL     OW 9055   1.937   3.750   2.315
 2719SOL    HW1 9056   1.882   3.677   2.355
 2719SOL    HW2 9057   2.002   3.711   2.250
 2720SOL     OW 9058   2.342   6.472   6.093
 2720SOL    HW1 9059   2.423   6.467   6.152
 2720SOL    HW2 9060   2.280   6.397   6.117
 2721SOL     OW 9061   3.172   6.161   1.825
 2721SOL    HW1 9062   3.136   6.215   1.749
 2721SOL    HW2 9063   3.197   6.070   1.792
 2722SOL     OW 9064   4.682   6.303   0.295
 2722SOL    HW1 9065   4.686   6.205   0.314
 2722SOL    HW2 9066   4.716   6.320   0.202
 2723SOL     OW 9067   3.247   6.689   0.056
 2723SOL    HW1 9068   3.328   6.748   0.057
 2723SOL    HW2 9069   3.231   6.656   6.987
 2724SOL     OW 9070   0.855   6.085   0.755
 2724SOL    HW1 9071   0.846   6.167   0.811
 2724SOL    HW2 9072   0.783   6.085   0.685
 2725SOL     OW 9073   5.713   4.280   5.041
 2725SOL    HW1 9074   5.716   4.366   4.990
 2725SOL    HW2 9075   5.806   4.244   5.052
 2726SOL     OW 9076   6.738   1.582   1.780
 2726SOL    HW1 9077   6.758   1.660   1.721
 2726SOL    HW2 9078   6.675   1.610   1.853
 2727SOL     OW 9079   1.950   4.486   4.280
 2727SOL    HW1 9080   1.888   4.552   4.240
 2727SOL    HW2 9081   2.026   4.468   4.218
 2728SOL     OW 9082   5.110   6.110   5.883
 2728SOL    HW1 9083   5.181   6.086   5.948
 2728SOL    HW2 9084   5.022   6.118   5.930
 2729SOL     OW 9085   5.311   6.332   6.464
 2729SOL    HW1 9086   5.390   6.280   6.497
 2729SOL    HW2 9087   5.272   6.385   6.539
 2730SOL     OW 9088   0.876   5.918   2.329
 2730SOL    HW1 9089   0.928   5.973   2.264
 2730SOL    HW2 9090   0.922   5.830   2.342
 2731SOL     OW 9091   3.530   3.304   4.255
 2731SOL    HW1 9092   3.524   3.383   4.315
 2731SOL    HW2 9093   3.607   3.314   4.193
 2732SOL     OW 9094   5.468   1.234   2.019
 2732SOL    HW1 9095   5.551   1.179   2.010
 2732SOL    HW2 9096   5.413   1.197   2.094
 2733SOL     OW 9097   1.054   6.914   6.675
 2733SOL    HW1 9098   1.045   6.868   6.586
 2733SOL    HW2 9099   1.131   6.874   6.725
 2734SOL     OW 9100   3.517   6.473   1.421
 2734SOL    HW1 9101   3.483   6.378   1.419
 2734SOL    HW2 9102   3.463   6.526   1.486
 2735SOL     OW 9103   0.726   1.296   1.932
 2735SOL    HW1 9104   0.809   1.348   1.916
 2735SOL    HW2 9105   0.659   1.317   1.861
 2736SOL     OW 9106   5.460   4.793   2.811
 2736SOL    HW1 9107   5.362   4.779   2.826
 2736SOL    HW2 9108   5.475   4.880   2.764
 2737SOL     OW 9109   2.509   1.774   6.206
 2737SOL    HW1 9110   2.545   1.814   6.122
 2737SOL    HW2 9111   2.515   1.841   6.281
 2738SOL     OW 9112   5.778   6.683   1.785
 2738SOL    HW1 9113   5.804   6.775   1.756
 2738SOL    HW2 9114   5.816   6.616   1.721
 2739SOL     OW 9115   0.436   5.711   1.696
 2739SOL    HW1 9116   0.383   5.687   1.777
 2739SOL    HW2 9117   0.533   5.714   1.720
 2740SOL     OW 9118   6.593   5.549   3.365
 2740SOL    HW1 9119   6.554   5.628   3.318
 2740SOL    HW2 9120   6.653   5.499   3.302
 2741SOL     OW 9121   1.230   1.400   4.944
 2741SOL    HW1 9122   1.152   1.413   5.006
 2741SOL    HW2 9123   1.198   1.402   4.850
 2742SOL     OW 9124   3.123   5.462   1.638
 2742SOL    HW1 9125   3.127   5.526   1.560
 2742SOL    HW2 9126   3.060   5.388   1.616
 2743SOL     OW 9127   5.196   3.887   2.962
 2743SOL    HW1 9128   5.121   3.940   3.000
 2743SOL    HW2 9129   5.258   3.858   3.036
 2744SOL     OW 9130   3.232   3.731   3.560
 2744SOL    HW1 9131   3.290   3.769   3.632
 2744SOL    HW2 9132   3.258   3.636   3.543
 2745SOL     OW 9133   0.512   7.001   6.609
 2745SOL    HW1 9134   0.545   6.921   6.659
 2745SOL    HW2 9135   0.412   6.996   6.601
 2746SOL     OW 9136   2.199   1.024   3.677
 2746SOL    HW1 9137   2.153   0.936   3.670
 2746SOL    HW2 9138   2.135   1.097   3.650
 2747SOL     OW 9139   3.821   5.932   0.883
 2747SOL    HW1 9140   3.763   5.852   0.868
 2747SOL    HW2 9141   3.773   5.998   0.940
 2748SOL     OW 9142   4.571   6.765   1.778
 2748SOL    HW1 9143   4.509   6.832   1.738
 2748SOL    HW2 9144   4.585   6.690   1.713
 2749SOL     OW 9145   2.679   3.268   0.122
 2749SOL    HW1 9146   2.643   3.224   0.204
 2749SOL    HW2 9147   2.641   3.224   0.041
 2750SOL     OW 9148   2.171   5.642   2.048
 2750SOL    HW1 9149   2.119   5.565   2.086
 2750SOL    HW2 9150   2.209   5.696   2.122
 2751SOL     OW 9151   6.385   3.234   0.647
 2751SOL    HW1 9152   6.464   3.294   0.663
 2751SOL    HW2 9153   6.405   3.172   0.571
 2752SOL     OW 9154   3.808   4.803   6.677
 2752SOL    HW1 9155   3.892   4.750   6.668
 2752SOL    HW2 9156   3.747   4.782   6.600
 2753SOL     OW 9157   6.353   5.828   5.467
 2753SOL    HW1 9158   6.275   5.813   5.528
 2753SOL    HW2 9159   6.323   5.877   5.385
 2754SOL     OW 9160   1.007   6.814   6.450
 2754SOL    HW1 9161   1.078   6.873   6.410
 2754SOL    HW2 9162   1.011   6.723   6.408
 2755SOL     OW 9163   2.366   0.156   2.010
 2755SOL    HW1 9164   2.384   0.202   1.923
 2755SOL    HW2 9165   2.450   0.148   2.062
 2756SOL     OW 9166   4.979   6.594   0.351
 2756SOL    HW1 9167   4.952   6.593   0.447
 2756SOL    HW2 9168   5.008   6.502   0.324
 2757SOL     OW 9169   0.519   5.094   1.380
 2757SOL    HW1 9170   0.568   5.181   1.394
 2757SOL    HW2 9171   0.558   5.047   1.301
 2758SOL     OW 9172   5.317   0.486   5.186
 2758SOL    HW1 9173   5.305   0.579   5.153
 2758SOL    HW2 9174   5.415   0.464   5.186
 2759SOL     OW 9175   5.885   5.790   5.003
 2759SOL    HW1 9176   5.936   5.717   5.048
 2759SOL    HW2 9177   5.837   5.844   5.071
 2760SOL     OW 9178   2.851   5.234   2.948
 2760SOL    HW1 9179   2.804   5.151   2.916
 2760SOL    HW2 9180   2.880   5.289   2.870
 2761SOL     OW 9181   2.607   6.167   2.911
 2761SOL    HW1 9182   2.578   6.257   2.880
 2761SOL    HW2 9183   2.705   6.167   2.930
 2762SOL     OW 9184   0.807   6.874   5.142
 2762SOL    HW1 9185   0.845   6.958   5.104
 2762SOL    HW2 9186   0.719   6.894   5.185
 2763SOL     OW 9187   5.438   1.831   2.721
 2763SOL    HW1 9188   5.536   1.828   2.742
 2763SOL    HW2 9189   5.405   1.737   2.709
 2764SOL     OW 9190   6.043   0.932   2.021
 2764SOL    HW1 9191   6.063   1.007   1.959
 2764SOL    HW2 9192   6.009   0.968   2.108
 2765SOL     OW 9193   6.076   1.157   1.891
 2765SOL    HW1 9194   6.026   1.239   1.864
 2765SOL    HW2 9195   6.159   1.149   1.836
 2766SOL     OW 9196   6.093   0.989   2.627
 2766SOL    HW1 9197   6.045   1.075   2.606
 2766SOL    HW2 9198   6.073   0.922   2.555
 2767SOL     OW 9199   5.621   4.350   6.428
 2767SOL    HW1 9200   5.551   4.333   6.359
 2767SOL    HW2 9201   5.587   4.417   6.494
 2768SOL     OW 9202   5.430   1.309   0.030
 2768SOL    HW1 9203   5.400   1.385   0.088
 2768SOL    HW2 9204   5.421   1.334   6.957
 2769SOL     OW 9205   6.965   4.156   2.016
 2769SOL    HW1 9206   6.866   4.167   2.026
 2769SOL    HW2 9207   7.001   4.230   1.959
 2770SOL     OW 9208   0.643   5.624   1.886
 2770SOL    HW1 9209   0.649   5.525   1.896
 2770SOL    HW2 9210   0.579   5.660   1.954
 2771SOL     OW 9211   4.865   1.258   1.443
 2771SOL    HW1 9212   4.839   1.167   1.410
 2771SOL    HW2 9213   4.916   1.249   1.529
 2772SOL     OW 9214   3.035   2.916   6.855
 2772SOL    HW1 9215   3.027   2.862   6.772
 2772SOL    HW2 9216   3.106   2.876   6.914
 2773SOL     OW 9217   3.560   3.702   6.247
 2773SOL    HW1 9218   3.468   3.687   6.284
 2773SOL    HW2 9219   3.600   3.783   6.290
 2774SOL     OW 9220   5.834   3.601   1.785
 2774SOL    HW1 9221   5.749   3.651   1.768
 2774SOL    HW2 9222   5.825   3.548   1.869
 2775SOL     OW 9223   7.016   5.878   1.549
 2775SOL    HW1 9224   0.088   5.872   1.520
 2775SOL    HW2 9225   6.969   5.792   1.530
 2776SOL     OW 9226   3.076   6.055   6.383
 2776SOL    HW1 9227   3.002   6.121   6.392
 2776SOL    HW2 9228   3.117   6.037   6.472
 2777SOL     OW 9229   3.283   1.327   2.407
 2777SOL    HW1 9230   3.238   1.415   2.389
 2777SOL    HW2 9231   3.373   1.344   2.447
 2778SOL     OW 9232   2.248   2.446   5.834
 2778SOL    HW1 9233   2.298   2.492   5.907
 2778SOL    HW2 9234   2.219   2.513   5.765
 2779SOL     OW 9235   5.665   0.417   6.966
 2779SOL    HW1 9236   5.656   0.407   0.042
 2779SOL    HW2 9237   5.642   0.331   6.921
 2780SOL     OW 9238   4.879   5.422   6.587
 2780SOL    HW1 9239   4.816   5.368   6.531
 2780SOL    HW2 9240   4.936   5.360   6.641
 2781SOL     OW 9241   5.669   4.365   1.066
 2781SOL    HW1 9242   5.580   4.374   1.022
 2781SOL    HW2 9243   5.739   4.347   0.997
 2782SOL     OW 9244   2.734   2.643   6.549
 2782SOL    HW1 9245   2.668   2.718   6.542
 2782SOL    HW2 9246   2.719   2.578   6.475
 2783SOL     OW 9247   6.886   5.170   5.536
 2783SOL    HW1 9248   6.789   5.149   5.554
 2783SOL    HW2 9249   6.943   5.097   5.573
 2784SOL     OW 9250   2.650   1.946   1.395
 2784SOL    HW1 9251   2.558   1.983   1.382
 2784SOL    HW2 9252   2.716   2.021   1.396
 2785SOL     OW 9253   6.551   0.257   0.674
 2785SOL    HW1 9254   6.557   0.301   0.584
 2785SOL    HW2 9255   6.619   0.297   0.735
 2786SOL     OW 9256   4.084   6.781   1.302
 2786SOL    HW1 9257   4.054   6.815   1.212
 2786SOL    HW2 9258   4.052   6.843   1.373
 2787SOL     OW 9259   2.568   2.772   5.743
 2787SOL    HW1 9260   2.579   2.680   5.704
 2787SOL    HW2 9261   2.645   2.792   5.803
 2788SOL     OW 9262   1.548   4.040   0.681
 2788SOL    HW1 9263   1.610   4.114   0.658
 2788SOL    HW2 9264   1.488   4.020   0.604
 2789SOL     OW 9265   0.544   2.155   4.215
 2789SOL    HW1 9266   0.520   2.185   4.308
 2789SOL    HW2 9267   0.542   2.055   4.210
 2790SOL     OW 9268   3.940   5.443   2.784
 2790SOL    HW1 9269   4.019   5.453   2.844
 2790SOL    HW2 9270   3.861   5.414   2.837
 2791SOL     OW 9271   1.846   3.097   5.035
 2791SOL    HW1 9272   1.932   3.143   5.015
 2791SOL    HW2 9273   1.858   2.998   5.024
 2792SOL     OW 9274   0.373   2.056   5.053
 2792SOL    HW1 9275   0.421   2.096   5.131
 2792SOL    HW2 9276   0.355   1.959   5.071
 2793SOL     OW 9277   4.344   1.476   3.040
 2793SOL    HW1 9278   4.316   1.476   3.136
 2793SOL    HW2 9279   4.426   1.421   3.029
 2794SOL     OW 9280   0.937   0.373   0.819
 2794SOL    HW1 9281   0.866   0.444   0.820
 2794SOL    HW2 9282   0.940   0.329   0.909
 2795SOL     OW 9283   2.581   3.883   1.348
 2795SOL    HW1 9284   2.518   3.814   1.311
 2795SOL    HW2 9285   2.619   3.937   1.273
 2796SOL     OW 9286   5.119   3.984   2.730
 2796SOL    HW1 9287   5.139   4.082   2.737
 2796SOL    HW2 9288   5.148   3.938   2.814
 2797SOL     OW 9289   5.028   4.930   5.047
 2797SOL    HW1 9290   5.015   4.869   5.126
 2797SOL    HW2 9291   5.009   4.879   4.963
 2798SOL     OW 9292   0.850   3.064   3.811
 2798SOL    HW1 9293   0.757   3.101   3.814
 2798SOL    HW2 9294   0.851   2.973   3.852
 2799SOL     OW 9295   6.347   4.827   5.928
 2799SOL    HW1 9296   6.305   4.772   6.000
 2799SOL    HW2 9297   6.436   4.788   5.905
 2800SOL     OW 9298   2.782   4.773   6.539
 2800SOL    HW1 9299   2.800   4.743   6.633
 2800SOL    HW2 9300   2.828   4.860   6.523
 2801SOL     OW 9301   5.741   5.828   1.568
 2801SOL    HW1 9302   5.737   5.753   1.501
 2801SOL    HW2 9303   5.700   5.799   1.654
 2802SOL     OW 9304   4.217   1.376   5.773
 2802SOL    HW1 9305   4.225   1.431   5.690
 2802SOL    HW2 9306   4.157   1.297   5.756
 2803SOL     OW 9307   2.838   0.047   6.593
 2803SOL    HW1 9308   2.869   0.061   6.687
 2803SOL    HW2 9309   2.844   6.973   6.570
 2804SOL     OW 9310   6.922   4.078   3.743
 2804SOL    HW1 9311   6.886   4.136   3.816
 2804SOL    HW2 9312   6.967   4.136   3.674
 2805SOL     OW 9313   5.002   3.095   0.685
 2805SOL    HW1 9314   4.913   3.113   0.727
 2805SOL    HW2 9315   4.989   3.066   0.590
 2806SOL     OW 9316   6.467   5.388   3.079
 2806SOL    HW1 9317   6.494   5.326   3.152
 2806SOL    HW2 9318   6.432   5.335   3.002
 2807SOL     OW 9319   4.467   4.788   3.176
 2807SOL    HW1 9320   4.405   4.816   3.249
 2807SOL    HW2 9321   4.436   4.702   3.136
 2808SOL     OW 9322   5.403   1.294   3.950
 2808SOL    HW1 9323   5.429   1.350   3.871
 2808SOL    HW2 9324   5.354   1.213   3.919
 2809SOL     OW 9325   4.858   2.248   0.555
 2809SOL    HW1 9326   4.949   2.249   0.595
 2809SOL    HW2 9327   4.820   2.156   0.560
 2810SOL     OW 9328   2.645   6.736   5.338
 2810SOL    HW1 9329   2.621   6.697   5.427
 2810SOL    HW2 9330   2.562   6.768   5.292
 2811SOL     OW 9331   0.188   1.650   3.513
 2811SOL    HW1 9332   0.163   1.695   3.428
 2811SOL    HW2 9333   0.243   1.712   3.570
 2812SOL     OW 9334   4.842   3.982   1.927
 2812SOL    HW1 9335   4.819   4.076   1.899
 2812SOL    HW2 9336   4.778   3.919   1.883
 2813SOL     OW 9337   6.115   0.602   6.342
 2813SOL    HW1 9338   6.026   0.577   6.305
 2813SOL    HW2 9339   6.141   0.536   6.414
 2814SOL     OW 9340   4.564   3.834   5.623
 2814SOL    HW1 9341   4.645   3.785   5.590
 2814SOL    HW2 9342   4.576   3.932   5.605
 2815SOL     OW 9343   0.658   1.188   4.505
 2815SOL    HW1 9344   0.640   1.275   4.551
 2815SOL    HW2 9345   0.579   1.162   4.451
 2816SOL     OW 9346   5.618   6.974   4.172
 2816SOL    HW1 9347   5.613   6.879   4.202
 2816SOL    HW2 9348   5.702   7.016   4.206
 2817SOL     OW 9349   1.435   1.457   1.685
 2817SOL    HW1 9350   1.414   1.530   1.619
 2817SOL    HW2 9351   1.480   1.497   1.765
 2818SOL     OW 9352   6.877   4.663   5.881
 2818SOL    HW1 9353   6.807   4.706   5.938
 2818SOL    HW2 9354   6.898   4.572   5.917
 2819SOL     OW 9355   0.153   2.873   1.023
 2819SOL    HW1 9356   0.207   2.910   0.947
 2819SOL    HW2 9357   0.061   2.913   1.021
 2820SOL     OW 9358   6.763   3.093   3.403
 2820SOL    HW1 9359   6.745   3.133   3.492
 2820SOL    HW2 9360   6.802   3.162   3.342
 2821SOL     OW 9361   0.965   4.494   5.200
 2821SOL    HW1 9362   0.929   4.401   5.185
 2821SOL    HW2 9363   1.013   4.525   5.118
 2822SOL     OW 9364   4.815   2.195   6.824
 2822SOL    HW1 9365   4.771   2.108   6.803
 2822SOL    HW2 9366   4.847   2.194   6.919
 2823SOL     OW 9367   1.907   6.603   2.728
 2823SOL    HW1 9368   1.935   6.569   2.638
 2823SOL    HW2 9369   1.807   6.602   2.735
 2824SOL     OW 9370   3.025   1.471   5.605
 2824SOL    HW1 9371   2.947   1.533   5.605
 2824SOL    HW2 9372   3.039   1.435   5.512
 2825SOL     OW 9373   6.624   5.981   1.014
 2825SOL    HW1 9374   6.542   5.931   0.984
 2825SOL    HW2 9375   6.626   6.071   0.970
 2826SOL     OW 9376   4.835   1.391   4.767
 2826SOL    HW1 9377   4.883   1.415   4.682
 2826SOL    HW2 9378   4.886   1.319   4.814
 2827SOL     OW 9379   6.186   1.222   5.183
 2827SOL    HW1 9380   6.109   1.165   5.155
 2827SOL    HW2 9381   6.237   1.177   5.255
 2828SOL     OW 9382   4.062   1.159   5.694
 2828SOL    HW1 9383   4.055   1.204   5.605
 2828SOL    HW2 9384   3.971   1.129   5.723
 2829SOL     OW 9385   3.331   6.832   5.815
 2829SOL    HW1 9386   3.368   6.744   5.844
 2829SOL    HW2 9387   3.235   6.838   5.842
 2830SOL     OW 9388   4.206   3.521   0.008
 2830SOL    HW1 9389   4.183   3.468   6.950
 2830SOL    HW2 9390   4.141   3.498   0.081
 2831SOL     OW 9391   5.824   6.017   4.204
 2831SOL    HW1 9392   5.851   6.064   4.120
 2831SOL    HW2 9393   5.752   5.951   4.183
 2832SOL     OW 9394   0.402   0.902   2.421
 2832SOL    HW1 9395   0.377   0.825   2.361
 2832SOL    HW2 9396   0.501   0.908   2.428
 2833SOL     OW 9397   5.750   2.764   2.069
 2833SOL    HW1 9398   5.741   2.787   1.972
 2833SOL    HW2 9399   5.697   2.829   2.124
 2834SOL     OW 9400   3.469   1.674   5.060
 2834SOL    HW1 9401   3.408   1.595   5.066
 2834SOL    HW2 9402   3.563   1.643   5.045
 2835SOL     OW 9403   0.435   6.946   2.567
 2835SOL    HW1 9404   0.483   6.922   2.651
 2835SOL    HW2 9405   0.403   0.017   2.573
 2836SOL     OW 9406   6.468   0.426   1.514
 2836SOL    HW1 9407   6.427   0.363   1.580
 2836SOL    HW2 9408   6.540   0.378   1.462
 2837SOL     OW 9409   5.570   4.087   3.785
 2837SOL    HW1 9410   5.599   4.134   3.701
 2837SOL    HW2 9411   5.494   4.025   3.763
 2838SOL     OW 9412   2.843   5.026   2.714
 2838SOL    HW1 9413   2.790   5.074   2.644
 2838SOL    HW2 9414   2.809   4.933   2.724
 2839SOL     OW 9415   5.254   1.914   1.407
 2839SOL    HW1 9416   5.281   1.995   1.355
 2839SOL    HW2 9417   5.156   1.900   1.398
 2840SOL     OW 9418   6.394   1.308   5.573
 2840SOL    HW1 9419   6.453   1.323   5.494
 2840SOL    HW2 9420   6.404   1.213   5.604
 2841SOL     OW 9421   0.758   5.832   0.896
 2841SOL    HW1 9422   0.771   5.833   0.797
 2841SOL    HW2 9423   0.786   5.921   0.934
 2842SOL     OW 9424   6.554   3.330   3.364
 2842SOL    HW1 9425   6.561   3.287   3.454
 2842SOL    HW2 9426   6.492   3.409   3.370
 2843SOL     OW 9427   3.771   0.747   4.530
 2843SOL    HW1 9428   3.749   0.804   4.609
 2843SOL    HW2 9429   3.737   0.791   4.447
 2844SOL     OW 9430   0.232   3.966   6.644
 2844SOL    HW1 9431   0.199   3.872   6.632
 2844SOL    HW2 9432   0.171   4.029   6.596
 2845SOL     OW 9433   0.050   4.580   6.232
 2845SOL    HW1 9434   0.035   4.658   6.294
 2845SOL    HW2 9435   0.145   4.581   6.201
 2846SOL     OW 9436   4.817   1.807   6.342
 2846SOL    HW1 9437   4.768   1.874   6.286
 2846SOL    HW2 9438   4.801   1.715   6.306
 2847SOL     OW 9439   6.230   4.402   4.470
 2847SOL    HW1 9440   6.250   4.348   4.552
 2847SOL    HW2 9441   6.138   4.441   4.477
 2848SOL     OW 9442   0.662   4.776   4.700
 2848SOL    HW1 9443   0.714   4.862   4.700
 2848SOL    HW2 9444   0.676   4.730   4.787
 2849SOL     OW 9445   2.738   1.898   1.102
 2849SOL    HW1 9446   2.645   1.877   1.130
 2849SOL    HW2 9447   2.739   1.986   1.053
 2850SOL     OW 9448   3.784   0.030   0.457
 2850SOL    HW1 9449   3.870   0.010   0.411
 2850SOL    HW2 9450   3.798   0.106   0.521
 2851SOL     OW 9451   1.147   4.540   5.634
 2851SOL    HW1 9452   1.092   4.563   5.715
 2851SOL    HW2 9453   1.225   4.484   5.662
 2852SOL     OW 9454   6.796   3.272   6.456
 2852SOL    HW1 9455   6.783   3.188   6.403
 2852SOL    HW2 9456   6.853   3.335   6.403
 2853SOL     OW 9457   3.353   3.332   1.014
 2853SOL    HW1 9458   3.440   3.322   0.965
 2853SOL    HW2 9459   3.333   3.248   1.064
 2854SOL     OW 9460   2.814   0.922   3.739
 2854SOL    HW1 9461   2.866   0.846   3.780
 2854SOL    HW2 9462   2.846   0.937   3.645
 2855SOL     OW 9463   2.044   0.843   5.184
 2855SOL    HW1 9464   1.946   0.825   5.199
 2855SOL    HW2 9465   2.054   0.909   5.110
 2856SOL     OW 9466   2.557   2.903   5.379
 2856SOL    HW1 9467   2.480   2.881   5.439
 2856SOL    HW2 9468   2.525   2.959   5.302
 2857SOL     OW 9469   3.025   2.515   1.500
 2857SOL    HW1 9470   2.944   2.563   1.467
 2857SOL    HW2 9471   3.060   2.455   1.427
 2858SOL     OW 9472   6.421   3.214   2.786
 2858SOL    HW1 9473   6.445   3.300   2.741
 2858SOL    HW2 9474   6.504   3.159   2.799
 2859SOL     OW 9475   5.365   0.650   0.792
 2859SOL    HW1 9476   5.303   0.724   0.817
 2859SOL    HW2 9477   5.419   0.622   0.872
 2860SOL     OW 9478   3.908   1.663   1.987
 2860SOL    HW1 9479   3.878   1.569   1.971
 2860SOL    HW2 9480   3.896   1.685   2.084
 2861SOL     OW 9481   3.522   5.791   5.513
 2861SOL    HW1 9482   3.561   5.867   5.564
 2861SOL    HW2 9483   3.594   5.728   5.485
 2862SOL     OW 9484   5.731   1.027   3.918
 2862SOL    HW1 9485   5.701   1.081   3.997
 2862SOL    HW2 9486   5.664   1.036   3.845
 2863SOL     OW 9487   6.583   1.829   0.039
 2863SOL    HW1 9488   6.541   1.743   0.008
 2863SOL    HW2 9489   6.578   1.897   6.990
 2864SOL     OW 9490   3.979   0.960   0.726
 2864SOL    HW1 9491   3.928   0.902   0.789
 2864SOL    HW2 9492   4.065   0.987   0.769
 2865SOL     OW 9493   4.602   4.668   5.317
 2865SOL    HW1 9494   4.687   4.655   5.267
 2865SOL    HW2 9495   4.607   4.620   5.404
 2866SOL     OW 9496   0.063   6.107   6.480
 2866SOL    HW1 9497   0.036   6.202   6.463
 2866SOL    HW2 9498   0.125   6.076   6.408
 2867SOL     OW 9499   5.994   4.645   3.541
 2867SOL    HW1 9500   6.078   4.591   3.531
 2867SOL    HW2 9501   6.016   4.739   3.564
 2868SOL     OW 9502   1.238   3.934   5.115
 2868SOL    HW1 9503   1.261   3.853   5.170
 2868SOL    HW2 9504   1.157   3.915   5.060
 2869SOL     OW 9505   5.709   0.585   1.985
 2869SOL    HW1 9506   5.770   0.583   2.064
 2869SOL    HW2 9507   5.633   0.520   2.000
 2870SOL     OW 9508   6.166   2.280   2.888
 2870SOL    HW1 9509   6.211   2.198   2.852
 2870SOL    HW2 9510   6.122   2.329   2.813
 2871SOL     OW 9511   1.719   2.188   6.022
 2871SOL    HW1 9512   1.772   2.270   6.000
 2871SOL    HW2 9513   1.635   2.186   5.968
 2872SOL     OW 9514   2.636   0.574   3.273
 2872SOL    HW1 9515   2.683   0.501   3.323
 2872SOL    HW2 9516   2.551   0.598   3.320
 2873SOL     OW 9517   0.382   5.127   2.287
 2873SOL    HW1 9518   0.299   5.170   2.323
 2873SOL    HW2 9519   0.392   5.151   2.190
 2874SOL     OW 9520   5.800   3.454   2.030
 2874SOL    HW1 9521   5.700   3.456   2.016
 2874SOL    HW2 9522   5.824   3.513   2.107
 2875SOL     OW 9523   3.806   6.143   6.168
 2875SOL    HW1 9524   3.841   6.165   6.258
 2875SOL    HW2 9525   3.815   6.045   6.151
 2876SOL     OW 9526   0.398   0.881   1.602
 2876SOL    HW1 9527   0.461   0.822   1.652
 2876SOL    HW2 9528   0.332   0.825   1.551
 2877SOL     OW 9529   3.042   2.748   5.482
 2877SOL    HW1 9530   2.944   2.753   5.464
 2877SOL    HW2 9531   3.092   2.755   5.395
 2878SOL     OW 9532   2.469   4.763   5.298
 2878SOL    HW1 9533   2.550   4.707   5.280
 2878SOL    HW2 9534   2.393   4.703   5.326
 2879SOL     OW 9535   5.408   4.872   0.492
 2879SOL    HW1 9536   5.381   4.877   0.588
 2879SOL    HW2 9537   5.343   4.815   0.442
 2880SOL     OW 9538   0.969   6.139   1.868
 2880SOL    HW1 9539   0.934   6.232   1.864
 2880SOL    HW2 9540   0.966   6.098   1.776
 2881SOL     OW 9541   6.783   6.030   0.686
 2881SOL    HW1 9542   6.859   6.086   0.654
 2881SOL    HW2 9543   6.697   6.079   0.673
 2882SOL     OW 9544   0.340   2.951   2.648
 2882SOL    HW1 9545   0.250   2.913   2.624
 2882SOL    HW2 9546   0.340   3.050   2.632
 2883SOL     OW 9547   3.852   0.041   2.433
 2883SOL    HW1 9548   3.859   0.025   2.531
 2883SOL    HW2 9549   3.794   0.121   2.416
 2884SOL     OW 9550   0.712   5.838   3.194
 2884SOL    HW1 9551   0.699   5.912   3.128
 2884SOL    HW2 9552   0.671   5.864   3.281
 2885SOL     OW 9553   0.927   2.244   2.834
 2885SOL    HW1 9554   0.879   2.310   2.777
 2885SOL    HW2 9555   0.883   2.154   2.827
 2886SOL     OW 9556   2.241   1.833   6.592
 2886SOL    HW1 9557   2.211   1.880   6.509
 2886SOL    HW2 9558   2.204   1.881   6.673
 2887SOL     OW 9559   1.186   0.105   5.135
 2887SOL    HW1 9560   1.189   0.119   5.234
 2887SOL    HW2 9561   1.200   0.008   5.115
 2888SOL     OW 9562   5.896   5.087   7.008
 2888SOL    HW1 9563   5.895   5.171   6.954
 2888SOL    HW2 9564   5.959   5.098   0.062
 2889SOL     OW 9565   0.444   0.267   1.300
 2889SOL    HW1 9566   0.528   0.213   1.305
 2889SOL    HW2 9567   0.411   0.269   1.206
 2890SOL     OW 9568   4.537   0.476   1.864
 2890SOL    HW1 9569   4.633   0.485   1.836
 2890SOL    HW2 9570   4.479   0.476   1.783
 2891SOL     OW 9571   2.636   4.651   4.035
 2891SOL    HW1 9572   2.588   4.569   4.066
 2891SOL    HW2 9573   2.571   4.727   4.028
 2892SOL     OW 9574   4.443   3.843   6.779
 2892SOL    HW1 9575   4.396   3.823   6.865
 2892SOL    HW2 9576   4.409   3.781   6.708
 2893SOL     OW 9577   2.277   0.063   5.132
 2893SOL    HW1 9578   2.209   0.081   5.061
 2893SOL    HW2 9579   2.274   0.136   5.200
 2894SOL     OW 9580   3.309   2.993   0.246
 2894SOL    HW1 9581   3.235   3.013   0.311
 2894SOL    HW2 9582   3.305   3.058   0.170
 2895SOL     OW 9583   3.666   3.280   6.554
 2895SOL    HW1 9584   3.721   3.349   6.506
 2895SOL    HW2 9585   3.654   3.308   6.649
 2896SOL     OW 9586   2.160   5.134   0.173
 2896SOL    HW1 9587   2.159   5.212   0.235
 2896SOL    HW2 9588   2.128   5.052   0.222
 2897SOL     OW 9589   2.753   6.039   3.734
 2897SOL    HW1 9590   2.753   5.976   3.812
 2897SOL    HW2 9591   2.802   6.123   3.759
 2898SOL     OW 9592   3.794   5.344   1.677
 2898SOL    HW1 9593   3.790   5.351   1.577
 2898SOL    HW2 9594   3.826   5.252   1.703
 2899SOL     OW 9595   6.872   6.969   6.763
 2899SOL    HW1 9596   6.837   6.914   6.839
 2899SOL    HW2 9597   6.908   0.032   6.798
 2900SOL     OW 9598   1.423   5.331   5.867
 2900SOL    HW1 9599   1.454   5.425   5.879
 2900SOL    HW2 9600   1.334   5.319   5.911
 2901SOL     OW 9601   2.887   0.564   2.057
 2901SOL    HW1 9602   2.963   0.622   2.029
 2901SOL    HW2 9603   2.803   0.594   2.011
 2902SOL     OW 9604   5.566   6.329   1.026
 2902SOL    HW1 9605   5.486   6.361   0.975
 2902SOL    HW2 9606   5.642   6.392   1.012
 2903SOL     OW 9607   2.375   1.402   2.169
 2903SOL    HW1 9608   2.423   1.488   2.151
 2903SOL    HW2 9609   2.295   1.395   2.109
 2904SOL     OW 9610   1.957   2.898   5.331
 2904SOL    HW1 9611   1.971   2.997   5.321
 2904SOL    HW2 9612   1.999   2.851   5.254
 2905SOL     OW 9613   1.762   2.033   1.734
 2905SOL    HW1 9614   1.702   2.106   1.767
 2905SOL    HW2 9615   1.844   2.029   1.793
 2906SOL     OW 9616   5.684   5.536   2.116
 2906SOL    HW1 9617   5.626   5.557   2.195
 2906SOL    HW2 9618   5.634   5.476   2.054
 2907SOL     OW 9619   0.105   1.372   4.784
 2907SOL    HW1 9620   0.161   1.290   4.774
 2907SOL    HW2 9621   0.135   1.424   4.864
 2908SOL     OW 9622   3.526   6.037   4.138
 2908SOL    HW1 9623   3.543   6.095   4.217
 2908SOL    HW2 9624   3.451   5.974   4.158
 2909SOL     OW 9625   1.504   5.398   4.617
 2909SOL    HW1 9626   1.578   5.407   4.683
 2909SOL    HW2 9627   1.533   5.339   4.542
 2910SOL     OW 9628   4.176   6.460   5.687
 2910SOL    HW1 9629   4.185   6.401   5.606
 2910SOL    HW2 9630   4.093   6.436   5.737
 2911SOL     OW 9631   1.943   4.568   3.303
 2911SOL    HW1 9632   1.864   4.628   3.314
 2911SOL    HW2 9633   2.004   4.580   3.382
 2912SOL     OW 9634   2.874   6.047   0.245
 2912SOL    HW1 9635   2.779   6.035   0.216
 2912SOL    HW2 9636   2.888   6.141   0.276
 2913SOL     OW 9637   1.826   3.486   2.717
 2913SOL    HW1 9638   1.757   3.553   2.692
 2913SOL    HW2 9639   1.811   3.401   2.666
 2914SOL     OW 9640   5.861   5.275   5.941
 2914SOL    HW1 9641   5.809   5.349   5.899
 2914SOL    HW2 9642   5.800   5.220   5.998
 2915SOL     OW 9643   4.521   1.617   4.008
 2915SOL    HW1 9644   4.564   1.704   4.029
 2915SOL    HW2 9645   4.575   1.542   4.046
 2916SOL     OW 9646   6.150   5.161   5.319
 2916SOL    HW1 9647   6.142   5.176   5.417
 2916SOL    HW2 9648   6.187   5.070   5.301
 2917SOL     OW 9649   4.791   0.484   1.800
 2917SOL    HW1 9650   4.868   0.494   1.863
 2917SOL    HW2 9651   4.794   0.556   1.731
 2918SOL     OW 9652   0.454   3.880   3.760
 2918SOL    HW1 9653   0.545   3.840   3.743
 2918SOL    HW2 9654   0.454   3.925   3.848
 2919SOL     OW 9655   5.977   6.223   0.407
 2919SOL    HW1 9656   5.965   6.144   0.346
 2919SOL    HW2 9657   5.923   6.210   0.489
 2920SOL     OW 9658   4.019   1.842   2.583
 2920SOL    HW1 9659   4.067   1.857   2.497
 2920SOL    HW2 9660   3.978   1.750   2.582
 2921SOL     OW 9661   0.448   0.999   2.827
 2921SOL    HW1 9662   0.426   1.041   2.739
 2921SOL    HW2 9663   0.383   1.031   2.896
 2922SOL     OW 9664   4.972   0.168   5.418
 2922SOL    HW1 9665   5.051   0.115   5.386
 2922SOL    HW2 9666   4.963   0.157   5.517
 2923SOL     OW 9667   6.364   5.140   2.562
 2923SOL    HW1 9668   6.315   5.140   2.650
 2923SOL    HW2 9669   6.349   5.227   2.516
 2924SOL     OW 9670   0.317   1.252   5.118
 2924SOL    HW1 9671   0.392   1.196   5.082
 2924SOL    HW2 9672   0.311   1.336   5.064
 2925SOL     OW 9673   5.674   3.205   1.641
 2925SOL    HW1 9674   5.708   3.299   1.635
 2925SOL    HW2 9675   5.574   3.205   1.644
 2926SOL     OW 9676   6.819   2.251   4.699
 2926SOL    HW1 9677   6.909   2.245   4.742
 2926SOL    HW2 9678   6.828   2.233   4.601
 2927SOL     OW 9679   1.490   2.834   2.267
 2927SOL    HW1 9680   1.540   2.750   2.248
 2927SOL    HW2 9681   1.435   2.823   2.350
 2928SOL     OW 9682   6.269   0.344   0.411
 2928SOL    HW1 9683   6.231   0.295   0.489
 2928SOL    HW2 9684   6.215   0.323   0.329
 2929SOL     OW 9685   0.303   6.974   6.324
 2929SOL    HW1 9686   0.323   6.884   6.363
 2929SOL    HW2 9687   0.389   7.021   6.305
 2930SOL     OW 9688   4.845   0.427   4.750
 2930SOL    HW1 9689   4.752   0.389   4.755
 2930SOL    HW2 9690   4.912   0.354   4.762
 2931SOL     OW 9691   4.789   6.706   6.803
 2931SOL    HW1 9692   4.729   6.782   6.830
 2931SOL    HW2 9693   4.733   6.630   6.770
 2932SOL     OW 9694   1.130   3.714   1.437
 2932SOL    HW1 9695   1.123   3.625   1.483
 2932SOL    HW2 9696   1.150   3.700   1.340
 2933SOL     OW 9697   5.137   2.353   3.915
 2933SOL    HW1 9698   5.220   2.399   3.948
 2933SOL    HW2 9699   5.068   2.422   3.891
 2934SOL     OW 9700   2.743   0.816   0.313
 2934SOL    HW1 9701   2.819   0.867   0.273
 2934SOL    HW2 9702   2.714   0.744   0.250
 2935SOL     OW 9703   5.797   2.577   0.663
 2935SOL    HW1 9704   5.743   2.652   0.700
 2935SOL    HW2 9705   5.755   2.544   0.578
 2936SOL     OW 9706   4.738   5.732   6.998
 2936SOL    HW1 9707   4.745   5.697   6.905
 2936SOL    HW2 9708   4.797   5.813   7.008
 2937SOL     OW 9709   3.509   5.851   0.278
 2937SOL    HW1 9710   3.599   5.807   0.281
 2937SOL    HW2 9711   3.513   5.932   0.220
 2938SOL     OW 9712   5.061   5.738   5.335
 2938SOL    HW1 9713   5.029   5.643   5.341
 2938SOL    HW2 9714   5.086   5.771   5.426
 2939SOL     OW 9715   6.787   6.288   5.472
 2939SOL    HW1 9716   6.758   6.247   5.559
 2939SOL    HW2 9717   6.827   6.378   5.491
 2940SOL     OW 9718   5.377   0.189   5.462
 2940SOL    HW1 9719   5.398   0.180   5.365
 2940SOL    HW2 9720   5.324   0.109   5.492
 2941SOL     OW 9721   0.782   2.182   5.482
 2941SOL    HW1 9722   0.754   2.213   5.392
 2941SOL    HW2 9723   0.796   2.261   5.542
 2942SOL     OW 9724   3.513   0.046   2.505
 2942SOL    HW1 9725   3.413   0.055   2.503
 2942SOL    HW2 9726   3.547   0.033   2.412
 2943SOL     OW 9727   6.029   3.556   3.599
 2943SOL    HW1 9728   6.080   3.637   3.629
 2943SOL    HW2 9729   6.093   3.491   3.557
 2944SOL     OW 9730   3.967   5.438   5.329
 2944SOL    HW1 9731   3.892   5.373   5.342
 2944SOL    HW2 9732   4.052   5.387   5.313
 2945SOL     OW 9733   3.022   3.324   3.453
 2945SOL    HW1 9734   2.996   3.421   3.461
 2945SOL    HW2 9735   3.121   3.316   3.456
 2946SOL     OW 9736   6.622   6.033   6.041
 2946SOL    HW1 9737   6.712   6.010   6.005
 2946SOL    HW2 9738   6.600   5.974   6.119
 2947SOL     OW 9739   6.543   4.344   0.375
 2947SOL    HW1 9740   6.554   4.245   0.366
 2947SOL    HW2 9741   6.474   4.376   0.310
 2948SOL     OW 9742   6.229   4.206   4.646
 2948SOL    HW1 9743   6.210   4.217   4.744
 2948SOL    HW2 9744   6.150   4.164   4.602
 2949SOL     OW 9745   1.273   6.581   0.423
 2949SOL    HW1 9746   1.265   6.652   0.353
 2949SOL    HW2 9747   1.368   6.552   0.431
 2950SOL     OW 9748   5.373   3.229   4.441
 2950SOL    HW1 9749   5.330   3.239   4.531
 2950SOL    HW2 9750   5.445   3.298   4.430
 2951SOL     OW 9751   0.612   1.323   1.127
 2951SOL    HW1 9752   0.672   1.244   1.140
 2951SOL    HW2 9753   0.649   1.383   1.056
 2952SOL     OW 9754   1.446   4.084   2.561
 2952SOL    HW1 9755   1.348   4.101   2.546
 2952SOL    HW2 9756   1.457   4.013   2.632
 2953SOL     OW 9757   4.449   2.715   1.502
 2953SOL    HW1 9758   4.510   2.754   1.572
 2953SOL    HW2 9759   4.379   2.783   1.478
 2954SOL     OW 9760   6.502   6.589   2.815
 2954SOL    HW1 9761   6.567   6.658   2.846
 2954SOL    HW2 9762   6.459   6.545   2.895
 2955SOL     OW 9763   1.223   3.126   0.889
 2955SOL    HW1 9764   1.192   3.198   0.951
 2955SOL    HW2 9765   1.145   3.090   0.837
 2956SOL     OW 9766   0.184   4.902   3.105
 2956SOL    HW1 9767   0.110   4.839   3.084
 2956SOL    HW2 9768   0.263   4.851   3.137
 2957SOL     OW 9769   0.602   3.739   1.869
 2957SOL    HW1 9770   0.696   3.739   1.835
 2957SOL    HW2 9771   0.594   3.674   1.945
 2958SOL     OW 9772   1.645   4.428   5.741
 2958SOL    HW1 9773   1.639   4.336   5.778
 2958SOL    HW2 9774   1.577   4.441   5.669
 2959SOL     OW 9775   4.487   5.980   6.393
 2959SOL    HW1 9776   4.534   6.039   6.327
 2959SOL    HW2 9777   4.391   5.970   6.367
 2960SOL     OW 9778   1.890   1.784   6.850
 2960SOL    HW1 9779   1.851   1.794   6.759
 2960SOL    HW2 9780   1.973   1.728   6.846
 2961SOL     OW 9781   5.390   3.476   4.076
 2961SOL    HW1 9782   5.349   3.392   4.112
 2961SOL    HW2 9783   5.320   3.526   4.024
 2962SOL     OW 9784   4.595   0.974   2.997
 2962SOL    HW1 9785   4.551   0.885   3.008
 2962SOL    HW2 9786   4.629   0.983   2.903
 2963SOL     OW 9787   2.399   1.743   5.098
 2963SOL    HW1 9788   2.461   1.736   5.020
 2963SOL    HW2 9789   2.434   1.688   5.173
 2964SOL     OW 9790   2.419   6.419   1.457
 2964SOL    HW1 9791   2.513   6.390   1.443
 2964SOL    HW2 9792   2.361   6.339   1.470
 2965SOL     OW 9793   0.445   1.342   5.698
 2965SOL    HW1 9794   0.517   1.401   5.733
 2965SOL    HW2 9795   0.361   1.395   5.687
 2966SOL     OW 9796   5.068   4.961   4.244
 2966SOL    HW1 9797   4.989   4.986   4.300
 2966SOL    HW2 9798   5.099   5.042   4.193
 2967SOL     OW 9799   6.060   3.054   3.028
 2967SOL    HW1 9800   6.078   3.034   2.932
 2967SOL    HW2 9801   5.965   3.081   3.040
 2968SOL     OW 9802   0.489   3.991   4.019
 2968SOL    HW1 9803   0.498   3.902   4.063
 2968SOL    HW2 9804   0.572   4.044   4.034
 2969SOL     OW 9805   5.195   2.090   4.596
 2969SOL    HW1 9806   5.190   2.167   4.532
 2969SOL    HW2 9807   5.120   2.027   4.578
 2970SOL     OW 9808   0.680   4.492   5.973
 2970SOL    HW1 9809   0.726   4.414   5.931
 2970SOL    HW2 9810   0.615   4.459   6.042
 2971SOL     OW 9811   6.052   2.421   2.675
 2971SOL    HW1 9812   6.019   2.373   2.594
 2971SOL    HW2 9813   6.015   2.513   2.677
 2972SOL     OW 9814   6.604   3.475   6.029
 2972SOL    HW1 9815   6.644   3.390   6.063
 2972SOL    HW2 9816   6.589   3.469   5.931
 2973SOL     OW 9817   4.865   6.706   4.091
 2973SOL    HW1 9818   4.959   6.672   4.092
 2973SOL    HW2 9819   4.856   6.777   4.022
 2974SOL     OW 9820   6.894   4.516   3.059
 2974SOL    HW1 9821   6.803   4.509   3.018
 2974SOL    HW2 9822   6.936   4.425   3.061
 2975SOL     OW 9823   0.570   0.849   5.199
 2975SOL    HW1 9824   0.661   0.880   5.170
 2975SOL    HW2 9825   0.580   0.791   5.281
 2976SOL     OW 9826   4.286   1.345   2.712
 2976SOL    HW1 9827   4.282   1.319   2.616
 2976SOL    HW2 9828   4.216   1.295   2.764
 2977SOL     OW 9829   3.005   6.813   4.230
 2977SOL    HW1 9830   2.980   6.898   4.185
 2977SOL    HW2 9831   2.974   6.815   4.325
 2978SOL     OW 9832   5.164   5.235   0.189
 2978SOL    HW1 9833   5.259   5.264   0.205
 2978SOL    HW2 9834   5.125   5.290   0.116
 2979SOL     OW 9835   3.524   0.506   2.972
 2979SOL    HW1 9836   3.491   0.504   2.878
 2979SOL    HW2 9837   3.490   0.427   3.021
 2980SOL     OW 9838   0.446   5.985   4.191
 2980SOL    HW1 9839   0.390   5.903   4.179
 2980SOL    HW2 9840   0.535   5.958   4.228
 2981SOL     OW 9841   1.821   0.949   5.450
 2981SOL    HW1 9842   1.903   0.907   5.489
 2981SOL    HW2 9843   1.837   1.047   5.438
 2982SOL     OW 9844   4.625   5.861   2.202
 2982SOL    HW1 9845   4.679   5.820   2.128
 2982SOL    HW2 9846   4.621   5.798   2.279
 2983SOL     OW 9847   0.126   1.102   4.350
 2983SOL    HW1 9848   0.167   1.017   4.318
 2983SOL    HW2 9849   0.083   1.149   4.273
 2984SOL     OW 9850   6.037   5.122   1.789
 2984SOL    HW1 9851   6.087   5.187   1.732
 2984SOL    HW2 9852   5.986   5.059   1.731
 2985SOL     OW 9853   6.931   2.309   3.497
 2985SOL    HW1 9854   0.003   2.317   3.467
 2985SOL    HW2 9855   6.922   2.348   3.589
 2986SOL     OW 9856   1.678   3.904   5.097
 2986SOL    HW1 9857   1.739   3.857   5.033
 2986SOL    HW2 9858   1.605   3.949   5.046
 2987SOL     OW 9859   4.214   1.987   4.416
 2987SOL    HW1 9860   4.180   1.927   4.490
 2987SOL    HW2 9861   4.199   2.082   4.441
 2988SOL     OW 9862   1.030   0.364   1.712
 2988SOL    HW1 9863   0.984   0.359   1.623
 2988SOL    HW2 9864   1.086   0.447   1.716
 2989SOL     OW 9865   0.075   4.832   0.830
 2989SOL    HW1 9866   0.101   4.921   0.868
 2989SOL    HW2 9867   0.156   4.785   0.797
 2990SOL     OW 9868   3.636   1.728   1.441
 2990SOL    HW1 9869   3.659   1.639   1.479
 2990SOL    HW2 9870   3.685   1.741   1.354
 2991SOL     OW 9871   0.322   3.667   0.447
 2991SOL    HW1 9872   0.246   3.712   0.492
 2991SOL    HW2 9873   0.399   3.730   0.438
 2992SOL     OW 9874   3.551   5.060   6.243
 2992SOL    HW1 9875   3.483   5.101   6.304
 2992SOL    HW2 9876   3.591   4.979   6.286
 2993SOL     OW 9877   1.108   5.419   1.339
 2993SOL    HW1 9878   1.067   5.349   1.281
 2993SOL    HW2 9879   1.206   5.400   1.351
 2994SOL     OW 9880   5.210   0.080   0.142
 2994SOL    HW1 9881   5.209   0.072   0.241
 2994SOL    HW2 9882   5.264   0.006   0.102
 2995SOL     OW 9883   1.343   1.856   6.567
 2995SOL    HW1 9884   1.279   1.893   6.633
 2995SOL    HW2 9885   1.432   1.900   6.578
 2996SOL     OW 9886   4.032   5.265   5.789
 2996SOL    HW1 9887   4.120   5.299   5.821
 2996SOL    HW2 9888   3.973   5.246   5.868
 2997SOL     OW 9889   5.474   6.672   1.034
 2997SOL    HW1 9890   5.538   6.665   0.958
 2997SOL    HW2 9891   5.477   6.765   1.071
 2998SOL     OW 9892   6.442   5.377   3.850
 2998SOL    HW1 9893   6.397   5.376   3.939
 2998SOL    HW2 9894   6.400   5.445   3.791
 2999SOL     OW 9895   3.235   6.736   2.705
 2999SOL    HW1 9896   3.262   6.692   2.791
 2999SOL    HW2 9897   3.156   6.795   2.721
 3000SOL     OW 9898   1.453   3.401   5.939
 3000SOL    HW1 9899   1.407   3.327   5.989
 3000SOL    HW2 9900   1.552   3.394   5.953
 3001SOL     OW 9901   4.862   1.002   5.781
 3001SOL    HW1 9902   4.848   0.977   5.685
 3001SOL    HW2 9903   4.782   0.974   5.835
 3002SOL     OW 9904   4.418   0.192   5.362
 3002SOL    HW1 9905   4.319   0.199   5.368
 3002SOL    HW2 9906   4.443   0.101   5.331
 3003SOL     OW 9907   3.059   6.654   6.039
 3003SOL    HW1 9908   3.136   6.590   6.042
 3003SOL    HW2 9909   2.973   6.602   6.046
 3004SOL     OW 9910   6.147   3.210   4.043
 3004SOL    HW1 9911   6.121   3.240   4.134
 3004SOL    HW2 9912   6.162   3.111   4.043
 3005SOL     OW 9913   3.677   3.075   1.072
 3005SOL    HW1 9914   3.749   3.006   1.075
 3005SOL    HW2 9915   3.594   3.036   1.032
 3006SOL     OW 9916   5.009   0.894   1.025
 3006SOL    HW1 9917   5.029   0.986   1.060
 3006SOL    HW2 9918   4.912   0.873   1.040
 3007SOL     OW 9919   6.119   4.670   3.144
 3007SOL    HW1 9920   6.033   4.674   3.094
 3007SOL    HW2 9921   6.144   4.761   3.175
 3008SOL     OW 9922   3.416   6.767   5.450
 3008SOL    HW1 9923   3.473   6.823   5.510
 3008SOL    HW2 9924   3.448   6.672   5.454
 3009SOL     OW 9925   1.284   6.894   3.001
 3009SOL    HW1 9926   1.316   6.830   2.931
 3009SOL    HW2 9927   1.354   6.907   3.070
 3010SOL     OW 9928   3.634   5.995   2.511
 3010SOL    HW1 9929   3.569   5.939   2.562
 3010SOL    HW2 9930   3.650   6.080   2.560
 3011SOL     OW 9931   5.962   6.891   0.078
 3011SOL    HW1 9932   5.921   6.819   0.133
 3011SOL    HW2 9933   6.024   6.850   0.011
 3012SOL     OW 9934   0.236   3.703   3.803
 3012SOL    HW1 9935   0.152   3.694   3.750
 3012SOL    HW2 9936   0.298   3.765   3.755
 3013SOL     OW 9937   5.929   5.646   2.166
 3013SOL    HW1 9938   5.956   5.581   2.237
 3013SOL    HW2 9939   5.831   5.639   2.149
 3014SOL     OW 9940   4.683   1.156   3.967
 3014SOL    HW1 9941   4.770   1.194   3.935
 3014SOL    HW2 9942   4.626   1.132   3.889
 3015SOL     OW 9943   2.801   2.441   0.395
 3015SOL    HW1 9944   2.860   2.480   0.324
 3015SOL    HW2 9945   2.709   2.431   0.360
 3016SOL     OW 9946   3.625   6.609   3.500
 3016SOL    HW1 9947   3.610   6.510   3.497
 3016SOL    HW2 9948   3.562   6.650   3.567
 3017SOL     OW 9949   0.795   6.000   1.421
 3017SOL    HW1 9950   0.718   6.046   1.465
 3017SOL    HW2 9951   0.843   6.065   1.361
 3018SOL     OW 9952   4.261   6.716   6.718
 3018SOL    HW1 9953   4.188   6.762   6.668
 3018SOL    HW2 9954   4.222   6.662   6.792
 3019SOL     OW 9955   3.731   0.125   0.975
 3019SOL    HW1 9956   3.735   0.071   1.058
 3019SOL    HW2 9957   3.674   0.079   0.907
 3020SOL     OW 9958   2.816   3.309   1.506
 3020SOL    HW1 9959   2.804   3.213   1.481
 3020SOL    HW2 9960   2.767   3.367   1.441
 3021SOL     OW 9961   1.855   2.252   6.718
 3021SOL    HW1 9962   1.879   2.342   6.683
 3021SOL    HW2 9963   1.841   2.256   6.817
 3022SOL     OW 9964   5.145   6.702   2.978
 3022SOL    HW1 9965   5.228   6.648   2.987
 3022SOL    HW2 9966   5.168   6.800   2.982
 3023SOL     OW 9967   4.530   5.940   3.211
 3023SOL    HW1 9968   4.575   6.000   3.144
 3023SOL    HW2 9969   4.528   5.847   3.175
 3024SOL     OW 9970   2.963   1.153   0.326
 3024SOL    HW1 9971   2.955   1.191   0.233
 3024SOL    HW2 9972   2.872   1.145   0.366
 3025SOL     OW 9973   2.468   2.929   1.139
 3025SOL    HW1 9974   2.406   2.852   1.123
 3025SOL    HW2 9975   2.420   3.014   1.121
 3026SOL     OW 9976   1.761   2.823   0.844
 3026SOL    HW1 9977   1.663   2.809   0.855
 3026SOL    HW2 9978   1.781   2.921   0.847
 3027SOL     OW 9979   2.014   1.741   3.358
 3027SOL    HW1 9980   2.010   1.763   3.455
 3027SOL    HW2 9981   1.954   1.802   3.307
 3028SOL     OW 9982   1.827   5.829   6.027
 3028SOL    HW1 9983   1.847   5.748   5.973
 3028SOL    HW2 9984   1.786   5.802   6.114
 3029SOL     OW 9985   6.241   5.708   5.088
 3029SOL    HW1 9986   6.297   5.629   5.112
 3029SOL    HW2 9987   6.149   5.696   5.124
 3030SOL     OW 9988   1.427   1.522   5.407
 3030SOL    HW1 9989   1.391   1.555   5.320
 3030SOL    HW2 9990   1.398   1.428   5.422
 3031SOL     OW 9991   0.124   3.732   6.329
 3031SOL    HW1 9992   0.175   3.657   6.286
 3031SOL    HW2 9993   0.046   3.757   6.271
 3032SOL     OW 9994   5.131   0.942   5.893
 3032SOL    HW1 9995   5.156   0.846   5.883
 3032SOL    HW2 9996   5.048   0.961   5.839
 3033SOL     OW 9997   0.104   3.735   6.666
 3033SOL    HW1 9998   0.006   3.740   6.648
 3033SOL    HW2 9999   0.120   3.692   6.754
 3034SOL     OW10000   3.135   6.283   4.122
 3034SOL    HW110001   3.051   6.312   4.076
 3034SOL    HW210002   3.204   6.258   4.053
 3035SOL     OW10003   5.532   1.621   0.328
 3035SOL    HW110004   5.583   1.603   0.412
 3035SOL    HW210005   5.568   1.703   0.283
 3036SOL     OW10006   0.856   4.133   6.769
 3036SOL    HW110007   0.885   4.180   6.852
 3036SOL    HW210008   0.868   4.194   6.691
 3037SOL     OW10009   6.851   6.398   5.103
 3037SOL    HW110010   6.769   6.440   5.143
 3037SOL    HW210011   6.826   6.309   5.063
 3038SOL     OW10012   5.549   6.815   5.992
 3038SOL    HW110013   5.486   6.801   6.069
 3038SOL    HW210014   5.496   6.829   5.909
 3039SOL     OW10015   0.533   4.010   1.935
 3039SOL    HW110016   0.531   3.914   1.906
 3039SOL    HW210017   0.470   4.063   1.877
 3040SOL     OW10018   2.961   3.784   6.718
 3040SOL    HW110019   3.024   3.862   6.711
 3040SOL    HW210020   2.932   3.773   6.812
 3041SOL     OW10021   1.768   2.310   5.740
 3041SOL    HW110022   1.715   2.238   5.694
 3041SOL    HW210023   1.861   2.278   5.754
 3042SOL     OW10024   4.726   0.092   2.069
 3042SOL    HW110025   4.756   0.111   2.163
 3042SOL    HW210026   4.718   7.017   2.056
 3043SOL     OW10027   1.253   5.598   0.206
 3043SOL    HW110028   1.180   5.547   0.161
 3043SOL    HW210029   1.266   5.686   0.160
 3044SOL     OW10030   3.389   4.387   5.935
 3044SOL    HW110031   3.351   4.477   5.955
 3044SOL    HW210032   3.340   4.346   5.858
 3045SOL     OW10033   5.261   1.920   2.308
 3045SOL    HW110034   5.286   1.936   2.212
 3045SOL    HW210035   5.303   1.990   2.366
 3046SOL     OW10036   1.576   2.641   5.620
 3046SOL    HW110037   1.668   2.660   5.584
 3046SOL    HW210038   1.551   2.711   5.687
 3047SOL     OW10039   6.027   5.412   2.282
 3047SOL    HW110040   6.099   5.466   2.239
 3047SOL    HW210041   6.044   5.405   2.380
 3048SOL     OW10042   3.296   3.094   1.187
 3048SOL    HW110043   3.324   3.112   1.281
 3048SOL    HW210044   3.343   3.013   1.153
 3049SOL     OW10045   0.788   0.661   1.942
 3049SOL    HW110046   0.841   0.709   1.872
 3049SOL    HW210047   0.813   0.564   1.942
 3050SOL     OW10048   4.388   5.744   3.768
 3050SOL    HW110049   4.430   5.802   3.838
 3050SOL    HW210050   4.381   5.794   3.682
 3051SOL     OW10051   2.974   5.336   6.720
 3051SOL    HW110052   3.022   5.255   6.752
 3051SOL    HW210053   3.041   5.406   6.693
 3052SOL     OW10054   3.509   0.091   2.787
 3052SOL    HW110055   3.594   0.136   2.813
 3052SOL    HW210056   3.499   0.094   2.688
 3053SOL     OW10057   5.797   6.424   0.300
 3053SOL    HW110058   5.706   6.409   0.339
 3053SOL    HW210059   5.857   6.348   0.326
 3054SOL     OW10060   0.467   3.496   0.235
 3054SOL    HW110061   0.398   3.529   0.301
 3054SOL    HW210062   0.460   3.549   0.151
 3055SOL     OW10063   6.045   6.344   3.672
 3055SOL    HW110064   6.014   6.373   3.582
 3055SOL    HW210065   6.008   6.254   3.693
 3056SOL     OW10066   6.538   0.410   0.439
 3056SOL    HW110067   6.555   0.507   0.421
 3056SOL    HW210068   6.442   0.389   0.421
 3057SOL     OW10069   5.898   4.753   2.983
 3057SOL    HW110070   5.852   4.832   3.024
 3057SOL    HW210071   5.849   4.726   2.900
 3058SOL     OW10072   6.238   5.661   0.917
 3058SOL    HW110073   6.196   5.633   0.831
 3058SOL    HW210074   6.265   5.580   0.969
 3059SOL     OW10075   0.827   3.234   5.016
 3059SOL    HW110076   0.906   3.240   4.955
 3059SOL    HW210077   0.859   3.234   5.111
 3060SOL     OW10078   0.241   6.129   1.659
 3060SOL    HW110079   0.260   6.059   1.590
 3060SOL    HW210080   0.161   6.102   1.713
 3061SOL     OW10081   0.137   0.677   5.194
 3061SOL    HW110082   0.037   0.671   5.199
 3061SOL    HW210083   0.167   0.758   5.245
 3062SOL     OW10084   2.624   6.296   0.822
 3062SOL    HW110085   2.625   6.278   0.723
 3062SOL    HW210086   2.627   6.394   0.838
 3063SOL     OW10087   1.447   4.931   1.482
 3063SOL    HW110088   1.466   5.017   1.529
 3063SOL    HW210089   1.532   4.879   1.473
 3064SOL     OW10090   6.506   3.958   3.228
 3064SOL    HW110091   6.593   3.909   3.217
 3064SOL    HW210092   6.458   3.961   3.141
 3065SOL     OW10093   1.659   0.485   0.028
 3065SOL    HW110094   1.637   0.514   0.121
 3065SOL    HW210095   1.575   0.456   7.005
 3066SOL     OW10096   6.171   4.694   1.028
 3066SOL    HW110097   6.213   4.609   0.996
 3066SOL    HW210098   6.230   4.771   1.006
 3067SOL     OW10099   4.779   6.806   4.381
 3067SOL    HW110100   4.688   6.774   4.356
 3067SOL    HW210101   4.818   6.858   4.305
 3068SOL     OW10102   5.583   5.180   1.291
 3068SOL    HW110103   5.639   5.100   1.269
 3068SOL    HW210104   5.634   5.263   1.271
 3069SOL     OW10105   0.364   5.693   1.987
 3069SOL    HW110106   0.370   5.792   1.978
 3069SOL    HW210107   0.370   5.668   2.083
 3070SOL     OW10108   2.767   1.520   3.492
 3070SOL    HW110109   2.810   1.432   3.514
 3070SOL    HW210110   2.678   1.505   3.449
 3071SOL     OW10111   6.081   0.270   3.806
 3071SOL    HW110112   6.060   0.195   3.868
 3071SOL    HW210113   6.165   0.250   3.755
 3072SOL     OW10114   0.269   6.760   2.478
 3072SOL    HW110115   0.342   6.805   2.530
 3072SOL    HW210116   0.302   6.672   2.444
 3073SOL     OW10117   1.283   3.720   5.283
 3073SOL    HW110118   1.307   3.643   5.224
 3073SOL    HW210119   1.227   3.689   5.360
 3074SOL     OW10120   4.299   3.118   6.710
 3074SOL    HW110121   4.380   3.166   6.676
 3074SOL    HW210122   4.327   3.040   6.765
 3075SOL     OW10123   1.730   5.998   1.245
 3075SOL    HW110124   1.708   5.956   1.157
 3075SOL    HW210125   1.657   6.061   1.271
 3076SOL     OW10126   6.347   0.448   4.986
 3076SOL    HW110127   6.423   0.494   5.031
 3076SOL    HW210128   6.261   0.491   5.015
 3077SOL     OW10129   6.010   4.600   4.546
 3077SOL    HW110130   6.076   4.666   4.581
 3077SOL    HW210131   5.917   4.637   4.559
 3078SOL     OW10132   1.589   3.572   2.052
 3078SOL    HW110133   1.680   3.599   2.018
 3078SOL    HW210134   1.537   3.531   1.978
 3079SOL     OW10135   6.901   2.161   5.067
 3079SOL    HW110136   6.929   2.232   5.003
 3079SOL    HW210137   6.942   2.179   5.157
 3080SOL     OW10138   6.332   4.881   0.970
 3080SOL    HW110139   6.345   4.846   0.877
 3080SOL    HW210140   6.421   4.903   1.011
 3081SOL     OW10141   0.473   4.457   5.693
 3081SOL    HW110142   0.536   4.395   5.740
 3081SOL    HW210143   0.516   4.547   5.684
 3082SOL     OW10144   3.422   0.359   2.466
 3082SOL    HW110145   3.359   0.289   2.501
 3082SOL    HW210146   3.401   0.378   2.370
 3083SOL     OW10147   3.389   0.490   1.863
 3083SOL    HW110148   3.405   0.586   1.838
 3083SOL    HW210149   3.467   0.456   1.915
 3084SOL     OW10150   5.563   5.265   4.657
 3084SOL    HW110151   5.502   5.196   4.617
 3084SOL    HW210152   5.634   5.289   4.591
 3085SOL     OW10153   6.830   5.766   2.571
 3085SOL    HW110154   6.809   5.679   2.615
 3085SOL    HW210155   6.907   5.753   2.509
 3086SOL     OW10156   4.990   1.871   3.139
 3086SOL    HW110157   5.068   1.920   3.178
 3086SOL    HW210158   4.946   1.928   3.069
 3087SOL     OW10159   6.114   4.174   3.108
 3087SOL    HW110160   6.088   4.146   3.200
 3087SOL    HW210161   6.042   4.151   3.044
 3088SOL     OW10162   2.350   4.290   5.269
 3088SOL    HW110163   2.297   4.206   5.281
 3088SOL    HW210164   2.342   4.321   5.174
 3089SOL     OW10165   1.284   2.449   0.059
 3089SOL    HW110166   1.220   2.505   0.006
 3089SOL    HW210167   1.299   2.491   0.149
 3090SOL     OW10168   1.742   1.760   1.223
 3090SOL    HW110169   1.702   1.840   1.176
 3090SOL    HW210170   1.709   1.757   1.317
 3091SOL     OW10171   2.145   6.519   0.834
 3091SOL    HW110172   2.220   6.532   0.899
 3091SOL    HW210173   2.121   6.607   0.794
 3092SOL     OW10174   6.132   0.027   0.974
 3092SOL    HW110175   6.221   0.068   0.955
 3092SOL    HW210176   6.106   6.989   0.899
 3093SOL     OW10177   6.222   5.468   5.493
 3093SOL    HW110178   6.194   5.415   5.573
 3093SOL    HW210179   6.155   5.457   5.420
 3094SOL     OW10180   3.302   5.832   5.356
 3094SOL    HW110181   3.281   5.737   5.330
 3094SOL    HW210182   3.381   5.832   5.417
 3095SOL     OW10183   2.787   4.778   4.477
 3095SOL    HW110184   2.801   4.874   4.450
 3095SOL    HW210185   2.816   4.766   4.572
 3096SOL     OW10186   0.419   0.276   5.047
 3096SOL    HW110187   0.410   0.374   5.030
 3096SOL    HW210188   0.429   0.259   5.145
 3097SOL     OW10189   0.878   2.846   0.414
 3097SOL    HW110190   0.966   2.883   0.445
 3097SOL    HW210191   0.804   2.885   0.468
 3098SOL     OW10192   2.393   3.394   0.588
 3098SOL    HW110193   2.304   3.375   0.545
 3098SOL    HW210194   2.466   3.358   0.530
 3099SOL     OW10195   0.650   5.780   5.991
 3099SOL    HW110196   0.747   5.754   5.989
 3099SOL    HW210197   0.594   5.698   6.002
 3100SOL     OW10198   6.813   6.755   6.466
 3100SOL    HW110199   6.834   6.738   6.563
 3100SOL    HW210200   6.728   6.807   6.459
 3101SOL     OW10201   5.189   6.616   6.538
 3101SOL    HW110202   5.141   6.691   6.583
 3101SOL    HW210203   5.201   6.638   6.441
 3102SOL     OW10204   1.600   4.016   0.965
 3102SOL    HW110205   1.700   4.017   0.970
 3102SOL    HW210206   1.571   4.031   0.871
 3103SOL     OW10207   3.940   2.637   1.546
 3103SOL    HW110208   3.925   2.551   1.596
 3103SOL    HW210209   3.933   2.620   1.448
 3104SOL     OW10210   5.661   5.797   4.153
 3104SOL    HW110211   5.634   5.753   4.238
 3104SOL    HW210212   5.583   5.802   4.091
 3105SOL     OW10213   5.917   6.549   4.202
 3105SOL    HW110214   5.965   6.630   4.167
 3105SOL    HW210215   5.910   6.480   4.130
 3106SOL     OW10216   6.654   3.031   2.768
 3106SOL    HW110217   6.673   3.002   2.674
 3106SOL    HW210218   6.614   2.956   2.819
 3107SOL     OW10219   2.935   0.315   3.984
 3107SOL    HW110220   2.852   0.339   4.035
 3107SOL    HW210221   2.910   0.297   3.889
 3108SOL     OW10222   2.565   0.761   3.983
 3108SOL    HW110223   2.557   0.774   4.082
 3108SOL    HW210224   2.548   0.848   3.937
 3109SOL     OW10225   5.142   6.085   3.267
 3109SOL    HW110226   5.182   6.005   3.221
 3109SOL    HW210227   5.051   6.063   3.300
 3110SOL     OW10228   1.071   3.022   2.528
 3110SOL    HW110229   1.015   3.097   2.561
 3110SOL    HW210230   1.159   3.022   2.576
 3111SOL     OW10231   6.777   5.104   3.182
 3111SOL    HW110232   6.841   5.155   3.125
 3111SOL    HW210233   6.824   5.071   3.264
 3112SOL     OW10234   4.726   3.746   6.428
 3112SOL    HW110235   4.788   3.806   6.378
 3112SOL    HW210236   4.637   3.791   6.439
 3113SOL     OW10237   2.296   0.062   3.236
 3113SOL    HW110238   2.257   0.087   3.148
 3113SOL    HW210239   2.353   7.004   3.227
 3114SOL     OW10240   6.124   4.532   0.790
 3114SOL    HW110241   6.145   4.626   0.764
 3114SOL    HW210242   6.026   4.515   0.782
 3115SOL     OW10243   3.386   4.132   0.287
 3115SOL    HW110244   3.476   4.112   0.326
 3115SOL    HW210245   3.315   4.093   0.345
 3116SOL     OW10246   6.408   2.466   6.861
 3116SOL    HW110247   6.455   2.508   6.939
 3116SOL    HW210248   6.339   2.529   6.826
 3117SOL     OW10249   4.062   3.254   5.184
 3117SOL    HW110250   4.115   3.338   5.182
 3117SOL    HW210251   4.115   3.182   5.229
 3118SOL     OW10252   6.349   4.236   0.631
 3118SOL    HW110253   6.443   4.266   0.640
 3118SOL    HW210254   6.297   4.261   0.712
 3119SOL     OW10255   1.541   4.768   4.938
 3119SOL    HW110256   1.517   4.851   4.888
 3119SOL    HW210257   1.591   4.793   5.021
 3120SOL     OW10258   3.156   5.484   4.771
 3120SOL    HW110259   3.137   5.386   4.777
 3120SOL    HW210260   3.161   5.522   4.863
 3121SOL     OW10261   6.869   1.090   2.490
 3121SOL    HW110262   6.844   1.035   2.569
 3121SOL    HW210263   6.786   1.124   2.444
 3122SOL     OW10264   2.694   5.668   6.625
 3122SOL    HW110265   2.645   5.592   6.582
 3122SOL    HW210266   2.766   5.631   6.684
 3123SOL     OW10267   3.762   6.365   3.938
 3123SOL    HW110268   3.673   6.407   3.922
 3123SOL    HW210269   3.834   6.428   3.908
 3124SOL     OW10270   4.434   1.399   5.371
 3124SOL    HW110271   4.379   1.428   5.449
 3124SOL    HW210272   4.499   1.329   5.401
 3125SOL     OW10273   6.481   1.770   6.200
 3125SOL    HW110274   6.549   1.816   6.257
 3125SOL    HW210275   6.464   1.678   6.234
 3126SOL     OW10276   4.484   5.870   0.070
 3126SOL    HW110277   4.538   5.788   0.050
 3126SOL    HW210278   4.389   5.855   0.044
 3127SOL     OW10279   0.770   1.869   4.025
 3127SOL    HW110280   0.761   1.867   3.926
 3127SOL    HW210281   0.865   1.891   4.049
 3128SOL     OW10282   2.131   1.166   0.895
 3128SOL    HW110283   2.150   1.107   0.973
 3128SOL    HW210284   2.036   1.198   0.899
 3129SOL     OW10285   6.569   3.738   5.526
 3129SOL    HW110286   6.641   3.799   5.559
 3129SOL    HW210287   6.611   3.660   5.479
 3130SOL     OW10288   2.053   4.469   2.021
 3130SOL    HW110289   2.041   4.566   2.000
 3130SOL    HW210290   1.990   4.415   1.965
 3131SOL     OW10291   0.048   3.293   2.766
 3131SOL    HW110292   0.105   3.263   2.843
 3131SOL    HW210293   6.976   3.270   2.785
 3132SOL     OW10294   5.975   6.137   5.503
 3132SOL    HW110295   5.983   6.187   5.589
 3132SOL    HW210296   5.897   6.170   5.451
 3133SOL     OW10297   3.106   2.148   3.074
 3133SOL    HW110298   3.199   2.142   3.036
 3133SOL    HW210299   3.052   2.069   3.044
 3134SOL     OW10300   4.877   3.611   1.599
 3134SOL    HW110301   4.851   3.587   1.505
 3134SOL    HW210302   4.889   3.527   1.652
 3135SOL     OW10303   3.484   2.146   3.749
 3135SOL    HW110304   3.454   2.228   3.700
 3135SOL    HW210305   3.482   2.163   3.848
 3136SOL     OW10306   6.327   6.165   5.674
 3136SOL    HW110307   6.380   6.085   5.704
 3136SOL    HW210308   6.341   6.178   5.576
 3137SOL     OW10309   5.593   2.007   4.063
 3137SOL    HW110310   5.689   1.981   4.056
 3137SOL    HW210311   5.550   1.954   4.136
 3138SOL     OW10312   6.342   1.574   4.611
 3138SOL    HW110313   6.307   1.482   4.598
 3138SOL    HW210314   6.294   1.637   4.550
 3139SOL     OW10315   5.104   6.428   5.178
 3139SOL    HW110316   5.029   6.458   5.238
 3139SOL    HW210317   5.180   6.394   5.234
 3140SOL     OW10318   6.578   6.296   6.778
 3140SOL    HW110319   6.662   6.246   6.795
 3140SOL    HW210320   6.549   6.343   6.861
 3141SOL     OW10321   1.576   5.587   0.490
 3141SOL    HW110322   1.522   5.651   0.435
 3141SOL    HW210323   1.523   5.503   0.504
 3142SOL     OW10324   4.704   6.404   6.354
 3142SOL    HW110325   4.664   6.399   6.446
 3142SOL    HW210326   4.653   6.471   6.300
 3143SOL     OW10327   6.595   1.572   0.352
 3143SOL    HW110328   6.551   1.592   0.440
 3143SOL    HW210329   6.642   1.653   0.319
 3144SOL     OW10330   2.167   3.529   6.666
 3144SOL    HW110331   2.075   3.559   6.690
 3144SOL    HW210332   2.161   3.445   6.611
 3145SOL     OW10333   3.043   5.594   2.731
 3145SOL    HW110334   3.127   5.580   2.782
 3145SOL    HW210335   3.026   5.693   2.721
 3146SOL     OW10336   1.493   0.181   3.331
 3146SOL    HW110337   1.510   0.236   3.412
 3146SOL    HW210338   1.394   0.178   3.313
 3147SOL     OW10339   5.107   3.531   0.382
 3147SOL    HW110340   5.108   3.622   0.339
 3147SOL    HW210341   5.012   3.502   0.393
 3148SOL     OW10342   3.817   5.470   4.737
 3148SOL    HW110343   3.746   5.522   4.785
 3148SOL    HW210344   3.776   5.395   4.686
 3149SOL     OW10345   3.379   0.546   5.634
 3149SOL    HW110346   3.428   0.546   5.722
 3149SOL    HW210347   3.328   0.631   5.624
 3150SOL     OW10348   5.757   6.352   4.545
 3150SOL    HW110349   5.771   6.264   4.500
 3150SOL    HW210350   5.839   6.409   4.534
 3151SOL     OW10351   4.228   1.652   6.148
 3151SOL    HW110352   4.235   1.750   6.165
 3151SOL    HW210353   4.320   1.613   6.140
 3152SOL     OW10354   0.796   5.812   1.226
 3152SOL    HW110355   0.796   5.875   1.303
 3152SOL    HW210356   0.878   5.828   1.170
 3153SOL     OW10357   6.453   4.018   2.280
 3153SOL    HW110358   6.433   3.952   2.208
 3153SOL    HW210359   6.384   4.012   2.352
 3154SOL     OW10360   5.589   2.566   6.143
 3154SOL    HW110361   5.490   2.571   6.132
 3154SOL    HW210362   5.634   2.627   6.079
 3155SOL     OW10363   5.867   5.578   0.846
 3155SOL    HW110364   5.769   5.576   0.826
 3155SOL    HW210365   5.915   5.512   0.788
 3156SOL     OW10366   3.800   4.074   3.682
 3156SOL    HW110367   3.848   4.001   3.632
 3156SOL    HW210368   3.790   4.047   3.778
 3157SOL     OW10369   2.232   4.034   3.896
 3157SOL    HW110370   2.250   3.941   3.926
 3157SOL    HW210371   2.209   4.034   3.798
 3158SOL     OW10372   4.994   6.891   1.094
 3158SOL    HW110373   4.984   6.960   1.166
 3158SOL    HW210374   5.022   6.804   1.136
 3159SOL     OW10375   5.104   5.624   7.014
 3159SOL    HW110376   5.171   5.677   0.043
 3159SOL    HW210377   5.046   5.687   6.962
 3160SOL     OW10378   4.827   4.195   0.127
 3160SOL    HW110379   4.751   4.199   0.062
 3160SOL    HW210380   4.811   4.261   0.201
 3161SOL     OW10381   1.159   1.442   3.185
 3161SOL    HW110382   1.185   1.537   3.170
 3161SOL    HW210383   1.116   1.405   3.103
 3162SOL     OW10384   0.617   4.998   6.360
 3162SOL    HW110385   0.610   5.097   6.370
 3162SOL    HW210386   0.699   4.975   6.307
 3163SOL     OW10387   3.008   4.126   6.412
 3163SOL    HW110388   3.060   4.200   6.370
 3163SOL    HW210389   3.020   4.042   6.358
 3164SOL     OW10390   5.184   4.597   0.037
 3164SOL    HW110391   5.243   4.516   0.042
 3164SOL    HW210392   5.220   4.660   6.992
 3165SOL     OW10393   0.155   0.999   1.678
 3165SOL    HW110394   0.119   1.001   1.772
 3165SOL    HW210395   0.214   0.919   1.667
 3166SOL     OW10396   5.382   3.293   6.670
 3166SOL    HW110397   5.472   3.305   6.711
 3166SOL    HW210398   5.318   3.260   6.740
 3167SOL     OW10399   0.279   5.207   1.838
 3167SOL    HW110400   0.184   5.201   1.808
 3167SOL    HW210401   0.331   5.265   1.774
 3168SOL     OW10402   5.377   3.582   1.085
 3168SOL    HW110403   5.431   3.566   1.167
 3168SOL    HW210404   5.310   3.508   1.074
 3169SOL     OW10405   1.002   2.752   5.061
 3169SOL    HW110406   0.934   2.684   5.034
 3169SOL    HW210407   1.052   2.783   4.980
 3170SOL     OW10408   4.410   0.445   0.256
 3170SOL    HW110409   4.358   0.471   0.175
 3170SOL    HW210410   4.347   0.423   0.330
 3171SOL     OW10411   5.507   6.550   3.235
 3171SOL    HW110412   5.444   6.567   3.311
 3171SOL    HW210413   5.488   6.459   3.196
 3172SOL     OW10414   6.426   0.349   4.735
 3172SOL    HW110415   6.517   0.315   4.758
 3172SOL    HW210416   6.386   0.394   4.815
 3173SOL     OW10417   2.681   0.300   1.400
 3173SOL    HW110418   2.629   0.276   1.318
 3173SOL    HW210419   2.622   0.293   1.480
 3174SOL     OW10420   2.204   2.857   6.381
 3174SOL    HW110421   2.219   2.765   6.419
 3174SOL    HW210422   2.137   2.851   6.307
 3175SOL     OW10423   0.729   6.376   0.788
 3175SOL    HW110424   0.823   6.379   0.823
 3175SOL    HW210425   0.722   6.435   0.708
 3176SOL     OW10426   0.507   4.321   6.467
 3176SOL    HW110427   0.475   4.271   6.548
 3176SOL    HW210428   0.607   4.325   6.468
 3177SOL     OW10429   5.897   5.995   6.210
 3177SOL    HW110430   5.961   5.957   6.143
 3177SOL    HW210431   5.837   5.922   6.243
 3178SOL     OW10432   0.523   3.477   1.246
 3178SOL    HW110433   0.509   3.573   1.269
 3178SOL    HW210434   0.572   3.471   1.159
 3179SOL     OW10435   1.822   1.537   2.743
 3179SOL    HW110436   1.809   1.438   2.739
 3179SOL    HW210437   1.827   1.573   2.649
 3180SOL     OW10438   5.756   0.813   5.770
 3180SOL    HW110439   5.800   0.774   5.851
 3180SOL    HW210440   5.732   0.909   5.789
 3181SOL     OW10441   0.906   0.952   3.074
 3181SOL    HW110442   0.935   0.862   3.042
 3181SOL    HW210443   0.968   0.984   3.145
 3182SOL     OW10444   2.097   5.763   5.322
 3182SOL    HW110445   2.095   5.700   5.245
 3182SOL    HW210446   2.183   5.814   5.321
 3183SOL     OW10447   3.610   3.194   1.523
 3183SOL    HW110448   3.591   3.278   1.573
 3183SOL    HW210449   3.633   3.121   1.588
 3184SOL     OW10450   2.499   2.037   2.001
 3184SOL    HW110451   2.461   2.104   1.937
 3184SOL    HW210452   2.597   2.051   2.010
 3185SOL     OW10453   6.690   6.936   5.771
 3185SOL    HW110454   6.670   6.991   5.853
 3185SOL    HW210455   6.634   6.854   5.772
 3186SOL     OW10456   2.822   1.124   2.386
 3186SOL    HW110457   2.767   1.048   2.420
 3186SOL    HW210458   2.807   1.137   2.288
 3187SOL     OW10459   3.416   4.401   0.221
 3187SOL    HW110460   3.406   4.302   0.226
 3187SOL    HW210461   3.408   4.440   0.313
 3188SOL     OW10462   4.246   6.312   3.443
 3188SOL    HW110463   4.312   6.273   3.379
 3188SOL    HW210464   4.272   6.287   3.537
 3189SOL     OW10465   0.841   6.266   2.698
 3189SOL    HW110466   0.915   6.293   2.636
 3189SOL    HW210467   0.807   6.176   2.672
 3190SOL     OW10468   1.147   5.822   2.468
 3190SOL    HW110469   1.234   5.827   2.421
 3190SOL    HW210470   1.128   5.910   2.512
 3191SOL     OW10471   4.140   0.830   1.121
 3191SOL    HW110472   4.181   0.842   1.212
 3191SOL    HW210473   4.207   0.855   1.051
 3192SOL     OW10474   0.762   3.166   2.506
 3192SOL    HW110475   0.744   3.097   2.576
 3192SOL    HW210476   0.788   3.122   2.420
 3193SOL     OW10477   4.518   3.104   6.383
 3193SOL    HW110478   4.532   3.160   6.464
 3193SOL    HW210479   4.500   3.009   6.410
 3194SOL     OW10480   0.161   3.390   5.995
 3194SOL    HW110481   0.165   3.290   6.003
 3194SOL    HW210482   0.207   3.418   5.911
 3195SOL     OW10483   1.040   3.309   3.489
 3195SOL    HW110484   1.101   3.281   3.415
 3195SOL    HW210485   1.056   3.251   3.569
 3196SOL     OW10486   6.761   0.046   5.525
 3196SOL    HW110487   6.744   0.005   5.614
 3196SOL    HW210488   6.750   0.145   5.531
 3197SOL     OW10489   1.114   4.359   3.672
 3197SOL    HW110490   1.113   4.324   3.766
 3197SOL    HW210491   1.194   4.418   3.659
 3198SOL     OW10492   6.610   1.374   6.909
 3198SOL    HW110493   6.676   1.304   6.883
 3198SOL    HW210494   6.598   1.372   7.009
 3199SOL     OW10495   4.692   2.156   2.042
 3199SOL    HW110496   4.648   2.245   2.033
 3199SOL    HW210497   4.723   2.125   1.952
 3200SOL     OW10498   7.006   1.690   1.412
 3200SOL    HW110499   0.031   1.605   1.390
 3200SOL    HW210500   6.932   1.671   1.476
 3201SOL     OW10501   4.455   4.445   2.818
 3201SOL    HW110502   4.428   4.518   2.755
 3201SOL    HW210503   4.467   4.360   2.767
 3202SOL     OW10504   2.072   5.739   1.786
 3202SOL    HW110505   2.093   5.687   1.869
 3202SOL    HW210506   2.156   5.753   1.734
 3203SOL     OW10507   6.513   6.873   1.724
 3203SOL    HW110508   6.573   6.821   1.663
 3203SOL    HW210509   6.497   6.821   1.807
 3204SOL     OW10510   6.317   5.436   1.924
 3204SOL    HW110511   6.287   5.467   1.833
 3204SOL    HW210512   6.301   5.338   1.932
 3205SOL     OW10513   0.712   3.794   3.754
 3205SOL    HW110514   0.755   3.761   3.838
 3205SOL    HW210515   0.781   3.808   3.684
 3206SOL     OW10516   1.155   0.281   6.457
 3206SOL    HW110517   1.169   0.351   6.388
 3206SOL    HW210518   1.212   0.201   6.435
 3207SOL     OW10519   0.244   1.417   4.109
 3207SOL    HW110520   0.300   1.359   4.049
 3207SOL    HW210521   0.277   1.410   4.203
 3208SOL     OW10522   5.347   6.830   5.418
 3208SOL    HW110523   5.297   6.787   5.342
 3208SOL    HW210524   5.285   6.891   5.467
 3209SOL     OW10525   2.427   0.756   3.747
 3209SOL    HW110526   2.496   0.733   3.816
 3209SOL    HW210527   2.453   0.841   3.702
 3210SOL     OW10528   0.082   4.553   2.903
 3210SOL    HW110529   0.006   4.538   2.966
 3210SOL    HW210530   0.168   4.549   2.953
 3211SOL     OW10531   1.698   4.371   2.294
 3211SOL    HW110532   1.622   4.435   2.283
 3211SOL    HW210533   1.693   4.329   2.385
 3212SOL     OW10534   4.626   2.144   5.941
 3212SOL    HW110535   4.699   2.162   5.875
 3212SOL    HW210536   4.539   2.131   5.894
 3213SOL     OW10537   6.432   6.233   1.662
 3213SOL    HW110538   6.526   6.257   1.686
 3213SOL    HW210539   6.369   6.289   1.715
 3214SOL     OW10540   4.575   5.737   6.247
 3214SOL    HW110541   4.546   5.789   6.167
 3214SOL    HW210542   4.496   5.721   6.306
 3215SOL     OW10543   5.892   1.493   6.809
 3215SOL    HW110544   5.843   1.536   6.885
 3215SOL    HW210545   5.980   1.458   6.843
 3216SOL     OW10546   5.726   6.515   3.911
 3216SOL    HW110547   5.731   6.614   3.925
 3216SOL    HW210548   5.631   6.489   3.895
 3217SOL     OW10549   6.715   3.831   2.062
 3217SOL    HW110550   6.786   3.840   1.992
 3217SOL    HW210551   6.757   3.835   2.152
 3218SOL     OW10552   2.696   0.462   2.893
 3218SOL    HW110553   2.697   0.421   2.984
 3218SOL    HW210554   2.746   0.404   2.830
 3219SOL     OW10555   6.479   0.650   3.745
 3219SOL    HW110556   6.417   0.572   3.750
 3219SOL    HW210557   6.467   0.696   3.657
 3220SOL     OW10558   6.328   3.326   5.695
 3220SOL    HW110559   6.296   3.413   5.734
 3220SOL    HW210560   6.370   3.343   5.606
 3221SOL     OW10561   2.671   0.093   3.314
 3221SOL    HW110562   2.588   0.037   3.315
 3221SOL    HW210563   2.708   0.096   3.221
 3222SOL     OW10564   5.684   2.730   2.807
 3222SOL    HW110565   5.778   2.699   2.820
 3222SOL    HW210566   5.640   2.676   2.736
 3223SOL     OW10567   2.554   5.005   4.888
 3223SOL    HW110568   2.488   4.940   4.849
 3223SOL    HW210569   2.620   4.956   4.944
 3224SOL     OW10570   3.950   5.235   0.248
 3224SOL    HW110571   3.988   5.299   0.181
 3224SOL    HW210572   3.994   5.250   0.336
 3225SOL     OW10573   2.469   3.501   7.015
 3225SOL    HW110574   2.453   3.406   6.990
 3225SOL    HW210575   2.562   3.527   6.991
 3226SOL     OW10576   1.181   0.426   4.063
 3226SOL    HW110577   1.129   0.341   4.054
 3226SOL    HW210578   1.118   0.503   4.070
 3227SOL     OW10579   2.492   1.274   6.239
 3227SOL    HW110580   2.566   1.207   6.243
 3227SOL    HW210581   2.408   1.232   6.273
 3228SOL     OW10582   5.536   3.707   5.220
 3228SOL    HW110583   5.568   3.673   5.308
 3228SOL    HW210584   5.437   3.697   5.214
 3229SOL     OW10585   3.903   2.584   5.341
 3229SOL    HW110586   3.956   2.577   5.256
 3229SOL    HW210587   3.850   2.500   5.353
 3230SOL     OW10588   1.047   0.577   3.680
 3230SOL    HW110589   1.010   0.638   3.610
 3230SOL    HW210590   1.138   0.608   3.707
 3231SOL     OW10591   5.918   5.527   1.108
 3231SOL    HW110592   5.962   5.438   1.094
 3231SOL    HW210593   5.902   5.570   1.019
 3232SOL     OW10594   2.042   4.470   3.743
 3232SOL    HW110595   2.047   4.403   3.669
 3232SOL    HW210596   2.127   4.522   3.746
 3233SOL     OW10597   0.666   3.994   1.389
 3233SOL    HW110598   0.631   4.016   1.298
 3233SOL    HW210599   0.634   4.062   1.454
 3234SOL     OW10600   0.020   1.819   5.380
 3234SOL    HW110601   6.951   1.788   5.358
 3234SOL    HW210602   0.064   1.854   5.298
 3235SOL     OW10603   5.451   0.084   2.304
 3235SOL    HW110604   5.539   0.036   2.305
 3235SOL    HW210605   5.377   0.017   2.295
 3236SOL     OW10606   0.930   2.898   1.867
 3236SOL    HW110607   0.970   2.974   1.817
 3236SOL    HW210608   0.998   2.859   1.929
 3237SOL     OW10609   3.270   0.220   4.408
 3237SOL    HW110610   3.360   0.178   4.423
 3237SOL    HW210611   3.252   0.286   4.481
 3238SOL     OW10612   0.322   6.506   6.977
 3238SOL    HW110613   0.376   6.546   0.027
 3238SOL    HW210614   0.230   6.484   7.011
 3239SOL     OW10615   6.896   6.527   5.508
 3239SOL    HW110616   6.876   6.613   5.555
 3239SOL    HW210617   6.947   6.545   5.424
 3240SOL     OW10618   1.302   1.491   4.375
 3240SOL    HW110619   1.398   1.468   4.390
 3240SOL    HW210620   1.287   1.506   4.277
 3241SOL     OW10621   5.773   0.804   4.288
 3241SOL    HW110622   5.862   0.841   4.260
 3241SOL    HW210623   5.744   0.848   4.373
 3242SOL     OW10624   3.783   6.482   0.114
 3242SOL    HW110625   3.866   6.536   0.099
 3242SOL    HW210626   3.747   6.499   0.205
 3243SOL     OW10627   3.314   5.360   0.533
 3243SOL    HW110628   3.222   5.321   0.534
 3243SOL    HW210629   3.381   5.286   0.520
 3244SOL     OW10630   2.882   6.281   6.370
 3244SOL    HW110631   2.880   6.381   6.368
 3244SOL    HW210632   2.883   6.246   6.277
 3245SOL     OW10633   3.848   2.446   6.156
 3245SOL    HW110634   3.790   2.389   6.214
 3245SOL    HW210635   3.898   2.388   6.092
 3246SOL     OW10636   5.236   6.485   3.536
 3246SOL    HW110637   5.163   6.494   3.468
 3246SOL    HW210638   5.230   6.396   3.581
 3247SOL     OW10639   0.359   2.770   4.789
 3247SOL    HW110640   0.445   2.722   4.775
 3247SOL    HW210641   0.332   2.816   4.705
 3248SOL     OW10642   5.595   3.820   2.390
 3248SOL    HW110643   5.671   3.858   2.444
 3248SOL    HW210644   5.541   3.895   2.352
 3249SOL     OW10645   2.302   4.358   4.999
 3249SOL    HW110646   2.364   4.417   4.946
 3249SOL    HW210647   2.262   4.290   4.938
 3250SOL     OW10648   4.192   6.734   1.663
 3250SOL    HW110649   4.256   6.797   1.618
 3250SOL    HW210650   4.238   6.689   1.740
 3251SOL     OW10651   2.931   0.569   3.219
 3251SOL    HW110652   2.987   0.623   3.282
 3251SOL    HW210653   2.837   0.568   3.251
 3252SOL     OW10654   3.245   2.158   3.316
 3252SOL    HW110655   3.194   2.184   3.234
 3252SOL    HW210656   3.192   2.184   3.397
 3253SOL     OW10657   4.694   3.292   1.118
 3253SOL    HW110658   4.721   3.365   1.055
 3253SOL    HW210659   4.766   3.222   1.122
 3254SOL     OW10660   6.003   5.233   2.821
 3254SOL    HW110661   6.006   5.170   2.743
 3254SOL    HW210662   5.996   5.327   2.789
 3255SOL     OW10663   3.778   4.394   0.400
 3255SOL    HW110664   3.823   4.432   0.319
 3255SOL    HW210665   3.685   4.431   0.407
 3256SOL     OW10666   6.616   6.180   5.305
 3256SOL    HW110667   6.683   6.220   5.368
 3256SOL    HW210668   6.524   6.191   5.343
 3257SOL     OW10669   2.191   2.284   0.484
 3257SOL    HW110670   2.167   2.343   0.407
 3257SOL    HW210671   2.107   2.252   0.529
 3258SOL     OW10672   5.944   6.923   1.733
 3258SOL    HW110673   5.924   6.899   1.638
 3258SOL    HW210674   6.042   6.913   1.750
 3259SOL     OW10675   5.911   6.260   3.402
 3259SOL    HW110676   5.850   6.290   3.475
 3259SOL    HW210677   5.903   6.161   3.390
 3260SOL     OW10678   1.208   2.774   6.758
 3260SOL    HW110679   1.184   2.764   6.661
 3260SOL    HW210680   1.189   2.688   6.806
 3261SOL     OW10681   4.130   0.894   3.051
 3261SOL    HW110682   4.189   0.813   3.050
 3261SOL    HW210683   4.036   0.867   3.068
 3262SOL     OW10684   3.583   1.527   3.318
 3262SOL    HW110685   3.547   1.599   3.378
 3262SOL    HW210686   3.524   1.446   3.325
 3263SOL     OW10687   3.439   5.640   2.190
 3263SOL    HW110688   3.514   5.696   2.225
 3263SOL    HW210689   3.356   5.695   2.186
 3264SOL     OW10690   5.213   5.247   6.317
 3264SOL    HW110691   5.116   5.268   6.305
 3264SOL    HW210692   5.226   5.148   6.313
 3265SOL     OW10693   4.469   0.613   6.752
 3265SOL    HW110694   4.407   0.608   6.830
 3265SOL    HW210695   4.471   0.707   6.717
 3266SOL     OW10696   0.590   1.514   5.867
 3266SOL    HW110697   0.511   1.531   5.925
 3266SOL    HW210698   0.660   1.464   5.918
 3267SOL     OW10699   3.635   2.270   1.344
 3267SOL    HW110700   3.564   2.199   1.341
 3267SOL    HW210701   3.698   2.250   1.419
 3268SOL     OW10702   0.404   4.582   6.446
 3268SOL    HW110703   0.440   4.490   6.457
 3268SOL    HW210704   0.352   4.587   6.360
 3269SOL     OW10705   4.267   3.490   0.648
 3269SOL    HW110706   4.327   3.561   0.685
 3269SOL    HW210707   4.299   3.465   0.556
 3270SOL     OW10708   1.176   6.011   4.935
 3270SOL    HW110709   1.275   6.007   4.952
 3270SOL    HW210710   1.159   6.070   4.856
 3271SOL     OW10711   5.529   1.950   0.860
 3271SOL    HW110712   5.507   1.852   0.862
 3271SOL    HW210713   5.509   1.990   0.949
 3272SOL     OW10714   6.099   6.937   0.392
 3272SOL    HW110715   6.025   7.004   0.400
 3272SOL    HW210716   6.167   6.954   0.464
 3273SOL     OW10717   6.720   0.069   2.303
 3273SOL    HW110718   6.700   0.039   2.210
 3273SOL    HW210719   6.702   7.018   2.367
 3274SOL     OW10720   3.760   1.564   6.128
 3274SOL    HW110721   3.699   1.518   6.192
 3274SOL    HW210722   3.797   1.647   6.169
 3275SOL     OW10723   3.127   0.998   6.790
 3275SOL    HW110724   3.039   0.982   6.745
 3275SOL    HW210725   3.196   0.935   6.753
 3276SOL     OW10726   3.151   6.442   0.164
 3276SOL    HW110727   3.052   6.457   0.171
 3276SOL    HW210728   3.198   6.529   0.153
 3277SOL     OW10729   0.172   6.568   5.367
 3277SOL    HW110730   0.139   6.554   5.274
 3277SOL    HW210731   0.174   6.480   5.415
 3278SOL     OW10732   1.050   0.846   7.008
 3278SOL    HW110733   1.121   0.916   7.014
 3278SOL    HW210734   1.035   0.822   6.912
 3279SOL     OW10735   1.954   0.064   0.837
 3279SOL    HW110736   1.947   7.003   0.891
 3279SOL    HW210737   1.895   0.134   0.876
 3280SOL     OW10738   1.728   5.480   6.139
 3280SOL    HW110739   1.729   5.461   6.041
 3280SOL    HW210740   1.793   5.421   6.186
 3281SOL     OW10741   3.052   6.030   0.040
 3281SOL    HW110742   3.138   6.071   0.071
 3281SOL    HW210743   2.993   6.013   0.118
 3282SOL     OW10744   2.007   5.405   2.882
 3282SOL    HW110745   1.988   5.461   2.802
 3282SOL    HW210746   2.100   5.422   2.914
 3283SOL     OW10747   2.140   0.434   3.756
 3283SOL    HW110748   2.055   0.474   3.721
 3283SOL    HW210749   2.149   0.340   3.722
 3284SOL     OW10750   0.177   3.609   6.906
 3284SOL    HW110751   0.146   3.651   6.991
 3284SOL    HW210752   0.129   3.522   6.892
 3285SOL     OW10753   6.630   2.181   4.220
 3285SOL    HW110754   6.702   2.176   4.150
 3285SOL    HW210755   6.608   2.277   4.239
 3286SOL     OW10756   3.789   4.642   5.288
 3286SOL    HW110757   3.755   4.583   5.361
 3286SOL    HW210758   3.838   4.588   5.220
 3287SOL     OW10759   0.793   5.312   1.072
 3287SOL    HW110760   0.827   5.391   1.021
 3287SOL    HW210761   0.694   5.305   1.060
 3288SOL     OW10762   0.905   6.438   0.191
 3288SOL    HW110763   0.865   6.367   0.133
 3288SOL    HW210764   0.926   6.518   0.136
 3289SOL     OW10765   1.343   5.720   4.376
 3289SOL    HW110766   1.305   5.629   4.395
 3289SOL    HW210767   1.329   5.743   4.280
 3290SOL     OW10768   6.777   5.219   1.586
 3290SOL    HW110769   6.754   5.310   1.550
 3290SOL    HW210770   6.741   5.209   1.678
 3291SOL     OW10771   2.332   6.988   1.117
 3291SOL    HW110772   2.384   6.910   1.082
 3291SOL    HW210773   2.307   0.025   1.041
 3292SOL     OW10774   0.678   6.053   5.933
 3292SOL    HW110775   0.739   6.053   5.853
 3292SOL    HW210776   0.682   5.963   5.977
 3293SOL     OW10777   6.799   0.646   3.052
 3293SOL    HW110778   6.779   0.548   3.057
 3293SOL    HW210779   6.840   0.667   2.963
 3294SOL     OW10780   0.277   0.005   0.121
 3294SOL    HW110781   0.247   6.937   0.093
 3294SOL    HW210782   0.203   0.070   0.108
 3295SOL     OW10783   1.096   2.715   6.512
 3295SOL    HW110784   1.068   2.634   6.564
 3295SOL    HW210785   1.187   2.701   6.473
 3296SOL     OW10786   0.647   6.555   2.212
 3296SOL    HW110787   0.633   6.458   2.190
 3296SOL    HW210788   0.723   6.590   2.157
 3297SOL     OW10789   3.044   2.395   5.948
 3297SOL    HW110790   2.973   2.378   5.879
 3297SOL    HW210791   3.134   2.379   5.907
 3298SOL     OW10792   6.000   3.094   3.364
 3298SOL    HW110793   6.092   3.109   3.329
 3298SOL    HW210794   5.965   3.007   3.329
 3299SOL     OW10795   1.714   0.154   4.982
 3299SOL    HW110796   1.722   0.184   4.887
 3299SOL    HW210797   1.622   0.118   4.998
 3300SOL     OW10798   6.422   6.994   4.588
 3300SOL    HW110799   6.495   6.938   4.549
 3300SOL    HW210800   6.417   6.980   4.686
 3301SOL     OW10801   0.549   3.640   3.043
 3301SOL    HW110802   0.507   3.577   2.977
 3301SOL    HW210803   0.610   3.703   2.994
 3302SOL     OW10804   0.869   4.909   4.019
 3302SOL    HW110805   0.803   4.861   4.076
 3302SOL    HW210806   0.835   4.915   3.925
 3303SOL     OW10807   3.664   3.831   3.112
 3303SOL    HW110808   3.743   3.792   3.159
 3303SOL    HW210809   3.677   3.822   3.013
 3304SOL     OW10810   1.087   6.528   4.592
 3304SOL    HW110811   1.024   6.479   4.532
 3304SOL    HW210812   1.174   6.477   4.597
 3305SOL     OW10813   1.599   1.149   1.919
 3305SOL    HW110814   1.622   1.055   1.891
 3305SOL    HW210815   1.679   1.208   1.903
 3306SOL     OW10816   1.209   3.538   2.641
 3306SOL    HW110817   1.132   3.481   2.613
 3306SOL    HW210818   1.223   3.611   2.574
 3307SOL     OW10819   0.357   5.825   0.449
 3307SOL    HW110820   0.328   5.758   0.517
 3307SOL    HW210821   0.297   5.820   0.369
 3308SOL     OW10822   4.288   5.857   0.583
 3308SOL    HW110823   4.189   5.872   0.580
 3308SOL    HW210824   4.315   5.832   0.676
 3309SOL     OW10825   0.558   5.303   2.704
 3309SOL    HW110826   0.562   5.206   2.728
 3309SOL    HW210827   0.585   5.358   2.783
 3310SOL     OW10828   1.684   6.344   1.469
 3310SOL    HW110829   1.694   6.400   1.551
 3310SOL    HW210830   1.773   6.336   1.424
 3311SOL     OW10831   3.733   6.338   0.673
 3311SOL    HW110832   3.763   6.332   0.768
 3311SOL    HW210833   3.746   6.250   0.627
 3312SOL     OW10834   2.471   3.831   0.109
 3312SOL    HW110835   2.482   3.738   0.074
 3312SOL    HW210836   2.382   3.866   0.082
 3313SOL     OW10837   6.690   5.349   4.231
 3313SOL    HW110838   6.783   5.316   4.247
 3313SOL    HW210839   6.679   5.373   4.134
 3314SOL     OW10840   0.600   3.187   6.168
 3314SOL    HW110841   0.610   3.097   6.211
 3314SOL    HW210842   0.587   3.176   6.070
 3315SOL     OW10843   0.171   2.561   2.584
 3315SOL    HW110844   0.095   2.504   2.616
 3315SOL    HW210845   0.208   2.613   2.661
 3316SOL     OW10846   4.438   0.631   0.699
 3316SOL    HW110847   4.399   0.581   0.778
 3316SOL    HW210848   4.372   0.698   0.666
 3317SOL     OW10849   4.298   2.288   1.380
 3317SOL    HW110850   4.327   2.320   1.290
 3317SOL    HW210851   4.379   2.266   1.435
 3318SOL     OW10852   2.672   5.865   4.893
 3318SOL    HW110853   2.592   5.818   4.856
 3318SOL    HW210854   2.754   5.827   4.851
 3319SOL     OW10855   0.381   5.178   5.391
 3319SOL    HW110856   0.466   5.178   5.444
 3319SOL    HW210857   0.358   5.271   5.364
 3320SOL     OW10858   6.821   1.173   6.286
 3320SOL    HW110859   6.725   1.147   6.275
 3320SOL    HW210860   6.836   1.206   6.379
 3321SOL     OW10861   3.249   4.049   3.934
 3321SOL    HW110862   3.211   4.038   3.843
 3321SOL    HW210863   3.209   3.982   3.996
 3322SOL     OW10864   4.319   1.963   1.446
 3322SOL    HW110865   4.285   2.057   1.451
 3322SOL    HW210866   4.245   1.899   1.469
 3323SOL     OW10867   2.469   5.450   0.214
 3323SOL    HW110868   2.417   5.520   0.164
 3323SOL    HW210869   2.452   5.461   0.313
 3324SOL     OW10870   0.811   2.581   0.410
 3324SOL    HW110871   0.819   2.680   0.400
 3324SOL    HW210872   0.845   2.554   0.500
 3325SOL     OW10873   2.122   3.361   0.509
 3325SOL    HW110874   2.075   3.438   0.466
 3325SOL    HW210875   2.078   3.339   0.596
 3326SOL     OW10876   6.269   0.781   2.055
 3326SOL    HW110877   6.232   0.690   2.035
 3326SOL    HW210878   6.195   0.848   2.061
 3327SOL     OW10879   3.043   7.000   1.726
 3327SOL    HW110880   2.973   6.941   1.767
 3327SOL    HW210881   3.134   6.961   1.743
 3328SOL     OW10882   4.449   0.882   2.645
 3328SOL    HW110883   4.402   0.811   2.698
 3328SOL    HW210884   4.522   0.922   2.700
 3329SOL     OW10885   5.022   0.748   4.944
 3329SOL    HW110886   4.966   0.690   5.003
 3329SOL    HW210887   5.058   0.825   4.997
 3330SOL     OW10888   6.870   5.512   2.827
 3330SOL    HW110889   6.811   5.506   2.746
 3330SOL    HW210890   6.814   5.499   2.909
 3331SOL     OW10891   2.088   3.508   2.767
 3331SOL    HW110892   2.123   3.414   2.760
 3331SOL    HW210893   1.989   3.507   2.760
 3332SOL     OW10894   3.388   4.931   1.333
 3332SOL    HW110895   3.338   4.966   1.254
 3332SOL    HW210896   3.338   4.954   1.416
 3333SOL     OW10897   2.518   3.029   1.706
 3333SOL    HW110898   2.527   3.018   1.607
 3333SOL    HW210899   2.608   3.025   1.749
 3334SOL     OW10900   2.212   2.269   2.024
 3334SOL    HW110901   2.176   2.183   2.060
 3334SOL    HW210902   2.167   2.291   1.937
 3335SOL     OW10903   3.744   4.466   5.520
 3335SOL    HW110904   3.709   4.512   5.601
 3335SOL    HW210905   3.837   4.433   5.538
 3336SOL     OW10906   5.033   5.364   4.497
 3336SOL    HW110907   4.999   5.437   4.556
 3336SOL    HW210908   5.132   5.373   4.485
 3337SOL     OW10909   3.339   3.272   3.184
 3337SOL    HW110910   3.256   3.327   3.193
 3337SOL    HW210911   3.411   3.327   3.143
 3338SOL     OW10912   2.659   2.732   1.590
 3338SOL    HW110913   2.563   2.723   1.565
 3338SOL    HW210914   2.686   2.654   1.647
 3339SOL     OW10915   1.836   0.184   6.123
 3339SOL    HW110916   1.869   0.198   6.216
 3339SOL    HW210917   1.807   0.271   6.083
 3340SOL     OW10918   3.900   0.742   3.879
 3340SOL    HW110919   3.849   0.694   3.808
 3340SOL    HW210920   3.880   0.701   3.968
 3341SOL     OW10921   1.372   3.801   3.000
 3341SOL    HW110922   1.367   3.874   3.068
 3341SOL    HW210923   1.357   3.713   3.045
 3342SOL     OW10924   0.095   0.735   2.611
 3342SOL    HW110925   0.170   0.680   2.573
 3342SOL    HW210926   0.107   0.744   2.710
 3343SOL     OW10927   4.499   5.003   6.812
 3343SOL    HW110928   4.465   4.943   6.739
 3343SOL    HW210929   4.599   4.994   6.818
 3344SOL     OW10930   0.868   3.359   2.179
 3344SOL    HW110931   0.938   3.424   2.147
 3344SOL    HW210932   0.791   3.410   2.217
 3345SOL     OW10933   6.289   5.415   6.670
 3345SOL    HW110934   6.379   5.384   6.642
 3345SOL    HW210935   6.221   5.385   6.603
 3346SOL     OW10936   1.443   0.852   0.189
 3346SOL    HW110937   1.414   0.865   0.284
 3346SOL    HW210938   1.476   0.939   0.152
 3347SOL     OW10939   0.320   3.965   5.887
 3347SOL    HW110940   0.293   3.989   5.793
 3347SOL    HW210941   0.354   3.871   5.888
 3348SOL     OW10942   3.105   3.934   6.244
 3348SOL    HW110943   3.041   3.932   6.167
 3348SOL    HW210944   3.192   3.975   6.214
 3349SOL     OW10945   1.844   5.226   3.668
 3349SOL    HW110946   1.751   5.225   3.705
 3349SOL    HW210947   1.841   5.217   3.569
 3350SOL     OW10948   1.738   4.310   4.480
 3350SOL    HW110949   1.740   4.296   4.381
 3350SOL    HW210950   1.831   4.322   4.514
 3351SOL     OW10951   5.278   0.875   1.690
 3351SOL    HW110952   5.237   0.936   1.758
 3351SOL    HW210953   5.348   0.924   1.640
 3352SOL     OW10954   6.156   0.824   6.844
 3352SOL    HW110955   6.211   0.873   6.776
 3352SOL    HW210956   6.062   0.817   6.812
 3353SOL     OW10957   3.812   0.372   1.363
 3353SOL    HW110958   3.789   0.300   1.297
 3353SOL    HW210959   3.730   0.398   1.413
 3354SOL     OW10960   2.971   4.254   6.078
 3354SOL    HW110961   2.873   4.264   6.059
 3354SOL    HW210962   2.992   4.157   6.089
 3355SOL     OW10963   1.631   0.527   4.802
 3355SOL    HW110964   1.616   0.617   4.763
 3355SOL    HW210965   1.590   0.522   4.894
 3356SOL     OW10966   1.561   0.877   6.414
 3356SOL    HW110967   1.590   0.794   6.462
 3356SOL    HW210968   1.639   0.940   6.406
 3357SOL     OW10969   3.175   3.174   1.738
 3357SOL    HW110970   3.148   3.220   1.823
 3357SOL    HW210971   3.152   3.077   1.744
 3358SOL     OW10972   6.820   0.544   1.646
 3358SOL    HW110973   6.808   0.643   1.657
 3358SOL    HW210974   6.917   0.521   1.651
 3359SOL     OW10975   0.449   6.722   4.855
 3359SOL    HW110976   0.413   6.630   4.868
 3359SOL    HW210977   0.548   6.720   4.865
 3360SOL     OW10978   1.369   3.578   4.510
 3360SOL    HW110979   1.447   3.631   4.478
 3360SOL    HW210980   1.307   3.558   4.434
 3361SOL     OW10981   6.301   6.753   4.818
 3361SOL    HW110982   6.359   6.738   4.738
 3361SOL    HW210983   6.273   6.665   4.855
 3362SOL     OW10984   3.842   0.284   3.687
 3362SOL    HW110985   3.746   0.290   3.714
 3362SOL    HW210986   3.857   0.199   3.637
 3363SOL     OW10987   5.820   3.941   6.962
 3363SOL    HW110988   5.788   4.036   6.953
 3363SOL    HW210989   5.745   3.884   6.994
 3364SOL     OW10990   1.824   3.290   3.606
 3364SOL    HW110991   1.802   3.226   3.533
 3364SOL    HW210992   1.920   3.315   3.602
 3365SOL     OW10993   1.858   4.045   3.363
 3365SOL    HW110994   1.829   4.136   3.393
 3365SOL    HW210995   1.927   4.054   3.291
 3366SOL     OW10996   6.133   3.789   4.495
 3366SOL    HW110997   6.193   3.794   4.575
 3366SOL    HW210998   6.122   3.881   4.456
 3367SOL     OW10999   4.060   3.790   3.732
 3367SOL    HW111000   4.016   3.803   3.643
 3367SOL    HW211001   4.134   3.855   3.742
 3368SOL     OW11002   1.945   0.774   1.934
 3368SOL    HW111003   1.966   0.699   1.872
 3368SOL    HW211004   2.030   0.812   1.971
 3369SOL     OW11005   4.683   1.896   1.265
 3369SOL    HW111006   4.643   1.972   1.315
 3369SOL    HW211007   4.710   1.926   1.173
 3370SOL     OW11008   0.489   5.585   2.636
 3370SOL    HW111009   0.493   5.520   2.560
 3370SOL    HW211010   0.575   5.582   2.687
 3371SOL     OW11011   2.182   2.896   2.278
 3371SOL    HW111012   2.261   2.841   2.306
 3371SOL    HW211013   2.177   2.897   2.178
 3372SOL     OW11014   6.329   3.666   2.747
 3372SOL    HW111015   6.370   3.735   2.687
 3372SOL    HW211016   6.234   3.692   2.767
 3373SOL     OW11017   6.648   2.995   1.735
 3373SOL    HW111018   6.566   3.047   1.756
 3373SOL    HW211019   6.653   2.914   1.794
 3374SOL     OW11020   0.887   6.398   4.456
 3374SOL    HW111021   0.837   6.387   4.371
 3374SOL    HW211022   0.829   6.443   4.524
 3375SOL     OW11023   0.227   5.745   6.045
 3375SOL    HW111024   0.269   5.675   6.103
 3375SOL    HW211025   0.259   5.734   5.951
 3376SOL     OW11026   3.317   3.172   4.143
 3376SOL    HW111027   3.305   3.089   4.197
 3376SOL    HW211028   3.383   3.232   4.190
 3377SOL     OW11029   6.663   4.892   3.634
 3377SOL    HW111030   6.564   4.890   3.621
 3377SOL    HW211031   6.693   4.985   3.656
 3378SOL     OW11032   1.138   6.281   0.271
 3378SOL    HW111033   1.058   6.326   0.232
 3378SOL    HW211034   1.109   6.212   0.337
 3379SOL     OW11035   6.710   3.808   3.484
 3379SOL    HW111036   6.620   3.817   3.527
 3379SOL    HW211037   6.700   3.816   3.385
 3380SOL     OW11038   2.520   4.804   0.327
 3380SOL    HW111039   2.464   4.884   0.307
 3380SOL    HW211040   2.599   4.831   0.383
 3381SOL     OW11041   1.733   3.581   6.310
 3381SOL    HW111042   1.726   3.560   6.407
 3381SOL    HW211043   1.757   3.499   6.259
 3382SOL     OW11044   6.570   3.461   0.881
 3382SOL    HW111045   6.549   3.439   0.976
 3382SOL    HW211046   6.584   3.560   0.872
 3383SOL     OW11047   4.477   5.148   0.181
 3383SOL    HW111048   4.523   5.237   0.176
 3383SOL    HW211049   4.403   5.145   0.114
 3384SOL     OW11050   3.283   4.234   6.268
 3384SOL    HW111051   3.377   4.230   6.302
 3384SOL    HW211052   3.253   4.330   6.265
 3385SOL     OW11053   6.870   2.119   4.109
 3385SOL    HW111054   6.925   2.037   4.093
 3385SOL    HW211055   6.914   2.176   4.178
 3386SOL     OW11056   0.377   4.667   4.954
 3386SOL    HW111057   0.468   4.681   4.994
 3386SOL    HW211058   0.308   4.667   5.027
 3387SOL     OW11059   6.659   1.304   2.977
 3387SOL    HW111060   6.705   1.225   3.020
 3387SOL    HW211061   6.626   1.278   2.887
 3388SOL     OW11062   6.602   3.769   1.405
 3388SOL    HW111063   6.640   3.808   1.489
 3388SOL    HW211064   6.629   3.674   1.397
 3389SOL     OW11065   5.491   6.170   0.180
 3389SOL    HW111066   5.533   6.100   0.237
 3389SOL    HW211067   5.545   6.183   0.097
 3390SOL     OW11068   2.979   5.841   6.200
 3390SOL    HW111069   3.007   5.925   6.247
 3390SOL    HW211070   2.914   5.864   6.127
 3391SOL     OW11071   5.605   3.653   3.993
 3391SOL    HW111072   5.517   3.662   4.041
 3391SOL    HW211073   5.669   3.721   4.026
 3392SOL     OW11074   5.065   0.483   5.893
 3392SOL    HW111075   4.974   0.506   5.857
 3392SOL    HW211076   5.124   0.451   5.819
 3393SOL     OW11077   4.555   6.209   0.643
 3393SOL    HW111078   4.637   6.171   0.685
 3393SOL    HW211079   4.524   6.150   0.569
 3394SOL     OW11080   2.576   5.451   1.166
 3394SOL    HW111081   2.563   5.445   1.265
 3394SOL    HW211082   2.524   5.378   1.121
 3395SOL     OW11083   2.110   0.187   3.629
 3395SOL    HW111084   2.092   0.183   3.531
 3395SOL    HW211085   2.045   0.129   3.678
 3396SOL     OW11086   4.722   0.790   4.328
 3396SOL    HW111087   4.652   0.751   4.268
 3396SOL    HW211088   4.777   0.856   4.276
 3397SOL     OW11089   2.442   5.662   6.980
 3397SOL    HW111090   2.476   5.755   6.968
 3397SOL    HW211091   2.347   5.657   6.946
 3398SOL     OW11092   6.265   2.607   4.829
 3398SOL    HW111093   6.259   2.587   4.927
 3398SOL    HW211094   6.361   2.618   4.803
 3399SOL     OW11095   6.747   5.969   1.520
 3399SOL    HW111096   6.710   6.060   1.542
 3399SOL    HW211097   6.843   5.965   1.547
 3400SOL     OW11098   4.573   3.114   6.003
 3400SOL    HW111099   4.617   3.146   6.087
 3400SOL    HW211100   4.537   3.021   6.016
 3401SOL     OW11101   5.805   4.118   5.726
 3401SOL    HW111102   5.869   4.185   5.688
 3401SOL    HW211103   5.716   4.161   5.739
 3402SOL     OW11104   6.544   3.045   0.957
 3402SOL    HW111105   6.527   3.004   1.046
 3402SOL    HW211106   6.462   3.094   0.927
 3403SOL     OW11107   5.636   6.722   6.766
 3403SOL    HW111108   5.577   6.795   6.731
 3403SOL    HW211109   5.687   6.681   6.690
 3404SOL     OW11110   5.166   4.355   4.762
 3404SOL    HW111111   5.080   4.323   4.722
 3404SOL    HW211112   5.156   4.450   4.792
 3405SOL     OW11113   4.916   6.228   0.137
 3405SOL    HW111114   5.005   6.263   0.107
 3405SOL    HW211115   4.915   6.222   0.237
 3406SOL     OW11116   2.820   5.574   1.744
 3406SOL    HW111117   2.859   5.587   1.653
 3406SOL    HW211118   2.868   5.632   1.810
 3407SOL     OW11119   0.631   3.977   6.828
 3407SOL    HW111120   0.711   4.037   6.823
 3407SOL    HW211121   0.656   3.893   6.878
 3408SOL     OW11122   4.803   0.656   3.530
 3408SOL    HW111123   4.892   0.614   3.512
 3408SOL    HW211124   4.801   0.690   3.624
 3409SOL     OW11125   4.321   0.868   0.902
 3409SOL    HW111126   4.262   0.942   0.868
 3409SOL    HW211127   4.403   0.862   0.845
 3410SOL     OW11128   6.200   0.536   3.301
 3410SOL    HW111129   6.113   0.586   3.301
 3410SOL    HW211130   6.239   0.537   3.209
 3411SOL     OW11131   5.991   3.264   6.231
 3411SOL    HW111132   5.943   3.343   6.269
 3411SOL    HW211133   6.006   3.277   6.133
 3412SOL     OW11134   5.386   3.199   1.654
 3412SOL    HW111135   5.351   3.164   1.567
 3412SOL    HW211136   5.314   3.195   1.723
 3413SOL     OW11137   6.835   1.257   0.307
 3413SOL    HW111138   6.817   1.163   0.278
 3413SOL    HW211139   6.901   1.257   0.382
 3414SOL     OW11140   2.824   4.262   1.011
 3414SOL    HW111141   2.759   4.242   0.938
 3414SOL    HW211142   2.915   4.231   0.983
 3415SOL     OW11143   2.170   1.265   6.113
 3415SOL    HW111144   2.223   1.346   6.085
 3415SOL    HW211145   2.081   1.294   6.147
 3416SOL     OW11146   6.086   6.867   6.736
 3416SOL    HW111147   6.136   6.781   6.727
 3416SOL    HW211148   6.080   6.911   6.647
 3417SOL     OW11149   5.680   6.302   3.241
 3417SOL    HW111150   5.654   6.275   3.334
 3417SOL    HW211151   5.780   6.305   3.234
 3418SOL     OW11152   3.832   5.633   0.806
 3418SOL    HW111153   3.915   5.638   0.860
 3418SOL    HW211154   3.855   5.641   0.709
 3419SOL     OW11155   2.678   5.509   5.634
 3419SOL    HW111156   2.659   5.568   5.712
 3419SOL    HW211157   2.662   5.414   5.659
 3420SOL     OW11158   4.705   1.799   2.618
 3420SOL    HW111159   4.738   1.893   2.624
 3420SOL    HW211160   4.783   1.736   2.623
 3421SOL     OW11161   0.492   2.363   4.745
 3421SOL    HW111162   0.503   2.276   4.794
 3421SOL    HW211163   0.552   2.364   4.665
 3422SOL     OW11164   2.347   6.313   1.157
 3422SOL    HW111165   2.334   6.411   1.172
 3422SOL    HW211166   2.436   6.296   1.116
 3423SOL     OW11167   1.391   4.688   5.319
 3423SOL    HW111168   1.396   4.703   5.418
 3423SOL    HW211169   1.305   4.641   5.298
 3424SOL     OW11170   4.883   1.326   1.991
 3424SOL    HW111171   4.828   1.338   1.909
 3424SOL    HW211172   4.835   1.365   2.070
 3425SOL     OW11173   6.334   3.506   6.486
 3425SOL    HW111174   6.406   3.465   6.430
 3425SOL    HW211175   6.372   3.584   6.537
 3426SOL     OW11176   6.187   3.057   6.206
 3426SOL    HW111177   6.109   3.113   6.235
 3426SOL    HW211178   6.259   3.116   6.171
 3427SOL     OW11179   0.883   2.178   0.448
 3427SOL    HW111180   0.802   2.154   0.503
 3427SOL    HW211181   0.947   2.230   0.505
 3428SOL     OW11182   4.553   6.263   5.025
 3428SOL    HW111183   4.643   6.226   5.048
 3428SOL    HW211184   4.552   6.361   5.043
 3429SOL     OW11185   5.296   0.043   1.250
 3429SOL    HW111186   5.215   0.078   1.297
 3429SOL    HW211187   5.317   6.975   1.282
 3430SOL     OW11188   2.276   4.581   5.379
 3430SOL    HW111189   2.302   4.484   5.387
 3430SOL    HW211190   2.214   4.605   5.454
 3431SOL     OW11191   0.740   4.819   2.607
 3431SOL    HW111192   0.814   4.761   2.639
 3431SOL    HW211193   0.699   4.778   2.525
 3432SOL     OW11194   1.046   4.467   6.937
 3432SOL    HW111195   1.143   4.486   6.946
 3432SOL    HW211196   1.001   4.542   6.889
 3433SOL     OW11197   2.860   1.179   6.761
 3433SOL    HW111198   2.760   1.182   6.765
 3433SOL    HW211199   2.892   1.241   6.689
 3434SOL     OW11200   3.614   2.637   1.795
 3434SOL    HW111201   3.529   2.657   1.746
 3434SOL    HW211202   3.629   2.538   1.797
 3435SOL     OW11203   2.086   1.477   1.043
 3435SOL    HW111204   2.037   1.444   0.962
 3435SOL    HW211205   2.167   1.421   1.058
 3436SOL     OW11206   3.592   6.800   6.023
 3436SOL    HW111207   3.562   6.722   6.079
 3436SOL    HW211208   3.633   6.869   6.082
 3437SOL     OW11209   1.291   0.028   6.380
 3437SOL    HW111210   1.223   0.002   6.312
 3437SOL    HW211211   1.377   0.050   6.334
 3438SOL     OW11212   1.938   3.917   1.057
 3438SOL    HW111213   1.965   4.006   1.019
 3438SOL    HW211214   1.936   3.849   0.984
 3439SOL     OW11215   2.526   5.652   1.454
 3439SOL    HW111216   2.468   5.575   1.429
 3439SOL    HW211217   2.524   5.720   1.381
 3440SOL     OW11218   3.787   4.217   5.059
 3440SOL    HW111219   3.751   4.166   5.137
 3440SOL    HW211220   3.830   4.302   5.092
 3441SOL     OW11221   5.666   4.784   5.894
 3441SOL    HW111222   5.578   4.818   5.927
 3441SOL    HW211223   5.686   4.696   5.938
 3442SOL     OW11224   2.781   3.576   1.224
 3442SOL    HW111225   2.692   3.531   1.218
 3442SOL    HW211226   2.771   3.673   1.203
 3443SOL     OW11227   0.436   6.059   2.214
 3443SOL    HW111228   0.372   6.042   2.290
 3443SOL    HW211229   0.526   6.022   2.238
 3444SOL     OW11230   6.048   4.030   6.194
 3444SOL    HW111231   5.950   4.041   6.205
 3444SOL    HW211232   6.089   4.116   6.163
 3445SOL     OW11233   6.238   4.749   3.960
 3445SOL    HW111234   6.220   4.698   3.876
 3445SOL    HW211235   6.244   4.846   3.939
 3446SOL     OW11236   4.419   0.936   1.534
 3446SOL    HW111237   4.355   0.932   1.611
 3446SOL    HW211238   4.370   0.922   1.448
 3447SOL     OW11239   4.867   0.995   6.123
 3447SOL    HW111240   4.954   1.020   6.166
 3447SOL    HW211241   4.878   0.996   6.023
 3448SOL     OW11242   1.820   4.817   5.111
 3448SOL    HW111243   1.862   4.759   5.180
 3448SOL    HW211244   1.735   4.855   5.147
 3449SOL     OW11245   6.918   4.732   5.537
 3449SOL    HW111246   6.830   4.771   5.563
 3449SOL    HW211247   6.991   4.798   5.556
 3450SOL     OW11248   2.277   6.157   1.682
 3450SOL    HW111249   2.323   6.106   1.609
 3450SOL    HW211250   2.179   6.161   1.663
 3451SOL     OW11251   2.213   1.617   1.596
 3451SOL    HW111252   2.251   1.661   1.515
 3451SOL    HW211253   2.248   1.663   1.678
 3452SOL     OW11254   4.475   1.049   4.742
 3452SOL    HW111255   4.548   0.986   4.769
 3452SOL    HW211256   4.471   1.054   4.642
 3453SOL     OW11257   4.404   6.448   6.403
 3453SOL    HW111258   4.448   6.526   6.447
 3453SOL    HW211259   4.374   6.474   6.312
 3454SOL     OW11260   6.860   2.779   1.132
 3454SOL    HW111261   6.944   2.727   1.120
 3454SOL    HW211262   6.795   2.726   1.187
 3455SOL     OW11263   0.569   3.223   5.911
 3455SOL    HW111264   0.584   3.167   5.830
 3455SOL    HW211265   0.561   3.319   5.884
 3456SOL     OW11266   5.290   5.353   3.696
 3456SOL    HW111267   5.334   5.435   3.659
 3456SOL    HW211268   5.358   5.281   3.707
 3457SOL     OW11269   3.006   4.445   6.286
 3457SOL    HW111270   2.928   4.472   6.342
 3457SOL    HW211271   2.983   4.364   6.233
 3458SOL     OW11272   4.319   1.065   2.132
 3458SOL    HW111273   4.397   1.008   2.157
 3458SOL    HW211274   4.234   1.015   2.151
 3459SOL     OW11275   5.087   6.267   2.629
 3459SOL    HW111276   5.053   6.361   2.629
 3459SOL    HW211277   5.187   6.268   2.624
 3460SOL     OW11278   3.830   1.878   5.030
 3460SOL    HW111279   3.929   1.887   5.034
 3460SOL    HW211280   3.787   1.965   5.056
 3461SOL     OW11281   5.719   4.792   4.793
 3461SOL    HW111282   5.808   4.828   4.822
 3461SOL    HW211283   5.699   4.709   4.845
 3462SOL     OW11284   1.053   3.287   6.338
 3462SOL    HW111285   1.106   3.214   6.383
 3462SOL    HW211286   1.108   3.370   6.334
 3463SOL     OW11287   5.275   4.046   0.301
 3463SOL    HW111288   5.368   4.084   0.296
 3463SOL    HW211289   5.261   4.005   0.391
 3464SOL     OW11290   0.501   4.407   4.812
 3464SOL    HW111291   0.464   4.358   4.733
 3464SOL    HW211292   0.437   4.478   4.841
 3465SOL     OW11293   1.025   1.398   2.313
 3465SOL    HW111294   1.078   1.355   2.240
 3465SOL    HW211295   1.083   1.412   2.393
 3466SOL     OW11296   6.542   3.626   5.795
 3466SOL    HW111297   6.444   3.617   5.777
 3466SOL    HW211298   6.582   3.689   5.729
 3467SOL     OW11299   1.996   2.969   6.550
 3467SOL    HW111300   2.077   2.949   6.495
 3467SOL    HW211301   1.923   3.003   6.490
 3468SOL     OW11302   4.384   6.739   2.902
 3468SOL    HW111303   4.434   6.676   2.962
 3468SOL    HW211304   4.400   6.833   2.934
 3469SOL     OW11305   4.881   3.675   2.375
 3469SOL    HW111306   4.841   3.626   2.452
 3469SOL    HW211307   4.930   3.611   2.315
 3470SOL     OW11308   6.851   5.408   1.197
 3470SOL    HW111309   6.919   5.417   1.270
 3470SOL    HW211310   6.764   5.377   1.237
 3471SOL     OW11311   4.231   0.435   4.413
 3471SOL    HW111312   4.134   0.417   4.427
 3471SOL    HW211313   4.284   0.354   4.436
 3472SOL     OW11314   4.015   1.202   4.801
 3472SOL    HW111315   4.003   1.129   4.868
 3472SOL    HW211316   4.085   1.175   4.735
 3473SOL     OW11317   4.704   0.161   4.458
 3473SOL    HW111318   4.786   0.104   4.468
 3473SOL    HW211319   4.628   0.104   4.427
 3474SOL     OW11320   5.115   4.253   0.672
 3474SOL    HW111321   5.154   4.340   0.702
 3474SOL    HW211322   5.139   4.237   0.576
 3475SOL     OW11323   1.762   6.208   4.926
 3475SOL    HW111324   1.805   6.284   4.973
 3475SOL    HW211325   1.714   6.241   4.845
 3476SOL     OW11326   4.703   1.287   4.436
 3476SOL    HW111327   4.733   1.201   4.478
 3476SOL    HW211328   4.781   1.349   4.428
 3477SOL     OW11329   4.353   5.243   2.166
 3477SOL    HW111330   4.321   5.276   2.077
 3477SOL    HW211331   4.276   5.244   2.231
 3478SOL     OW11332   4.224   4.813   6.805
 3478SOL    HW111333   4.302   4.834   6.745
 3478SOL    HW211334   4.258   4.800   6.899
 3479SOL     OW11335   1.038   0.077   1.802
 3479SOL    HW111336   1.062   0.171   1.775
 3479SOL    HW211337   1.118   0.018   1.793
 3480SOL     OW11338   1.353   0.730   4.200
 3480SOL    HW111339   1.451   0.711   4.205
 3480SOL    HW211340   1.317   0.745   4.292
 3481SOL     OW11341   2.345   0.043   6.441
 3481SOL    HW111342   2.310   0.053   6.348
 3481SOL    HW211343   2.442   0.066   6.444
 3482SOL     OW11344   1.191   1.633   1.354
 3482SOL    HW111345   1.129   1.700   1.312
 3482SOL    HW211346   1.137   1.562   1.399
 3483SOL     OW11347   3.978   1.744   0.536
 3483SOL    HW111348   3.911   1.713   0.469
 3483SOL    HW211349   3.931   1.788   0.612
 3484SOL     OW11350   2.918   3.601   3.746
 3484SOL    HW111351   2.907   3.596   3.647
 3484SOL    HW211352   2.904   3.511   3.787
 3485SOL     OW11353   6.847   1.611   4.789
 3485SOL    HW111354   6.876   1.554   4.712
 3485SOL    HW211355   6.747   1.610   4.796
 3486SOL     OW11356   4.908   1.621   2.661
 3486SOL    HW111357   4.937   1.609   2.566
 3486SOL    HW211358   4.978   1.585   2.723
 3487SOL     OW11359   0.348   0.312   6.899
 3487SOL    HW111360   0.348   0.313   6.999
 3487SOL    HW211361   0.434   0.349   6.865
 3488SOL     OW11362   6.054   3.074   3.652
 3488SOL    HW111363   6.025   3.088   3.557
 3488SOL    HW211364   6.130   3.136   3.673
 3489SOL     OW11365   2.042   6.677   0.648
 3489SOL    HW111366   2.105   6.697   0.572
 3489SOL    HW211367   1.967   6.620   0.615
 3490SOL     OW11368   3.878   2.614   1.252
 3490SOL    HW111369   3.821   2.693   1.271
 3490SOL    HW211370   3.892   2.605   1.153
 3491SOL     OW11371   6.691   2.753   5.004
 3491SOL    HW111372   6.713   2.747   5.102
 3491SOL    HW211373   6.775   2.749   4.950
 3492SOL     OW11374   6.059   5.103   6.149
 3492SOL    HW111375   6.028   5.132   6.059
 3492SOL    HW211376   5.995   5.135   6.219
 3493SOL     OW11377   0.315   4.739   0.777
 3493SOL    HW111378   0.357   4.819   0.821
 3493SOL    HW211379   0.375   4.659   0.790
 3494SOL     OW11380   2.894   6.479   1.074
 3494SOL    HW111381   2.849   6.423   1.003
 3494SOL    HW211382   2.960   6.540   1.031
 3495SOL     OW11383   5.257   4.488   0.750
 3495SOL    HW111384   5.325   4.534   0.693
 3495SOL    HW211385   5.199   4.556   0.794
 3496SOL     OW11386   1.611   4.543   0.351
 3496SOL    HW111387   1.600   4.444   0.342
 3496SOL    HW211388   1.708   4.566   0.350
 3497SOL     OW11389   4.367   6.491   3.795
 3497SOL    HW111390   4.347   6.568   3.856
 3497SOL    HW211391   4.331   6.510   3.704
 3498SOL     OW11392   2.012   1.813   1.466
 3498SOL    HW111393   2.107   1.800   1.492
 3498SOL    HW211394   1.989   1.750   1.392
 3499SOL     OW11395   6.179   3.935   4.237
 3499SOL    HW111396   6.169   4.029   4.205
 3499SOL    HW211397   6.128   3.874   4.176
 3500SOL     OW11398   6.598   2.607   0.938
 3500SOL    HW111399   6.615   2.596   1.036
 3500SOL    HW211400   6.518   2.555   0.912
 3501SOL     OW11401   0.251   4.411   4.349
 3501SOL    HW111402   0.254   4.319   4.388
 3501SOL    HW211403   0.211   4.408   4.257
 3502SOL     OW11404   1.324   3.876   1.787
 3502SOL    HW111405   1.226   3.858   1.781
 3502SOL    HW211406   1.340   3.950   1.852
 3503SOL     OW11407   4.357   6.198   3.666
 3503SOL    HW111408   4.339   6.101   3.652
 3503SOL    HW211409   4.456   6.214   3.664
 3504SOL     OW11410   2.209   3.067   2.509
 3504SOL    HW111411   2.224   3.016   2.424
 3504SOL    HW211412   2.154   3.148   2.490
 3505SOL     OW11413   4.601   5.675   5.200
 3505SOL    HW111414   4.603   5.603   5.269
 3505SOL    HW211415   4.648   5.644   5.118
 3506SOL     OW11416   5.756   4.957   2.439
 3506SOL    HW111417   5.800   4.868   2.447
 3506SOL    HW211418   5.694   4.956   2.360
 3507SOL     OW11419   0.245   0.878   6.346
 3507SOL    HW111420   0.281   0.805   6.287
 3507SOL    HW211421   0.232   0.842   6.438
 3508SOL     OW11422   6.770   3.413   0.450
 3508SOL    HW111423   6.753   3.353   0.372
 3508SOL    HW211424   6.733   3.371   0.533
 3509SOL     OW11425   6.855   6.820   1.030
 3509SOL    HW111426   6.831   6.901   1.084
 3509SOL    HW211427   6.948   6.792   1.053
 3510SOL     OW11428   1.449   2.600   1.501
 3510SOL    HW111429   1.416   2.582   1.408
 3510SOL    HW211430   1.410   2.532   1.564
 3511SOL     OW11431   0.912   0.787   5.365
 3511SOL    HW111432   0.910   0.879   5.404
 3511SOL    HW211433   0.833   0.735   5.397
 3512SOL     OW11434   2.959   3.440   1.067
 3512SOL    HW111435   2.933   3.345   1.050
 3512SOL    HW211436   2.912   3.472   1.150
 3513SOL     OW11437   5.939   4.278   1.536
 3513SOL    HW111438   5.966   4.373   1.548
 3513SOL    HW211439   5.850   4.262   1.580
 3514SOL     OW11440   1.807   6.714   1.616
 3514SOL    HW111441   1.854   6.802   1.623
 3514SOL    HW211442   1.818   6.663   1.701
 3515SOL     OW11443   3.301   6.017   2.954
 3515SOL    HW111444   3.273   5.987   2.862
 3515SOL    HW211445   3.300   5.939   3.016
 3516SOL     OW11446   3.436   1.081   0.506
 3516SOL    HW111447   3.497   1.085   0.426
 3516SOL    HW211448   3.341   1.075   0.475
 3517SOL     OW11449   1.066   0.719   6.634
 3517SOL    HW111450   1.129   0.757   6.701
 3517SOL    HW211451   1.033   0.793   6.574
 3518SOL     OW11452   4.340   3.546   5.614
 3518SOL    HW111453   4.340   3.535   5.714
 3518SOL    HW211454   4.367   3.460   5.571
 3519SOL     OW11455   2.810   6.486   0.627
 3519SOL    HW111456   2.751   6.428   0.572
 3519SOL    HW211457   2.755   6.541   0.690
 3520SOL     OW11458   3.610   5.550   1.783
 3520SOL    HW111459   3.685   5.490   1.755
 3520SOL    HW211460   3.545   5.559   1.707
 3521SOL     OW11461   5.317   2.330   6.736
 3521SOL    HW111462   5.413   2.301   6.745
 3521SOL    HW211463   5.260   2.274   6.796
 3522SOL     OW11464   3.252   5.633   1.473
 3522SOL    HW111465   3.345   5.603   1.497
 3522SOL    HW211466   3.256   5.725   1.434
 3523SOL     OW11467   2.355   5.086   5.472
 3523SOL    HW111468   2.369   5.185   5.476
 3523SOL    HW211469   2.411   5.047   5.399
 3524SOL     OW11470   2.821   6.891   1.492
 3524SOL    HW111471   2.828   6.825   1.568
 3524SOL    HW211472   2.859   6.978   1.521
 3525SOL     OW11473   1.803   3.255   2.555
 3525SOL    HW111474   1.782   3.289   2.464
 3525SOL    HW211475   1.732   3.191   2.585
 3526SOL     OW11476   2.737   0.015   3.056
 3526SOL    HW111477   2.806   6.966   3.059
 3526SOL    HW211478   2.667   7.014   2.990
 3527SOL     OW11479   5.328   3.296   5.727
 3527SOL    HW111480   5.294   3.202   5.728
 3527SOL    HW211481   5.261   3.357   5.769
 3528SOL     OW11482   1.343   6.782   4.483
 3528SOL    HW111483   1.379   6.690   4.467
 3528SOL    HW211484   1.245   6.777   4.504
 3529SOL     OW11485   3.630   6.052   6.911
 3529SOL    HW111486   3.705   6.093   6.858
 3529SOL    HW211487   3.664   5.972   6.961
 3530SOL     OW11488   1.320   5.530   2.848
 3530SOL    HW111489   1.384   5.483   2.788
 3530SOL    HW211490   1.253   5.581   2.793
 3531SOL     OW11491   4.695   3.762   6.718
 3531SOL    HW111492   4.740   3.829   6.659
 3531SOL    HW211493   4.602   3.792   6.738
 3532SOL     OW11494   1.600   6.633   0.672
 3532SOL    HW111495   1.631   6.555   0.726
 3532SOL    HW211496   1.605   6.716   0.728
 3533SOL     OW11497   1.143   1.059   4.097
 3533SOL    HW111498   1.168   0.996   4.024
 3533SOL    HW211499   1.107   1.144   4.057
 3534SOL     OW11500   5.130   0.428   4.543
 3534SOL    HW111501   5.149   0.333   4.565
 3534SOL    HW211502   5.198   0.462   4.478
 3535SOL     OW11503   4.065   6.340   6.807
 3535SOL    HW111504   4.097   6.362   6.714
 3535SOL    HW211505   4.087   6.417   6.868
 3536SOL     OW11506   1.304   4.051   3.116
 3536SOL    HW111507   1.212   4.041   3.079
 3536SOL    HW211508   1.298   4.068   3.215
 3537SOL     OW11509   2.621   5.251   0.503
 3537SOL    HW111510   2.674   5.253   0.587
 3537SOL    HW211511   2.671   5.300   0.431
 3538SOL     OW11512   2.926   0.921   3.477
 3538SOL    HW111513   2.946   0.824   3.488
 3538SOL    HW211514   2.989   0.960   3.410
 3539SOL     OW11515   5.188   6.293   6.779
 3539SOL    HW111516   5.274   6.247   6.802
 3539SOL    HW211517   5.133   6.234   6.720
 3540SOL     OW11518   2.752   4.385   5.949
 3540SOL    HW111519   2.710   4.325   5.881
 3540SOL    HW211520   2.812   4.450   5.903
 3541SOL     OW11521   2.197   2.983   1.392
 3541SOL    HW111522   2.146   2.921   1.332
 3541SOL    HW211523   2.150   2.989   1.480
 3542SOL     OW11524   5.583   1.499   6.793
 3542SOL    HW111525   5.665   1.443   6.805
 3542SOL    HW211526   5.502   1.440   6.791
 3543SOL     OW11527   0.700   2.291   3.912
 3543SOL    HW111528   0.766   2.255   3.846
 3543SOL    HW211529   0.650   2.216   3.954
 3544SOL     OW11530   3.142   3.997   0.099
 3544SOL    HW111531   3.070   3.951   0.151
 3544SOL    HW211532   3.104   4.075   0.051
 3545SOL     OW11533   4.046   0.235   1.189
 3545SOL    HW111534   3.983   0.312   1.200
 3545SOL    HW211535   4.139   0.266   1.205
 3546SOL     OW11536   6.369   4.250   2.507
 3546SOL    HW111537   6.468   4.252   2.516
 3546SOL    HW211538   6.336   4.157   2.521
 3547SOL     OW11539   1.109   3.743   4.551
 3547SOL    HW111540   1.090   3.820   4.491
 3547SOL    HW211541   1.207   3.720   4.546
 3548SOL     OW11542   6.212   0.468   5.272
 3548SOL    HW111543   6.140   0.429   5.329
 3548SOL    HW211544   6.298   0.419   5.288
 3549SOL     OW11545   2.829   6.970   0.172
 3549SOL    HW111546   2.804   6.953   0.077
 3549SOL    HW211547   2.866   6.886   0.212
 3550SOL     OW11548   5.468   0.985   4.973
 3550SOL    HW111549   5.424   1.028   4.894
 3550SOL    HW211550   5.565   1.007   4.973
 3551SOL     OW11551   4.520   2.015   4.400
 3551SOL    HW111552   4.572   1.937   4.366
 3551SOL    HW211553   4.448   2.038   4.336
 3552SOL     OW11554   6.592   0.033   3.492
 3552SOL    HW111555   6.507   0.031   3.439
 3552SOL    HW211556   6.593   0.115   3.549
 3553SOL     OW11557   5.954   5.731   6.804
 3553SOL    HW111558   5.997   5.642   6.822
 3553SOL    HW211559   6.026   5.800   6.793
 3554SOL     OW11560   5.874   4.282   0.002
 3554SOL    HW111561   5.903   4.262   0.095
 3554SOL    HW211562   5.948   4.328   6.976
 3555SOL     OW11563   3.033   1.693   4.982
 3555SOL    HW111564   2.938   1.722   4.968
 3555SOL    HW211565   3.095   1.760   4.941
 3556SOL     OW11566   5.394   1.184   6.606
 3556SOL    HW111567   5.314   1.135   6.570
 3556SOL    HW211568   5.462   1.195   6.533
 3557SOL     OW11569   5.825   0.446   1.269
 3557SOL    HW111570   5.807   0.490   1.357
 3557SOL    HW211571   5.912   0.479   1.232
 3558SOL     OW11572   3.681   5.749   2.234
 3558SOL    HW111573   3.718   5.739   2.142
 3558SOL    HW211574   3.752   5.782   2.296
 3559SOL     OW11575   4.748   0.013   6.193
 3559SOL    HW111576   4.801   0.046   6.271
 3559SOL    HW211577   4.669   0.073   6.179
 3560SOL     OW11578   1.971   5.514   3.875
 3560SOL    HW111579   2.066   5.538   3.855
 3560SOL    HW211580   1.914   5.534   3.795
 3561SOL     OW11581   4.514   3.587   5.344
 3561SOL    HW111582   4.541   3.563   5.437
 3561SOL    HW211583   4.572   3.538   5.279
 3562SOL     OW11584   2.179   1.604   6.381
 3562SOL    HW111585   2.224   1.518   6.359
 3562SOL    HW211586   2.235   1.680   6.351
 3563SOL     OW11587   6.233   2.596   5.878
 3563SOL    HW111588   6.233   2.675   5.817
 3563SOL    HW211589   6.253   2.626   5.972
 3564SOL     OW11590   5.868   3.703   2.157
 3564SOL    HW111591   5.931   3.725   2.231
 3564SOL    HW211592   5.794   3.770   2.155
 3565SOL     OW11593   4.004   5.986   4.503
 3565SOL    HW111594   4.000   5.927   4.583
 3565SOL    HW211595   4.027   5.932   4.422
 3566SOL     OW11596   0.851   6.552   5.080
 3566SOL    HW111597   0.880   6.619   5.148
 3566SOL    HW211598   0.755   6.564   5.059
 3567SOL     OW11599   0.012   2.934   6.374
 3567SOL    HW111600   0.087   2.901   6.432
 3567SOL    HW211601   6.949   2.893   6.404
 3568SOL     OW11602   5.207   4.168   5.956
 3568SOL    HW111603   5.286   4.209   5.911
 3568SOL    HW211604   5.235   4.127   6.043
 3569SOL     OW11605   1.516   0.489   4.546
 3569SOL    HW111606   1.446   0.542   4.594
 3569SOL    HW211607   1.585   0.457   4.612
 3570SOL     OW11608   5.252   1.722   3.525
 3570SOL    HW111609   5.320   1.663   3.568
 3570SOL    HW211610   5.189   1.667   3.471
 3571SOL     OW11611   6.379   6.516   5.490
 3571SOL    HW111612   6.312   6.455   5.531
 3571SOL    HW211613   6.376   6.507   5.390
 3572SOL     OW11614   6.664   6.101   4.467
 3572SOL    HW111615   6.687   6.194   4.496
 3572SOL    HW211616   6.582   6.071   4.517
 3573SOL     OW11617   1.533   1.951   1.960
 3573SOL    HW111618   1.444   1.949   1.914
 3573SOL    HW211619   1.547   2.040   2.002
 3574SOL     OW11620   6.690   3.519   6.950
 3574SOL    HW111621   6.600   3.496   6.912
 3574SOL    HW211622   6.735   3.435   6.982
 3575SOL     OW11623   6.252   5.783   1.551
 3575SOL    HW111624   6.316   5.860   1.553
 3575SOL    HW211625   6.159   5.818   1.546
 3576SOL     OW11626   0.529   2.017   6.351
 3576SOL    HW111627   0.548   1.930   6.304
 3576SOL    HW211628   0.437   2.014   6.389
 3577SOL     OW11629   1.698   2.778   0.041
 3577SOL    HW111630   1.620   2.770   7.002
 3577SOL    HW211631   1.763   2.705   0.021
 3578SOL     OW11632   3.710   5.458   0.967
 3578SOL    HW111633   3.723   5.484   1.062
 3578SOL    HW211634   3.760   5.522   0.908
 3579SOL     OW11635   0.516   4.106   5.055
 3579SOL    HW111636   0.488   4.192   5.096
 3579SOL    HW211637   0.472   4.030   5.102
 3580SOL     OW11638   6.890   1.832   1.944
 3580SOL    HW111639   6.937   1.921   1.951
 3580SOL    HW211640   6.791   1.847   1.947
 3581SOL     OW11641   6.324   0.474   2.982
 3581SOL    HW111642   6.376   0.422   2.914
 3581SOL    HW211643   6.378   0.552   3.014
 3582SOL     OW11644   0.557   0.702   6.064
 3582SOL    HW111645   0.458   0.717   6.067
 3582SOL    HW211646   0.583   0.642   6.139
 3583SOL     OW11647   2.227   5.584   0.158
 3583SOL    HW111648   2.192   5.588   0.064
 3583SOL    HW211649   2.287   5.662   0.175
 3584SOL     OW11650   5.040   6.759   5.825
 3584SOL    HW111651   4.978   6.799   5.757
 3584SOL    HW211652   5.018   6.795   5.916
 3585SOL     OW11653   2.901   4.747   3.986
 3585SOL    HW111654   2.852   4.670   4.027
 3585SOL    HW211655   2.837   4.823   3.972
 3586SOL     OW11656   6.766   1.971   6.743
 3586SOL    HW111657   6.806   2.048   6.693
 3586SOL    HW211658   6.838   1.912   6.778
 3587SOL     OW11659   3.883   0.190   6.108
 3587SOL    HW111660   3.826   0.257   6.156
 3587SOL    HW211661   3.966   0.235   6.075
 3588SOL     OW11662   2.171   1.693   5.642
 3588SOL    HW111663   2.081   1.703   5.684
 3588SOL    HW211664   2.242   1.714   5.710
 3589SOL     OW11665   2.693   0.576   5.332
 3589SOL    HW111666   2.730   0.662   5.366
 3589SOL    HW211667   2.660   0.521   5.409
 3590SOL     OW11668   1.705   5.075   6.306
 3590SOL    HW111669   1.749   5.097   6.393
 3590SOL    HW211670   1.684   4.978   6.303
 3591SOL     OW11671   5.065   2.417   5.855
 3591SOL    HW111672   5.153   2.420   5.807
 3591SOL    HW211673   5.000   2.476   5.808
 3592SOL     OW11674   4.862   2.914   1.737
 3592SOL    HW111675   4.932   2.972   1.694
 3592SOL    HW211676   4.806   2.970   1.798
 3593SOL     OW11677   1.402   5.173   2.779
 3593SOL    HW111678   1.479   5.110   2.784
 3593SOL    HW211679   1.333   5.147   2.847
 3594SOL     OW11680   3.136   0.970   4.194
 3594SOL    HW111681   3.118   0.930   4.104
 3594SOL    HW211682   3.061   1.032   4.218
 3595SOL     OW11683   2.937   6.158   5.328
 3595SOL    HW111684   2.921   6.166   5.229
 3595SOL    HW211685   2.982   6.241   5.361
 3596SOL     OW11686   6.529   2.860   2.963
 3596SOL    HW111687   6.556   2.942   3.015
 3596SOL    HW211688   6.528   2.781   3.024
 3597SOL     OW11689   4.270   5.920   3.607
 3597SOL    HW111690   4.236   5.959   3.521
 3597SOL    HW211691   4.195   5.877   3.656
 3598SOL     OW11692   0.997   6.999   0.076
 3598SOL    HW111693   0.970   0.020   0.162
 3598SOL    HW211694   1.089   0.007   0.051
 3599SOL     OW11695   0.139   1.846   4.337
 3599SOL    HW111696   0.136   1.752   4.370
 3599SOL    HW211697   0.081   1.904   4.394
 3600SOL     OW11698   6.070   0.524   0.683
 3600SOL    HW111699   6.105   0.587   0.614
 3600SOL    HW211700   6.061   0.433   0.643
 3601SOL     OW11701   6.245   3.626   5.790
 3601SOL    HW111702   6.269   3.723   5.780
 3601SOL    HW211703   6.234   3.604   5.887
 3602SOL     OW11704   1.866   1.860   0.324
 3602SOL    HW111705   1.942   1.859   0.259
 3602SOL    HW211706   1.899   1.882   0.415
 3603SOL     OW11707   4.070   4.867   4.973
 3603SOL    HW111708   4.080   4.961   5.005
 3603SOL    HW211709   4.158   4.834   4.939
 3604SOL     OW11710   0.474   3.073   3.113
 3604SOL    HW111711   0.421   3.158   3.110
 3604SOL    HW211712   0.470   3.029   3.023
 3605SOL     OW11713   6.079   3.629   6.469
 3605SOL    HW111714   6.068   3.697   6.541
 3605SOL    HW211715   6.175   3.625   6.442
 3606SOL     OW11716   0.695   4.664   4.952
 3606SOL    HW111717   0.706   4.570   4.918
 3606SOL    HW211718   0.771   4.686   5.013
 3607SOL     OW11719   4.922   0.132   6.990
 3607SOL    HW111720   4.963   0.175   0.047
 3607SOL    HW211721   4.843   0.186   6.961
 3608SOL     OW11722   1.211   2.342   2.741
 3608SOL    HW111723   1.138   2.277   2.762
 3608SOL    HW211724   1.274   2.302   2.674
 3609SOL     OW11725   6.644   0.533   4.503
 3609SOL    HW111726   6.575   0.584   4.451
 3609SOL    HW211727   6.644   0.438   4.473
 3610SOL     OW11728   1.223   6.264   5.224
 3610SOL    HW111729   1.291   6.234   5.291
 3610SOL    HW211730   1.262   6.336   5.167
 3611SOL     OW11731   3.705   5.341   5.354
 3611SOL    HW111732   3.634   5.299   5.411
 3611SOL    HW211733   3.679   5.335   5.258
 3612SOL     OW11734   1.485   0.182   1.267
 3612SOL    HW111735   1.512   0.131   1.185
 3612SOL    HW211736   1.429   0.261   1.240
 3613SOL     OW11737   4.996   5.797   6.838
 3613SOL    HW111738   4.968   5.889   6.863
 3613SOL    HW211739   4.977   5.782   6.740
 3614SOL     OW11740   3.479   2.925   3.327
 3614SOL    HW111741   3.527   2.931   3.240
 3614SOL    HW211742   3.380   2.929   3.311
 3615SOL     OW11743   6.846   6.510   6.328
 3615SOL    HW111744   6.854   6.574   6.404
 3615SOL    HW211745   6.845   6.560   6.241
 3616SOL     OW11746   6.769   0.943   4.955
 3616SOL    HW111747   6.815   0.967   4.868
 3616SOL    HW211748   6.675   0.916   4.936
 3617SOL     OW11749   6.777   0.818   6.517
 3617SOL    HW111750   6.837   0.858   6.447
 3617SOL    HW211751   6.704   0.767   6.472
 3618SOL     OW11752   2.409   1.528   6.168
 3618SOL    HW111753   2.456   1.610   6.199
 3618SOL    HW211754   2.431   1.452   6.230
 3619SOL     OW11755   5.808   2.449   3.966
 3619SOL    HW111756   5.884   2.512   3.986
 3619SOL    HW211757   5.730   2.473   4.024
 3620SOL     OW11758   6.357   0.556   4.356
 3620SOL    HW111759   6.307   0.534   4.440
 3620SOL    HW211760   6.292   0.581   4.284
 3621SOL     OW11761   1.953   3.909   5.954
 3621SOL    HW111762   2.013   3.970   5.903
 3621SOL    HW211763   1.971   3.815   5.928
 3622SOL     OW11764   0.825   2.704   1.136
 3622SOL    HW111765   0.804   2.628   1.074
 3622SOL    HW211766   0.772   2.692   1.220
 3623SOL     OW11767   6.724   4.688   4.100
 3623SOL    HW111768   6.656   4.659   4.033
 3623SOL    HW211769   6.694   4.773   4.143
 3624SOL     OW11770   2.901   0.291   2.078
 3624SOL    HW111771   2.897   0.391   2.076
 3624SOL    HW211772   2.985   0.260   2.033
 3625SOL     OW11773   0.182   3.123   4.838
 3625SOL    HW111774   0.112   3.125   4.766
 3625SOL    HW211775   0.176   3.037   4.889
 3626SOL     OW11776   2.600   3.781   5.403
 3626SOL    HW111777   2.540   3.815   5.331
 3626SOL    HW211778   2.545   3.738   5.474
 3627SOL     OW11779   3.000   3.661   4.011
 3627SOL    HW111780   2.921   3.636   4.067
 3627SOL    HW211781   2.994   3.615   3.922
 3628SOL     OW11782   3.194   4.987   2.378
 3628SOL    HW111783   3.103   4.961   2.346
 3628SOL    HW211784   3.189   5.011   2.475
 3629SOL     OW11785   6.208   2.526   5.083
 3629SOL    HW111786   6.147   2.557   5.156
 3629SOL    HW211787   6.294   2.493   5.123
 3630SOL     OW11788   6.035   1.992   4.247
 3630SOL    HW111789   6.129   1.962   4.261
 3630SOL    HW211790   6.031   2.092   4.245
 3631SOL     OW11791   2.361   1.033   4.679
 3631SOL    HW111792   2.303   0.968   4.728
 3631SOL    HW211793   2.420   0.984   4.615
 3632SOL     OW11794   4.678   0.424   6.654
 3632SOL    HW111795   4.675   0.380   6.564
 3632SOL    HW211796   4.589   0.465   6.673
 3633SOL     OW11797   1.867   3.019   5.747
 3633SOL    HW111798   1.803   3.007   5.823
 3633SOL    HW211799   1.901   3.113   5.747
 3634SOL     OW11800   1.590   5.808   5.212
 3634SOL    HW111801   1.526   5.812   5.289
 3634SOL    HW211802   1.599   5.714   5.180
 3635SOL     OW11803   2.669   1.445   5.577
 3635SOL    HW111804   2.715   1.463   5.490
 3635SOL    HW211805   2.627   1.530   5.610
 3636SOL     OW11806   0.996   5.590   6.190
 3636SOL    HW111807   1.004   5.493   6.208
 3636SOL    HW211808   1.060   5.641   6.248
 3637SOL     OW11809   5.538   1.463   2.165
 3637SOL    HW111810   5.493   1.478   2.253
 3637SOL    HW211811   5.492   1.388   2.117
 3638SOL     OW11812   0.129   4.906   4.431
 3638SOL    HW111813   0.105   4.870   4.522
 3638SOL    HW211814   0.116   4.835   4.363
 3639SOL     OW11815   1.846   4.785   0.096
 3639SOL    HW111816   1.802   4.698   0.075
 3639SOL    HW211817   1.916   4.805   0.027
 3640SOL     OW11818   3.593   6.047   1.042
 3640SOL    HW111819   3.585   5.951   1.070
 3640SOL    HW211820   3.510   6.073   0.992
 3641SOL     OW11821   2.088   0.995   4.966
 3641SOL    HW111822   2.107   0.936   4.887
 3641SOL    HW211823   2.101   1.090   4.940
 3642SOL     OW11824   5.605   0.079   4.500
 3642SOL    HW111825   5.572   0.113   4.412
 3642SOL    HW211826   5.604   7.003   4.500
 3643SOL     OW11827   2.812   4.803   4.755
 3643SOL    HW111828   2.838   4.729   4.816
 3643SOL    HW211829   2.856   4.888   4.785
 3644SOL     OW11830   6.896   0.726   0.717
 3644SOL    HW111831   6.903   0.629   0.740
 3644SOL    HW211832   6.808   0.762   0.750
 3645SOL     OW11833   3.557   0.686   3.364
 3645SOL    HW111834   3.561   0.785   3.349
 3645SOL    HW211835   3.607   0.663   3.447
 3646SOL     OW11836   0.210   4.689   5.356
 3646SOL    HW111837   0.161   4.753   5.298
 3646SOL    HW211838   0.170   4.597   5.346
 3647SOL     OW11839   2.323   3.149   1.034
 3647SOL    HW111840   2.256   3.222   1.016
 3647SOL    HW211841   2.415   3.183   1.015
 3648SOL     OW11842   2.939   6.498   2.270
 3648SOL    HW111843   2.902   6.457   2.354
 3648SOL    HW211844   3.018   6.445   2.239
 3649SOL     OW11845   3.599   3.687   1.187
 3649SOL    HW111846   3.529   3.751   1.155
 3649SOL    HW211847   3.557   3.598   1.206
 3650SOL     OW11848   0.494   6.437   1.380
 3650SOL    HW111849   0.567   6.389   1.332
 3650SOL    HW211850   0.527   6.468   1.469
 3651SOL     OW11851   1.902   5.818   2.683
 3651SOL    HW111852   1.944   5.867   2.606
 3651SOL    HW211853   1.931   5.861   2.768
 3652SOL     OW11854   4.577   5.460   3.348
 3652SOL    HW111855   4.509   5.505   3.406
 3652SOL    HW211856   4.583   5.507   3.260
 3653SOL     OW11857   0.100   1.768   3.277
 3653SOL    HW111858   0.078   1.865   3.267
 3653SOL    HW211859   0.126   1.731   3.189
 3654SOL     OW11860   1.431   6.399   1.383
 3654SOL    HW111861   1.526   6.392   1.414
 3654SOL    HW211862   1.370   6.406   1.462
 3655SOL     OW11863   1.897   0.410   4.833
 3655SOL    HW111864   1.811   0.460   4.827
 3655SOL    HW211865   1.929   0.410   4.928
 3656SOL     OW11866   1.817   2.956   1.831
 3656SOL    HW111867   1.756   2.897   1.886
 3656SOL    HW211868   1.878   2.899   1.777
 3657SOL     OW11869   3.805   5.597   1.230
 3657SOL    HW111870   3.875   5.526   1.224
 3657SOL    HW211871   3.814   5.646   1.316
 3658SOL     OW11872   1.682   6.128   6.259
 3658SOL    HW111873   1.624   6.188   6.204
 3658SOL    HW211874   1.627   6.054   6.296
 3659SOL     OW11875   2.573   4.200   0.280
 3659SOL    HW111876   2.643   4.263   0.247
 3659SOL    HW211877   2.605   4.106   0.271
 3660SOL     OW11878   4.614   6.122   1.741
 3660SOL    HW111879   4.556   6.181   1.686
 3660SOL    HW211880   4.709   6.132   1.713
 3661SOL     OW11881   4.830   0.838   0.446
 3661SOL    HW111882   4.734   0.816   0.463
 3661SOL    HW211883   4.877   0.757   0.412
 3662SOL     OW11884   3.282   0.001   5.360
 3662SOL    HW111885   3.314   6.930   5.350
 3662SOL    HW211886   3.183   0.004   5.352
 3663SOL     OW11887   0.968   2.948   6.915
 3663SOL    HW111888   1.019   2.878   6.967
 3663SOL    HW211889   0.985   2.936   6.818
 3664SOL     OW11890   4.774   1.207   1.009
 3664SOL    HW111891   4.813   1.155   1.085
 3664SOL    HW211892   4.731   1.145   0.944
 3665SOL     OW11893   0.566   0.143   5.635
 3665SOL    HW111894   0.496   0.213   5.648
 3665SOL    HW211895   0.522   0.054   5.621
 3666SOL     OW11896   1.481   4.460   4.127
 3666SOL    HW111897   1.483   4.558   4.108
 3666SOL    HW211898   1.445   4.411   4.047
 3667SOL     OW11899   6.259   1.308   6.312
 3667SOL    HW111900   6.211   1.381   6.362
 3667SOL    HW211901   6.296   1.242   6.378
 3668SOL     OW11902   1.335   6.005   2.321
 3668SOL    HW111903   1.328   6.093   2.275
 3668SOL    HW211904   1.307   5.932   2.259
 3669SOL     OW11905   6.770   2.608   3.275
 3669SOL    HW111906   6.784   2.682   3.340
 3669SOL    HW211907   6.694   2.631   3.213
 3670SOL     OW11908   2.290   5.910   5.896
 3670SOL    HW111909   2.221   5.982   5.902
 3670SOL    HW211910   2.260   5.840   5.831
 3671SOL     OW11911   1.007   0.196   2.924
 3671SOL    HW111912   1.101   0.213   2.894
 3671SOL    HW211913   1.007   0.133   3.001
 3672SOL     OW11914   6.594   0.671   0.387
 3672SOL    HW111915   6.518   0.735   0.394
 3672SOL    HW211916   6.679   0.722   0.372
 3673SOL     OW11917   5.197   0.356   6.497
 3673SOL    HW111918   5.106   0.353   6.538
 3673SOL    HW211919   5.192   0.402   6.408
 3674SOL     OW11920   1.343   6.356   0.667
 3674SOL    HW111921   1.291   6.393   0.591
 3674SOL    HW211922   1.292   6.369   0.752
 3675SOL     OW11923   2.198   2.308   5.314
 3675SOL    HW111924   2.180   2.347   5.404
 3675SOL    HW211925   2.124   2.245   5.289
 3676SOL     OW11926   3.036   5.665   3.514
 3676SOL    HW111927   2.998   5.580   3.552
 3676SOL    HW211928   3.011   5.671   3.417
 3677SOL     OW11929   6.628   6.835   4.474
 3677SOL    HW111930   6.693   6.761   4.488
 3677SOL    HW211931   6.632   6.865   4.379
 3678SOL     OW11932   1.387   1.191   3.581
 3678SOL    HW111933   1.464   1.190   3.518
 3678SOL    HW211934   1.335   1.275   3.568
 3679SOL     OW11935   0.496   0.941   2.096
 3679SOL    HW111936   0.414   0.970   2.145
 3679SOL    HW211937   0.485   0.847   2.064
 3680SOL     OW11938   6.802   2.926   4.599
 3680SOL    HW111939   6.755   2.959   4.517
 3680SOL    HW211940   6.891   2.888   4.573
 3681SOL     OW11941   6.964   6.599   5.811
 3681SOL    HW111942   0.028   6.637   5.841
 3681SOL    HW211943   6.929   6.653   5.734
 3682SOL     OW11944   6.470   1.628   6.579
 3682SOL    HW111945   6.560   1.613   6.620
 3682SOL    HW211946   6.459   1.567   6.500
 3683SOL     OW11947   5.629   6.665   4.252
 3683SOL    HW111948   5.544   6.637   4.208
 3683SOL    HW211949   5.698   6.594   4.237
 3684SOL     OW11950   1.667   3.452   1.359
 3684SOL    HW111951   1.602   3.526   1.374
 3684SOL    HW211952   1.730   3.478   1.285
 3685SOL     OW11953   6.358   6.294   6.589
 3685SOL    HW111954   6.372   6.296   6.490
 3685SOL    HW211955   6.440   6.328   6.635
 3686SOL     OW11956   6.111   4.414   1.835
 3686SOL    HW111957   6.205   4.412   1.802
 3686SOL    HW211958   6.108   4.379   1.929
 3687SOL     OW11959   3.953   0.703   0.302
 3687SOL    HW111960   3.868   0.691   0.250
 3687SOL    HW211961   3.949   0.788   0.354
 3688SOL     OW11962   1.344   3.287   0.342
 3688SOL    HW111963   1.322   3.306   0.437
 3688SOL    HW211964   1.261   3.255   0.295
 3689SOL     OW11965   2.094   0.557   4.056
 3689SOL    HW111966   2.027   0.496   4.014
 3689SOL    HW211967   2.110   0.635   3.996
 3690SOL     OW11968   5.978   0.011   5.828
 3690SOL    HW111969   6.030   6.964   5.876
 3690SOL    HW211970   5.880   7.021   5.846
 3691SOL     OW11971   2.782   3.283   6.853
 3691SOL    HW111972   2.802   3.241   6.942
 3691SOL    HW211973   2.830   3.233   6.782
 3692SOL     OW11974   1.636   6.979   5.270
 3692SOL    HW111975   1.636   0.042   5.321
 3692SOL    HW211976   1.730   6.948   5.256
 3693SOL     OW11977   2.893   2.290   2.978
 3693SOL    HW111978   2.830   2.300   3.055
 3693SOL    HW211979   2.982   2.260   3.011
 3694SOL     OW11980   1.971   6.341   3.283
 3694SOL    HW111981   2.016   6.286   3.353
 3694SOL    HW211982   2.041   6.386   3.226
 3695SOL     OW11983   1.882   1.848   2.232
 3695SOL    HW111984   1.796   1.812   2.196
 3695SOL    HW211985   1.937   1.772   2.267
 3696SOL     OW11986   4.268   0.131   6.054
 3696SOL    HW111987   4.206   0.207   6.038
 3696SOL    HW211988   4.247   0.057   5.990
 3697SOL     OW11989   6.490   0.262   3.878
 3697SOL    HW111990   6.584   0.251   3.907
 3697SOL    HW211991   6.462   0.358   3.888
 3698SOL     OW11992   2.888   0.738   6.012
 3698SOL    HW111993   2.892   0.715   6.109
 3698SOL    HW211994   2.978   0.767   5.980
 3699SOL     OW11995   0.173   3.816   3.066
 3699SOL    HW111996   0.176   3.901   3.014
 3699SOL    HW211997   0.266   3.779   3.075
 3700SOL     OW11998   0.217   0.065   4.031
 3700SOL    HW111999   0.200   0.020   3.943
 3700SOL    HW212000   0.305   0.034   4.068
 3701SOL     OW12001   6.554   1.239   4.528
 3701SOL    HW112002   6.474   1.266   4.476
 3701SOL    HW212003   6.637   1.266   4.479
 3702SOL     OW12004   3.586   1.131   0.284
 3702SOL    HW112005   3.648   1.062   0.247
 3702SOL    HW212006   3.610   1.221   0.246
 3703SOL     OW12007   4.022   4.658   6.665
 3703SOL    HW112008   4.022   4.568   6.709
 3703SOL    HW212009   4.108   4.705   6.684
 3704SOL     OW12010   2.261   0.040   2.700
 3704SOL    HW112011   2.205   0.082   2.629
 3704SOL    HW212012   2.355   0.071   2.691
 3705SOL     OW12013   4.650   0.787   3.810
 3705SOL    HW112014   4.732   0.844   3.823
 3705SOL    HW212015   4.661   0.702   3.861
 3706SOL     OW12016   1.990   2.751   3.843
 3706SOL    HW112017   2.088   2.774   3.836
 3706SOL    HW212018   1.975   2.660   3.804
 3707SOL     OW12019   4.823   2.647   5.235
 3707SOL    HW112020   4.784   2.586   5.167
 3707SOL    HW212021   4.759   2.658   5.311
 3708SOL     OW12022   5.885   0.775   6.680
 3708SOL    HW112023   5.804   0.784   6.622
 3708SOL    HW212024   5.862   0.724   6.763
 3709SOL     OW12025   3.283   0.336   6.319
 3709SOL    HW112026   3.310   0.286   6.402
 3709SOL    HW212027   3.331   0.297   6.241
 3710SOL     OW12028   6.838   4.457   0.733
 3710SOL    HW112029   6.881   4.510   0.661
 3710SOL    HW212030   6.872   4.363   0.730
 3711SOL     OW12031   6.835   5.234   2.639
 3711SOL    HW112032   6.903   5.184   2.586
 3711SOL    HW212033   6.832   5.329   2.608
 3712SOL     OW12034   1.279   7.019   0.171
 3712SOL    HW112035   1.257   0.014   0.266
 3712SOL    HW212036   1.271   6.921   0.153
 3713SOL     OW12037   3.874   5.757   5.801
 3713SOL    HW112038   3.786   5.800   5.818
 3713SOL    HW212039   3.860   5.669   5.756
 3714SOL     OW12040   3.944   0.362   4.495
 3714SOL    HW112041   3.855   0.362   4.540
 3714SOL    HW212042   3.971   0.268   4.474
 3715SOL     OW12043   5.674   4.536   4.934
 3715SOL    HW112044   5.687   4.491   4.845
 3715SOL    HW212045   5.579   4.524   4.963
 3716SOL     OW12046   0.068   0.195   4.267
 3716SOL    HW112047   7.021   0.250   4.223
 3716SOL    HW212048   0.079   0.109   4.217
 3717SOL     OW12049   6.291   6.460   0.932
 3717SOL    HW112050   6.385   6.446   0.963
 3717SOL    HW212051   6.248   6.372   0.914
 3718SOL     OW12052   1.429   5.758   0.335
 3718SOL    HW112053   1.468   5.812   0.261
 3718SOL    HW212054   1.383   5.677   0.298
 3719SOL     OW12055   4.184   4.845   5.755
 3719SOL    HW112056   4.163   4.909   5.829
 3719SOL    HW212057   4.109   4.845   5.689
 3720SOL     OW12058   5.775   1.633   5.756
 3720SOL    HW112059   5.795   1.557   5.818
 3720SOL    HW212060   5.781   1.602   5.661
 3721SOL     OW12061   5.321   4.532   0.437
 3721SOL    HW112062   5.403   4.557   0.489
 3721SOL    HW212063   5.294   4.609   0.379
 3722SOL     OW12064   6.378   5.954   2.473
 3722SOL    HW112065   6.368   5.963   2.374
 3722SOL    HW212066   6.289   5.934   2.514
 3723SOL     OW12067   5.212   0.724   1.134
 3723SOL    HW112068   5.206   0.630   1.099
 3723SOL    HW212069   5.130   0.774   1.109
 3724SOL     OW12070   1.541   5.306   6.676
 3724SOL    HW112071   1.500   5.316   6.585
 3724SOL    HW212072   1.628   5.355   6.679
 3725SOL     OW12073   6.863   6.043   6.619
 3725SOL    HW112074   6.954   6.063   6.583
 3725SOL    HW212075   6.798   6.111   6.585
 3726SOL     OW12076   5.274   3.912   1.419
 3726SOL    HW112077   5.296   3.815   1.421
 3726SOL    HW212078   5.175   3.923   1.406
 3727SOL     OW12079   2.236   3.235   5.150
 3727SOL    HW112080   2.309   3.168   5.165
 3727SOL    HW212081   2.272   3.327   5.164
 3728SOL     OW12082   1.617   3.347   6.798
 3728SOL    HW112083   1.598   3.307   6.888
 3728SOL    HW212084   1.687   3.417   6.807
 3729SOL     OW12085   0.638   1.848   3.792
 3729SOL    HW112086   0.566   1.881   3.853
 3729SOL    HW212087   0.653   1.914   3.719
 3730SOL     OW12088   3.651   0.718   0.219
 3730SOL    HW112089   3.580   0.727   0.149
 3730SOL    HW212090   3.679   0.810   0.249
 3731SOL     OW12091   4.473   0.023   0.124
 3731SOL    HW112092   4.504   0.100   0.180
 3731SOL    HW212093   4.546   6.977   0.121
 3732SOL     OW12094   2.222   3.759   5.216
 3732SOL    HW112095   2.295   3.816   5.180
 3732SOL    HW212096   2.154   3.816   5.261
 3733SOL     OW12097   2.928   3.846   1.714
 3733SOL    HW112098   3.027   3.852   1.723
 3733SOL    HW212099   2.897   3.754   1.740
 3734SOL     OW12100   5.049   1.034   2.614
 3734SOL    HW112101   5.023   1.061   2.521
 3734SOL    HW212102   5.013   1.101   2.679
 3735SOL     OW12103   3.040   2.145   2.188
 3735SOL    HW112104   3.009   2.136   2.283
 3735SOL    HW212105   2.992   2.221   2.144
 3736SOL     OW12106   5.976   2.019   0.813
 3736SOL    HW112107   6.050   1.989   0.873
 3736SOL    HW212108   5.903   2.059   0.868
 3737SOL     OW12109   4.849   0.021   3.680
 3737SOL    HW112110   4.932   6.987   3.678
 3737SOL    HW212111   4.783   7.009   3.614
 3738SOL     OW12112   6.904   6.804   3.420
 3738SOL    HW112113   7.002   6.823   3.421
 3738SOL    HW212114   6.883   6.741   3.346
 3739SOL     OW12115   0.363   3.989   2.724
 3739SOL    HW112116   0.345   3.989   2.626
 3739SOL    HW212117   0.462   3.983   2.741
 3740SOL     OW12118   5.607   1.120   0.065
 3740SOL    HW112119   5.553   1.203   0.054
 3740SOL    HW212120   5.550   1.040   0.046
 3741SOL     OW12121   3.972   2.444   0.020
 3741SOL    HW112122   4.058   2.477   0.057
 3741SOL    HW212123   3.955   2.350   0.052
 3742SOL     OW12124   3.542   3.054   5.657
 3742SOL    HW112125   3.538   2.955   5.669
 3742SOL    HW212126   3.600   3.094   5.728
 3743SOL     OW12127   6.965   5.014   6.692
 3743SOL    HW112128   0.039   5.000   6.714
 3743SOL    HW212129   6.914   4.931   6.715
 3744SOL     OW12130   0.492   5.628   3.795
 3744SOL    HW112131   0.530   5.551   3.745
 3744SOL    HW212132   0.392   5.620   3.797
 3745SOL     OW12133   4.075   5.932   2.637
 3745SOL    HW112134   4.012   5.858   2.663
 3745SOL    HW212135   4.119   5.968   2.719
 3746SOL     OW12136   4.213   1.527   1.965
 3746SOL    HW112137   4.155   1.606   1.985
 3746SOL    HW212138   4.159   1.457   1.919
 3747SOL     OW12139   3.425   0.733   0.058
 3747SOL    HW112140   3.338   0.776   0.038
 3747SOL    HW212141   3.409   0.645   0.102
 3748SOL     OW12142   5.897   0.997   2.934
 3748SOL    HW112143   5.845   1.080   2.914
 3748SOL    HW212144   5.857   0.920   2.885
 3749SOL     OW12145   1.137   6.951   5.503
 3749SOL    HW112146   1.235   6.962   5.490
 3749SOL    HW212147   1.091   0.015   5.489
 3750SOL     OW12148   0.096   4.046   0.439
 3750SOL    HW112149   0.162   4.030   0.365
 3750SOL    HW212150   0.090   4.144   0.458
 3751SOL     OW12151   0.612   4.265   3.099
 3751SOL    HW112152   0.534   4.305   3.146
 3751SOL    HW212153   0.694   4.277   3.155
 3752SOL     OW12154   6.046   0.559   5.881
 3752SOL    HW112155   6.145   0.570   5.870
 3752SOL    HW212156   6.026   0.468   5.917
 3753SOL     OW12157   0.068   0.199   4.536
 3753SOL    HW112158   0.011   0.280   4.547
 3753SOL    HW212159   0.079   0.179   4.439
 3754SOL     OW12160   2.146   1.713   0.885
 3754SOL    HW112161   2.196   1.780   0.940
 3754SOL    HW212162   2.110   1.642   0.945
 3755SOL     OW12163   2.872   5.049   3.624
 3755SOL    HW112164   2.943   5.086   3.563
 3755SOL    HW212165   2.912   4.978   3.681
 3756SOL     OW12166   2.449   6.267   0.297
 3756SOL    HW112167   2.353   6.292   0.294
 3756SOL    HW212168   2.464   6.201   0.371
 3757SOL     OW12169   6.418   4.640   1.480
 3757SOL    HW112170   6.499   4.698   1.472
 3757SOL    HW212171   6.342   4.681   1.430
 3758SOL     OW12172   2.005   6.964   3.760
 3758SOL    HW112173   2.004   6.890   3.827
 3758SOL    HW212174   1.921   6.962   3.706
 3759SOL     OW12175   4.952   0.677   4.160
 3759SOL    HW112176   4.945   0.608   4.232
 3759SOL    HW212177   5.041   0.722   4.165
 3760SOL     OW12178   0.585   1.237   3.283
 3760SOL    HW112179   0.556   1.266   3.192
 3760SOL    HW212180   0.596   1.138   3.285
 3761SOL     OW12181   5.587   1.057   3.693
 3761SOL    HW112182   5.513   1.028   3.633
 3761SOL    HW212183   5.589   1.157   3.699
 3762SOL     OW12184   0.395   2.553   2.422
 3762SOL    HW112185   0.431   2.646   2.408
 3762SOL    HW212186   0.324   2.555   2.492
 3763SOL     OW12187   0.646   4.357   0.723
 3763SOL    HW112188   0.674   4.308   0.806
 3763SOL    HW212189   0.670   4.302   0.643
 3764SOL     OW12190   2.367   0.582   2.855
 3764SOL    HW112191   2.318   0.530   2.925
 3764SOL    HW212192   2.417   0.657   2.898
 3765SOL     OW12193   5.753   2.503   1.856
 3765SOL    HW112194   5.687   2.501   1.931
 3765SOL    HW212195   5.836   2.456   1.883
 3766SOL     OW12196   1.081   3.523   3.348
 3766SOL    HW112197   1.126   3.604   3.386
 3766SOL    HW212198   1.076   3.452   3.417
 3767SOL     OW12199   1.136   5.347   5.924
 3767SOL    HW112200   1.087   5.390   5.849
 3767SOL    HW212201   1.143   5.410   6.001
 3768SOL     OW12202   1.033   6.972   4.007
 3768SOL    HW112203   1.073   6.923   4.084
 3768SOL    HW212204   1.020   0.044   4.031
 3769SOL     OW12205   5.624   5.062   4.856
 3769SOL    HW112206   5.608   4.964   4.840
 3769SOL    HW212207   5.608   5.112   4.771
 3770SOL     OW12208   1.846   1.093   0.959
 3770SOL    HW112209   1.831   1.185   0.997
 3770SOL    HW212210   1.789   1.081   0.878
 3771SOL     OW12211   6.696   5.183   0.185
 3771SOL    HW112212   6.677   5.273   0.225
 3771SOL    HW212213   6.612   5.129   0.184
 3772SOL     OW12214   1.735   6.065   0.539
 3772SOL    HW112215   1.681   6.107   0.613
 3772SOL    HW212216   1.825   6.039   0.574
 3773SOL     OW12217   5.273   4.489   6.321
 3773SOL    HW112218   5.294   4.400   6.281
 3773SOL    HW212219   5.344   4.555   6.296
 3774SOL     OW12220   6.589   4.859   1.404
 3774SOL    HW112221   6.577   4.860   1.504
 3774SOL    HW212222   6.642   4.939   1.376
 3775SOL     OW12223   4.257   4.773   4.373
 3775SOL    HW112224   4.280   4.710   4.299
 3775SOL    HW212225   4.299   4.862   4.356
 3776SOL     OW12226   3.523   2.842   5.986
 3776SOL    HW112227   3.608   2.883   6.021
 3776SOL    HW212228   3.532   2.826   5.888
 3777SOL     OW12229   2.988   5.940   4.138
 3777SOL    HW112230   3.028   5.879   4.206
 3777SOL    HW212231   2.917   5.996   4.180
 3778SOL     OW12232   3.457   5.415   5.977
 3778SOL    HW112233   3.434   5.480   6.050
 3778SOL    HW212234   3.375   5.397   5.921
 3779SOL     OW12235   6.798   4.789   6.713
 3779SOL    HW112236   6.806   4.710   6.652
 3779SOL    HW212237   6.778   4.758   6.806
 3780SOL     OW12238   5.652   4.242   1.638
 3780SOL    HW112239   5.559   4.207   1.628
 3780SOL    HW212240   5.658   4.333   1.597
 3781SOL     OW12241   3.136   6.165   5.122
 3781SOL    HW112242   3.225   6.118   5.127
 3781SOL    HW212243   3.122   6.200   5.030
 3782SOL     OW12244   5.018   6.011   1.783
 3782SOL    HW112245   5.112   6.043   1.792
 3782SOL    HW212246   4.974   6.011   1.873
 3783SOL     OW12247   5.194   5.073   4.757
 3783SOL    HW112248   5.192   5.168   4.789
 3783SOL    HW212249   5.106   5.049   4.716
 3784SOL     OW12250   6.331   1.982   4.133
 3784SOL    HW112251   6.407   2.045   4.144
 3784SOL    HW212252   6.361   1.889   4.154
 3785SOL     OW12253   1.884   3.558   4.094
 3785SOL    HW112254   1.854   3.559   3.999
 3785SOL    HW212255   1.860   3.645   4.137
 3786SOL     OW12256   2.271   2.751   4.522
 3786SOL    HW112257   2.289   2.803   4.605
 3786SOL    HW212258   2.197   2.686   4.539
 3787SOL     OW12259   4.177   0.082   3.333
 3787SOL    HW112260   4.137   0.040   3.252
 3787SOL    HW212261   4.129   0.168   3.352
 3788SOL     OW12262   6.578   3.445   5.111
 3788SOL    HW112263   6.545   3.445   5.205
 3788SOL    HW212264   6.529   3.515   5.059
 3789SOL     OW12265   1.461   2.515   2.727
 3789SOL    HW112266   1.509   2.432   2.757
 3789SOL    HW212267   1.429   2.566   2.807
 3790SOL     OW12268   0.762   6.703   1.589
 3790SOL    HW112269   0.690   6.635   1.603
 3790SOL    HW212270   0.740   6.786   1.641
 3791SOL     OW12271   4.847   1.094   5.413
 3791SOL    HW112272   4.932   1.040   5.410
 3791SOL    HW212273   4.868   1.190   5.393
 3792SOL     OW12274   0.087   0.775   4.094
 3792SOL    HW112275   0.033   0.695   4.122
 3792SOL    HW212276   0.142   0.751   4.015
 3793SOL     OW12277   4.686   5.377   0.590
 3793SOL    HW112278   4.643   5.441   0.654
 3793SOL    HW212279   4.649   5.285   0.606
 3794SOL     OW12280   0.729   4.037   6.484
 3794SOL    HW112281   0.736   4.134   6.508
 3794SOL    HW212282   0.705   4.029   6.387
 3795SOL     OW12283   1.663   6.162   1.815
 3795SOL    HW112284   1.721   6.080   1.813
 3795SOL    HW212285   1.691   6.224   1.742
 3796SOL     OW12286   4.649   1.492   6.733
 3796SOL    HW112287   4.590   1.485   6.813
 3796SOL    HW212288   4.623   1.572   6.679
 3797SOL     OW12289   1.184   4.452   2.519
 3797SOL    HW112290   1.109   4.424   2.459
 3797SOL    HW212291   1.173   4.409   2.608
 3798SOL     OW12292   1.712   6.301   3.168
 3798SOL    HW112293   1.655   6.356   3.229
 3798SOL    HW212294   1.808   6.310   3.195
 3799SOL     OW12295   7.023   1.397   3.275
 3799SOL    HW112296   0.032   1.367   3.185
 3799SOL    HW212297   6.976   1.485   3.266
 3800SOL     OW12298   5.584   2.550   2.617
 3800SOL    HW112299   5.624   2.477   2.562
 3800SOL    HW212300   5.507   2.514   2.669
 3801SOL     OW12301   5.939   1.129   2.216
 3801SOL    HW112302   6.027   1.168   2.193
 3801SOL    HW212303   5.881   1.199   2.258
 3802SOL     OW12304   6.250   2.411   2.086
 3802SOL    HW112305   6.265   2.343   2.014
 3802SOL    HW212306   6.279   2.501   2.053
 3803SOL     OW12307   3.233   3.430   4.007
 3803SOL    HW112308   3.249   3.344   4.057
 3803SOL    HW212309   3.152   3.475   4.044
 3804SOL     OW12310   3.836   6.071   3.014
 3804SOL    HW112311   3.817   6.027   3.101
 3804SOL    HW212312   3.759   6.056   2.952
 3805SOL     OW12313   2.639   2.952   0.088
 3805SOL    HW112314   2.595   2.956   0.178
 3805SOL    HW212315   2.732   2.989   0.095
 3806SOL     OW12316   3.772   4.397   1.647
 3806SOL    HW112317   3.872   4.395   1.639
 3806SOL    HW212318   3.745   4.343   1.727
 3807SOL     OW12319   1.990   4.100   4.546
 3807SOL    HW112320   1.942   4.185   4.570
 3807SOL    HW212321   2.078   4.122   4.504
 3808SOL     OW12322   3.471   6.727   6.545
 3808SOL    HW112323   3.533   6.730   6.466
 3808SOL    HW212324   3.524   6.736   6.629
 3809SOL     OW12325   4.987   2.180   1.135
 3809SOL    HW112326   5.016   2.272   1.161
 3809SOL    HW212327   4.966   2.178   1.038
 3810SOL     OW12328   5.755   2.136   1.911
 3810SOL    HW112329   5.845   2.173   1.932
 3810SOL    HW212330   5.731   2.065   1.977
 3811SOL     OW12331   0.343   5.444   5.242
 3811SOL    HW112332   0.398   5.525   5.258
 3811SOL    HW212333   0.366   5.404   5.153
 3812SOL     OW12334   4.790   6.565   1.134
 3812SOL    HW112335   4.732   6.504   1.188
 3812SOL    HW212336   4.766   6.559   1.037
 3813SOL     OW12337   6.186   4.242   0.400
 3813SOL    HW112338   6.199   4.156   0.352
 3813SOL    HW212339   6.263   4.258   0.462
 3814SOL     OW12340   6.675   0.271   4.796
 3814SOL    HW112341   6.670   0.287   4.895
 3814SOL    HW212342   6.720   0.348   4.752
 3815SOL     OW12343   6.241   3.602   6.136
 3815SOL    HW112344   6.262   3.668   6.208
 3815SOL    HW212345   6.181   3.531   6.172
 3816SOL     OW12346   0.458   5.473   6.693
 3816SOL    HW112347   0.415   5.508   6.776
 3816SOL    HW212348   0.523   5.401   6.716
 3817SOL     OW12349   5.094   4.049   1.846
 3817SOL    HW112350   5.135   3.962   1.816
 3817SOL    HW212351   5.014   4.030   1.902
 3818SOL     OW12352   6.093   0.472   2.834
 3818SOL    HW112353   6.042   0.531   2.897
 3818SOL    HW212354   6.182   0.449   2.874
 3819SOL     OW12355   6.878   3.898   4.190
 3819SOL    HW112356   6.791   3.934   4.157
 3819SOL    HW212357   6.910   3.953   4.268
 3820SOL     OW12358   4.577   0.058   4.750
 3820SOL    HW112359   4.655   0.006   4.714
 3820SOL    HW212360   4.492   0.021   4.712
 3821SOL     OW12361   1.437   0.468   0.344
 3821SOL    HW112362   1.501   0.531   0.300
 3821SOL    HW212363   1.453   0.375   0.311
 3822SOL     OW12364   4.556   1.142   1.665
 3822SOL    HW112365   4.495   1.220   1.649
 3822SOL    HW212366   4.514   1.059   1.628
 3823SOL     OW12367   4.694   6.108   6.591
 3823SOL    HW112368   4.670   6.082   6.685
 3823SOL    HW212369   4.623   6.075   6.529
 3824SOL     OW12370   2.059   3.075   0.165
 3824SOL    HW112371   1.970   3.091   0.210
 3824SOL    HW212372   2.044   3.024   0.080
 3825SOL     OW12373   1.469   4.044   5.491
 3825SOL    HW112374   1.494   3.949   5.472
 3825SOL    HW212375   1.544   4.089   5.539
 3826SOL     OW12376   6.089   4.130   3.377
 3826SOL    HW112377   6.074   4.229   3.379
 3826SOL    HW212378   6.186   4.110   3.389
 3827SOL     OW12379   1.366   0.934   1.986
 3827SOL    HW112380   1.432   1.009   1.980
 3827SOL    HW212381   1.274   0.970   2.001
 3828SOL     OW12382   4.057   3.673   4.133
 3828SOL    HW112383   4.097   3.632   4.051
 3828SOL    HW212384   3.964   3.637   4.145
 3829SOL     OW12385   0.776   3.566   2.776
 3829SOL    HW112386   0.718   3.493   2.813
 3829SOL    HW212387   0.743   3.655   2.807
 3830SOL     OW12388   6.804   1.258   4.317
 3830SOL    HW112389   6.862   1.270   4.236
 3830SOL    HW212390   6.715   1.299   4.300
 3831SOL     OW12391   4.415   1.895   3.387
 3831SOL    HW112392   4.454   1.803   3.385
 3831SOL    HW212393   4.316   1.889   3.402
 3832SOL     OW12394   6.710   1.174   3.492
 3832SOL    HW112395   6.763   1.182   3.576
 3832SOL    HW212396   6.708   1.078   3.464
 3833SOL     OW12397   0.256   1.753   5.511
 3833SOL    HW112398   0.165   1.764   5.472
 3833SOL    HW212399   0.294   1.843   5.532
 3834SOL     OW12400   4.643   3.861   0.126
 3834SOL    HW112401   4.692   3.886   0.043
 3834SOL    HW212402   4.635   3.940   0.186
 3835SOL     OW12403   4.418   5.409   4.653
 3835SOL    HW112404   4.411   5.494   4.601
 3835SOL    HW212405   4.328   5.383   4.688
 3836SOL     OW12406   0.311   6.040   5.379
 3836SOL    HW112407   0.381   6.094   5.331
 3836SOL    HW212408   0.337   6.029   5.475
 3837SOL     OW12409   4.451   4.877   5.131
 3837SOL    HW112410   4.387   4.915   5.064
 3837SOL    HW212411   4.535   4.933   5.132
 3838SOL     OW12412   1.337   1.436   3.824
 3838SOL    HW112413   1.383   1.523   3.803
 3838SOL    HW212414   1.406   1.365   3.838
 3839SOL     OW12415   3.840   0.905   3.208
 3839SOL    HW112416   3.784   0.834   3.166
 3839SOL    HW212417   3.891   0.866   3.285
 3840SOL     OW12418   2.579   0.733   0.084
 3840SOL    HW112419   2.490   0.705   0.121
 3840SOL    HW212420   2.569   0.759   7.012
 3841SOL     OW12421   6.607   4.123   3.707
 3841SOL    HW112422   6.600   4.198   3.642
 3841SOL    HW212423   6.672   4.148   3.780
 3842SOL     OW12424   2.145   2.845   5.117
 3842SOL    HW112425   2.170   2.804   5.205
 3842SOL    HW212426   2.227   2.885   5.075
 3843SOL     OW12427   5.244   2.543   0.158
 3843SOL    HW112428   5.339   2.570   0.143
 3843SOL    HW212429   5.189   2.571   0.079
 3844SOL     OW12430   1.333   6.013   0.399
 3844SOL    HW112431   1.368   6.068   0.475
 3844SOL    HW212432   1.363   5.918   0.412
 3845SOL     OW12433   2.034   6.019   0.887
 3845SOL    HW112434   2.015   5.933   0.935
 3845SOL    HW212435   1.995   6.015   0.795
 3846SOL     OW12436   1.062   2.625   3.408
 3846SOL    HW112437   1.065   2.645   3.310
 3846SOL    HW212438   1.122   2.689   3.457
 3847SOL     OW12439   6.478   1.066   5.954
 3847SOL    HW112440   6.422   1.009   5.895
 3847SOL    HW212441   6.525   1.135   5.899
 3848SOL     OW12442   5.201   3.634   2.286
 3848SOL    HW112443   5.270   3.616   2.215
 3848SOL    HW212444   5.153   3.719   2.264
 3849SOL     OW12445   6.800   5.737   6.699
 3849SOL    HW112446   6.821   5.833   6.680
 3849SOL    HW212447   6.701   5.724   6.698
 3850SOL     OW12448   2.774   2.526   1.128
 3850SOL    HW112449   2.848   2.516   1.062
 3850SOL    HW212450   2.805   2.580   1.206
 3851SOL     OW12451   0.454   5.855   2.729
 3851SOL    HW112452   0.472   5.759   2.704
 3851SOL    HW212453   0.366   5.883   2.692
 3852SOL     OW12454   3.615   6.139   5.714
 3852SOL    HW112455   3.560   6.222   5.710
 3852SOL    HW212456   3.702   6.155   5.667
 3853SOL     OW12457   2.582   1.000   3.841
 3853SOL    HW112458   2.679   0.984   3.826
 3853SOL    HW212459   2.540   1.032   3.756
 3854SOL     OW12460   1.833   2.682   2.681
 3854SOL    HW112461   1.835   2.759   2.618
 3854SOL    HW212462   1.788   2.710   2.766
 3855SOL     OW12463   4.116   6.783   0.533
 3855SOL    HW112464   4.063   6.861   0.568
 3855SOL    HW212465   4.093   6.701   0.587
 3856SOL     OW12466   0.482   1.838   6.659
 3856SOL    HW112467   0.455   1.765   6.596
 3856SOL    HW212468   0.556   1.891   6.619
 3857SOL     OW12469   2.184   1.252   5.358
 3857SOL    HW112470   2.258   1.251   5.290
 3857SOL    HW212471   2.189   1.337   5.411
 3858SOL     OW12472   4.184   1.097   4.627
 3858SOL    HW112473   4.276   1.101   4.666
 3858SOL    HW212474   4.159   1.001   4.611
 3859SOL     OW12475   5.436   0.322   1.613
 3859SOL    HW112476   5.340   0.294   1.618
 3859SOL    HW212477   5.465   0.357   1.702
 3860SOL     OW12478   1.235   0.145   4.359
 3860SOL    HW112479   1.323   0.118   4.320
 3860SOL    HW212480   1.240   0.139   4.459
 3861SOL     OW12481   4.451   5.683   1.479
 3861SOL    HW112482   4.421   5.602   1.531
 3861SOL    HW212483   4.522   5.731   1.531
 3862SOL     OW12484   1.060   6.437   3.702
 3862SOL    HW112485   1.092   6.514   3.647
 3862SOL    HW212486   0.962   6.447   3.720
 3863SOL     OW12487   4.696   0.552   1.076
 3863SOL    HW112488   4.733   0.478   1.133
 3863SOL    HW212489   4.730   0.543   0.983
 3864SOL     OW12490   2.653   0.293   4.285
 3864SOL    HW112491   2.746   0.323   4.305
 3864SOL    HW212492   2.591   0.371   4.290
 3865SOL     OW12493   4.127   0.502   0.182
 3865SOL    HW112494   4.080   0.414   0.183
 3865SOL    HW212495   4.074   0.569   0.235
 3866SOL     OW12496   2.275   2.836   6.855
 3866SOL    HW112497   2.369   2.866   6.839
 3866SOL    HW212498   2.276   2.747   6.901
 3867SOL     OW12499   0.653   4.085   2.860
 3867SOL    HW112500   0.650   4.152   2.934
 3867SOL    HW212501   0.714   4.118   2.787
 3868SOL     OW12502   3.567   0.748   6.568
 3868SOL    HW112503   3.546   0.797   6.653
 3868SOL    HW212504   3.482   0.713   6.528
 3869SOL     OW12505   6.257   3.175   3.281
 3869SOL    HW112506   6.327   3.104   3.281
 3869SOL    HW212507   6.270   3.235   3.202
 3870SOL     OW12508   6.422   0.792   3.492
 3870SOL    HW112509   6.346   0.826   3.437
 3870SOL    HW212510   6.500   0.853   3.484
 3871SOL     OW12511   3.248   5.725   3.841
 3871SOL    HW112512   3.202   5.812   3.854
 3871SOL    HW212513   3.181   5.651   3.837
 3872SOL     OW12514   3.518   3.475   4.485
 3872SOL    HW112515   3.600   3.433   4.524
 3872SOL    HW212516   3.439   3.452   4.542
 3873SOL     OW12517   4.481   2.135   0.440
 3873SOL    HW112518   4.504   2.207   0.506
 3873SOL    HW212519   4.435   2.175   0.361
 3874SOL     OW12520   4.026   0.067   0.981
 3874SOL    HW112521   3.928   0.071   0.965
 3874SOL    HW212522   4.046   0.094   1.075
 3875SOL     OW12523   1.375   1.865   5.177
 3875SOL    HW112524   1.337   1.775   5.199
 3875SOL    HW212525   1.474   1.865   5.192
 3876SOL     OW12526   4.315   6.640   1.327
 3876SOL    HW112527   4.236   6.701   1.317
 3876SOL    HW212528   4.352   6.619   1.236
 3877SOL     OW12529   6.979   2.201   0.492
 3877SOL    HW112530   6.896   2.175   0.542
 3877SOL    HW212531   6.968   2.293   0.454
 3878SOL     OW12532   4.382   0.046   3.759
 3878SOL    HW112533   4.342   7.007   3.826
 3878SOL    HW212534   4.344   0.138   3.771
 3879SOL     OW12535   4.843   5.172   0.017
 3879SOL    HW112536   4.928   5.224   0.018
 3879SOL    HW212537   4.834   5.120   0.102
 3880SOL     OW12538   5.295   4.340   4.346
 3880SOL    HW112539   5.231   4.314   4.274
 3880SOL    HW212540   5.388   4.345   4.307
 3881SOL     OW12541   1.028   4.274   0.306
 3881SOL    HW112542   1.014   4.176   0.294
 3881SOL    HW212543   1.091   4.290   0.382
 3882SOL     OW12544   1.004   1.404   0.489
 3882SOL    HW112545   0.999   1.433   0.584
 3882SOL    HW212546   0.959   1.471   0.431
 3883SOL     OW12547   4.408   6.698   3.383
 3883SOL    HW112548   4.368   6.789   3.399
 3883SOL    HW212549   4.471   6.677   3.458
 3884SOL     OW12550   0.968   5.933   3.562
 3884SOL    HW112551   0.910   5.852   3.567
 3884SOL    HW212552   1.053   5.916   3.612
 3885SOL     OW12553   5.621   0.083   3.230
 3885SOL    HW112554   5.648   0.075   3.134
 3885SOL    HW212555   5.660   0.166   3.269
 3886SOL     OW12556   4.407   6.745   5.459
 3886SOL    HW112557   4.474   6.763   5.532
 3886SOL    HW212558   4.315   6.748   5.498
 3887SOL     OW12559   0.565   6.203   1.170
 3887SOL    HW112560   0.638   6.220   1.236
 3887SOL    HW212561   0.504   6.132   1.206
 3888SOL     OW12562   6.107   6.183   4.535
 3888SOL    HW112563   6.097   6.273   4.492
 3888SOL    HW212564   6.157   6.122   4.473
 3889SOL     OW12565   6.236   2.973   0.034
 3889SOL    HW112566   6.255   3.058   0.082
 3889SOL    HW212567   6.223   2.899   0.100
 3890SOL     OW12568   5.744   4.025   4.446
 3890SOL    HW112569   5.651   4.061   4.437
 3890SOL    HW212570   5.741   3.925   4.440
 3891SOL     OW12571   5.485   4.625   3.798
 3891SOL    HW112572   5.421   4.649   3.724
 3891SOL    HW212573   5.437   4.571   3.867
 3892SOL     OW12574   0.137   2.185   0.998
 3892SOL    HW112575   0.150   2.246   0.920
 3892SOL    HW212576   0.216   2.124   1.007
 3893SOL     OW12577   4.336   3.285   1.537
 3893SOL    HW112578   4.424   3.295   1.491
 3893SOL    HW212579   4.341   3.210   1.603
 3894SOL     OW12580   4.972   0.293   6.666
 3894SOL    HW112581   5.003   0.349   6.742
 3894SOL    HW212582   4.954   0.200   6.698
 3895SOL     OW12583   1.477   6.909   5.470
 3895SOL    HW112584   1.548   6.908   5.400
 3895SOL    HW212585   1.423   6.825   5.464
 3896SOL     OW12586   0.702   0.932   6.887
 3896SOL    HW112587   0.795   0.916   6.852
 3896SOL    HW212588   0.697   0.901   6.982
 3897SOL     OW12589   4.399   5.876   1.829
 3897SOL    HW112590   4.464   5.936   1.876
 3897SOL    HW212591   4.447   5.823   1.759
 3898SOL     OW12592   3.801   2.397   6.637
 3898SOL    HW112593   3.764   2.487   6.615
 3898SOL    HW212594   3.730   2.342   6.681
 3899SOL     OW12595   4.692   0.525   6.028
 3899SOL    HW112596   4.677   0.451   5.961
 3899SOL    HW212597   4.754   0.593   5.988
 3900SOL     OW12598   5.264   3.547   3.656
 3900SOL    HW112599   5.237   3.603   3.578
 3900SOL    HW212600   5.362   3.527   3.650
 3901SOL     OW12601   3.092   0.508   6.232
 3901SOL    HW112602   3.062   0.571   6.303
 3901SOL    HW212603   3.165   0.449   6.268
 3902SOL     OW12604   5.782   3.220   2.307
 3902SOL    HW112605   5.804   3.178   2.219
 3902SOL    HW212606   5.696   3.183   2.340
 3903SOL     OW12607   3.827   6.200   0.249
 3903SOL    HW112608   3.784   6.237   0.167
 3903SOL    HW212609   3.816   6.265   0.325
 3904SOL     OW12610   0.624   0.741   6.519
 3904SOL    HW112611   0.569   0.781   6.593
 3904SOL    HW212612   0.676   0.663   6.554
 3905SOL     OW12613   0.051   6.376   6.425
 3905SOL    HW112614   6.983   6.403   6.393
 3905SOL    HW212615   0.111   6.364   6.346
 3906SOL     OW12616   5.865   6.382   5.656
 3906SOL    HW112617   5.876   6.300   5.713
 3906SOL    HW212618   5.955   6.418   5.633
 3907SOL     OW12619   6.018   1.938   3.333
 3907SOL    HW112620   6.075   1.991   3.395
 3907SOL    HW212621   5.987   1.855   3.378
 3908SOL     OW12622   0.773   2.388   6.558
 3908SOL    HW112623   0.780   2.439   6.472
 3908SOL    HW212624   0.748   2.293   6.539
 3909SOL     OW12625   5.003   5.671   4.596
 3909SOL    HW112626   4.970   5.748   4.542
 3909SOL    HW212627   5.098   5.688   4.624
 3910SOL     OW12628   3.470   3.846   2.539
 3910SOL    HW112629   3.410   3.915   2.498
 3910SOL    HW212630   3.562   3.854   2.500
 3911SOL     OW12631   5.883   1.899   4.663
 3911SOL    HW112632   5.971   1.857   4.684
 3911SOL    HW212633   5.878   1.989   4.705
 3912SOL     OW12634   5.561   2.171   5.194
 3912SOL    HW112635   5.515   2.260   5.182
 3912SOL    HW212636   5.567   2.124   5.106
 3913SOL     OW12637   1.395   0.242   6.225
 3913SOL    HW112638   1.471   0.304   6.245
 3913SOL    HW212639   1.310   0.294   6.217
 3914SOL     OW12640   3.112   0.088   0.102
 3914SOL    HW112641   3.018   0.054   0.103
 3914SOL    HW212642   3.140   0.110   0.195
 3915SOL     OW12643   5.044   5.437   0.908
 3915SOL    HW112644   5.036   5.358   0.968
 3915SOL    HW212645   4.970   5.501   0.927
 3916SOL     OW12646   0.840   6.966   2.683
 3916SOL    HW112647   0.746   6.961   2.717
 3916SOL    HW212648   0.904   6.966   2.760
 3917SOL     OW12649   1.223   6.762   0.189
 3917SOL    HW112650   1.141   6.736   0.240
 3917SOL    HW212651   1.230   6.708   0.106
 3918SOL     OW12652   5.096   4.605   1.543
 3918SOL    HW112653   5.006   4.570   1.516
 3918SOL    HW212654   5.092   4.635   1.639
 3919SOL     OW12655   4.176   0.258   0.869
 3919SOL    HW112656   4.101   0.283   0.808
 3919SOL    HW212657   4.140   0.207   0.947
 3920SOL     OW12658   2.335   3.697   0.448
 3920SOL    HW112659   2.333   3.599   0.430
 3920SOL    HW212660   2.250   3.739   0.415
 3921SOL     OW12661   0.366   3.969   1.469
 3921SOL    HW112662   0.274   3.930   1.458
 3921SOL    HW212663   0.365   4.064   1.438
 3922SOL     OW12664   7.012   3.791   2.160
 3922SOL    HW112665   0.011   3.695   2.141
 3922SOL    HW212666   7.012   3.806   2.258
 3923SOL     OW12667   0.676   0.876   0.317
 3923SOL    HW112668   0.636   0.867   0.226
 3923SOL    HW212669   0.775   0.866   0.311
 3924SOL     OW12670   6.325   4.543   4.232
 3924SOL    HW112671   6.260   4.620   4.229
 3924SOL    HW212672   6.314   4.494   4.318
 3925SOL     OW12673   1.124   4.563   1.436
 3925SOL    HW112674   1.146   4.637   1.499
 3925SOL    HW212675   1.186   4.567   1.357
 3926SOL     OW12676   4.374   4.650   2.644
 3926SOL    HW112677   4.400   4.715   2.715
 3926SOL    HW212678   4.288   4.680   2.603
 3927SOL     OW12679   6.683   3.044   5.895
 3927SOL    HW112680   6.747   3.119   5.912
 3927SOL    HW212681   6.636   3.021   5.980
 3928SOL     OW12682   4.623   6.037   6.850
 3928SOL    HW112683   4.616   5.942   6.880
 3928SOL    HW212684   4.596   6.098   6.924
 3929SOL     OW12685   0.918   0.073   5.072
 3929SOL    HW112686   0.880   0.158   5.034
 3929SOL    HW212687   1.017   0.073   5.059
 3930SOL     OW12688   2.631   2.034   4.213
 3930SOL    HW112689   2.713   1.979   4.228
 3930SOL    HW212690   2.552   1.974   4.205
 3931SOL     OW12691   0.371   1.420   1.763
 3931SOL    HW112692   0.455   1.394   1.715
 3931SOL    HW212693   0.333   1.339   1.809
 3932SOL     OW12694   0.409   3.216   4.270
 3932SOL    HW112695   0.387   3.140   4.209
 3932SOL    HW212696   0.430   3.297   4.216
 3933SOL     OW12697   1.956   0.132   5.865
 3933SOL    HW112698   1.954   0.046   5.814
 3933SOL    HW212699   1.908   0.120   5.951
 3934SOL     OW12700   5.976   0.293   5.948
 3934SOL    HW112701   6.018   0.209   5.916
 3934SOL    HW212702   5.968   0.292   6.048
 3935SOL     OW12703   3.757   6.973   0.737
 3935SOL    HW112704   3.749   6.874   0.751
 3935SOL    HW212705   3.671   7.008   0.701
 3936SOL     OW12706   6.688   5.826   4.591
 3936SOL    HW112707   6.763   5.806   4.653
 3936SOL    HW212708   6.679   5.751   4.524
 3937SOL     OW12709   0.489   2.118   2.384
 3937SOL    HW112710   0.560   2.138   2.452
 3937SOL    HW212711   0.471   2.020   2.383
 3938SOL     OW12712   0.522   1.643   3.081
 3938SOL    HW112713   0.620   1.646   3.104
 3938SOL    HW212714   0.469   1.625   3.163
 3939SOL     OW12715   2.646   1.714   2.634
 3939SOL    HW112716   2.713   1.751   2.569
 3939SOL    HW212717   2.625   1.783   2.703
 3940SOL     OW12718   4.043   3.210   1.692
 3940SOL    HW112719   4.001   3.300   1.679
 3940SOL    HW212720   4.129   3.206   1.641
 3941SOL     OW12721   4.752   5.256   5.914
 3941SOL    HW112722   4.783   5.347   5.942
 3941SOL    HW212723   4.830   5.201   5.884
 3942SOL     OW12724   6.778   6.292   0.119
 3942SOL    HW112725   6.815   6.233   0.048
 3942SOL    HW212726   6.678   6.287   0.118
 3943SOL     OW12727   0.502   3.293   4.497
 3943SOL    HW112728   0.555   3.372   4.465
 3943SOL    HW212729   0.446   3.258   4.422
 3944SOL     OW12730   4.610   2.675   4.911
 3944SOL    HW112731   4.598   2.590   4.860
 3944SOL    HW212732   4.609   2.752   4.849
 3945SOL     OW12733   0.043   1.801   0.652
 3945SOL    HW112734   0.079   1.771   0.564
 3945SOL    HW212735   6.976   1.843   0.638
 3946SOL     OW12736   5.288   4.277   3.942
 3946SOL    HW112737   5.291   4.198   4.003
 3946SOL    HW212738   5.193   4.306   3.929
 3947SOL     OW12739   4.608   6.448   0.500
 3947SOL    HW112740   4.569   6.380   0.562
 3947SOL    HW212741   4.643   6.402   0.418
 3948SOL     OW12742   6.709   4.238   1.664
 3948SOL    HW112743   6.694   4.324   1.711
 3948SOL    HW212744   6.641   4.227   1.591
 3949SOL     OW12745   5.124   5.768   3.154
 3949SOL    HW112746   5.026   5.752   3.166
 3949SOL    HW212747   5.140   5.808   3.064
 3950SOL     OW12748   1.390   5.411   1.352
 3950SOL    HW112749   1.404   5.329   1.297
 3950SOL    HW212750   1.475   5.465   1.353
 3951SOL     OW12751   4.801   0.684   1.569
 3951SOL    HW112752   4.830   0.760   1.510
 3951SOL    HW212753   4.804   0.599   1.517
 3952SOL     OW12754   0.388   2.049   0.971
 3952SOL    HW112755   0.380   2.031   0.873
 3952SOL    HW212756   0.347   1.975   1.023
 3953SOL     OW12757   3.969   3.469   1.640
 3953SOL    HW112758   3.953   3.529   1.719
 3953SOL    HW212759   3.922   3.507   1.560
 3954SOL     OW12760   4.417   5.900   5.746
 3954SOL    HW112761   4.510   5.930   5.727
 3954SOL    HW212762   4.409   5.803   5.725
 3955SOL     OW12763   3.353   1.766   5.582
 3955SOL    HW112764   3.403   1.789   5.498
 3955SOL    HW212765   3.317   1.673   5.575
 3956SOL     OW12766   1.551   0.952   2.413
 3956SOL    HW112767   1.532   0.863   2.454
 3956SOL    HW212768   1.592   0.939   2.323
 3957SOL     OW12769   3.976   0.100   4.422
 3957SOL    HW112770   4.000   0.058   4.509
 3957SOL    HW212771   4.041   0.071   4.352
 3958SOL     OW12772   6.171   2.304   3.808
 3958SOL    HW112773   6.181   2.215   3.853
 3958SOL    HW212774   6.136   2.291   3.716
 3959SOL     OW12775   5.008   4.897   0.530
 3959SOL    HW112776   5.018   4.977   0.470
 3959SOL    HW212777   5.041   4.921   0.622
 3960SOL     OW12778   5.645   1.505   5.152
 3960SOL    HW112779   5.724   1.471   5.101
 3960SOL    HW212780   5.617   1.594   5.115
 3961SOL     OW12781   5.128   0.670   3.377
 3961SOL    HW112782   5.207   0.653   3.319
 3961SOL    HW212783   5.126   0.603   3.451
 3962SOL     OW12784   1.076   5.036   5.848
 3962SOL    HW112785   1.099   5.093   5.927
 3962SOL    HW212786   1.021   4.958   5.878
 3963SOL     OW12787   4.994   6.252   2.054
 3963SOL    HW112788   4.972   6.157   2.073
 3963SOL    HW212789   4.943   6.312   2.116
 3964SOL     OW12790   4.776   4.305   3.266
 3964SOL    HW112791   4.707   4.344   3.205
 3964SOL    HW212792   4.808   4.218   3.230
 3965SOL     OW12793   4.904   3.460   4.309
 3965SOL    HW112794   4.935   3.461   4.214
 3965SOL    HW212795   4.819   3.409   4.315
 3966SOL     OW12796   3.677   5.807   0.025
 3966SOL    HW112797   3.656   5.710   0.019
 3966SOL    HW212798   3.771   5.820   0.056
 3967SOL     OW12799   2.305   4.361   1.551
 3967SOL    HW112800   2.357   4.302   1.613
 3967SOL    HW212801   2.367   4.401   1.484
 3968SOL     OW12802   4.707   0.635   0.801
 3968SOL    HW112803   4.726   0.732   0.809
 3968SOL    HW212804   4.618   0.622   0.759
 3969SOL     OW12805   1.231   5.204   1.753
 3969SOL    HW112806   1.300   5.226   1.684
 3969SOL    HW212807   1.193   5.289   1.790
 3970SOL     OW12808   5.496   5.939   2.358
 3970SOL    HW112809   5.546   5.973   2.279
 3970SOL    HW212810   5.429   5.870   2.329
 3971SOL     OW12811   2.684   5.854   4.341
 3971SOL    HW112812   2.711   5.937   4.292
 3971SOL    HW212813   2.766   5.806   4.373
 3972SOL     OW12814   1.086   3.957   6.841
 3972SOL    HW112815   1.075   3.858   6.851
 3972SOL    HW212816   1.025   3.990   6.768
 3973SOL     OW12817   1.233   5.445   0.920
 3973SOL    HW112818   1.323   5.458   0.877
 3973SOL    HW212819   1.175   5.391   0.859
 3974SOL     OW12820   1.945   0.688   5.987
 3974SOL    HW112821   1.951   0.589   5.972
 3974SOL    HW212822   1.939   0.707   6.085
 3975SOL     OW12823   5.174   2.005   6.162
 3975SOL    HW112824   5.166   1.961   6.251
 3975SOL    HW212825   5.271   2.019   6.140
 3976SOL     OW12826   1.901   6.198   2.402
 3976SOL    HW112827   1.975   6.260   2.378
 3976SOL    HW212828   1.939   6.111   2.434
 3977SOL     OW12829   1.308   3.658   6.626
 3977SOL    HW112830   1.267   3.716   6.556
 3977SOL    HW212831   1.240   3.592   6.659
 3978SOL     OW12832   6.613   4.866   3.219
 3978SOL    HW112833   6.621   4.851   3.120
 3978SOL    HW212834   6.704   4.883   3.257
 3979SOL     OW12835   3.592   1.003   6.189
 3979SOL    HW112836   3.571   1.064   6.265
 3979SOL    HW212837   3.642   0.924   6.222
 3980SOL     OW12838   6.180   6.616   6.703
 3980SOL    HW112839   6.174   6.545   6.774
 3980SOL    HW212840   6.207   6.574   6.616
 3981SOL     OW12841   4.793   5.874   1.101
 3981SOL    HW112842   4.773   5.869   1.003
 3981SOL    HW212843   4.851   5.953   1.119
 3982SOL     OW12844   2.382   6.931   2.374
 3982SOL    HW112845   2.469   6.945   2.326
 3982SOL    HW212846   2.320   7.007   2.352
 3983SOL     OW12847   4.793   5.223   3.925
 3983SOL    HW112848   4.834   5.185   3.842
 3983SOL    HW212849   4.718   5.283   3.900
 3984SOL     OW12850   6.169   1.471   2.604
 3984SOL    HW112851   6.157   1.570   2.601
 3984SOL    HW212852   6.145   1.437   2.695
 3985SOL     OW12853   3.656   5.400   6.520
 3985SOL    HW112854   3.563   5.425   6.493
 3985SOL    HW212855   3.652   5.342   6.602
 3986SOL     OW12856   4.791   1.649   3.217
 3986SOL    HW112857   4.872   1.695   3.182
 3986SOL    HW212858   4.818   1.570   3.272
 3987SOL     OW12859   3.417   4.930   4.568
 3987SOL    HW112860   3.319   4.914   4.579
 3987SOL    HW212861   3.435   4.964   4.476
 3988SOL     OW12862   3.768   5.523   0.124
 3988SOL    HW112863   3.848   5.466   0.107
 3988SOL    HW212864   3.710   5.480   0.193
 3989SOL     OW12865   6.312   2.138   0.211
 3989SOL    HW112866   6.302   2.041   0.189
 3989SOL    HW212867   6.385   2.177   0.156
 3990SOL     OW12868   5.126   2.219   1.692
 3990SOL    HW112869   5.203   2.161   1.666
 3990SOL    HW212870   5.103   2.202   1.788
 3991SOL     OW12871   0.798   1.282   2.498
 3991SOL    HW112872   0.821   1.293   2.402
 3991SOL    HW212873   0.767   1.189   2.515
 3992SOL     OW12874   3.246   1.979   0.663
 3992SOL    HW112875   3.289   2.027   0.739
 3992SOL    HW212876   3.186   1.907   0.699
 3993SOL     OW12877   1.276   2.959   1.993
 3993SOL    HW112878   1.198   3.017   2.014
 3993SOL    HW212879   1.247   2.864   1.987
 3994SOL     OW12880   2.617   0.147   4.864
 3994SOL    HW112881   2.546   0.209   4.896
 3994SOL    HW212882   2.627   0.071   4.929
 3995SOL     OW12883   1.788   3.407   5.453
 3995SOL    HW112884   1.726   3.485   5.456
 3995SOL    HW212885   1.737   3.324   5.435
 3996SOL     OW12886   6.983   6.772   5.348
 3996SOL    HW112887   7.015   6.819   5.265
 3996SOL    HW212888   0.030   6.709   5.380
 3997SOL     OW12889   5.443   1.249   4.735
 3997SOL    HW112890   5.484   1.325   4.785
 3997SOL    HW212891   5.512   1.209   4.674
 3998SOL     OW12892   3.576   1.580   4.057
 3998SOL    HW112893   3.486   1.549   4.087
 3998SOL    HW212894   3.644   1.561   4.128
 3999SOL     OW12895   6.177   2.574   4.236
 3999SOL    HW112896   6.260   2.630   4.245
 3999SOL    HW212897   6.100   2.623   4.277
 4000SOL     OW12898   3.257   6.743   4.168
 4000SOL    HW112899   3.253   6.674   4.096
 4000SOL    HW212900   3.164   6.776   4.187
 4001SOL     OW12901   2.156   1.927   4.085
 4001SOL    HW112902   2.097   2.007   4.099
 4001SOL    HW212903   2.189   1.926   3.991
 4002SOL     OW12904   2.586   3.483   1.670
 4002SOL    HW112905   2.540   3.456   1.586
 4002SOL    HW212906   2.519   3.491   1.744
 4003SOL     OW12907   3.320   6.950   4.766
 4003SOL    HW112908   3.268   6.929   4.684
 4003SOL    HW212909   3.417   6.931   4.750
 4004SOL     OW12910   6.917   2.540   5.031
 4004SOL    HW112911   6.970   2.622   5.011
 4004SOL    HW212912   6.955   2.494   5.111
 4005SOL     OW12913   4.803   6.357   6.960
 4005SOL    HW112914   4.821   6.309   0.022
 4005SOL    HW212915   4.706   6.383   6.957
 4006SOL     OW12916   3.853   5.331   2.156
 4006SOL    HW112917   3.877   5.392   2.081
 4006SOL    HW212918   3.863   5.379   2.243
 4007SOL     OW12919   0.360   2.667   6.954
 4007SOL    HW112920   0.447   2.716   6.956
 4007SOL    HW212921   0.297   2.714   6.892
 4008SOL     OW12922   2.542   2.483   4.615
 4008SOL    HW112923   2.481   2.510   4.540
 4008SOL    HW212924   2.628   2.450   4.578
 4009SOL     OW12925   4.058   3.517   2.238
 4009SOL    HW112926   4.079   3.601   2.189
 4009SOL    HW212927   4.009   3.454   2.177
 4010SOL     OW12928   2.595   3.217   1.074
 4010SOL    HW112929   2.693   3.207   1.089
 4010SOL    HW212930   2.579   3.278   0.996
 4011SOL     OW12931   0.826   2.059   1.574
 4011SOL    HW112932   0.819   1.988   1.644
 4011SOL    HW212933   0.801   2.147   1.613
 4012SOL     OW12934   6.636   4.169   2.523
 4012SOL    HW112935   6.702   4.211   2.585
 4012SOL    HW212936   6.606   4.081   2.561
 4013SOL     OW12937   4.338   2.075   4.167
 4013SOL    HW112938   4.267   2.006   4.183
 4013SOL    HW212939   4.296   2.165   4.158
 4014SOL     OW12940   5.521   6.260   3.023
 4014SOL    HW112941   5.502   6.163   3.037
 4014SOL    HW212942   5.577   6.295   3.098
 4015SOL     OW12943   4.925   4.220   5.437
 4015SOL    HW112944   4.933   4.316   5.409
 4015SOL    HW212945   4.965   4.208   5.527
 4016SOL     OW12946   3.346   5.783   5.886
 4016SOL    HW112947   3.334   5.721   5.963
 4016SOL    HW212948   3.360   5.730   5.802
 4017SOL     OW12949   6.519   5.747   6.731
 4017SOL    HW112950   6.456   5.697   6.791
 4017SOL    HW212951   6.498   5.844   6.733
 4018SOL     OW12952   4.085   5.685   1.477
 4018SOL    HW112953   4.135   5.620   1.419
 4018SOL    HW212954   4.120   5.777   1.461
 4019SOL     OW12955   5.314   4.756   3.275
 4019SOL    HW112956   5.328   4.849   3.241
 4019SOL    HW212957   5.327   4.691   3.200
 4020SOL     OW12958   5.301   2.373   5.709
 4020SOL    HW112959   5.340   2.282   5.721
 4020SOL    HW212960   5.366   2.442   5.741
 4021SOL     OW12961   3.322   4.640   5.694
 4021SOL    HW112962   3.292   4.672   5.604
 4021SOL    HW212963   3.294   4.545   5.706
 4022SOL     OW12964   5.238   0.584   0.554
 4022SOL    HW112965   5.197   0.672   0.528
 4022SOL    HW212966   5.306   0.600   0.626
 4023SOL     OW12967   5.990   1.344   5.339
 4023SOL    HW112968   6.067   1.320   5.280
 4023SOL    HW212969   5.908   1.296   5.307
 4024SOL     OW12970   4.376   4.636   4.097
 4024SOL    HW112971   4.405   4.578   4.021
 4024SOL    HW212972   4.308   4.702   4.065
 4025SOL     OW12973   0.566   4.231   3.451
 4025SOL    HW112974   0.544   4.271   3.540
 4025SOL    HW212975   0.571   4.131   3.459
 4026SOL     OW12976   5.211   6.053   4.208
 4026SOL    HW112977   5.309   6.074   4.210
 4026SOL    HW212978   5.197   5.958   4.236
 4027SOL     OW12979   3.951   5.059   2.148
 4027SOL    HW112980   3.911   5.150   2.157
 4027SOL    HW212981   3.942   5.010   2.235
 4028SOL     OW12982   2.426   1.667   4.372
 4028SOL    HW112983   2.403   1.617   4.456
 4028SOL    HW212984   2.447   1.602   4.299
 4029SOL     OW12985   1.841   4.635   4.678
 4029SOL    HW112986   1.747   4.601   4.682
 4029SOL    HW212987   1.872   4.658   4.771
 4030SOL     OW12988   0.214   2.151   5.352
 4030SOL    HW112989   0.225   2.233   5.408
 4030SOL    HW212990   0.260   2.074   5.397
 4031SOL     OW12991   4.059   5.437   3.828
 4031SOL    HW112992   4.113   5.499   3.886
 4031SOL    HW212993   3.977   5.409   3.877
 4032SOL     OW12994   5.191   0.170   4.554
 4032SOL    HW112995   5.154   0.077   4.550
 4032SOL    HW212996   5.277   0.169   4.605
 4033SOL     OW12997   2.938   3.779   5.690
 4033SOL    HW112998   3.008   3.716   5.658
 4033SOL    HW212999   2.887   3.737   5.765
 4034SOL     OW13000   0.095   2.126   3.657
 4034SOL    HW113001   0.195   2.123   3.652
 4034SOL    HW213002   0.057   2.122   3.565
 4035SOL     OW13003   6.755   4.563   0.348
 4035SOL    HW113004   6.709   4.477   0.372
 4035SOL    HW213005   6.688   4.637   0.351
 4036SOL     OW13006   0.080   0.157   2.445
 4036SOL    HW113007   0.016   0.120   2.512
 4036SOL    HW213008   0.050   0.249   2.418
 4037SOL     OW13009   0.225   3.937   7.000
 4037SOL    HW113010   0.272   3.901   6.920
 4037SOL    HW213011   0.135   3.973   6.972
 4038SOL     OW13012   6.176   4.396   4.020
 4038SOL    HW113013   6.099   4.447   3.982
 4038SOL    HW213014   6.225   4.453   4.085
 4039SOL     OW13015   4.797   6.132   0.766
 4039SOL    HW113016   4.846   6.215   0.741
 4039SOL    HW213017   4.862   6.058   0.783
 4040SOL     OW13018   3.768   6.309   1.691
 4040SOL    HW113019   3.799   6.359   1.772
 4040SOL    HW213020   3.847   6.291   1.632
 4041SOL     OW13021   1.425   6.407   3.878
 4041SOL    HW113022   1.504   6.469   3.876
 4041SOL    HW213023   1.397   6.386   3.784
 4042SOL     OW13024   5.988   5.158   2.072
 4042SOL    HW113025   5.979   5.144   1.973
 4042SOL    HW213026   5.906   5.203   2.106
 4043SOL     OW13027   6.280   2.362   1.178
 4043SOL    HW113028   6.379   2.361   1.167
 4043SOL    HW213029   6.237   2.312   1.102
 4044SOL     OW13030   6.542   6.101   3.725
 4044SOL    HW113031   6.563   6.180   3.667
 4044SOL    HW213032   6.575   6.119   3.818
 4045SOL     OW13033   2.912   6.223   6.109
 4045SOL    HW113034   2.842   6.196   6.043
 4045SOL    HW213035   3.002   6.221   6.065
 4046SOL     OW13036   1.146   3.261   1.280
 4046SOL    HW113037   1.241   3.246   1.308
 4046SOL    HW213038   1.144   3.289   1.184
 4047SOL     OW13039   2.800   4.061   1.199
 4047SOL    HW113040   2.782   4.133   1.133
 4047SOL    HW213041   2.820   4.101   1.288
 4048SOL     OW13042   5.363   0.875   1.314
 4048SOL    HW113043   5.456   0.863   1.278
 4048SOL    HW213044   5.298   0.826   1.255
 4049SOL     OW13045   5.750   0.351   4.575
 4049SOL    HW113046   5.672   0.410   4.594
 4049SOL    HW213047   5.721   0.273   4.520
 4050SOL     OW13048   2.880   0.435   0.761
 4050SOL    HW113049   2.961   0.483   0.795
 4050SOL    HW213050   2.831   0.393   0.838
 4051SOL     OW13051   3.287   3.888   0.810
 4051SOL    HW113052   3.318   3.838   0.729
 4051SOL    HW213053   3.206   3.843   0.848
 4052SOL     OW13054   1.147   6.561   1.540
 4052SOL    HW113055   1.103   6.626   1.602
 4052SOL    HW213056   1.089   6.545   1.461
 4053SOL     OW13057   3.484   4.969   3.419
 4053SOL    HW113058   3.577   4.932   3.407
 4053SOL    HW213059   3.486   5.068   3.408
 4054SOL     OW13060   4.936   1.799   0.785
 4054SOL    HW113061   4.913   1.794   0.688
 4054SOL    HW213062   5.024   1.844   0.796
 4055SOL     OW13063   3.111   2.217   0.159
 4055SOL    HW113064   3.103   2.271   0.243
 4055SOL    HW213065   3.108   2.277   0.079
 4056SOL     OW13066   4.175   3.783   0.404
 4056SOL    HW113067   4.264   3.736   0.403
 4056SOL    HW213068   4.122   3.753   0.483
 4057SOL     OW13069   5.337   2.968   6.759
 4057SOL    HW113070   5.351   2.878   6.801
 4057SOL    HW213071   5.330   3.037   6.831
 4058SOL     OW13072   0.988   0.500   4.797
 4058SOL    HW113073   0.992   0.588   4.845
 4058SOL    HW213074   0.979   0.517   4.699
 4059SOL     OW13075   0.227   2.427   4.600
 4059SOL    HW113076   0.280   2.436   4.684
 4059SOL    HW213077   0.248   2.503   4.538
 4060SOL     OW13078   4.415   5.599   3.507
 4060SOL    HW113079   4.358   5.631   3.432
 4060SOL    HW213080   4.356   5.574   3.584
 4061SOL     OW13081   2.788   3.043   1.449
 4061SOL    HW113082   2.709   2.995   1.410
 4061SOL    HW213083   2.812   3.002   1.537
 4062SOL     OW13084   2.233   0.131   2.959
 4062SOL    HW113085   2.219   0.099   2.866
 4062SOL    HW213086   2.314   0.189   2.963
 4063SOL     OW13087   2.820   5.438   6.022
 4063SOL    HW113088   2.762   5.362   5.991
 4063SOL    HW213089   2.762   5.510   6.059
 4064SOL     OW13090   7.010   6.707   3.931
 4064SOL    HW113091   0.087   6.698   3.926
 4064SOL    HW213092   6.982   6.788   3.880
 4065SOL     OW13093   6.225   5.036   7.020
 4065SOL    HW113094   6.176   5.021   6.935
 4065SOL    HW213095   6.289   4.961   0.012
 4066SOL     OW13096   5.988   4.888   2.152
 4066SOL    HW113097   6.001   4.973   2.101
 4066SOL    HW213098   5.951   4.909   2.243
 4067SOL     OW13099   5.864   0.935   2.400
 4067SOL    HW113100   5.895   1.012   2.344
 4067SOL    HW213101   5.782   0.962   2.451
 4068SOL     OW13102   6.341   1.157   3.598
 4068SOL    HW113103   6.417   1.162   3.663
 4068SOL    HW213104   6.260   1.198   3.640
 4069SOL     OW13105   6.474   5.694   1.276
 4069SOL    HW113106   6.428   5.615   1.234
 4069SOL    HW213107   6.482   5.679   1.374
 4070SOL     OW13108   1.123   3.277   3.031
 4070SOL    HW113109   1.149   3.245   3.122
 4070SOL    HW213110   1.103   3.374   3.033
 4071SOL     OW13111   1.862   6.379   3.912
 4071SOL    HW113112   1.848   6.296   3.966
 4071SOL    HW213113   1.943   6.428   3.946
 4072SOL     OW13114   0.824   0.451   4.104
 4072SOL    HW113115   0.764   0.373   4.089
 4072SOL    HW213116   0.771   0.536   4.101
 4073SOL     OW13117   2.339   5.266   0.480
 4073SOL    HW113118   2.332   5.358   0.441
 4073SOL    HW213119   2.432   5.252   0.515
 4074SOL     OW13120   1.595   2.666   0.493
 4074SOL    HW113121   1.538   2.589   0.522
 4074SOL    HW213122   1.591   2.675   0.394
 4075SOL     OW13123   5.253   1.169   3.614
 4075SOL    HW113124   5.230   1.076   3.585
 4075SOL    HW213125   5.172   1.214   3.651
 4076SOL     OW13126   1.941   2.488   3.762
 4076SOL    HW113127   1.996   2.442   3.692
 4076SOL    HW213128   1.857   2.436   3.778
 4077SOL     OW13129   2.459   1.784   0.692
 4077SOL    HW113130   2.533   1.746   0.747
 4077SOL    HW213131   2.422   1.713   0.632
 4078SOL     OW13132   5.388   3.905   1.767
 4078SOL    HW113133   5.377   4.001   1.741
 4078SOL    HW213134   5.335   3.886   1.850
 4079SOL     OW13135   0.521   1.277   3.899
 4079SOL    HW113136   0.507   1.373   3.922
 4079SOL    HW213137   0.490   1.220   3.975
 4080SOL     OW13138   3.760   3.008   2.346
 4080SOL    HW113139   3.838   3.070   2.347
 4080SOL    HW213140   3.748   2.970   2.255
 4081SOL     OW13141   2.233   2.590   6.465
 4081SOL    HW113142   2.162   2.535   6.509
 4081SOL    HW213143   2.317   2.536   6.457
 4082SOL     OW13144   1.261   2.781   5.532
 4082SOL    HW113145   1.288   2.851   5.467
 4082SOL    HW213146   1.323   2.783   5.611
 4083SOL     OW13147   5.585   4.460   3.404
 4083SOL    HW113148   5.487   4.459   3.383
 4083SOL    HW213149   5.612   4.552   3.431
 4084SOL     OW13150   4.683   0.101   3.294
 4084SOL    HW113151   4.697   0.103   3.393
 4084SOL    HW213152   4.765   0.066   3.249
 4085SOL     OW13153   4.091   4.990   2.487
 4085SOL    HW113154   4.001   4.969   2.449
 4085SOL    HW213155   4.158   4.926   2.451
 4086SOL     OW13156   6.033   4.877   6.403
 4086SOL    HW113157   5.935   4.895   6.412
 4086SOL    HW213158   6.083   4.963   6.394
 4087SOL     OW13159   2.483   0.284   1.772
 4087SOL    HW113160   2.437   0.315   1.688
 4087SOL    HW213161   2.570   0.333   1.782
 4088SOL     OW13162   0.101   1.907   5.142
 4088SOL    HW113163   0.019   1.893   5.087
 4088SOL    HW213164   0.127   2.004   5.139
 4089SOL     OW13165   1.472   0.567   3.181
 4089SOL    HW113166   1.401   0.633   3.156
 4089SOL    HW213167   1.441   0.475   3.161
 4090SOL     OW13168   2.804   1.762   5.825
 4090SOL    HW113169   2.889   1.769   5.878
 4090SOL    HW213170   2.826   1.747   5.729
 4091SOL     OW13171   3.257   6.204   1.179
 4091SOL    HW113172   3.219   6.207   1.086
 4091SOL    HW213173   3.187   6.171   1.242
 4092SOL     OW13174   5.546   3.149   3.863
 4092SOL    HW113175   5.489   3.115   3.938
 4092SOL    HW213176   5.487   3.174   3.786
 4093SOL     OW13177   5.333   4.639   4.098
 4093SOL    HW113178   5.332   4.738   4.091
 4093SOL    HW213179   5.304   4.612   4.190
 4094SOL     OW13180   6.775   5.652   0.122
 4094SOL    HW113181   6.767   5.591   0.043
 4094SOL    HW213182   6.764   5.747   0.092
 4095SOL     OW13183   0.920   5.409   0.316
 4095SOL    HW113184   0.947   5.342   0.246
 4095SOL    HW213185   0.835   5.453   0.289
 4096SOL     OW13186   0.297   0.901   6.869
 4096SOL    HW113187   0.320   0.995   6.894
 4096SOL    HW213188   0.228   0.901   6.796
 4097SOL     OW13189   6.440   4.658   5.035
 4097SOL    HW113190   6.461   4.756   5.027
 4097SOL    HW213191   6.524   4.608   5.058
 4098SOL     OW13192   2.269   4.481   2.885
 4098SOL    HW113193   2.226   4.510   2.799
 4098SOL    HW213194   2.206   4.497   2.960
 4099SOL     OW13195   4.543   4.181   6.258
 4099SOL    HW113196   4.509   4.118   6.188
 4099SOL    HW213197   4.481   4.259   6.265
 4100SOL     OW13198   1.585   0.459   4.244
 4100SOL    HW113199   1.485   0.452   4.240
 4100SOL    HW213200   1.615   0.451   4.339
 4101SOL     OW13201   6.371   5.703   0.179
 4101SOL    HW113202   6.393   5.642   0.104
 4101SOL    HW213203   6.272   5.720   0.181
 4102SOL     OW13204   1.758   0.053   0.064
 4102SOL    HW113205   1.818   0.133   0.069
 4102SOL    HW213206   1.734   0.025   0.157
 4103SOL     OW13207   2.132   6.186   3.572
 4103SOL    HW113208   2.138   6.141   3.661
 4103SOL    HW213209   2.218   6.232   3.551
 4104SOL     OW13210   1.999   5.556   4.339
 4104SOL    HW113211   1.953   5.491   4.400
 4104SOL    HW213212   2.098   5.540   4.343
 4105SOL     OW13213   4.530   0.689   1.585
 4105SOL    HW113214   4.501   0.782   1.565
 4105SOL    HW213215   4.628   0.681   1.570
 4106SOL     OW13216   1.224   0.858   3.468
 4106SOL    HW113217   1.139   0.811   3.444
 4106SOL    HW213218   1.286   0.795   3.515
 4107SOL     OW13219   1.261   0.167   0.407
 4107SOL    HW113220   1.291   0.213   0.323
 4107SOL    HW213221   1.243   0.234   0.478
 4108SOL     OW13222   6.463   5.592   5.563
 4108SOL    HW113223   6.398   5.524   5.529
 4108SOL    HW213224   6.430   5.684   5.539
 4109SOL     OW13225   5.664   5.964   3.725
 4109SOL    HW113226   5.575   5.970   3.680
 4109SOL    HW213227   5.691   5.868   3.732
 4110SOL     OW13228   5.059   2.745   0.595
 4110SOL    HW113229   5.101   2.712   0.680
 4110SOL    HW213230   5.123   2.731   0.519
 4111SOL     OW13231   6.569   3.699   4.345
 4111SOL    HW113232   6.659   3.725   4.379
 4111SOL    HW213233   6.579   3.637   4.267
 4112SOL     OW13234   4.765   5.956   5.068
 4112SOL    HW113235   4.800   5.989   5.156
 4112SOL    HW213236   4.673   5.920   5.080
 4113SOL     OW13237   4.141   5.271   4.724
 4113SOL    HW113238   4.050   5.270   4.765
 4113SOL    HW213239   4.182   5.179   4.731
 4114SOL     OW13240   0.493   1.154   1.538
 4114SOL    HW113241   0.423   1.224   1.554
 4114SOL    HW213242   0.460   1.066   1.573
 4115SOL     OW13243   4.050   5.672   4.134
 4115SOL    HW113244   4.060   5.584   4.181
 4115SOL    HW213245   4.101   5.670   4.048
 4116SOL     OW13246   4.768   4.183   2.244
 4116SOL    HW113247   4.800   4.099   2.200
 4116SOL    HW213248   4.749   4.252   2.174
 4117SOL     OW13249   1.473   1.640   4.004
 4117SOL    HW113250   1.538   1.708   3.969
 4117SOL    HW213251   1.522   1.559   4.034
 4118SOL     OW13252   0.184   6.250   0.288
 4118SOL    HW113253   0.091   6.282   0.269
 4118SOL    HW213254   0.211   6.279   0.379
 4119SOL     OW13255   0.297   0.381   4.228
 4119SOL    HW113256   0.222   0.435   4.192
 4119SOL    HW213257   0.262   0.293   4.261
 4120SOL     OW13258   2.099   0.795   6.506
 4120SOL    HW113259   2.176   0.743   6.542
 4120SOL    HW213260   2.132   0.872   6.452
 4121SOL     OW13261   6.574   6.649   2.557
 4121SOL    HW113262   6.544   6.650   2.652
 4121SOL    HW213263   6.529   6.575   2.508
 4122SOL     OW13264   0.163   4.068   2.919
 4122SOL    HW113265   0.227   4.061   2.843
 4122SOL    HW213266   0.103   4.147   2.906
 4123SOL     OW13267   4.919   4.918   1.412
 4123SOL    HW113268   4.880   4.826   1.413
 4123SOL    HW213269   4.934   4.949   1.505
 4124SOL     OW13270   5.748   5.530   0.242
 4124SOL    HW113271   5.737   5.628   0.230
 4124SOL    HW213272   5.838   5.510   0.279
 4125SOL     OW13273   5.920   1.746   1.324
 4125SOL    HW113274   5.893   1.734   1.229
 4125SOL    HW213275   5.933   1.657   1.367
 4126SOL     OW13276   1.545   3.133   2.176
 4126SOL    HW113277   1.499   3.206   2.225
 4126SOL    HW213278   1.498   3.046   2.192
 4127SOL     OW13279   4.454   1.874   4.619
 4127SOL    HW113280   4.518   1.905   4.689
 4127SOL    HW213281   4.460   1.934   4.539
 4128SOL     OW13282   1.085   3.151   0.326
 4128SOL    HW113283   1.033   3.150   0.241
 4128SOL    HW213284   1.023   3.161   0.404
 4129SOL     OW13285   2.590   2.731   0.250
 4129SOL    HW113286   2.641   2.739   0.335
 4129SOL    HW213287   2.498   2.699   0.269
 4130SOL     OW13288   6.273   3.015   0.761
 4130SOL    HW113289   6.339   3.085   0.734
 4130SOL    HW213290   6.212   2.995   0.684
 4131SOL     OW13291   4.769   6.805   3.323
 4131SOL    HW113292   4.803   6.854   3.243
 4131SOL    HW213293   4.722   6.869   3.383
 4132SOL     OW13294   0.379   5.399   4.143
 4132SOL    HW113295   0.457   5.380   4.083
 4132SOL    HW213296   0.351   5.315   4.189
 4133SOL     OW13297   5.645   0.180   2.683
 4133SOL    HW113298   5.694   0.266   2.691
 4133SOL    HW213299   5.701   0.113   2.634
 4134SOL     OW13300   1.691   3.774   1.471
 4134SOL    HW113301   1.610   3.806   1.519
 4134SOL    HW213302   1.713   3.837   1.397
 4135SOL     OW13303   6.509   0.779   1.940
 4135SOL    HW113304   6.573   0.796   2.015
 4135SOL    HW213305   6.415   0.786   1.973
 4136SOL     OW13306   1.288   4.597   1.220
 4136SOL    HW113307   1.309   4.573   1.126
 4136SOL    HW213308   1.310   4.693   1.237
 4137SOL     OW13309   1.491   2.430   0.562
 4137SOL    HW113310   1.428   2.381   0.502
 4137SOL    HW213311   1.532   2.366   0.628
 4138SOL     OW13312   5.095   0.071   6.786
 4138SOL    HW113313   5.194   0.077   6.797
 4138SOL    HW213314   5.050   0.112   6.865
 4139SOL     OW13315   2.162   3.911   2.969
 4139SOL    HW113316   2.155   3.861   2.882
 4139SOL    HW213317   2.181   4.007   2.950
 4140SOL     OW13318   2.212   0.989   6.351
 4140SOL    HW113319   2.201   1.047   6.270
 4140SOL    HW213320   2.289   0.928   6.337
 4141SOL     OW13321   5.117   0.451   6.154
 4141SOL    HW113322   5.131   0.548   6.177
 4141SOL    HW213323   5.096   0.443   6.057
 4142SOL     OW13324   1.013   5.056   2.329
 4142SOL    HW113325   1.034   4.982   2.265
 4142SOL    HW213326   1.038   5.029   2.422
 4143SOL     OW13327   5.838   3.023   6.548
 4143SOL    HW113328   5.749   3.068   6.543
 4143SOL    HW213329   5.908   3.090   6.574
 4144SOL     OW13330   6.334   0.764   0.702
 4144SOL    HW113331   6.307   0.808   0.788
 4144SOL    HW213332   6.397   0.689   0.721
 4145SOL     OW13333   0.040   0.050   1.565
 4145SOL    HW113334   0.112   0.105   1.524
 4145SOL    HW213335   0.005   7.009   1.498
 4146SOL     OW13336   4.865   5.805   2.782
 4146SOL    HW113337   4.906   5.892   2.755
 4146SOL    HW213338   4.918   5.730   2.742
 4147SOL     OW13339   4.726   4.831   6.278
 4147SOL    HW113340   4.792   4.757   6.282
 4147SOL    HW213341   4.729   4.883   6.363
 4148SOL     OW13342   2.441   1.363   5.685
 4148SOL    HW113343   2.532   1.390   5.653
 4148SOL    HW213344   2.449   1.285   5.748
 4149SOL     OW13345   1.952   3.309   6.605
 4149SOL    HW113346   1.872   3.264   6.565
 4149SOL    HW213347   1.936   3.408   6.608
 4150SOL     OW13348   5.476   1.798   6.430
 4150SOL    HW113349   5.448   1.894   6.428
 4150SOL    HW213350   5.544   1.785   6.502
 4151SOL     OW13351   3.298   5.907   4.217
 4151SOL    HW113352   3.219   5.961   4.248
 4151SOL    HW213353   3.320   5.838   4.285
 4152SOL     OW13354   2.866   4.633   1.359
 4152SOL    HW113355   2.900   4.565   1.294
 4152SOL    HW213356   2.941   4.664   1.417
 4153SOL     OW13357   6.931   5.621   1.418
 4153SOL    HW113358   6.892   5.670   1.340
 4153SOL    HW213359   0.004   5.601   1.400
 4154SOL     OW13360   1.248   6.262   3.561
 4154SOL    HW113361   1.180   6.317   3.611
 4154SOL    HW213362   1.287   6.194   3.623
 4155SOL     OW13363   0.663   0.672   1.420
 4155SOL    HW113364   0.625   0.675   1.512
 4155SOL    HW213365   0.684   0.765   1.390
 4156SOL     OW13366   0.561   5.262   6.245
 4156SOL    HW113367   0.633   5.268   6.176
 4156SOL    HW213368   0.566   5.341   6.306
 4157SOL     OW13369   6.382   6.012   1.488
 4157SOL    HW113370   6.392   6.032   1.391
 4157SOL    HW213371   6.393   6.096   1.541
 4158SOL     OW13372   1.111   2.551   1.503
 4158SOL    HW113373   1.024   2.597   1.518
 4158SOL    HW213374   1.166   2.604   1.438
 4159SOL     OW13375   3.122   0.556   4.218
 4159SOL    HW113376   3.163   0.493   4.152
 4159SOL    HW213377   3.159   0.536   4.309
 4160SOL     OW13378   6.530   6.939   6.877
 4160SOL    HW113379   6.565   6.945   6.971
 4160SOL    HW213380   6.443   6.988   6.871
 4161SOL     OW13381   3.651   3.422   1.731
 4161SOL    HW113382   3.711   3.439   1.809
 4161SOL    HW213383   3.667   3.492   1.661
 4162SOL     OW13384   5.353   5.597   1.880
 4162SOL    HW113385   5.254   5.585   1.891
 4162SOL    HW213386   5.402   5.543   1.948
 4163SOL     OW13387   3.730   6.034   1.605
 4163SOL    HW113388   3.731   5.999   1.699
 4163SOL    HW213389   3.741   6.133   1.606
 4164SOL     OW13390   6.757   0.691   5.430
 4164SOL    HW113391   6.822   0.684   5.354
 4164SOL    HW213392   6.677   0.743   5.399
 4165SOL     OW13393   4.881   0.791   4.643
 4165SOL    HW113394   4.810   0.739   4.691
 4165SOL    HW213395   4.968   0.781   4.690
 4166SOL     OW13396   5.604   1.441   1.384
 4166SOL    HW113397   5.699   1.415   1.365
 4166SOL    HW213398   5.600   1.538   1.406
 4167SOL     OW13399   3.560   5.570   4.390
 4167SOL    HW113400   3.636   5.625   4.425
 4167SOL    HW213401   3.551   5.586   4.291
 4168SOL     OW13402   5.040   3.846   6.847
 4168SOL    HW113403   4.992   3.919   6.799
 4168SOL    HW213404   5.119   3.817   6.793
 4169SOL     OW13405   4.972   3.121   5.578
 4169SOL    HW113406   4.995   3.137   5.482
 4169SOL    HW213407   4.997   3.202   5.632
 4170SOL     OW13408   0.231   2.860   4.214
 4170SOL    HW113409   0.131   2.854   4.224
 4170SOL    HW213410   0.270   2.901   4.296
 4171SOL     OW13411   0.493   2.718   0.297
 4171SOL    HW113412   0.554   2.692   0.223
 4171SOL    HW213413   0.498   2.650   0.370
 4172SOL     OW13414   2.682   4.552   0.763
 4172SOL    HW113415   2.713   4.547   0.858
 4172SOL    HW213416   2.631   4.637   0.749
 4173SOL     OW13417   4.407   2.154   6.303
 4173SOL    HW113418   4.346   2.106   6.240
 4173SOL    HW213419   4.501   2.151   6.267
 4174SOL     OW13420   3.489   0.356   5.146
 4174SOL    HW113421   3.484   0.422   5.221
 4174SOL    HW213422   3.416   0.289   5.157
 4175SOL     OW13423   0.912   4.683   6.772
 4175SOL    HW113424   0.825   4.643   6.744
 4175SOL    HW213425   0.984   4.653   6.710
 4176SOL     OW13426   5.140   0.194   6.146
 4176SOL    HW113427   5.126   0.287   6.178
 4176SOL    HW213428   5.228   0.187   6.099
 4177SOL     OW13429   4.214   4.740   2.933
 4177SOL    HW113430   4.194   4.810   3.001
 4177SOL    HW213431   4.138   4.733   2.868
 4178SOL     OW13432   4.005   5.417   1.209
 4178SOL    HW113433   4.014   5.330   1.161
 4178SOL    HW213434   4.096   5.455   1.225
 4179SOL     OW13435   5.361   2.870   5.484
 4179SOL    HW113436   5.404   2.781   5.500
 4179SOL    HW213437   5.423   2.943   5.510
 4180SOL     OW13438   4.339   4.159   0.035
 4180SOL    HW113439   4.376   4.170   6.966
 4180SOL    HW213440   4.414   4.140   0.099
 4181SOL     OW13441   4.509   6.759   4.787
 4181SOL    HW113442   4.455   6.692   4.736
 4181SOL    HW213443   4.600   6.721   4.804
 4182SOL     OW13444   0.145   6.647   4.701
 4182SOL    HW113445   0.201   6.634   4.619
 4182SOL    HW213446   0.201   6.634   4.782
 4183SOL     OW13447   3.756   2.062   1.064
 4183SOL    HW113448   3.737   1.993   0.994
 4183SOL    HW213449   3.708   2.146   1.043
 4184SOL     OW13450   3.485   5.634   3.656
 4184SOL    HW113451   3.438   5.623   3.568
 4184SOL    HW213452   3.425   5.681   3.720
 4185SOL     OW13453   5.735   3.141   3.035
 4185SOL    HW113454   5.733   3.142   2.935
 4185SOL    HW213455   5.664   3.079   3.069
 4186SOL     OW13456   1.601   6.197   0.713
 4186SOL    HW113457   1.664   6.266   0.749
 4186SOL    HW213458   1.506   6.229   0.726
 4187SOL     OW13459   1.863   3.567   6.613
 4187SOL    HW113460   1.838   3.529   6.702
 4187SOL    HW213461   1.825   3.659   6.605
 4188SOL     OW13462   4.483   0.236   0.751
 4188SOL    HW113463   4.539   0.218   0.832
 4188SOL    HW213464   4.386   0.228   0.775
 4189SOL     OW13465   4.963   4.808   4.019
 4189SOL    HW113466   5.002   4.844   4.103
 4189SOL    HW213467   4.875   4.851   4.002
 4190SOL     OW13468   6.992   5.972   0.865
 4190SOL    HW113469   6.944   5.953   0.950
 4190SOL    HW213470   6.926   5.973   0.789
 4191SOL     OW13471   4.730   4.379   6.603
 4191SOL    HW113472   4.767   4.444   6.538
 4191SOL    HW213473   4.735   4.416   6.696
 4192SOL     OW13474   1.072   3.461   1.518
 4192SOL    HW113475   1.131   3.404   1.460
 4192SOL    HW213476   0.991   3.409   1.544
 4193SOL     OW13477   0.114   0.309   0.746
 4193SOL    HW113478   0.104   0.230   0.806
 4193SOL    HW213479   0.203   0.304   0.699
 4194SOL     OW13480   4.211   1.284   5.092
 4194SOL    HW113481   4.240   1.208   5.033
 4194SOL    HW213482   4.292   1.333   5.125
 4195SOL     OW13483   3.395   6.200   1.433
 4195SOL    HW113484   3.415   6.122   1.493
 4195SOL    HW213485   3.380   6.166   1.340
 4196SOL     OW13486   6.361   2.942   1.774
 4196SOL    HW113487   6.362   2.950   1.674
 4196SOL    HW213488   6.336   2.848   1.800
 4197SOL     OW13489   3.805   0.632   6.704
 4197SOL    HW113490   3.800   0.533   6.719
 4197SOL    HW213491   3.718   0.664   6.667
 4198SOL     OW13492   6.464   2.057   2.325
 4198SOL    HW113493   6.553   2.060   2.280
 4198SOL    HW213494   6.447   1.965   2.361
 4199SOL     OW13495   0.622   4.226   5.785
 4199SOL    HW113496   0.614   4.152   5.851
 4199SOL    HW213497   0.672   4.195   5.705
 4200SOL     OW13498   4.614   1.149   3.436
 4200SOL    HW113499   4.637   1.058   3.470
 4200SOL    HW213500   4.583   1.142   3.341
 4201SOL     OW13501   5.484   6.404   3.676
 4201SOL    HW113502   5.490   6.407   3.776
 4201SOL    HW213503   5.404   6.350   3.650
 4202SOL     OW13504   4.820   3.884   1.001
 4202SOL    HW113505   4.893   3.844   1.055
 4202SOL    HW213506   4.780   3.961   1.050
 4203SOL     OW13507   6.150   5.741   6.402
 4203SOL    HW113508   6.137   5.719   6.305
 4203SOL    HW213509   6.064   5.730   6.451
 4204SOL     OW13510   2.351   3.314   6.770
 4204SOL    HW113511   2.276   3.247   6.770
 4204SOL    HW213512   2.314   3.406   6.756
 4205SOL     OW13513   3.995   6.587   5.080
 4205SOL    HW113514   3.945   6.524   5.020
 4205SOL    HW213515   3.935   6.619   5.152
 4206SOL     OW13516   1.367   2.342   4.946
 4206SOL    HW113517   1.460   2.379   4.947
 4206SOL    HW213518   1.301   2.417   4.940
 4207SOL     OW13519   1.513   2.479   2.248
 4207SOL    HW113520   1.605   2.514   2.267
 4207SOL    HW213521   1.482   2.513   2.160
 4208SOL     OW13522   2.178   3.502   4.974
 4208SOL    HW113523   2.171   3.583   4.916
 4208SOL    HW213524   2.234   3.522   5.054
 4209SOL     OW13525   6.738   6.440   2.309
 4209SOL    HW113526   6.730   6.539   2.313
 4209SOL    HW213527   6.797   6.407   2.382
 4210SOL     OW13528   4.147   3.742   4.906
 4210SOL    HW113529   4.145   3.842   4.908
 4210SOL    HW213530   4.129   3.707   4.998
 4211SOL     OW13531   4.143   2.418   5.435
 4211SOL    HW113532   4.149   2.471   5.351
 4211SOL    HW213533   4.167   2.476   5.513
 4212SOL     OW13534   0.210   2.663   3.333
 4212SOL    HW113535   0.235   2.604   3.410
 4212SOL    HW213536   0.249   2.754   3.345
 4213SOL     OW13537   3.348   1.031   3.482
 4213SOL    HW113538   3.280   0.993   3.418
 4213SOL    HW213539   3.437   1.035   3.437
 4214SOL     OW13540   0.463   5.682   4.094
 4214SOL    HW113541   0.449   5.669   3.996
 4214SOL    HW213542   0.561   5.681   4.114
 4215SOL     OW13543   4.615   6.369   5.493
 4215SOL    HW113544   4.690   6.429   5.520
 4215SOL    HW213545   4.652   6.284   5.457
 4216SOL     OW13546   2.742   5.827   1.967
 4216SOL    HW113547   2.681   5.821   1.888
 4216SOL    HW213548   2.835   5.845   1.935
 4217SOL     OW13549   0.858   0.618   2.784
 4217SOL    HW113550   0.766   0.590   2.811
 4217SOL    HW213551   0.902   0.665   2.859
 4218SOL     OW13552   2.707   1.428   1.636
 4218SOL    HW113553   2.799   1.450   1.603
 4218SOL    HW213554   2.639   1.478   1.582
 4219SOL     OW13555   4.639   6.193   3.606
 4219SOL    HW113556   4.593   6.141   3.534
 4219SOL    HW213557   4.736   6.170   3.606
 4220SOL     OW13558   5.083   2.498   1.722
 4220SOL    HW113559   5.091   2.406   1.682
 4220SOL    HW213560   5.004   2.501   1.782
 4221SOL     OW13561   0.620   5.779   0.145
 4221SOL    HW113562   0.627   5.871   0.182
 4221SOL    HW213563   0.711   5.735   0.147
 4222SOL     OW13564   4.874   2.817   3.817
 4222SOL    HW113565   4.864   2.893   3.752
 4222SOL    HW213566   4.885   2.853   3.909
 4223SOL     OW13567   4.061   3.560   1.893
 4223SOL    HW113568   4.139   3.501   1.873
 4223SOL    HW213569   4.090   3.656   1.885
 4224SOL     OW13570   5.017   3.451   4.750
 4224SOL    HW113571   5.027   3.395   4.668
 4224SOL    HW213572   5.044   3.399   4.831
 4225SOL     OW13573   0.021   1.960   5.620
 4225SOL    HW113574   0.007   1.904   5.538
 4225SOL    HW213575   0.105   2.013   5.611
 4226SOL     OW13576   1.670   5.421   4.847
 4226SOL    HW113577   1.734   5.345   4.859
 4226SOL    HW213578   1.713   5.506   4.878
 4227SOL     OW13579   5.633   5.609   2.408
 4227SOL    HW113580   5.539   5.573   2.408
 4227SOL    HW213581   5.629   5.709   2.409
 4228SOL     OW13582   1.077   5.007   4.220
 4228SOL    HW113583   1.088   4.955   4.136
 4228SOL    HW213584   1.099   4.950   4.299
 4229SOL     OW13585   6.582   4.807   5.545
 4229SOL    HW113586   6.485   4.810   5.568
 4229SOL    HW213587   6.600   4.728   5.486
 4230SOL     OW13588   0.367   0.629   2.236
 4230SOL    HW113589   0.401   0.543   2.274
 4230SOL    HW213590   0.414   0.649   2.150
 4231SOL     OW13591   5.679   1.869   5.444
 4231SOL    HW113592   5.581   1.861   5.459
 4231SOL    HW213593   5.701   1.963   5.418
 4232SOL     OW13594   1.499   5.568   3.805
 4232SOL    HW113595   1.502   5.667   3.802
 4232SOL    HW213596   1.586   5.533   3.840
 4233SOL     OW13597   5.093   4.931   3.550
 4233SOL    HW113598   5.081   4.935   3.649
 4233SOL    HW213599   5.005   4.915   3.506
 4234SOL     OW13600   2.769   5.862   6.035
 4234SOL    HW113601   2.676   5.897   6.048
 4234SOL    HW213602   2.789   5.857   5.937
 4235SOL     OW13603   0.664   5.774   5.709
 4235SOL    HW113604   0.760   5.795   5.725
 4235SOL    HW213605   0.612   5.787   5.793
 4236SOL     OW13606   0.341   5.532   2.894
 4236SOL    HW113607   0.384   5.527   2.803
 4236SOL    HW213608   0.250   5.572   2.886
 4237SOL     OW13609   6.619   4.446   3.831
 4237SOL    HW113610   6.549   4.499   3.879
 4237SOL    HW213611   6.648   4.369   3.887
 4238SOL     OW13612   2.460   6.906   3.137
 4238SOL    HW113613   2.511   6.821   3.150
 4238SOL    HW213614   2.498   6.957   3.061
 4239SOL     OW13615   3.858   1.149   3.692
 4239SOL    HW113616   3.905   1.222   3.741
 4239SOL    HW213617   3.889   1.147   3.597
 4240SOL     OW13618   0.146   6.339   1.289
 4240SOL    HW113619   0.180   6.369   1.378
 4240SOL    HW213620   0.146   6.417   1.226
 4241SOL     OW13621   6.394   3.008   0.455
 4241SOL    HW113622   6.416   2.911   0.464
 4241SOL    HW213623   6.295   3.020   0.466
 4242SOL     OW13624   2.004   1.834   3.625
 4242SOL    HW113625   2.076   1.900   3.645
 4242SOL    HW213626   2.001   1.765   3.697
 4243SOL     OW13627   4.932   0.469   3.243
 4243SOL    HW113628   5.012   0.409   3.253
 4243SOL    HW213629   4.958   0.564   3.260
 4244SOL     OW13630   3.411   3.547   2.446
 4244SOL    HW113631   3.496   3.596   2.467
 4244SOL    HW213632   3.355   3.602   2.384
 4245SOL     OW13633   6.020   2.369   6.335
 4245SOL    HW113634   5.963   2.310   6.277
 4245SOL    HW213635   6.045   2.320   6.418
 4246SOL     OW13636   0.861   3.758   1.817
 4246SOL    HW113637   0.907   3.795   1.898
 4246SOL    HW213638   0.910   3.788   1.734
 4247SOL     OW13639   0.079   5.557   5.162
 4247SOL    HW113640   0.117   5.649   5.154
 4247SOL    HW213641   0.145   5.497   5.208
 4248SOL     OW13642   1.553   3.082   5.486
 4248SOL    HW113643   1.608   3.013   5.440
 4248SOL    HW213644   1.551   3.064   5.585
 4249SOL     OW13645   5.460   3.917   6.028
 4249SOL    HW113646   5.508   3.904   5.941
 4249SOL    HW213647   5.387   3.850   6.036
 4250SOL     OW13648   6.963   4.785   3.087
 4250SOL    HW113649   6.931   4.690   3.080
 4250SOL    HW213650   6.895   4.839   3.135
 4251SOL     OW13651   5.855   4.390   0.552
 4251SOL    HW113652   5.944   4.429   0.528
 4251SOL    HW213653   5.796   4.389   0.471
 4252SOL     OW13654   0.803   5.370   5.847
 4252SOL    HW113655   0.742   5.309   5.796
 4252SOL    HW213656   0.872   5.408   5.785
 4253SOL     OW13657   4.323   0.204   2.514
 4253SOL    HW113658   4.323   0.304   2.527
 4253SOL    HW213659   4.268   0.162   2.586
 4254SOL     OW13660   2.508   4.227   1.255
 4254SOL    HW113661   2.542   4.320   1.245
 4254SOL    HW213662   2.544   4.188   1.339
 4255SOL     OW13663   0.344   2.881   4.522
 4255SOL    HW113664   0.268   2.946   4.512
 4255SOL    HW213665   0.429   2.932   4.528
 4256SOL     OW13666   1.923   6.953   1.579
 4256SOL    HW113667   1.984   6.918   1.650
 4256SOL    HW213668   1.974   6.963   1.494
 4257SOL     OW13669   3.883   1.810   4.737
 4257SOL    HW113670   3.815   1.737   4.735
 4257SOL    HW213671   3.971   1.773   4.767
 4258SOL     OW13672   5.584   6.623   2.620
 4258SOL    HW113673   5.629   6.667   2.698
 4258SOL    HW213674   5.488   6.606   2.642
 4259SOL     OW13675   2.360   2.415   6.947
 4259SOL    HW113676   2.427   2.464   6.892
 4259SOL    HW213677   2.371   2.440   0.020
 4260SOL     OW13678   4.717   5.436   3.656
 4260SOL    HW113679   4.812   5.412   3.633
 4260SOL    HW213680   4.703   5.533   3.637
 4261SOL     OW13681   1.580   6.551   2.021
 4261SOL    HW113682   1.544   6.579   1.932
 4261SOL    HW213683   1.590   6.451   2.023
 4262SOL     OW13684   0.768   4.853   6.627
 4262SOL    HW113685   0.673   4.871   6.655
 4262SOL    HW213686   0.824   4.842   6.709
 4263SOL     OW13687   2.812   4.755   5.586
 4263SOL    HW113688   2.821   4.854   5.602
 4263SOL    HW213689   2.898   4.710   5.607
 4264SOL     OW13690   0.578   0.943   1.006
 4264SOL    HW113691   0.559   0.976   0.913
 4264SOL    HW213692   0.510   0.874   1.031
 4265SOL     OW13693   6.835   1.675   0.781
 4265SOL    HW113694   6.826   1.615   0.702
 4265SOL    HW213695   6.932   1.681   0.807
 4266SOL     OW13696   2.435   5.541   0.508
 4266SOL    HW113697   2.356   5.597   0.481
 4266SOL    HW213698   2.509   5.602   0.537
 4267SOL     OW13699   1.927   3.610   5.158
 4267SOL    HW113700   1.960   3.686   5.102
 4267SOL    HW213701   1.991   3.593   5.233
 4268SOL     OW13702   2.084   0.947   0.731
 4268SOL    HW113703   2.089   0.983   0.637
 4268SOL    HW213704   2.116   1.017   0.795
 4269SOL     OW13705   3.459   3.272   0.127
 4269SOL    HW113706   3.498   3.211   0.195
 4269SOL    HW213707   3.398   3.220   0.066
 4270SOL     OW13708   3.118   2.977   4.929
 4270SOL    HW113709   3.196   2.951   4.872
 4270SOL    HW213710   3.072   2.894   4.961
 4271SOL     OW13711   0.783   6.999   6.406
 4271SOL    HW113712   0.866   6.944   6.414
 4271SOL    HW213713   0.720   6.975   6.481
 4272SOL     OW13714   0.100   4.644   4.760
 4272SOL    HW113715   0.147   4.605   4.681
 4272SOL    HW213716   0.076   4.739   4.741
 4273SOL     OW13717   5.191   6.983   5.608
 4273SOL    HW113718   5.144   0.042   5.641
 4273SOL    HW213719   5.193   6.915   5.681
 4274SOL     OW13720   1.640   6.608   3.340
 4274SOL    HW113721   1.736   6.609   3.313
 4274SOL    HW213722   1.626   6.671   3.416
 4275SOL     OW13723   0.812   0.139   6.129
 4275SOL    HW113724   0.738   0.097   6.078
 4275SOL    HW213725   0.839   0.080   6.205
 4276SOL     OW13726   2.113   4.269   2.605
 4276SOL    HW113727   2.047   4.204   2.641
 4276SOL    HW213728   2.176   4.222   2.544
 4277SOL     OW13729   0.070   5.332   3.608
 4277SOL    HW113730   0.167   5.350   3.622
 4277SOL    HW213731   0.024   5.322   3.696
 4278SOL     OW13732   6.779   6.719   5.026
 4278SOL    HW113733   6.703   6.765   4.980
 4278SOL    HW213734   6.743   6.645   5.083
 4279SOL     OW13735   3.409   6.320   4.882
 4279SOL    HW113736   3.438   6.225   4.884
 4279SOL    HW213737   3.405   6.355   4.976
 4280SOL     OW13738   5.636   2.220   4.613
 4280SOL    HW113739   5.672   2.276   4.688
 4280SOL    HW213740   5.710   2.197   4.550
 4281SOL     OW13741   2.150   4.193   4.858
 4281SOL    HW113742   2.211   4.122   4.894
 4281SOL    HW213743   2.058   4.154   4.846
 4282SOL     OW13744   2.088   2.729   0.924
 4282SOL    HW113745   2.002   2.694   0.960
 4282SOL    HW213746   2.120   2.670   0.851
 4283SOL     OW13747   2.040   0.209   4.433
 4283SOL    HW113748   2.138   0.212   4.451
 4283SOL    HW213749   1.990   0.196   4.519
 4284SOL     OW13750   5.783   2.088   2.232
 4284SOL    HW113751   5.750   2.043   2.149
 4284SOL    HW213752   5.728   2.170   2.249
 4285SOL     OW13753   0.967   0.054   5.724
 4285SOL    HW113754   0.944   0.146   5.692
 4285SOL    HW213755   0.979   7.017   5.645
 4286SOL     OW13756   4.751   6.022   0.416
 4286SOL    HW113757   4.657   6.014   0.449
 4286SOL    HW213758   4.793   5.931   0.412
 4287SOL     OW13759   5.931   6.998   4.741
 4287SOL    HW113760   5.856   0.041   4.740
 4287SOL    HW213761   6.014   0.018   4.707
 4288SOL     OW13762   1.627   6.389   2.768
 4288SOL    HW113763   1.681   6.325   2.822
 4288SOL    HW213764   1.622   6.357   2.673
 4289SOL     OW13765   5.594   3.019   1.099
 4289SOL    HW113766   5.692   3.017   1.078
 4289SOL    HW213767   5.581   3.041   1.196
 4290SOL     OW13768   2.208   0.783   1.707
 4290SOL    HW113769   2.184   0.696   1.751
 4290SOL    HW213770   2.203   0.773   1.608
 4291SOL     OW13771   6.111   3.470   0.938
 4291SOL    HW113772   6.098   3.549   0.998
 4291SOL    HW213773   6.048   3.398   0.965
 4292SOL     OW13774   5.802   4.988   6.483
 4292SOL    HW113775   5.750   5.071   6.462
 4292SOL    HW213776   5.863   5.005   6.560
 4293SOL     OW13777   0.132   2.791   6.815
 4293SOL    HW113778   0.151   2.773   6.719
 4293SOL    HW213779   0.035   2.774   6.833
 4294SOL     OW13780   4.258   2.360   5.889
 4294SOL    HW113781   4.228   2.405   5.805
 4294SOL    HW213782   4.315   2.281   5.866
 4295SOL     OW13783   3.530   0.204   4.457
 4295SOL    HW113784   3.595   0.129   4.467
 4295SOL    HW213785   3.538   0.266   4.535
 4296SOL     OW13786   2.584   1.671   1.260
 4296SOL    HW113787   2.533   1.736   1.203
 4296SOL    HW213788   2.597   1.710   1.351
 4297SOL     OW13789   5.703   0.731   5.165
 4297SOL    HW113790   5.675   0.687   5.079
 4297SOL    HW213791   5.796   0.766   5.155
 4298SOL     OW13792   3.069   6.084   1.374
 4298SOL    HW113793   3.023   6.035   1.448
 4298SOL    HW213794   3.011   6.160   1.344
 4299SOL     OW13795   0.868   3.528   6.388
 4299SOL    HW113796   0.948   3.539   6.328
 4299SOL    HW213797   0.851   3.430   6.402
 4300SOL     OW13798   4.090   1.164   6.788
 4300SOL    HW113799   3.994   1.140   6.775
 4300SOL    HW213800   4.109   1.251   6.744
 4301SOL     OW13801   2.735   1.883   0.466
 4301SOL    HW113802   2.698   1.965   0.510
 4301SOL    HW213803   2.707   1.802   0.518
 4302SOL     OW13804   0.996   6.538   6.959
 4302SOL    HW113805   0.987   6.455   6.904
 4302SOL    HW213806   1.090   6.572   6.952
 4303SOL     OW13807   0.115   3.498   2.432
 4303SOL    HW113808   0.195   3.472   2.485
 4303SOL    HW213809   0.127   3.470   2.337
 4304SOL     OW13810   3.798   3.609   4.147
 4304SOL    HW113811   3.747   3.533   4.106
 4304SOL    HW213812   3.735   3.684   4.167
 4305SOL     OW13813   6.279   1.442   3.548
 4305SOL    HW113814   6.277   1.530   3.500
 4305SOL    HW213815   6.186   1.415   3.573
 4306SOL     OW13816   6.684   4.506   5.597
 4306SOL    HW113817   6.768   4.527   5.548
 4306SOL    HW213818   6.699   4.516   5.695
 4307SOL     OW13819   4.817   4.046   6.045
 4307SOL    HW113820   4.822   4.131   6.098
 4307SOL    HW213821   4.721   4.019   6.034
 4308SOL     OW13822   5.132   6.042   4.576
 4308SOL    HW113823   5.180   6.093   4.504
 4308SOL    HW213824   5.091   6.106   4.641
 4309SOL     OW13825   1.531   1.210   0.402
 4309SOL    HW113826   1.605   1.185   0.464
 4309SOL    HW213827   1.567   1.269   0.330
 4310SOL     OW13828   2.055   2.106   2.786
 4310SOL    HW113829   2.098   2.166   2.720
 4310SOL    HW213830   2.102   2.113   2.874
 4311SOL     OW13831   2.044   5.960   3.412
 4311SOL    HW113832   2.104   5.882   3.424
 4311SOL    HW213833   2.077   6.036   3.468
 4312SOL     OW13834   2.051   5.437   2.166
 4312SOL    HW113835   2.117   5.368   2.196
 4312SOL    HW213836   1.969   5.392   2.130
 4313SOL     OW13837   4.663   1.361   1.813
 4313SOL    HW113838   4.593   1.432   1.815
 4313SOL    HW213839   4.630   1.284   1.758
 4314SOL     OW13840   4.900   3.348   2.530
 4314SOL    HW113841   4.867   3.315   2.441
 4314SOL    HW213842   4.852   3.300   2.603
 4315SOL     OW13843   2.644   0.629   1.920
 4315SOL    HW113844   2.652   0.561   1.847
 4315SOL    HW213845   2.557   0.676   1.912
 4316SOL     OW13846   5.806   0.814   1.920
 4316SOL    HW113847   5.768   0.723   1.934
 4316SOL    HW213848   5.896   0.820   1.964
 4317SOL     OW13849   3.262   1.239   4.195
 4317SOL    HW113850   3.232   1.154   4.153
 4317SOL    HW213851   3.254   1.314   4.129
 4318SOL     OW13852   0.564   3.153   3.856
 4318SOL    HW113853   0.482   3.170   3.910
 4318SOL    HW213854   0.547   3.080   3.790
 4319SOL     OW13855   2.654   3.831   6.379
 4319SOL    HW113856   2.704   3.772   6.315
 4319SOL    HW213857   2.556   3.825   6.360
 4320SOL     OW13858   0.510   6.554   2.881
 4320SOL    HW113859   0.439   6.520   2.819
 4320SOL    HW213860   0.491   6.649   2.905
 4321SOL     OW13861   6.752   0.277   5.055
 4321SOL    HW113862   6.748   0.232   5.144
 4321SOL    HW213863   6.830   0.339   5.052
 4322SOL     OW13864   5.848   1.223   0.171
 4322SOL    HW113865   5.752   1.207   0.147
 4322SOL    HW213866   5.899   1.245   0.088
 4323SOL     OW13867   6.545   3.397   2.594
 4323SOL    HW113868   6.611   3.399   2.518
 4323SOL    HW213869   6.577   3.458   2.667
 4324SOL     OW13870   6.034   4.184   6.575
 4324SOL    HW113871   6.128   4.217   6.563
 4324SOL    HW213872   6.029   4.126   6.657
 4325SOL     OW13873   1.782   1.470   6.470
 4325SOL    HW113874   1.781   1.392   6.408
 4325SOL    HW213875   1.780   1.439   6.564
 4326SOL     OW13876   6.404   3.140   5.318
 4326SOL    HW113877   6.433   3.211   5.382
 4326SOL    HW213878   6.305   3.127   5.324
 4327SOL     OW13879   6.455   6.417   2.163
 4327SOL    HW113880   6.385   6.398   2.094
 4327SOL    HW213881   6.527   6.472   2.122
 4328SOL     OW13882   5.047   5.360   7.000
 4328SOL    HW113883   5.055   5.347   6.901
 4328SOL    HW213884   5.062   5.457   7.022
 4329SOL     OW13885   4.381   2.128   5.812
 4329SOL    HW113886   4.341   2.136   5.721
 4329SOL    HW213887   4.353   2.041   5.853
 4330SOL     OW13888   1.095   6.942   6.241
 4330SOL    HW113889   1.145   6.856   6.237
 4330SOL    HW213890   1.023   6.942   6.172
 4331SOL     OW13891   5.757   2.394   6.572
 4331SOL    HW113892   5.701   2.403   6.490
 4331SOL    HW213893   5.811   2.477   6.584
 4332SOL     OW13894   4.939   3.205   1.981
 4332SOL    HW113895   4.996   3.174   2.057
 4332SOL    HW213896   4.846   3.169   1.993
 4333SOL     OW13897   5.660   1.187   4.549
 4333SOL    HW113898   5.697   1.240   4.473
 4333SOL    HW213899   5.710   1.101   4.557
 4334SOL     OW13900   4.062   1.893   2.139
 4334SOL    HW113901   3.993   1.965   2.136
 4334SOL    HW213902   4.019   1.808   2.170
 4335SOL     OW13903   3.056   4.088   4.902
 4335SOL    HW113904   3.020   4.165   4.849
 4335SOL    HW213905   3.028   4.002   4.860
 4336SOL     OW13906   1.312   6.358   4.620
 4336SOL    HW113907   1.296   6.277   4.677
 4336SOL    HW213908   1.347   6.432   4.678
 4337SOL     OW13909   6.730   5.427   0.373
 4337SOL    HW113910   6.661   5.496   0.395
 4337SOL    HW213911   6.821   5.463   0.389
 4338SOL     OW13912   6.520   6.161   4.237
 4338SOL    HW113913   6.582   6.139   4.312
 4338SOL    HW213914   6.562   6.136   4.150
 4339SOL     OW13915   5.978   2.011   5.248
 4339SOL    HW113916   5.997   2.016   5.150
 4339SOL    HW213917   6.051   1.959   5.293
 4340SOL     OW13918   5.496   4.061   1.286
 4340SOL    HW113919   5.565   3.989   1.295
 4340SOL    HW213920   5.405   4.023   1.303
 4341SOL     OW13921   1.854   4.259   1.635
 4341SOL    HW113922   1.927   4.240   1.569
 4341SOL    HW213923   1.860   4.354   1.664
 4342SOL     OW13924   1.058   2.904   2.956
 4342SOL    HW113925   1.151   2.936   2.972
 4342SOL    HW213926   1.045   2.887   2.859
 4343SOL     OW13927   3.262   1.685   1.092
 4343SOL    HW113928   3.301   1.594   1.106
 4343SOL    HW213929   3.170   1.689   1.132
 4344SOL     OW13930   1.891   4.966   3.215
 4344SOL    HW113931   1.847   4.877   3.203
 4344SOL    HW213932   1.989   4.952   3.233
 4345SOL     OW13933   1.509   2.527   5.368
 4345SOL    HW113934   1.550   2.436   5.361
 4345SOL    HW213935   1.536   2.569   5.455
 4346SOL     OW13936   1.998   3.430   1.883
 4346SOL    HW113937   2.042   3.474   1.961
 4346SOL    HW213938   2.057   3.437   1.803
 4347SOL     OW13939   5.696   6.798   2.851
 4347SOL    HW113940   5.794   6.805   2.869
 4347SOL    HW213941   5.646   6.863   2.907
 4348SOL     OW13942   1.528   3.866   0.036
 4348SOL    HW113943   1.507   3.964   0.028
 4348SOL    HW213944   1.535   3.826   6.968
 4349SOL     OW13945   0.261   1.276   3.624
 4349SOL    HW113946   0.339   1.216   3.640
 4349SOL    HW213947   0.206   1.240   3.548
 4350SOL     OW13948   5.440   2.354   3.974
 4350SOL    HW113949   5.492   2.273   3.949
 4350SOL    HW213950   5.389   2.336   4.058
 4351SOL     OW13951   2.915   6.287   1.858
 4351SOL    HW113952   2.868   6.316   1.941
 4351SOL    HW213953   3.001   6.242   1.882
 4352SOL     OW13954   6.790   1.333   1.954
 4352SOL    HW113955   6.763   1.414   1.902
 4352SOL    HW213956   6.828   1.362   2.042
 4353SOL     OW13957   3.319   5.871   6.620
 4353SOL    HW113958   3.340   5.799   6.554
 4353SOL    HW213959   3.353   5.845   6.710
 4354SOL     OW13960   2.562   0.055   6.857
 4354SOL    HW113961   2.503   0.083   6.782
 4354SOL    HW213962   2.620   0.131   6.884
 4355SOL     OW13963   4.452   1.458   0.403
 4355SOL    HW113964   4.400   1.425   0.483
 4355SOL    HW213965   4.477   1.554   0.417
 4356SOL     OW13966   4.088   4.254   0.375
 4356SOL    HW113967   4.077   4.172   0.432
 4356SOL    HW213968   4.030   4.327   0.411
 4357SOL     OW13969   6.311   0.130   0.147
 4357SOL    HW113970   6.320   0.069   0.225
 4357SOL    HW213971   6.240   0.198   0.166
 4358SOL     OW13972   0.753   6.927   1.745
 4358SOL    HW113973   0.841   6.958   1.781
 4358SOL    HW213974   0.680   6.984   1.783
 4359SOL     OW13975   0.399   2.243   3.998
 4359SOL    HW113976   0.458   2.227   4.077
 4359SOL    HW213977   0.351   2.330   4.009
 4360SOL     OW13978   1.047   2.824   1.415
 4360SOL    HW113979   1.141   2.849   1.394
 4360SOL    HW213980   0.984   2.883   1.365
 4361SOL     OW13981   5.005   2.771   1.900
 4361SOL    HW113982   4.939   2.818   1.841
 4361SOL    HW213983   5.095   2.814   1.889
 4362SOL     OW13984   6.621   4.426   4.807
 4362SOL    HW113985   6.553   4.371   4.856
 4362SOL    HW213986   6.576   4.482   4.738
 4363SOL     OW13987   4.824   2.888   5.605
 4363SOL    HW113988   4.907   2.833   5.590
 4363SOL    HW213989   4.847   2.985   5.597
 4364SOL     OW13990   3.037   3.792   4.406
 4364SOL    HW113991   2.968   3.721   4.422
 4364SOL    HW213992   3.128   3.749   4.404
 4365SOL     OW13993   4.412   2.305   2.503
 4365SOL    HW113994   4.484   2.303   2.572
 4365SOL    HW213995   4.335   2.248   2.533
 4366SOL     OW13996   5.546   5.663   1.123
 4366SOL    HW113997   5.600   5.716   1.057
 4366SOL    HW213998   5.492   5.595   1.074
 4367SOL     OW13999   1.555   6.428   6.296
 4367SOL    HW114000   1.617   6.480   6.237
 4367SOL    HW214001   1.606   6.391   6.374
 4368SOL     OW14002   5.376   4.113   1.604
 4368SOL    HW114003   5.350   4.038   1.543
 4368SOL    HW214004   5.326   4.196   1.578
 4369SOL     OW14005   4.271   5.358   1.962
 4369SOL    HW114006   4.195   5.304   1.926
 4369SOL    HW214007   4.263   5.452   1.930
 4370SOL     OW14008   5.889   4.847   4.195
 4370SOL    HW114009   5.903   4.859   4.096
 4370SOL    HW214010   5.815   4.907   4.226
 4371SOL     OW14011   6.172   1.299   2.200
 4371SOL    HW114012   6.120   1.308   2.285
 4371SOL    HW214013   6.185   1.389   2.159
 4372SOL     OW14014   4.407   1.338   3.811
 4372SOL    HW114015   4.342   1.413   3.818
 4372SOL    HW214016   4.488   1.359   3.867
 4373SOL     OW14017   6.278   1.821   6.649
 4373SOL    HW114018   6.344   1.760   6.604
 4373SOL    HW214019   6.286   1.913   6.611
 4374SOL     OW14020   1.954   2.684   1.763
 4374SOL    HW114021   1.873   2.625   1.760
 4374SOL    HW214022   2.018   2.657   1.690
 4375SOL     OW14023   2.349   6.502   5.219
 4375SOL    HW114024   2.422   6.481   5.285
 4375SOL    HW214025   2.267   6.531   5.268
 4376SOL     OW14026   5.642   0.701   3.183
 4376SOL    HW114027   5.638   0.625   3.118
 4376SOL    HW214028   5.733   0.705   3.225
 4377SOL     OW14029   5.700   4.396   6.824
 4377SOL    HW114030   5.727   4.374   6.918
 4377SOL    HW214031   5.688   4.311   6.773
 4378SOL     OW14032   1.805   0.207   4.225
 4378SOL    HW114033   1.810   0.110   4.251
 4378SOL    HW214034   1.817   0.264   4.307
 4379SOL     OW14035   2.645   2.329   5.196
 4379SOL    HW114036   2.557   2.303   5.155
 4379SOL    HW214037   2.652   2.429   5.198
 4380SOL     OW14038   0.323   1.169   1.882
 4380SOL    HW114039   0.310   1.071   1.862
 4380SOL    HW214040   0.297   1.187   1.976
 4381SOL     OW14041   2.839   6.459   5.922
 4381SOL    HW114042   2.808   6.386   5.983
 4381SOL    HW214043   2.785   6.457   5.838
 4382SOL     OW14044   6.943   3.584   5.697
 4382SOL    HW114045   6.916   3.654   5.631
 4382SOL    HW214046   6.867   3.521   5.711
 4383SOL     OW14047   5.439   3.129   0.058
 4383SOL    HW114048   5.535   3.130   0.029
 4383SOL    HW214049   5.420   3.043   0.106
 4384SOL     OW14050   6.445   6.386   3.674
 4384SOL    HW114051   6.440   6.356   3.769
 4384SOL    HW214052   6.393   6.470   3.662
 4385SOL     OW14053   5.800   1.927   4.356
 4385SOL    HW114054   5.756   2.016   4.340
 4385SOL    HW214055   5.899   1.936   4.341
 4386SOL     OW14056   0.800   3.416   5.452
 4386SOL    HW114057   0.704   3.432   5.430
 4386SOL    HW214058   0.837   3.496   5.500
 4387SOL     OW14059   6.636   1.963   0.436
 4387SOL    HW114060   6.556   1.910   0.463
 4387SOL    HW214061   6.615   2.061   0.440
 4388SOL     OW14062   4.793   1.788   6.615
 4388SOL    HW114063   4.868   1.763   6.677
 4388SOL    HW214064   4.828   1.796   6.522
 4389SOL     OW14065   0.242   3.627   1.455
 4389SOL    HW114066   0.294   3.671   1.528
 4389SOL    HW214067   0.172   3.690   1.421
 4390SOL     OW14068   6.155   0.721   1.656
 4390SOL    HW114069   6.060   0.753   1.650
 4390SOL    HW214070   6.169   0.676   1.744
 4391SOL     OW14071   2.184   6.021   6.398
 4391SOL    HW114072   2.221   5.930   6.416
 4391SOL    HW214073   2.089   6.013   6.366
 4392SOL     OW14074   2.056   2.532   5.252
 4392SOL    HW114075   2.103   2.447   5.278
 4392SOL    HW214076   2.120   2.609   5.257
 4393SOL     OW14077   4.925   0.211   1.685
 4393SOL    HW114078   4.895   0.118   1.665
 4393SOL    HW214079   4.883   0.242   1.770
 4394SOL     OW14080   1.454   0.446   1.481
 4394SOL    HW114081   1.401   0.362   1.475
 4394SOL    HW214082   1.526   0.435   1.549
 4395SOL     OW14083   2.770   5.637   1.078
 4395SOL    HW114084   2.781   5.712   1.143
 4395SOL    HW214085   2.693   5.580   1.105
 4396SOL     OW14086   2.228   0.424   3.273
 4396SOL    HW114087   2.307   0.363   3.274
 4396SOL    HW214088   2.189   0.426   3.181
 4397SOL     OW14089   3.074   1.935   4.146
 4397SOL    HW114090   3.103   1.936   4.242
 4397SOL    HW214091   3.133   1.995   4.092
 4398SOL     OW14092   1.941   2.767   5.709
 4398SOL    HW114093   1.921   2.865   5.710
 4398SOL    HW214094   1.904   2.727   5.625
 4399SOL     OW14095   2.945   6.798   2.247
 4399SOL    HW114096   2.920   6.704   2.272
 4399SOL    HW214097   2.924   6.860   2.322
 4400SOL     OW14098   2.334   5.577   5.046
 4400SOL    HW114099   2.422   5.573   4.999
 4400SOL    HW214100   2.349   5.596   5.143
 4401SOL     OW14101   3.772   6.983   6.166
 4401SOL    HW114102   3.739   7.020   6.253
 4401SOL    HW214103   3.851   0.012   6.136
 4402SOL     OW14104   1.345   0.333   3.081
 4402SOL    HW114105   1.292   0.307   3.162
 4402SOL    HW214106   1.322   0.272   3.006
 4403SOL     OW14107   1.219   5.057   1.106
 4403SOL    HW114108   1.187   5.015   1.021
 4403SOL    HW214109   1.241   4.985   1.172
 4404SOL     OW14110   0.638   6.120   6.331
 4404SOL    HW114111   0.590   6.071   6.259
 4404SOL    HW214112   0.615   6.079   6.420
 4405SOL     OW14113   1.986   4.975   3.741
 4405SOL    HW114114   1.911   5.041   3.751
 4405SOL    HW214115   1.969   4.897   3.801
 4406SOL     OW14116   5.979   3.453   2.397
 4406SOL    HW114117   5.886   3.427   2.369
 4406SOL    HW214118   5.978   3.548   2.430
 4407SOL     OW14119   6.359   6.437   1.837
 4407SOL    HW114120   6.272   6.459   1.882
 4407SOL    HW214121   6.372   6.499   1.759
 4408SOL     OW14122   4.162   0.634   1.391
 4408SOL    HW114123   4.121   0.578   1.463
 4408SOL    HW214124   4.115   0.618   1.304
 4409SOL     OW14125   3.396   0.659   2.387
 4409SOL    HW114126   3.336   0.731   2.422
 4409SOL    HW214127   3.340   0.587   2.346
 4410SOL     OW14128   0.950   6.102   1.214
 4410SOL    HW114129   0.999   6.038   1.154
 4410SOL    HW214130   1.016   6.153   1.268
 4411SOL     OW14131   3.221   4.463   5.347
 4411SOL    HW114132   3.138   4.410   5.366
 4411SOL    HW214133   3.210   4.556   5.383
 4412SOL     OW14134   5.020   6.568   2.614
 4412SOL    HW114135   4.929   6.607   2.625
 4412SOL    HW214136   5.063   6.605   2.532
 4413SOL     OW14137   4.668   6.480   3.660
 4413SOL    HW114138   4.597   6.498   3.728
 4413SOL    HW214139   4.644   6.397   3.609
 4414SOL     OW14140   4.370   4.088   1.207
 4414SOL    HW114141   4.286   4.101   1.155
 4414SOL    HW214142   4.442   4.147   1.170
 4415SOL     OW14143   2.823   3.804   1.452
 4415SOL    HW114144   2.828   3.807   1.552
 4415SOL    HW214145   2.737   3.845   1.421
 4416SOL     OW14146   4.637   2.552   2.929
 4416SOL    HW114147   4.637   2.617   3.005
 4416SOL    HW214148   4.586   2.471   2.954
 4417SOL     OW14149   0.435   3.576   3.950
 4417SOL    HW114150   0.363   3.620   3.895
 4417SOL    HW214151   0.487   3.513   3.892
 4418SOL     OW14152   6.228   6.757   6.983
 4418SOL    HW114153   6.245   6.758   0.058
 4418SOL    HW214154   6.276   6.680   6.941
 4419SOL     OW14155   6.283   5.974   6.509
 4419SOL    HW114156   6.295   6.026   6.425
 4419SOL    HW214157   6.229   5.892   6.490
 4420SOL     OW14158   3.629   2.559   0.602
 4420SOL    HW114159   3.662   2.534   0.511
 4420SOL    HW214160   3.678   2.505   0.671
 4421SOL     OW14161   1.561   2.721   5.184
 4421SOL    HW114162   1.653   2.696   5.154
 4421SOL    HW214163   1.516   2.641   5.222
 4422SOL     OW14164   6.791   4.499   6.873
 4422SOL    HW114165   6.882   4.510   6.833
 4422SOL    HW214166   6.791   4.422   6.937
 4423SOL     OW14167   5.430   4.120   5.026
 4423SOL    HW114168   5.511   4.076   5.064
 4423SOL    HW214169   5.397   4.189   5.091
 4424SOL     OW14170   4.632   5.693   3.626
 4424SOL    HW114171   4.594   5.739   3.707
 4424SOL    HW214172   4.557   5.662   3.568
 4425SOL     OW14173   1.846   5.552   1.888
 4425SOL    HW114174   1.772   5.527   1.950
 4425SOL    HW214175   1.896   5.630   1.926
 4426SOL     OW14176   1.118   6.857   4.233
 4426SOL    HW114177   1.118   6.864   4.333
 4426SOL    HW214178   1.076   6.771   4.205
 4427SOL     OW14179   2.836   6.395   2.505
 4427SOL    HW114180   2.814   6.298   2.501
 4427SOL    HW214181   2.931   6.407   2.534
 4428SOL     OW14182   5.977   0.488   3.670
 4428SOL    HW114183   6.044   0.562   3.673
 4428SOL    HW214184   6.011   0.409   3.721
 4429SOL     OW14185   2.365   6.367   3.438
 4429SOL    HW114186   2.423   6.447   3.453
 4429SOL    HW214187   2.326   6.371   3.346
 4430SOL     OW14188   5.097   4.474   5.103
 4430SOL    HW114189   5.056   4.389   5.070
 4430SOL    HW214190   5.138   4.523   5.026
 4431SOL     OW14191   3.225   0.300   4.057
 4431SOL    HW114192   3.132   0.308   4.022
 4431SOL    HW214193   3.244   0.204   4.076
 4432SOL     OW14194   1.269   3.828   6.409
 4432SOL    HW114195   1.199   3.900   6.411
 4432SOL    HW214196   1.351   3.863   6.362
 4433SOL     OW14197   0.970   0.769   4.904
 4433SOL    HW114198   0.885   0.807   4.939
 4433SOL    HW214199   1.039   0.767   4.976
 4434SOL     OW14200   6.955   0.817   2.182
 4434SOL    HW114201   0.005   0.760   2.144
 4434SOL    HW214202   6.992   0.877   2.252
 4435SOL     OW14203   2.355   3.440   0.263
 4435SOL    HW114204   2.378   3.461   0.167
 4435SOL    HW214205   2.423   3.378   0.300
 4436SOL     OW14206   4.080   1.324   1.822
 4436SOL    HW114207   3.984   1.345   1.838
 4436SOL    HW214208   4.093   1.290   1.729
 4437SOL     OW14209   7.005   3.694   1.090
 4437SOL    HW114210   0.042   3.621   1.122
 4437SOL    HW214211   6.910   3.666   1.105
 4438SOL     OW14212   4.015   0.602   6.082
 4438SOL    HW114213   4.065   0.675   6.128
 4438SOL    HW214214   3.998   0.628   5.987
 4439SOL     OW14215   1.884   6.540   2.450
 4439SOL    HW114216   1.958   6.587   2.403
 4439SOL    HW214217   1.860   6.456   2.401
 4440SOL     OW14218   1.538   4.794   0.177
 4440SOL    HW114219   1.529   4.721   0.244
 4440SOL    HW214220   1.572   4.877   0.221
 4441SOL     OW14221   0.239   1.102   0.432
 4441SOL    HW114222   0.217   1.013   0.394
 4441SOL    HW214223   0.197   1.111   0.523
 4442SOL     OW14224   1.927   4.751   6.487
 4442SOL    HW114225   1.831   4.757   6.515
 4442SOL    HW214226   1.935   4.773   6.390
 4443SOL     OW14227   0.244   5.634   6.602
 4443SOL    HW114228   0.301   5.553   6.598
 4443SOL    HW214229   0.182   5.629   6.680
 4444SOL     OW14230   5.395   4.362   0.028
 4444SOL    HW114231   5.363   4.300   6.979
 4444SOL    HW214232   5.452   4.311   0.093
 4445SOL     OW14233   0.128   5.727   0.302
 4445SOL    HW114234   0.194   5.731   0.227
 4445SOL    HW214235   0.060   5.657   0.281
 4446SOL     OW14236   5.159   0.880   0.789
 4446SOL    HW114237   5.095   0.934   0.735
 4446SOL    HW214238   5.122   0.867   0.881
 4447SOL     OW14239   5.353   5.189   5.363
 4447SOL    HW114240   5.364   5.117   5.431
 4447SOL    HW214241   5.331   5.148   5.274
 4448SOL     OW14242   4.033   6.510   2.146
 4448SOL    HW114243   4.092   6.587   2.123
 4448SOL    HW214244   4.089   6.434   2.179
 4449SOL     OW14245   3.397   1.125   5.198
 4449SOL    HW114246   3.382   1.066   5.277
 4449SOL    HW214247   3.474   1.187   5.217
 4450SOL     OW14248   3.504   6.982   0.213
 4450SOL    HW114249   3.602   6.995   0.198
 4450SOL    HW214250   3.478   6.888   0.188
 4451SOL     OW14251   4.914   4.430   2.844
 4451SOL    HW114252   4.853   4.354   2.866
 4451SOL    HW214253   4.974   4.404   2.768
 4452SOL     OW14254   4.887   5.937   4.519
 4452SOL    HW114255   4.821   6.011   4.507
 4452SOL    HW214256   4.980   5.976   4.519
 4453SOL     OW14257   0.121   3.813   0.582
 4453SOL    HW114258   0.116   3.834   0.680
 4453SOL    HW214259   0.131   3.898   0.530
 4454SOL     OW14260   0.620   2.698   6.654
 4454SOL    HW114261   0.551   2.651   6.599
 4454SOL    HW214262   0.673   2.761   6.596
 4455SOL     OW14263   0.466   6.602   5.159
 4455SOL    HW114264   0.453   6.668   5.233
 4455SOL    HW214265   0.402   6.623   5.085
 4456SOL     OW14266   1.955   6.996   4.727
 4456SOL    HW114267   1.932   0.064   4.694
 4456SOL    HW214268   2.053   6.980   4.717
 4457SOL     OW14269   0.877   2.376   5.007
 4457SOL    HW114270   0.815   2.453   4.993
 4457SOL    HW214271   0.971   2.405   4.988
 4458SOL     OW14272   1.818   3.340   0.077
 4458SOL    HW114273   1.801   3.243   0.061
 4458SOL    HW214274   1.909   3.353   0.116
 4459SOL     OW14275   1.232   2.520   2.960
 4459SOL    HW114276   1.326   2.551   2.975
 4459SOL    HW214277   1.232   2.447   2.891
 4460SOL     OW14278   6.664   3.091   3.968
 4460SOL    HW114279   6.600   3.096   4.044
 4460SOL    HW214280   6.740   3.154   3.984
 4461SOL     OW14281   2.932   0.994   1.182
 4461SOL    HW114282   3.030   0.992   1.163
 4461SOL    HW214283   2.913   1.061   1.254
 4462SOL     OW14284   6.284   4.491   3.044
 4462SOL    HW114285   6.327   4.439   3.118
 4462SOL    HW214286   6.228   4.564   3.082
 4463SOL     OW14287   5.914   1.628   0.717
 4463SOL    HW114288   5.976   1.549   0.712
 4463SOL    HW214289   5.880   1.637   0.811
 4464SOL     OW14290   0.373   5.299   0.266
 4464SOL    HW114291   0.392   5.364   0.340
 4464SOL    HW214292   0.275   5.278   0.265
 4465SOL     OW14293   2.920   6.074   0.982
 4465SOL    HW114294   2.841   6.063   0.923
 4465SOL    HW214295   2.978   6.148   0.948
 4466SOL     OW14296   1.569   2.112   3.094
 4466SOL    HW114297   1.656   2.155   3.070
 4466SOL    HW214298   1.530   2.158   3.174
 4467SOL     OW14299   4.097   6.098   3.113
 4467SOL    HW114300   4.105   6.198   3.107
 4467SOL    HW214301   4.010   6.069   3.074
 4468SOL     OW14302   1.655   3.127   1.348
 4468SOL    HW114303   1.694   3.109   1.438
 4468SOL    HW214304   1.556   3.143   1.357
 4469SOL     OW14305   3.162   6.535   0.940
 4469SOL    HW114306   3.189   6.563   0.848
 4469SOL    HW214307   3.241   6.540   1.001
 4470SOL     OW14308   1.374   0.274   2.567
 4470SOL    HW114309   1.471   0.275   2.592
 4470SOL    HW214310   1.349   0.183   2.534
 4471SOL     OW14311   0.885   1.090   6.198
 4471SOL    HW114312   0.970   1.060   6.240
 4471SOL    HW214313   0.809   1.036   6.233
 4472SOL     OW14314   1.573   2.226   0.783
 4472SOL    HW114315   1.537   2.133   0.773
 4472SOL    HW214316   1.542   2.264   0.870
 4473SOL     OW14317   6.998   3.176   4.638
 4473SOL    HW114318   6.999   3.272   4.611
 4473SOL    HW214319   6.914   3.157   4.689
 4474SOL     OW14320   3.148   5.875   0.882
 4474SOL    HW114321   3.188   5.798   0.932
 4474SOL    HW214322   3.062   5.903   0.925
 4475SOL     OW14323   1.360   3.538   1.108
 4475SOL    HW114324   1.371   3.625   1.060
 4475SOL    HW214325   1.363   3.554   1.207
 4476SOL     OW14326   4.764   1.337   3.668
 4476SOL    HW114327   4.681   1.294   3.633
 4476SOL    HW214328   4.744   1.432   3.692
 4477SOL     OW14329   1.758   0.802   5.244
 4477SOL    HW114330   1.784   0.857   5.323
 4477SOL    HW214331   1.734   0.710   5.275
 4478SOL     OW14332   1.604   0.143   0.520
 4478SOL    HW114333   1.505   0.137   0.504
 4478SOL    HW214334   1.626   0.234   0.556
 4479SOL     OW14335   1.390   2.644   0.740
 4479SOL    HW114336   1.426   2.564   0.693
 4479SOL    HW214337   1.413   2.726   0.687
 4480SOL     OW14338   0.742   5.554   4.122
 4480SOL    HW114339   0.752   5.490   4.198
 4480SOL    HW214340   0.823   5.550   4.063
 4481SOL     OW14341   2.192   3.786   6.533
 4481SOL    HW114342   2.104   3.811   6.573
 4481SOL    HW214343   2.236   3.717   6.590
 4482SOL     OW14344   2.745   5.925   6.771
 4482SOL    HW114345   2.754   5.841   6.717
 4482SOL    HW214346   2.834   5.969   6.779
 4483SOL     OW14347   0.937   3.086   1.342
 4483SOL    HW114348   0.871   3.135   1.285
 4483SOL    HW214349   1.027   3.128   1.334
 4484SOL     OW14350   1.944   2.354   7.006
 4484SOL    HW114351   1.876   2.280   7.009
 4484SOL    HW214352   2.004   2.348   0.062
 4485SOL     OW14353   5.283   2.733   4.761
 4485SOL    HW114354   5.274   2.714   4.859
 4485SOL    HW214355   5.249   2.654   4.709
 4486SOL     OW14356   4.949   5.086   5.599
 4486SOL    HW114357   4.978   5.154   5.532
 4486SOL    HW214358   4.990   4.998   5.578
 4487SOL     OW14359   0.925   3.137   0.074
 4487SOL    HW114360   0.825   3.141   0.080
 4487SOL    HW214361   0.951   3.075   7.023
 4488SOL     OW14362   6.816   3.669   4.454
 4488SOL    HW114363   6.909   3.655   4.418
 4488SOL    HW214364   6.782   3.583   4.493
 4489SOL     OW14365   4.556   5.409   5.770
 4489SOL    HW114366   4.608   5.335   5.812
 4489SOL    HW214367   4.576   5.495   5.817
 4490SOL     OW14368   5.111   1.402   1.087
 4490SOL    HW114369   5.115   1.469   1.161
 4490SOL    HW214370   5.059   1.440   1.010
 4491SOL     OW14371   0.880   3.084   3.115
 4491SOL    HW114372   0.948   3.026   3.071
 4491SOL    HW214373   0.833   3.033   3.187
 4492SOL     OW14374   6.177   0.729   2.398
 4492SOL    HW114375   6.181   0.664   2.323
 4492SOL    HW214376   6.104   0.703   2.461
 4493SOL     OW14377   4.500   1.392   4.701
 4493SOL    HW114378   4.490   1.317   4.636
 4493SOL    HW214379   4.540   1.358   4.786
 4494SOL     OW14380   1.107   0.028   0.861
 4494SOL    HW114381   1.147   6.987   0.927
 4494SOL    HW214382   1.032   7.008   0.813
 4495SOL     OW14383   4.580   5.412   1.790
 4495SOL    HW114384   4.516   5.339   1.815
 4495SOL    HW214385   4.640   5.381   1.717
 4496SOL     OW14386   3.540   6.116   6.219
 4496SOL    HW114387   3.628   6.144   6.179
 4496SOL    HW214388   3.553   6.096   6.316
 4497SOL     OW14389   3.866   1.751   6.286
 4497SOL    HW114390   3.839   1.800   6.369
 4497SOL    HW214391   3.937   1.803   6.239
 4498SOL     OW14392   1.570   5.234   5.481
 4498SOL    HW114393   1.604   5.244   5.387
 4498SOL    HW214394   1.603   5.148   5.520
 4499SOL     OW14395   6.045   2.106   2.390
 4499SOL    HW114396   5.959   2.117   2.341
 4499SOL    HW214397   6.113   2.169   2.353
 4500SOL     OW14398   3.845   5.677   6.728
 4500SOL    HW114399   3.789   5.611   6.779
 4500SOL    HW214400   3.809   5.685   6.635
 4501SOL     OW14401   5.258   1.100   3.260
 4501SOL    HW114402   5.325   1.028   3.242
 4501SOL    HW214403   5.248   1.157   3.179
 4502SOL     OW14404   0.486   3.728   6.498
 4502SOL    HW114405   0.562   3.708   6.559
 4502SOL    HW214406   0.415   3.777   6.548
 4503SOL     OW14407   2.474   0.407   2.680
 4503SOL    HW114408   2.414   0.391   2.601
 4503SOL    HW214409   2.436   0.479   2.737
 4504SOL     OW14410   0.602   2.447   2.868
 4504SOL    HW114411   0.627   2.378   2.936
 4504SOL    HW214412   0.669   2.448   2.794
 4505SOL     OW14413   6.093   4.241   4.245
 4505SOL    HW114414   6.156   4.264   4.320
 4505SOL    HW214415   6.115   4.297   4.165
 4506SOL     OW14416   4.995   2.998   4.843
 4506SOL    HW114417   5.070   3.036   4.897
 4506SOL    HW214418   4.909   3.011   4.891
 4507SOL     OW14419   6.531   2.621   3.070
 4507SOL    HW114420   6.476   2.580   2.997
 4507SOL    HW214421   6.470   2.663   3.138
 4508SOL     OW14422   0.144   5.119   0.952
 4508SOL    HW114423   0.168   5.106   1.048
 4508SOL    HW214424   0.227   5.118   0.897
 4509SOL     OW14425   4.747   2.738   1.990
 4509SOL    HW114426   4.722   2.828   2.026
 4509SOL    HW214427   4.837   2.744   1.947
 4510SOL     OW14428   4.294   1.622   4.355
 4510SOL    HW114429   4.308   1.675   4.439
 4510SOL    HW214430   4.335   1.532   4.365
 4511SOL     OW14431   0.224   4.347   0.749
 4511SOL    HW114432   0.245   4.251   0.733
 4511SOL    HW214433   0.168   4.381   0.673
 4512SOL     OW14434   3.333   2.990   5.475
 4512SOL    HW114435   3.405   3.051   5.506
 4512SOL    HW214436   3.352   2.897   5.508
 4513SOL     OW14437   0.971   6.499   0.456
 4513SOL    HW114438   1.067   6.473   0.452
 4513SOL    HW214439   0.924   6.465   0.374
 4514SOL     OW14440   3.077   4.569   6.608
 4514SOL    HW114441   3.013   4.548   6.535
 4514SOL    HW214442   3.140   4.493   6.621
 4515SOL     OW14443   5.028   0.575   6.399
 4515SOL    HW114444   4.955   0.566   6.332
 4515SOL    HW214445   5.098   0.636   6.363
 4516SOL     OW14446   3.207   1.857   4.856
 4516SOL    HW114447   3.252   1.936   4.898
 4516SOL    HW214448   3.270   1.814   4.791
 4517SOL     OW14449   3.694   1.153   5.529
 4517SOL    HW114450   3.743   1.080   5.481
 4517SOL    HW214451   3.703   1.140   5.628
 4518SOL     OW14452   1.402   6.846   1.225
 4518SOL    HW114453   1.446   6.924   1.179
 4518SOL    HW214454   1.386   6.773   1.159
 4519SOL     OW14455   4.992   6.896   7.004
 4519SOL    HW114456   4.969   6.993   6.996
 4519SOL    HW214457   5.026   6.877   0.072
 4520SOL     OW14458   4.653   5.705   4.872
 4520SOL    HW114459   4.717   5.779   4.854
 4520SOL    HW214460   4.570   5.719   4.818
 4521SOL     OW14461   4.180   2.282   4.451
 4521SOL    HW114462   4.121   2.291   4.370
 4521SOL    HW214463   4.266   2.331   4.435
 4522SOL     OW14464   4.976   4.468   3.145
 4522SOL    HW114465   4.927   4.412   3.211
 4522SOL    HW214466   4.938   4.453   3.053
 4523SOL     OW14467   0.125   3.479   5.520
 4523SOL    HW114468   0.063   3.479   5.599
 4523SOL    HW214469   0.104   3.558   5.462
 4524SOL     OW14470   0.985   3.529   3.093
 4524SOL    HW114471   1.044   3.580   3.031
 4524SOL    HW214472   1.011   3.547   3.188
 4525SOL     OW14473   2.855   2.093   4.998
 4525SOL    HW114474   2.947   2.117   4.967
 4525SOL    HW214475   2.803   2.177   5.018
 4526SOL     OW14476   0.393   0.347   5.762
 4526SOL    HW114477   0.312   0.313   5.808
 4526SOL    HW214478   0.369   0.425   5.704
 4527SOL     OW14479   6.842   0.680   2.748
 4527SOL    HW114480   6.817   0.627   2.667
 4527SOL    HW214481   6.926   0.642   2.788
 4528SOL     OW14482   4.018   0.963   5.181
 4528SOL    HW114483   3.997   0.871   5.214
 4528SOL    HW214484   4.014   0.964   5.081
 4529SOL     OW14485   2.497   1.155   4.275
 4529SOL    HW114486   2.480   1.157   4.176
 4529SOL    HW214487   2.417   1.118   4.322
 4530SOL     OW14488   3.639   5.205   6.045
 4530SOL    HW114489   3.597   5.173   6.130
 4530SOL    HW214490   3.592   5.287   6.014
 4531SOL     OW14491   0.884   5.653   5.935
 4531SOL    HW114492   0.868   5.582   6.002
 4531SOL    HW214493   0.918   5.613   5.850
 4532SOL     OW14494   5.762   0.400   2.793
 4532SOL    HW114495   5.722   0.407   2.885
 4532SOL    HW214496   5.773   0.491   2.755
 4533SOL     OW14497   2.720   0.423   1.723
 4533SOL    HW114498   2.781   0.348   1.748
 4533SOL    HW214499   2.754   0.468   1.640
 4534SOL     OW14500   4.405   1.309   3.526
 4534SOL    HW114501   4.416   1.327   3.624
 4534SOL    HW214502   4.483   1.258   3.493
 4535SOL     OW14503   2.693   0.894   1.097
 4535SOL    HW114504   2.632   0.961   1.140
 4535SOL    HW214505   2.784   0.933   1.090
 4536SOL     OW14506   2.960   1.212   5.660
 4536SOL    HW114507   2.866   1.192   5.687
 4536SOL    HW214508   2.973   1.311   5.653
 4537SOL     OW14509   3.233   3.228   3.806
 4537SOL    HW114510   3.261   3.304   3.865
 4537SOL    HW214511   3.160   3.176   3.851
 4538SOL     OW14512   0.114   2.244   0.713
 4538SOL    HW114513   0.205   2.216   0.683
 4538SOL    HW214514   0.053   2.250   0.634
 4539SOL     OW14515   1.975   5.995   5.381
 4539SOL    HW114516   1.916   6.025   5.306
 4539SOL    HW214517   1.985   5.896   5.378
 4540SOL     OW14518   0.476   0.544   0.044
 4540SOL    HW114519   0.414   0.486   0.096
 4540SOL    HW214520   0.534   0.487   7.009
 4541SOL     OW14521   4.594   3.034   5.687
 4541SOL    HW114522   4.649   2.957   5.652
 4541SOL    HW214523   4.500   3.023   5.656
 4542SOL     OW14524   6.608   2.171   0.715
 4542SOL    HW114525   6.688   2.112   0.729
 4542SOL    HW214526   6.527   2.127   0.754
 4543SOL     OW14527   3.581   2.498   0.021
 4543SOL    HW114528   3.499   2.543   0.055
 4543SOL    HW214529   3.643   2.567   7.005
 4544SOL     OW14530   5.576   6.388   0.477
 4544SOL    HW114531   5.487   6.430   0.458
 4544SOL    HW214532   5.564   6.316   0.545
 4545SOL     OW14533   2.174   3.144   4.686
 4545SOL    HW114534   2.184   3.212   4.759
 4545SOL    HW214535   2.201   3.054   4.721
 4546SOL     OW14536   2.924   1.467   6.080
 4546SOL    HW114537   2.981   1.455   5.999
 4546SOL    HW214538   2.828   1.470   6.053
 4547SOL     OW14539   6.578   0.618   6.942
 4547SOL    HW114540   6.493   0.607   6.993
 4547SOL    HW214541   6.656   0.619   7.005
 4548SOL     OW14542   2.528   2.167   2.875
 4548SOL    HW114543   2.536   2.181   2.974
 4548SOL    HW214544   2.462   2.231   2.837
 4549SOL     OW14545   6.301   3.777   4.726
 4549SOL    HW114546   6.393   3.744   4.702
 4549SOL    HW214547   6.237   3.701   4.727
 4550SOL     OW14548   1.513   4.617   3.176
 4550SOL    HW114549   1.524   4.603   3.078
 4550SOL    HW214550   1.426   4.578   3.206
 4551SOL     OW14551   1.370   2.884   5.044
 4551SOL    HW114552   1.424   2.834   5.112
 4551SOL    HW214553   1.411   2.974   5.028
 4552SOL     OW14554   5.696   1.304   1.048
 4552SOL    HW114555   5.736   1.309   0.957
 4552SOL    HW214556   5.631   1.228   1.052
 4553SOL     OW14557   6.550   5.354   6.567
 4553SOL    HW114558   6.534   5.303   6.482
 4553SOL    HW214559   6.623   5.421   6.553
 4554SOL     OW14560   6.439   6.119   3.045
 4554SOL    HW114561   6.484   6.053   2.984
 4554SOL    HW214562   6.462   6.097   3.140
 4555SOL     OW14563   1.818   0.910   6.832
 4555SOL    HW114564   1.773   0.993   6.802
 4555SOL    HW214565   1.752   0.834   6.831
 4556SOL     OW14566   5.961   4.940   4.884
 4556SOL    HW114567   5.924   4.997   4.957
 4556SOL    HW214568   6.030   4.991   4.833
 4557SOL     OW14569   6.634   4.526   2.955
 4557SOL    HW114570   6.607   4.508   2.861
 4557SOL    HW214571   6.650   4.624   2.968
 4558SOL     OW14572   0.423   3.334   5.484
 4558SOL    HW114573   0.409   3.347   5.386
 4558SOL    HW214574   0.343   3.290   5.524
 4559SOL     OW14575   0.014   2.768   2.908
 4559SOL    HW114576   0.020   2.781   3.006
 4559SOL    HW214577   7.009   2.674   2.888
 4560SOL     OW14578   6.125   4.264   2.678
 4560SOL    HW114579   6.093   4.316   2.757
 4560SOL    HW214580   6.223   4.281   2.665
 4561SOL     OW14581   3.941   2.192   4.223
 4561SOL    HW114582   3.865   2.197   4.288
 4561SOL    HW214583   3.931   2.109   4.167
 4562SOL     OW14584   3.253   1.274   1.357
 4562SOL    HW114585   3.214   1.202   1.415
 4562SOL    HW214586   3.352   1.264   1.355
 4563SOL     OW14587   0.798   4.093   1.995
 4563SOL    HW114588   0.739   4.013   1.991
 4563SOL    HW214589   0.744   4.175   1.982
 4564SOL     OW14590   1.183   4.037   2.221
 4564SOL    HW114591   1.261   4.091   2.187
 4564SOL    HW214592   1.207   3.940   2.220
 4565SOL     OW14593   2.296   5.690   6.066
 4565SOL    HW114594   2.307   5.771   6.008
 4565SOL    HW214595   2.201   5.683   6.097
 4566SOL     OW14596   6.055   5.077   2.586
 4566SOL    HW114597   6.078   5.107   2.494
 4566SOL    HW214598   6.075   4.980   2.596
 4567SOL     OW14599   0.287   0.453   6.617
 4567SOL    HW114600   0.331   0.419   6.700
 4567SOL    HW214601   0.331   0.413   6.537
 4568SOL     OW14602   1.230   5.829   3.671
 4568SOL    HW114603   1.229   5.729   3.668
 4568SOL    HW214604   1.277   5.865   3.591
 4569SOL     OW14605   2.247   0.834   3.413
 4569SOL    HW114606   2.274   0.903   3.346
 4569SOL    HW214607   2.147   0.833   3.421
 4570SOL     OW14608   5.591   6.001   2.113
 4570SOL    HW114609   5.510   5.976   2.059
 4570SOL    HW214610   5.673   5.982   2.059
 4571SOL     OW14611   3.105   3.290   6.522
 4571SOL    HW114612   3.076   3.385   6.536
 4571SOL    HW214613   3.203   3.289   6.501
 4572SOL     OW14614   2.980   3.412   1.702
 4572SOL    HW114615   2.911   3.380   1.637
 4572SOL    HW214616   3.048   3.340   1.717
 4573SOL     OW14617   2.396   5.350   1.491
 4573SOL    HW114618   2.378   5.364   1.589
 4573SOL    HW214619   2.326   5.289   1.453
 4574SOL     OW14620   5.149   1.345   1.388
 4574SOL    HW114621   5.150   1.246   1.384
 4574SOL    HW214622   5.055   1.377   1.396
 4575SOL     OW14623   0.330   6.875   5.083
 4575SOL    HW114624   0.350   6.854   4.987
 4575SOL    HW214625   0.231   6.884   5.095
 4576SOL     OW14626   2.742   4.911   5.099
 4576SOL    HW114627   2.774   4.819   5.079
 4576SOL    HW214628   2.771   4.937   5.191
 4577SOL     OW14629   1.629   1.752   2.128
 4577SOL    HW114630   1.569   1.736   2.207
 4577SOL    HW214631   1.594   1.829   2.075
 4578SOL     OW14632   1.736   1.177   2.487
 4578SOL    HW114633   1.694   1.091   2.456
 4578SOL    HW214634   1.716   1.249   2.421
 4579SOL     OW14635   4.586   1.513   2.582
 4579SOL    HW114636   4.565   1.598   2.631
 4579SOL    HW214637   4.589   1.437   2.647
 4580SOL     OW14638   6.676   2.252   0.453
 4580SOL    HW114639   6.636   2.260   0.544
 4580SOL    HW214640   6.638   2.323   0.394
 4581SOL     OW14641   3.552   0.532   1.178
 4581SOL    HW114642   3.570   0.548   1.275
 4581SOL    HW214643   3.521   0.617   1.135
 4582SOL     OW14644   6.035   1.781   3.707
 4582SOL    HW114645   6.120   1.831   3.728
 4582SOL    HW214646   6.030   1.765   3.608
 4583SOL     OW14647   1.045   0.198   6.729
 4583SOL    HW114648   1.060   0.100   6.715
 4583SOL    HW214649   1.070   0.248   6.646
 4584SOL     OW14650   1.481   0.503   5.058
 4584SOL    HW114651   1.426   0.566   5.003
 4584SOL    HW214652   1.425   0.468   5.133
 4585SOL     OW14653   1.696   3.709   3.641
 4585SOL    HW114654   1.792   3.734   3.625
 4585SOL    HW214655   1.667   3.645   3.570
 4586SOL     OW14656   5.481   4.771   6.477
 4586SOL    HW114657   5.401   4.827   6.499
 4586SOL    HW214658   5.558   4.799   6.534
 4587SOL     OW14659   2.996   3.239   4.918
 4587SOL    HW114660   2.915   3.235   4.976
 4587SOL    HW214661   3.054   3.159   4.935
 4588SOL     OW14662   3.262   3.831   5.849
 4588SOL    HW114663   3.249   3.853   5.752
 4588SOL    HW214664   3.314   3.746   5.857
 4589SOL     OW14665   6.344   6.953   2.813
 4589SOL    HW114666   6.338   6.855   2.833
 4589SOL    HW214667   6.273   7.002   2.864
 4590SOL     OW14668   3.427   5.836   1.139
 4590SOL    HW114669   3.366   5.774   1.089
 4590SOL    HW214670   3.382   5.866   1.223
 4591SOL     OW14671   1.914   0.505   5.614
 4591SOL    HW114672   1.860   0.589   5.603
 4591SOL    HW214673   1.986   0.522   5.681
 4592SOL     OW14674   1.959   1.612   3.782
 4592SOL    HW114675   2.050   1.582   3.752
 4592SOL    HW214676   1.931   1.557   3.861
 4593SOL     OW14677   1.734   6.033   4.509
 4593SOL    HW114678   1.718   5.936   4.487
 4593SOL    HW214679   1.674   6.090   4.453
 4594SOL     OW14680   1.898   0.890   3.264
 4594SOL    HW114681   1.888   0.932   3.173
 4594SOL    HW214682   1.936   0.957   3.327
 4595SOL     OW14683   5.440   2.001   6.836
 4595SOL    HW114684   5.538   2.009   6.854
 4595SOL    HW214685   5.416   1.904   6.831
 4596SOL     OW14686   0.342   1.105   2.599
 4596SOL    HW114687   0.357   1.044   2.521
 4596SOL    HW214688   0.272   1.173   2.576
 4597SOL     OW14689   2.828   6.518   0.150
 4597SOL    HW114690   2.773   6.509   0.067
 4597SOL    HW214691   2.865   6.611   0.155
 4598SOL     OW14692   1.838   4.891   0.341
 4598SOL    HW114693   1.851   4.837   0.258
 4598SOL    HW214694   1.757   4.949   0.330
 4599SOL     OW14695   2.423   5.670   2.270
 4599SOL    HW114696   2.439   5.579   2.232
 4599SOL    HW214697   2.511   5.718   2.278
 4600SOL     OW14698   0.175   6.734   5.884
 4600SOL    HW114699   0.211   6.737   5.977
 4600SOL    HW214700   0.122   6.816   5.866
 4601SOL     OW14701   1.918   1.190   4.737
 4601SOL    HW114702   1.905   1.101   4.692
 4601SOL    HW214703   1.829   1.230   4.757
 4602SOL     OW14704   2.660   2.166   6.529
 4602SOL    HW114705   2.624   2.233   6.594
 4602SOL    HW214706   2.584   2.127   6.477
 4603SOL     OW14707   4.887   0.188   0.692
 4603SOL    HW114708   4.928   0.272   0.728
 4603SOL    HW214709   4.818   0.211   0.624
 4604SOL     OW14710   5.557   0.123   5.672
 4604SOL    HW114711   5.511   0.146   5.586
 4604SOL    HW214712   5.613   0.200   5.701
 4605SOL     OW14713   3.611   0.436   2.019
 4605SOL    HW114714   3.690   0.453   2.078
 4605SOL    HW214715   3.573   0.346   2.039
 4606SOL     OW14716   6.780   6.596   4.478
 4606SOL    HW114717   6.866   6.602   4.426
 4606SOL    HW214718   6.801   6.593   4.576
 4607SOL     OW14719   2.100   2.742   1.289
 4607SOL    HW114720   2.192   2.713   1.264
 4607SOL    HW214721   2.033   2.686   1.239
 4608SOL     OW14722   6.702   3.043   4.363
 4608SOL    HW114723   6.791   3.089   4.354
 4608SOL    HW214724   6.632   3.095   4.314
 4609SOL     OW14725   4.379   6.220   6.779
 4609SOL    HW114726   4.412   6.139   6.827
 4609SOL    HW214727   4.360   6.292   6.846
 4610SOL     OW14728   5.313   3.384   0.302
 4610SOL    HW114729   5.234   3.437   0.333
 4610SOL    HW214730   5.374   3.443   0.249
 4611SOL     OW14731   1.071   0.835   6.275
 4611SOL    HW114732   1.163   0.872   6.264
 4611SOL    HW214733   1.052   0.770   6.200
 4612SOL     OW14734   2.364   0.923   1.435
 4612SOL    HW114735   2.420   0.842   1.452
 4612SOL    HW214736   2.276   0.894   1.396
 4613SOL     OW14737   1.709   4.559   1.294
 4613SOL    HW114738   1.690   4.472   1.340
 4613SOL    HW214739   1.799   4.554   1.251
 4614SOL     OW14740   6.466   4.022   4.645
 4614SOL    HW114741   6.388   4.083   4.636
 4614SOL    HW214742   6.476   3.967   4.562
 4615SOL     OW14743   1.213   2.196   0.051
 4615SOL    HW114744   1.236   2.292   0.035
 4615SOL    HW214745   1.118   2.179   0.024
 4616SOL     OW14746   6.447   2.712   6.170
 4616SOL    HW114747   6.439   2.640   6.239
 4616SOL    HW214748   6.359   2.726   6.125
 4617SOL     OW14749   0.014   2.997   3.292
 4617SOL    HW114750   6.943   2.990   3.260
 4617SOL    HW214751   0.021   2.960   3.385
 4618SOL     OW14752   1.820   4.597   5.498
 4618SOL    HW114753   1.785   4.511   5.462
 4618SOL    HW214754   1.781   4.615   5.588
 4619SOL     OW14755   3.895   6.434   5.784
 4619SOL    HW114756   3.889   6.338   5.813
 4619SOL    HW214757   3.859   6.443   5.692
 4620SOL     OW14758   0.108   4.533   2.166
 4620SOL    HW114759   0.103   4.467   2.240
 4620SOL    HW214760   0.201   4.537   2.130
 4621SOL     OW14761   4.111   0.432   3.044
 4621SOL    HW114762   4.092   0.419   3.141
 4621SOL    HW214763   4.170   0.357   3.012
 4622SOL     OW14764   5.309   5.898   1.942
 4622SOL    HW114765   5.340   5.815   1.895
 4622SOL    HW214766   5.282   5.967   1.874
 4623SOL     OW14767   2.945   4.824   1.017
 4623SOL    HW114768   2.856   4.780   1.030
 4623SOL    HW214769   2.947   4.910   1.069
 4624SOL     OW14770   4.526   0.848   2.157
 4624SOL    HW114771   4.539   0.758   2.198
 4624SOL    HW214772   4.531   0.840   2.058
 4625SOL     OW14773   1.363   5.932   1.961
 4625SOL    HW114774   1.317   5.866   2.021
 4625SOL    HW214775   1.455   5.899   1.939
 4626SOL     OW14776   4.143   3.851   1.541
 4626SOL    HW114777   4.218   3.914   1.562
 4626SOL    HW214778   4.179   3.757   1.535
 4627SOL     OW14779   5.777   6.852   4.908
 4627SOL    HW114780   5.840   6.906   4.851
 4627SOL    HW214781   5.825   6.773   4.945
 4628SOL     OW14782   5.350   5.187   4.317
 4628SOL    HW114783   5.348   5.088   4.334
 4628SOL    HW214784   5.262   5.215   4.278
 4629SOL     OW14785   2.348   6.193   6.554
 4629SOL    HW114786   2.296   6.249   6.619
 4629SOL    HW214787   2.286   6.157   6.484
 4630SOL     OW14788   1.800   3.350   2.273
 4630SOL    HW114789   1.783   3.392   2.184
 4630SOL    HW214790   1.886   3.300   2.271
 4631SOL     OW14791   6.711   0.884   3.449
 4631SOL    HW114792   6.750   0.806   3.399
 4631SOL    HW214793   6.726   0.871   3.547
 4632SOL     OW14794   3.337   4.904   2.134
 4632SOL    HW114795   3.434   4.901   2.161
 4632SOL    HW214796   3.280   4.897   2.216
 4633SOL     OW14797   5.346   1.418   4.281
 4633SOL    HW114798   5.422   1.473   4.315
 4633SOL    HW214799   5.356   1.324   4.315
 4634SOL     OW14800   2.945   3.607   4.895
 4634SOL    HW114801   2.994   3.583   4.979
 4634SOL    HW214802   2.876   3.677   4.917
 4635SOL     OW14803   5.071   6.742   1.503
 4635SOL    HW114804   5.017   6.669   1.547
 4635SOL    HW214805   5.053   6.742   1.405
 4636SOL     OW14806   2.025   5.513   0.541
 4636SOL    HW114807   2.094   5.579   0.513
 4636SOL    HW214808   1.940   5.561   0.564
 4637SOL     OW14809   2.821   1.243   2.722
 4637SOL    HW114810   2.835   1.244   2.623
 4637SOL    HW214811   2.834   1.151   2.757
 4638SOL     OW14812   3.364   4.665   0.110
 4638SOL    HW114813   3.389   4.574   0.143
 4638SOL    HW214814   3.390   4.675   0.014
 4639SOL     OW14815   2.740   2.155   1.026
 4639SOL    HW114816   2.702   2.219   1.092
 4639SOL    HW214817   2.802   2.203   0.964
 4640SOL     OW14818   6.412   2.869   6.647
 4640SOL    HW114819   6.312   2.871   6.655
 4640SOL    HW214820   6.453   2.869   6.738
 4641SOL     OW14821   0.998   5.520   3.993
 4641SOL    HW114822   1.071   5.515   3.925
 4641SOL    HW214823   1.037   5.510   4.085
 4642SOL     OW14824   0.016   1.306   3.790
 4642SOL    HW114825   7.015   1.397   3.756
 4642SOL    HW214826   0.102   1.276   3.747
 4643SOL     OW14827   0.328   1.965   0.199
 4643SOL    HW114828   0.274   1.979   0.282
 4643SOL    HW214829   0.309   1.874   0.162
 4644SOL     OW14830   1.265   1.101   0.315
 4644SOL    HW114831   1.349   1.122   0.366
 4644SOL    HW214832   1.208   1.041   0.371
 4645SOL     OW14833   1.002   1.588   3.977
 4645SOL    HW114834   1.062   1.644   3.920
 4645SOL    HW214835   0.916   1.572   3.928
 4646SOL     OW14836   2.430   5.351   3.892
 4646SOL    HW114837   2.406   5.328   3.797
 4646SOL    HW214838   2.391   5.283   3.954
 4647SOL     OW14839   1.278   6.300   2.321
 4647SOL    HW114840   1.319   6.272   2.234
 4647SOL    HW214841   1.347   6.343   2.378
 4648SOL     OW14842   2.813   1.860   4.844
 4648SOL    HW114843   2.797   1.915   4.762
 4648SOL    HW214844   2.835   1.920   4.921
 4649SOL     OW14845   6.408   0.858   0.133
 4649SOL    HW114846   6.391   0.885   0.227
 4649SOL    HW214847   6.388   0.761   0.121
 4650SOL     OW14848   5.528   5.938   1.403
 4650SOL    HW114849   5.495   5.844   1.391
 4650SOL    HW214850   5.594   5.940   1.478
 4651SOL     OW14851   6.617   3.732   6.429
 4651SOL    HW114852   6.610   3.832   6.431
 4651SOL    HW214853   6.580   3.694   6.514
 4652SOL     OW14854   0.250   6.511   4.939
 4652SOL    HW114855   0.190   6.528   5.017
 4652SOL    HW214856   0.290   6.420   4.947
 4653SOL     OW14857   5.609   5.522   0.759
 4653SOL    HW114858   5.589   5.441   0.704
 4653SOL    HW214859   5.532   5.585   0.754
 4654SOL     OW14860   0.540   6.920   5.265
 4654SOL    HW114861   0.480   6.953   5.193
 4654SOL    HW214862   0.486   6.869   5.333
 4655SOL     OW14863   4.377   2.495   1.127
 4655SOL    HW114864   4.446   2.521   1.194
 4655SOL    HW214865   4.286   2.515   1.163
 4656SOL     OW14866   0.667   1.127   2.169
 4656SOL    HW114867   0.667   1.185   2.087
 4656SOL    HW214868   0.609   1.048   2.153
 4657SOL     OW14869   5.348   0.203   1.898
 4657SOL    HW114870   5.308   0.146   1.827
 4657SOL    HW214871   5.342   0.156   1.986
 4658SOL     OW14872   1.694   2.539   5.908
 4658SOL    HW114873   1.604   2.576   5.884
 4658SOL    HW214874   1.731   2.490   5.830
 4659SOL     OW14875   2.423   4.629   0.546
 4659SOL    HW114876   2.495   4.668   0.489
 4659SOL    HW214877   2.374   4.559   0.495
 4660SOL     OW14878   1.119   6.038   4.430
 4660SOL    HW114879   1.041   6.067   4.486
 4660SOL    HW214880   1.179   5.980   4.485
 4661SOL     OW14881   0.878   2.548   5.323
 4661SOL    HW114882   0.930   2.627   5.289
 4661SOL    HW214883   0.928   2.504   5.397
 4662SOL     OW14884   3.035   6.429   5.285
 4662SOL    HW114885   3.012   6.409   5.190
 4662SOL    HW214886   2.998   6.519   5.310
 4663SOL     OW14887   1.505   0.244   0.150
 4663SOL    HW114888   1.416   0.249   0.106
 4663SOL    HW214889   1.543   0.151   0.139
 4664SOL     OW14890   6.989   6.587   6.817
 4664SOL    HW114891   6.906   6.557   6.772
 4664SOL    HW214892   7.006   6.684   6.796
 4665SOL     OW14893   2.315   0.155   4.406
 4665SOL    HW114894   2.399   0.106   4.387
 4665SOL    HW214895   2.325   0.251   4.379
 4666SOL     OW14896   2.666   2.032   5.196
 4666SOL    HW114897   2.595   2.099   5.175
 4666SOL    HW214898   2.754   2.065   5.161
 4667SOL     OW14899   6.529   3.860   1.698
 4667SOL    HW114900   6.625   3.886   1.704
 4667SOL    HW214901   6.479   3.899   1.775
 4668SOL     OW14902   4.318   1.997   3.898
 4668SOL    HW114903   4.330   2.029   3.992
 4668SOL    HW214904   4.282   2.072   3.842
 4669SOL     OW14905   5.719   6.803   6.460
 4669SOL    HW114906   5.795   6.742   6.438
 4669SOL    HW214907   5.683   6.842   6.375
 4670SOL     OW14908   0.381   2.622   0.763
 4670SOL    HW114909   0.477   2.649   0.759
 4670SOL    HW214910   0.325   2.688   0.713
 4671SOL     OW14911   0.738   3.740   1.059
 4671SOL    HW114912   0.700   3.658   1.018
 4671SOL    HW214913   0.759   3.723   1.156
 4672SOL     OW14914   2.670   3.785   6.683
 4672SOL    HW114915   2.767   3.808   6.680
 4672SOL    HW214916   2.618   3.865   6.710
 4673SOL     OW14917   6.049   0.773   0.079
 4673SOL    HW114918   5.965   0.826   0.062
 4673SOL    HW214919   6.107   0.776   7.020
 4674SOL     OW14920   1.471   1.979   0.833
 4674SOL    HW114921   1.484   1.932   0.746
 4674SOL    HW214922   1.374   1.973   0.860
 4675SOL     OW14923   2.214   6.097   6.889
 4675SOL    HW114924   2.268   6.047   6.821
 4675SOL    HW214925   2.209   6.194   6.863
 4676SOL     OW14926   0.273   6.153   4.052
 4676SOL    HW114927   0.341   6.119   4.118
 4676SOL    HW214928   0.225   6.231   4.092
 4677SOL     OW14929   4.664   0.304   6.413
 4677SOL    HW114930   4.677   0.384   6.354
 4677SOL    HW214931   4.609   0.235   6.365
 4678SOL     OW14932   2.073   4.524   6.654
 4678SOL    HW114933   2.171   4.544   6.655
 4678SOL    HW214934   2.025   4.594   6.601
 4679SOL     OW14935   3.069   0.865   5.839
 4679SOL    HW114936   3.166   0.856   5.819
 4679SOL    HW214937   3.017   0.864   5.753
 4680SOL     OW14938   1.694   4.751   0.558
 4680SOL    HW114939   1.735   4.787   0.474
 4680SOL    HW214940   1.602   4.717   0.538
 4681SOL     OW14941   0.819   5.693   5.108
 4681SOL    HW114942   0.753   5.766   5.122
 4681SOL    HW214943   0.865   5.672   5.194
 4682SOL     OW14944   4.027   6.553   0.673
 4682SOL    HW114945   4.096   6.560   0.745
 4682SOL    HW214946   3.936   6.561   0.712
 4683SOL     OW14947   6.228   4.554   3.742
 4683SOL    HW114948   6.154   4.553   3.809
 4683SOL    HW214949   6.239   4.462   3.703
 4684SOL     OW14950   1.664   0.732   4.505
 4684SOL    HW114951   1.631   0.772   4.591
 4684SOL    HW214952   1.623   0.642   4.492
 4685SOL     OW14953   5.328   4.855   4.857
 4685SOL    HW114954   5.341   4.798   4.777
 4685SOL    HW214955   5.301   4.947   4.829
 4686SOL     OW14956   3.849   5.952   0.398
 4686SOL    HW114957   3.827   5.872   0.342
 4686SOL    HW214958   3.868   6.030   0.339
 4687SOL     OW14959   6.032   5.981   4.707
 4687SOL    HW114960   6.044   6.061   4.648
 4687SOL    HW214961   6.016   5.900   4.650
 4688SOL     OW14962   0.713   2.141   6.495
 4688SOL    HW114963   0.649   2.110   6.425
 4688SOL    HW214964   0.775   2.066   6.520
 4689SOL     OW14965   1.166   5.817   5.123
 4689SOL    HW114966   1.188   5.864   5.038
 4689SOL    HW214967   1.143   5.721   5.104
 4690SOL     OW14968   1.658   2.462   6.897
 4690SOL    HW114969   1.598   2.383   6.887
 4690SOL    HW214970   1.700   2.461   6.988
 4691SOL     OW14971   2.643   5.672   0.833
 4691SOL    HW114972   2.703   5.682   0.912
 4691SOL    HW214973   2.698   5.663   0.750
 4692SOL     OW14974   0.318   5.285   3.273
 4692SOL    HW114975   0.347   5.300   3.179
 4692SOL    HW214976   0.326   5.371   3.324
 4693SOL     OW14977   0.471   1.414   3.500
 4693SOL    HW114978   0.512   1.361   3.425
 4693SOL    HW214979   0.403   1.358   3.547
 4694SOL     OW14980   1.083   2.121   6.206
 4694SOL    HW114981   1.014   2.096   6.137
 4694SOL    HW214982   1.077   2.057   6.283
 4695SOL     OW14983   3.355   3.276   2.036
 4695SOL    HW114984   3.409   3.328   2.102
 4695SOL    HW214985   3.408   3.261   1.953
 4696SOL     OW14986   0.038   3.156   6.637
 4696SOL    HW114987   6.971   3.112   6.641
 4696SOL    HW214988   0.067   3.165   6.542
 4697SOL     OW14989   0.867   5.209   0.028
 4697SOL    HW114990   0.856   5.121   7.006
 4697SOL    HW214991   0.777   5.249   0.045
 4698SOL     OW14992   5.861   3.130   1.197
 4698SOL    HW114993   5.831   3.218   1.161
 4698SOL    HW214994   5.920   3.085   1.130
 4699SOL     OW14995   0.235   0.324   3.379
 4699SOL    HW114996   0.186   0.268   3.447
 4699SOL    HW214997   0.330   0.335   3.408
 4700SOL     OW14998   4.750   0.815   1.043
 4700SOL    HW114999   4.688   0.859   0.979
 4700SOL    HW215000   4.724   0.719   1.055
 4701SOL     OW15001   0.799   0.755   0.984
 4701SOL    HW115002   0.854   0.752   1.068
 4701SOL    HW215003   0.725   0.820   0.996
 4702SOL     OW15004   3.081   3.945   0.446
 4702SOL    HW115005   3.086   4.045   0.448
 4702SOL    HW215006   3.099   3.908   0.537
 4703SOL     OW15007   2.090   0.559   1.821
 4703SOL    HW115008   2.155   0.536   1.893
 4703SOL    HW215009   2.073   0.479   1.764
 4704SOL     OW15010   5.202   6.803   0.551
 4704SOL    HW115011   5.145   6.876   0.514
 4704SOL    HW215012   5.291   6.840   0.577
 4705SOL     OW15013   3.397   3.710   4.453
 4705SOL    HW115014   3.442   3.622   4.441
 4705SOL    HW215015   3.439   3.778   4.393
 4706SOL     OW15016   3.728   5.694   0.329
 4706SOL    HW115017   3.728   5.643   0.243
 4706SOL    HW215018   3.769   5.639   0.401
 4707SOL     OW15019   2.533   5.855   1.244
 4707SOL    HW115020   2.481   5.874   1.161
 4707SOL    HW215021   2.631   5.849   1.222
 4708SOL     OW15022   2.402   2.651   2.087
 4708SOL    HW115023   2.418   2.715   2.162
 4708SOL    HW215024   2.306   2.655   2.059
 4709SOL     OW15025   3.951   4.482   5.937
 4709SOL    HW115026   3.852   4.472   5.926
 4709SOL    HW215027   3.971   4.512   6.030
 4710SOL     OW15028   4.978   1.648   0.466
 4710SOL    HW115029   5.066   1.604   0.448
 4710SOL    HW215030   4.975   1.737   0.421
 4711SOL     OW15031   3.393   0.503   2.723
 4711SOL    HW115032   3.298   0.472   2.725
 4711SOL    HW215033   3.432   0.483   2.633
 4712SOL     OW15034   1.899   4.885   0.722
 4712SOL    HW115035   1.978   4.905   0.665
 4712SOL    HW215036   1.821   4.861   0.663
 4713SOL     OW15037   2.049   5.470   1.020
 4713SOL    HW115038   1.951   5.467   1.038
 4713SOL    HW215039   2.069   5.430   0.931
 4714SOL     OW15040   2.985   2.506   0.955
 4714SOL    HW115041   3.067   2.564   0.953
 4714SOL    HW215042   3.013   2.410   0.961
 4715SOL     OW15043   6.674   3.297   3.613
 4715SOL    HW115044   6.711   3.388   3.628
 4715SOL    HW215045   6.638   3.260   3.699
 4716SOL     OW15046   3.444   6.378   0.854
 4716SOL    HW115047   3.463   6.418   0.765
 4716SOL    HW215048   3.432   6.279   0.844
 4717SOL     OW15049   1.863   5.845   3.749
 4717SOL    HW115050   1.898   5.767   3.696
 4717SOL    HW215051   1.804   5.901   3.690
 4718SOL     OW15052   5.853   1.299   5.772
 4718SOL    HW115053   5.950   1.301   5.748
 4718SOL    HW215054   5.798   1.285   5.690
 4719SOL     OW15055   4.186   2.773   0.990
 4719SOL    HW115056   4.222   2.709   1.057
 4719SOL    HW215057   4.261   2.826   0.950
 4720SOL     OW15058   2.752   0.438   4.766
 4720SOL    HW115059   2.722   0.523   4.810
 4720SOL    HW215060   2.673   0.391   4.727
 4721SOL     OW15061   1.466   1.933   1.574
 4721SOL    HW115062   1.419   1.998   1.513
 4721SOL    HW215063   1.565   1.941   1.561
 4722SOL     OW15064   2.244   0.335   0.594
 4722SOL    HW115065   2.342   0.327   0.610
 4722SOL    HW215066   2.222   0.298   0.503
 4723SOL     OW15067   2.441   6.548   6.842
 4723SOL    HW115068   2.469   6.582   6.931
 4723SOL    HW215069   2.504   6.581   6.772
 4724SOL     OW15070   4.285   6.113   1.562
 4724SOL    HW115071   4.361   6.177   1.548
 4724SOL    HW215072   4.305   6.026   1.516
 4725SOL     OW15073   5.205   6.335   3.204
 4725SOL    HW115074   5.142   6.402   3.243
 4725SOL    HW215075   5.180   6.243   3.234
 4726SOL     OW15076   0.236   5.085   6.544
 4726SOL    HW115077   0.188   5.131   6.469
 4726SOL    HW215078   0.292   5.011   6.506
 4727SOL     OW15079   0.610   6.043   0.200
 4727SOL    HW115080   0.680   6.092   0.148
 4727SOL    HW215081   0.521   6.057   0.156
 4728SOL     OW15082   6.983   0.812   0.016
 4728SOL    HW115083   6.977   0.815   6.940
 4728SOL    HW215084   0.054   0.830   0.044
 4729SOL     OW15085   3.510   0.823   1.484
 4729SOL    HW115086   3.474   0.842   1.575
 4729SOL    HW215087   3.598   0.776   1.492
 4730SOL     OW15088   1.823   0.263   5.655
 4730SOL    HW115089   1.886   0.209   5.710
 4730SOL    HW215090   1.861   0.355   5.641
 4731SOL     OW15091   5.414   1.368   5.143
 4731SOL    HW115092   5.416   1.285   5.199
 4731SOL    HW215093   5.501   1.415   5.150
 4732SOL     OW15094   0.139   2.023   0.402
 4732SOL    HW115095   0.059   2.075   0.433
 4732SOL    HW215096   0.126   1.926   0.422
 4733SOL     OW15097   6.797   2.828   3.455
 4733SOL    HW115098   6.790   2.918   3.411
 4733SOL    HW215099   6.872   2.829   3.521
 4734SOL     OW15100   4.175   4.304   6.437
 4734SOL    HW115101   4.226   4.303   6.351
 4734SOL    HW215102   4.127   4.217   6.448
 4735SOL     OW15103   1.139   5.077   3.346
 4735SOL    HW115104   1.120   5.161   3.297
 4735SOL    HW215105   1.174   5.008   3.283
 4736SOL     OW15106   1.092   0.631   0.783
 4736SOL    HW115107   1.046   0.718   0.799
 4736SOL    HW215108   1.117   0.590   0.871
 4737SOL     OW15109   2.416   5.072   1.676
 4737SOL    HW115110   2.468   5.031   1.751
 4737SOL    HW215111   2.415   5.171   1.686
 4738SOL     OW15112   6.678   6.230   2.143
 4738SOL    HW115113   6.680   6.324   2.177
 4738SOL    HW215114   6.696   6.167   2.219
 4739SOL     OW15115   4.423   0.624   1.136
 4739SOL    HW115116   4.442   0.716   1.171
 4739SOL    HW215117   4.510   0.576   1.120
 4740SOL     OW15118   0.698   2.009   3.545
 4740SOL    HW115119   0.754   1.963   3.475
 4740SOL    HW215120   0.646   2.083   3.503
 4741SOL     OW15121   4.109   3.824   1.862
 4741SOL    HW115122   4.178   3.842   1.792
 4741SOL    HW215123   4.033   3.888   1.852
 4742SOL     OW15124   3.272   6.822   0.497
 4742SOL    HW115125   3.339   6.868   0.438
 4742SOL    HW215126   3.182   6.862   0.483
 4743SOL     OW15127   2.396   5.028   1.064
 4743SOL    HW115128   2.462   5.088   1.018
 4743SOL    HW215129   2.303   5.056   1.040
 4744SOL     OW15130   2.424   5.857   0.675
 4744SOL    HW115131   2.482   5.869   0.756
 4744SOL    HW215132   2.351   5.792   0.696
 4745SOL     OW15133   0.958   4.517   0.186
 4745SOL    HW115134   0.979   4.530   0.089
 4745SOL    HW215135   0.990   4.427   0.215
 4746SOL     OW15136   4.885   5.291   4.158
 4746SOL    HW115137   4.861   5.261   4.066
 4746SOL    HW215138   4.805   5.285   4.218
 4747SOL     OW15139   1.310   2.046   0.406
 4747SOL    HW115140   1.232   2.039   0.469
 4747SOL    HW215141   1.292   1.993   0.324
 4748SOL     OW15142   1.616   6.716   3.003
 4748SOL    HW115143   1.675   6.794   3.025
 4748SOL    HW215144   1.657   6.633   3.040
 4749SOL     OW15145   2.035   1.347   6.644
 4749SOL    HW115146   2.063   1.277   6.710
 4749SOL    HW215147   1.947   1.386   6.673
 4750SOL     OW15148   4.634   2.759   5.428
 4750SOL    HW115149   4.707   2.788   5.489
 4750SOL    HW215150   4.580   2.838   5.400
 4751SOL     OW15151   4.374   0.645   3.020
 4751SOL    HW115152   4.320   0.575   3.068
 4751SOL    HW215153   4.426   0.698   3.087
 4752SOL     OW15154   4.800   1.647   0.026
 4752SOL    HW115155   4.749   1.570   0.064
 4752SOL    HW215156   4.844   1.619   6.964
 4753SOL     OW15157   3.346   6.031   5.165
 4753SOL    HW115158   3.446   6.037   5.157
 4753SOL    HW215159   3.322   5.951   5.221
 4754SOL     OW15160   4.978   5.104   6.572
 4754SOL    HW115161   4.882   5.080   6.589
 4754SOL    HW215162   4.993   5.112   6.474
 4755SOL     OW15163   1.329   1.157   1.362
 4755SOL    HW115164   1.322   1.157   1.262
 4755SOL    HW215165   1.267   1.087   1.399
 4756SOL     OW15166   5.967   3.905   6.539
 4756SOL    HW115167   6.010   3.992   6.514
 4756SOL    HW215168   5.999   3.877   6.629
 4757SOL     OW15169   2.007   3.823   1.376
 4757SOL    HW115170   2.076   3.895   1.369
 4757SOL    HW215171   1.921   3.856   1.336
 4758SOL     OW15172   3.215   6.145   3.353
 4758SOL    HW115173   3.301   6.168   3.307
 4758SOL    HW215174   3.217   6.179   3.446
 4759SOL     OW15175   0.693   5.323   1.381
 4759SOL    HW115176   0.787   5.356   1.371
 4759SOL    HW215177   0.658   5.295   1.292
 4760SOL     OW15178   1.210   6.227   1.301
 4760SOL    HW115179   1.293   6.281   1.286
 4760SOL    HW215180   1.232   6.130   1.301
 4761SOL     OW15181   6.450   6.350   1.360
 4761SOL    HW115182   6.360   6.345   1.402
 4761SOL    HW215183   6.482   6.258   1.337
 4762SOL     OW15184   1.705   0.387   2.039
 4762SOL    HW115185   1.634   0.423   2.099
 4762SOL    HW215186   1.675   0.299   2.002
 4763SOL     OW15187   5.608   4.712   1.891
 4763SOL    HW115188   5.610   4.741   1.987
 4763SOL    HW215189   5.672   4.636   1.878
 4764SOL     OW15190   4.249   3.074   0.054
 4764SOL    HW115191   4.253   3.102   0.151
 4764SOL    HW215192   4.171   3.118   0.010
 4765SOL     OW15193   3.543   1.783   4.380
 4765SOL    HW115194   3.546   1.731   4.466
 4765SOL    HW215195   3.635   1.791   4.342
 4766SOL     OW15196   0.599   0.140   4.277
 4766SOL    HW115197   0.645   0.200   4.343
 4766SOL    HW215198   0.646   0.146   4.189
 4767SOL     OW15199   1.415   4.521   3.830
 4767SOL    HW115200   1.504   4.531   3.874
 4767SOL    HW215201   1.422   4.547   3.734
 4768SOL     OW15202   4.008   2.762   6.739
 4768SOL    HW115203   4.051   2.687   6.690
 4768SOL    HW215204   4.045   2.767   6.832
 4769SOL     OW15205   2.115   4.883   0.573
 4769SOL    HW115206   2.094   4.797   0.619
 4769SOL    HW215207   2.209   4.911   0.596
 4770SOL     OW15208   0.704   1.776   5.816
 4770SOL    HW115209   0.683   1.678   5.822
 4770SOL    HW215210   0.680   1.810   5.725
 4771SOL     OW15211   2.046   6.405   5.140
 4771SOL    HW115212   2.114   6.350   5.189
 4771SOL    HW215213   2.088   6.442   5.057
 4772SOL     OW15214   2.752   5.213   1.996
 4772SOL    HW115215   2.851   5.219   2.011
 4772SOL    HW215216   2.725   5.280   1.928
 4773SOL     OW15217   2.011   4.966   4.714
 4773SOL    HW115218   2.025   4.937   4.808
 4773SOL    HW215219   2.095   5.009   4.679
 4774SOL     OW15220   1.173   4.004   0.072
 4774SOL    HW115221   1.201   4.100   0.081
 4774SOL    HW215222   1.144   3.987   7.001
 4775SOL     OW15223   6.560   6.045   4.964
 4775SOL    HW115224   6.576   6.103   5.044
 4775SOL    HW215225   6.638   6.052   4.902
 4776SOL     OW15226   0.065   1.257   6.533
 4776SOL    HW115227   6.989   1.266   6.534
 4776SOL    HW215228   0.091   1.170   6.576
 4777SOL     OW15229   0.896   0.083   2.446
 4777SOL    HW115230   0.899   0.045   2.539
 4777SOL    HW215231   0.973   0.145   2.434
 4778SOL     OW15232   0.940   1.480   6.499
 4778SOL    HW115233   1.028   1.510   6.537
 4778SOL    HW215234   0.947   1.474   6.400
 4779SOL     OW15235   5.426   0.220   4.295
 4779SOL    HW115236   5.397   0.308   4.334
 4779SOL    HW215237   5.374   0.146   4.338
 4780SOL     OW15238   6.060   2.881   4.817
 4780SOL    HW115239   6.014   2.794   4.835
 4780SOL    HW215240   6.158   2.870   4.829
 4781SOL     OW15241   2.196   5.843   2.261
 4781SOL    HW115242   2.284   5.805   2.287
 4781SOL    HW215243   2.209   5.911   2.189
 4782SOL     OW15244   6.878   6.527   4.063
 4782SOL    HW115245   6.905   6.604   4.005
 4782SOL    HW215246   6.939   6.523   4.143
 4783SOL     OW15247   6.359   3.713   6.962
 4783SOL    HW115248   6.362   3.684   0.034
 4783SOL    HW215249   6.409   3.799   6.951
 4784SOL     OW15250   5.040   3.132   6.664
 4784SOL    HW115251   5.026   3.037   6.636
 4784SOL    HW215252   5.117   3.136   6.728
 4785SOL     OW15253   0.244   6.545   4.331
 4785SOL    HW115254   0.307   6.524   4.405
 4785SOL    HW215255   0.295   6.551   4.245
 4786SOL     OW15256   1.756   5.967   0.298
 4786SOL    HW115257   1.673   5.913   0.282
 4786SOL    HW215258   1.752   6.007   0.390
 4787SOL     OW15259   3.512   1.197   4.053
 4787SOL    HW115260   3.445   1.227   4.120
 4787SOL    HW215261   3.601   1.239   4.073
 4788SOL     OW15262   6.204   6.370   0.419
 4788SOL    HW115263   6.224   6.399   0.326
 4788SOL    HW215264   6.110   6.334   0.423
 4789SOL     OW15265   5.872   1.244   3.396
 4789SOL    HW115266   5.786   1.207   3.362
 4789SOL    HW215267   5.917   1.177   3.455
 4790SOL     OW15268   6.617   1.806   4.971
 4790SOL    HW115269   6.543   1.868   4.943
 4790SOL    HW215270   6.616   1.725   4.913
 4791SOL     OW15271   6.911   0.769   0.433
 4791SOL    HW115272   6.949   0.680   0.408
 4791SOL    HW215273   6.950   0.799   0.520
 4792SOL     OW15274   2.164   2.974   2.784
 4792SOL    HW115275   2.232   2.905   2.809
 4792SOL    HW215276   2.185   3.011   2.693
 4793SOL     OW15277   0.884   3.735   5.855
 4793SOL    HW115278   0.880   3.748   5.756
 4793SOL    HW215279   0.945   3.658   5.876
 4794SOL     OW15280   4.316   1.627   4.662
 4794SOL    HW115281   4.352   1.534   4.672
 4794SOL    HW215282   4.389   1.693   4.681
 4795SOL     OW15283   6.903   0.673   6.139
 4795SOL    HW115284   6.863   0.660   6.230
 4795SOL    HW215285   6.899   0.770   6.115
 4796SOL     OW15286   4.347   1.061   4.983
 4796SOL    HW115287   4.387   0.980   5.024
 4796SOL    HW215288   4.402   1.089   4.904
 4797SOL     OW15289   1.409   5.140   5.204
 4797SOL    HW115290   1.422   5.193   5.120
 4797SOL    HW215291   1.384   5.202   5.279
 4798SOL     OW15292   3.874   5.093   6.657
 4798SOL    HW115293   3.844   5.000   6.681
 4798SOL    HW215294   3.932   5.090   6.576
 4799SOL     OW15295   3.666   3.137   0.248
 4799SOL    HW115296   3.744   3.191   0.217
 4799SOL    HW215297   3.698   3.057   0.298
 4800SOL     OW15298   0.919   4.427   0.639
 4800SOL    HW115299   0.969   4.344   0.664
 4800SOL    HW215300   0.833   4.431   0.688
 4801SOL     OW15301   5.517   2.743   1.624
 4801SOL    HW115302   5.449   2.739   1.697
 4801SOL    HW215303   5.472   2.765   1.538
 4802SOL     OW15304   6.654   6.977   3.897
 4802SOL    HW115305   6.576   0.013   3.877
 4802SOL    HW215306   6.623   6.882   3.903
 4803SOL     OW15307   4.852   4.277   6.231
 4803SOL    HW115308   4.793   4.356   6.213
 4803SOL    HW215309   4.818   4.229   6.312
 4804SOL     OW15310   4.788   1.597   1.236
 4804SOL    HW115311   4.748   1.688   1.244
 4804SOL    HW215312   4.888   1.604   1.238
 4805SOL     OW15313   6.619   1.083   0.079
 4805SOL    HW115314   6.575   1.012   0.024
 4805SOL    HW215315   6.555   1.158   0.095
 4806SOL     OW15316   1.049   1.122   3.244
 4806SOL    HW115317   0.987   1.125   3.322
 4806SOL    HW215318   1.015   1.182   3.172
 4807SOL     OW15319   0.458   3.587   5.611
 4807SOL    HW115320   0.456   3.491   5.586
 4807SOL    HW215321   0.421   3.642   5.535
 4808SOL     OW15322   4.250   5.491   1.322
 4808SOL    HW115323   4.318   5.507   1.250
 4808SOL    HW215324   4.292   5.438   1.395
 4809SOL     OW15325   3.553   4.349   1.330
 4809SOL    HW115326   3.463   4.315   1.357
 4809SOL    HW215327   3.619   4.274   1.330
 4810SOL     OW15328   0.319   4.926   4.078
 4810SOL    HW115329   0.292   4.851   4.137
 4810SOL    HW215330   0.264   4.924   3.994
 4811SOL     OW15331   3.330   3.995   4.236
 4811SOL    HW115332   3.288   4.078   4.199
 4811SOL    HW215333   3.285   3.914   4.197
 4812SOL     OW15334   1.064   0.317   2.424
 4812SOL    HW115335   1.018   0.339   2.510
 4812SOL    HW215336   1.140   0.254   2.442
 4813SOL     OW15337   6.391   1.646   5.759
 4813SOL    HW115338   6.294   1.636   5.783
 4813SOL    HW215339   6.402   1.628   5.661
 4814SOL     OW15340   6.106   4.047   1.691
 4814SOL    HW115341   6.170   4.085   1.758
 4814SOL    HW215342   6.055   4.121   1.647
 4815SOL     OW15343   5.741   5.254   2.194
 4815SOL    HW115344   5.730   5.348   2.161
 4815SOL    HW215345   5.768   5.256   2.291
 4816SOL     OW15346   2.084   1.310   2.639
 4816SOL    HW115347   2.066   1.281   2.545
 4816SOL    HW215348   2.175   1.350   2.645
 4817SOL     OW15349   3.897   2.329   0.595
 4817SOL    HW115350   3.917   2.418   0.553
 4817SOL    HW215351   3.981   2.290   0.632
 4818SOL     OW15352   3.975   0.389   5.729
 4818SOL    HW115353   3.891   0.345   5.760
 4818SOL    HW215354   4.054   0.341   5.766
 4819SOL     OW15355   3.070   0.663   1.194
 4819SOL    HW115356   3.061   0.567   1.167
 4819SOL    HW215357   2.984   0.694   1.233
 4820SOL     OW15358   5.673   4.401   2.100
 4820SOL    HW115359   5.601   4.337   2.075
 4820SOL    HW215360   5.716   4.438   2.018
 4821SOL     OW15361   6.973   4.251   1.526
 4821SOL    HW115362   6.948   4.280   1.434
 4821SOL    HW215363   6.891   4.224   1.576
 4822SOL     OW15364   1.959   4.086   2.748
 4822SOL    HW115365   1.914   4.112   2.833
 4822SOL    HW215366   1.955   3.987   2.737
 4823SOL     OW15367   1.347   0.987   4.563
 4823SOL    HW115368   1.333   0.904   4.509
 4823SOL    HW215369   1.262   1.039   4.568
 4824SOL     OW15370   5.225   2.905   1.863
 4824SOL    HW115371   5.160   2.971   1.824
 4824SOL    HW215372   5.296   2.954   1.913
 4825SOL     OW15373   0.452   2.864   3.316
 4825SOL    HW115374   0.506   2.808   3.254
 4825SOL    HW215375   0.438   2.954   3.276
 4826SOL     OW15376   6.242   6.409   6.951
 4826SOL    HW115377   6.255   6.311   6.968
 4826SOL    HW215378   6.148   6.425   6.922
 4827SOL     OW15379   5.594   0.836   1.169
 4827SOL    HW115380   5.601   0.930   1.134
 4827SOL    HW215381   5.600   0.772   1.093
 4828SOL     OW15382   5.524   3.747   0.484
 4828SOL    HW115383   5.615   3.776   0.513
 4828SOL    HW215384   5.455   3.783   0.547
 4829SOL     OW15385   2.867   0.491   5.875
 4829SOL    HW115386   2.872   0.573   5.931
 4829SOL    HW215387   2.958   0.451   5.865
 4830SOL     OW15388   4.014   0.024   4.691
 4830SOL    HW115389   4.017   6.958   4.734
 4830SOL    HW215390   4.055   0.092   4.752
 4831SOL     OW15391   6.157   3.852   5.973
 4831SOL    HW115392   6.119   3.890   6.058
 4831SOL    HW215393   6.251   3.822   5.988
 4832SOL     OW15394   2.398   3.677   6.742
 4832SOL    HW115395   2.480   3.668   6.685
 4832SOL    HW215396   2.348   3.590   6.743
 4833SOL     OW15397   5.136   1.511   2.780
 4833SOL    HW115398   5.135   1.551   2.872
 4833SOL    HW215399   5.202   1.436   2.777
 4834SOL     OW15400   5.367   1.031   2.551
 4834SOL    HW115401   5.273   1.027   2.585
 4834SOL    HW215402   5.410   0.941   2.561
 4835SOL     OW15403   2.287   0.744   6.733
 4835SOL    HW115404   2.208   0.776   6.786
 4835SOL    HW215405   2.317   0.656   6.769
 4836SOL     OW15406   5.292   2.690   3.663
 4836SOL    HW115407   5.243   2.608   3.634
 4836SOL    HW215408   5.325   2.740   3.583
 4837SOL     OW15409   1.338   3.850   0.244
 4837SOL    HW115410   1.289   3.923   0.195
 4837SOL    HW215411   1.405   3.809   0.183
 4838SOL     OW15412   2.861   5.695   2.459
 4838SOL    HW115413   2.836   5.605   2.497
 4838SOL    HW215414   2.796   5.719   2.388
 4839SOL     OW15415   0.580   6.187   6.702
 4839SOL    HW115416   0.554   6.284   6.691
 4839SOL    HW215417   0.506   6.130   6.666
 4840SOL     OW15418   0.142   6.582   0.414
 4840SOL    HW115419   0.087   6.658   0.379
 4840SOL    HW215420   0.235   6.614   0.430
 4841SOL     OW15421   2.989   5.858   1.899
 4841SOL    HW115422   2.988   5.924   1.974
 4841SOL    HW215423   3.052   5.784   1.921
 4842SOL     OW15424   4.187   5.897   1.176
 4842SOL    HW115425   4.116   5.950   1.222
 4842SOL    HW215426   4.174   5.902   1.077
 4843SOL     OW15427   0.197   3.292   0.016
 4843SOL    HW115428   0.294   3.309   0.005
 4843SOL    HW215429   0.179   3.194   0.009
 4844SOL     OW15430   6.097   1.920   6.059
 4844SOL    HW115431   6.041   1.841   6.033
 4844SOL    HW215432   6.186   1.915   6.014
 4845SOL     OW15433   6.198   5.536   3.810
 4845SOL    HW115434   6.211   5.571   3.717
 4845SOL    HW215435   6.176   5.613   3.871
 4846SOL     OW15436   1.232   4.306   0.499
 4846SOL    HW115437   1.238   4.261   0.588
 4846SOL    HW215438   1.251   4.240   0.426
 4847SOL     OW15439   3.748   2.087   4.403
 4847SOL    HW115440   3.655   2.109   4.375
 4847SOL    HW215441   3.769   1.993   4.376
 4848SOL     OW15442   2.692   2.422   2.830
 4848SOL    HW115443   2.710   2.351   2.762
 4848SOL    HW215444   2.769   2.428   2.894
 4849SOL     OW15445   1.555   6.511   0.438
 4849SOL    HW115446   1.574   6.558   0.525
 4849SOL    HW215447   1.564   6.413   0.451
 4850SOL     OW15448   4.238   0.419   2.178
 4850SOL    HW115449   4.337   0.404   2.166
 4850SOL    HW215450   4.193   0.331   2.190
 4851SOL     OW15451   5.503   5.891   4.875
 4851SOL    HW115452   5.584   5.882   4.933
 4851SOL    HW215453   5.441   5.959   4.914
 4852SOL     OW15454   1.846   1.015   0.072
 4852SOL    HW115455   1.831   0.956   7.016
 4852SOL    HW215456   1.925   0.982   0.124
 4853SOL     OW15457   2.986   1.810   2.157
 4853SOL    HW115458   3.015   1.780   2.066
 4853SOL    HW215459   3.018   1.903   2.173
 4854SOL     OW15460   5.330   6.826   1.451
 4854SOL    HW115461   5.369   6.747   1.403
 4854SOL    HW215462   5.238   6.804   1.481
 4855SOL     OW15463   7.016   2.082   2.246
 4855SOL    HW115464   0.014   1.992   2.207
 4855SOL    HW215465   0.054   2.099   2.324
 4856SOL     OW15466   2.691   4.821   3.551
 4856SOL    HW115467   2.621   4.776   3.606
 4856SOL    HW215468   2.748   4.878   3.610
 4857SOL     OW15469   6.625   1.780   5.852
 4857SOL    HW115470   6.703   1.750   5.907
 4857SOL    HW215471   6.550   1.714   5.863
 4858SOL     OW15472   1.608   1.410   4.099
 4858SOL    HW115473   1.562   1.356   4.170
 4858SOL    HW215474   1.591   1.368   4.010
 4859SOL     OW15475   2.557   5.671   4.584
 4859SOL    HW115476   2.529   5.713   4.498
 4859SOL    HW215477   2.501   5.708   4.658
 4860SOL     OW15478   4.316   5.076   0.902
 4860SOL    HW115479   4.257   5.019   0.846
 4860SOL    HW215480   4.384   5.019   0.948
 4861SOL     OW15481   5.240   4.096   4.825
 4861SOL    HW115482   5.303   4.099   4.902
 4861SOL    HW215483   5.218   4.189   4.796
 4862SOL     OW15484   1.230   6.550   2.153
 4862SOL    HW115485   1.223   6.622   2.222
 4862SOL    HW215486   1.256   6.464   2.196
 4863SOL     OW15487   6.014   4.042   6.800
 4863SOL    HW115488   5.937   4.016   6.859
 4863SOL    HW215489   6.081   4.092   6.854
 4864SOL     OW15490   2.644   1.152   3.132
 4864SOL    HW115491   2.622   1.088   3.058
 4864SOL    HW215492   2.713   1.217   3.099
 4865SOL     OW15493   2.091   6.258   4.666
 4865SOL    HW115494   2.056   6.276   4.575
 4865SOL    HW215495   2.094   6.344   4.718
 4866SOL     OW15496   6.691   3.847   0.351
 4866SOL    HW115497   6.679   3.823   0.254
 4866SOL    HW215498   6.663   3.769   0.408
 4867SOL     OW15499   5.189   0.172   2.780
 4867SOL    HW115500   5.112   0.233   2.764
 4867SOL    HW215501   5.231   0.147   2.693
 4868SOL     OW15502   6.700   4.575   1.154
 4868SOL    HW115503   6.678   4.559   1.058
 4868SOL    HW215504   6.663   4.500   1.209
 4869SOL     OW15505   0.410   1.157   6.959
 4869SOL    HW115506   0.423   1.160   0.035
 4869SOL    HW215507   0.467   1.227   6.916
 4870SOL     OW15508   0.679   6.022   2.054
 4870SOL    HW115509   0.669   6.050   1.958
 4870SOL    HW215510   0.750   6.078   2.097
 4871SOL     OW15511   1.151   1.690   4.543
 4871SOL    HW115512   1.053   1.679   4.522
 4871SOL    HW215513   1.204   1.672   4.461
 4872SOL     OW15514   5.675   0.058   3.681
 4872SOL    HW115515   5.613   0.003   3.625
 4872SOL    HW215516   5.734   0.112   3.623
 4873SOL     OW15517   6.635   5.827   5.525
 4873SOL    HW115518   6.561   5.867   5.471
 4873SOL    HW215519   6.620   5.845   5.622
 4874SOL     OW15520   4.783   2.926   2.883
 4874SOL    HW115521   4.827   2.959   2.967
 4874SOL    HW215522   4.753   3.004   2.828
 4875SOL     OW15523   5.634   6.276   5.497
 4875SOL    HW115524   5.598   6.349   5.439
 4875SOL    HW215525   5.694   6.315   5.567
 4876SOL     OW15526   2.059   1.010   2.750
 4876SOL    HW115527   2.111   1.051   2.826
 4876SOL    HW215528   2.058   1.074   2.673
 4877SOL     OW15529   0.083   2.277   4.808
 4877SOL    HW115530   0.120   2.268   4.901
 4877SOL    HW215531   0.155   2.310   4.747
 4878SOL     OW15532   1.028   2.805   2.683
 4878SOL    HW115533   1.076   2.718   2.678
 4878SOL    HW215534   1.057   2.863   2.607
 4879SOL     OW15535   5.084   1.611   3.108
 4879SOL    HW115536   5.127   1.592   3.197
 4879SOL    HW215537   5.064   1.708   3.101
 4880SOL     OW15538   6.074   2.637   6.234
 4880SOL    HW115539   6.048   2.544   6.258
 4880SOL    HW215540   6.031   2.701   6.299
 4881SOL     OW15541   1.455   3.449   1.811
 4881SOL    HW115542   1.502   3.362   1.826
 4881SOL    HW215543   1.356   3.432   1.805
 4882SOL     OW15544   4.607   2.461   4.734
 4882SOL    HW115545   4.514   2.435   4.761
 4882SOL    HW215546   4.642   2.395   4.668
 4883SOL     OW15547   6.243   4.078   1.936
 4883SOL    HW115548   6.159   4.046   1.980
 4883SOL    HW215549   6.317   4.012   1.954
 4884SOL     OW15550   2.450   6.504   1.765
 4884SOL    HW115551   2.352   6.520   1.778
 4884SOL    HW215552   2.482   6.554   1.685
 4885SOL     OW15553   1.008   4.821   0.627
 4885SOL    HW115554   0.987   4.754   0.697
 4885SOL    HW215555   1.094   4.795   0.581
 4886SOL     OW15556   3.011   1.560   2.261
 4886SOL    HW115557   2.994   1.653   2.228
 4886SOL    HW215558   3.100   1.557   2.307
 4887SOL     OW15559   0.451   6.825   1.285
 4887SOL    HW115560   0.461   6.734   1.244
 4887SOL    HW215561   0.429   6.816   1.382
 4888SOL     OW15562   3.620   6.320   3.012
 4888SOL    HW115563   3.548   6.320   2.942
 4888SOL    HW215564   3.703   6.359   2.974
 4889SOL     OW15565   0.052   2.880   3.551
 4889SOL    HW115566   0.068   2.967   3.597
 4889SOL    HW215567   0.087   2.805   3.607
 4890SOL     OW15568   0.515   1.559   4.812
 4890SOL    HW115569   0.596   1.617   4.801
 4890SOL    HW215570   0.447   1.606   4.868
 4891SOL     OW15571   2.693   5.621   6.185
 4891SOL    HW115572   2.646   5.654   6.267
 4891SOL    HW215573   2.738   5.698   6.139
 4892SOL     OW15574   5.263   6.109   2.923
 4892SOL    HW115575   5.317   6.172   2.979
 4892SOL    HW215576   5.166   6.126   2.937
 4893SOL     OW15577   0.515   3.461   2.012
 4893SOL    HW115578   0.429   3.493   2.053
 4893SOL    HW215579   0.494   3.390   1.944
 4894SOL     OW15580   4.739   6.482   1.888
 4894SOL    HW115581   4.824   6.535   1.889
 4894SOL    HW215582   4.680   6.512   1.963
 4895SOL     OW15583   6.964   4.778   4.212
 4895SOL    HW115584   6.977   4.711   4.285
 4895SOL    HW215585   6.877   4.759   4.165
 4896SOL     OW15586   2.075   4.753   4.022
 4896SOL    HW115587   2.160   4.750   3.970
 4896SOL    HW215588   2.047   4.660   4.046
 4897SOL     OW15589   1.834   6.369   5.630
 4897SOL    HW115590   1.929   6.371   5.599
 4897SOL    HW215591   1.773   6.383   5.552
 4898SOL     OW15592   4.083   1.898   3.853
 4898SOL    HW115593   4.089   1.818   3.794
 4898SOL    HW215594   4.175   1.933   3.871
 4899SOL     OW15595   6.631   4.934   1.671
 4899SOL    HW115596   6.579   5.019   1.680
 4899SOL    HW215597   6.729   4.955   1.676
 4900SOL     OW15598   3.886   6.185   5.593
 4900SOL    HW115599   3.922   6.133   5.670
 4900SOL    HW215600   3.959   6.205   5.528
 4901SOL     OW15601   0.199   1.299   6.114
 4901SOL    HW115602   0.191   1.240   6.194
 4901SOL    HW215603   0.265   1.260   6.050
 4902SOL     OW15604   1.958   0.422   5.918
 4902SOL    HW115605   1.861   0.437   5.938
 4902SOL    HW215606   1.972   0.326   5.892
 4903SOL     OW15607   5.338   5.031   1.730
 4903SOL    HW115608   5.321   4.969   1.654
 4903SOL    HW215609   5.303   5.122   1.708
 4904SOL     OW15610   1.685   0.400   0.579
 4904SOL    HW115611   1.636   0.464   0.638
 4904SOL    HW215612   1.776   0.435   0.560
 4905SOL     OW15613   3.265   6.562   2.370
 4905SOL    HW115614   3.320   6.611   2.438
 4905SOL    HW215615   3.224   6.627   2.307
 4906SOL     OW15616   5.327   3.516   4.822
 4906SOL    HW115617   5.375   3.604   4.823
 4906SOL    HW215618   5.240   3.525   4.871
 4907SOL     OW15619   4.644   1.451   6.378
 4907SOL    HW115620   4.629   1.542   6.339
 4907SOL    HW215621   4.735   1.447   6.420
 4908SOL     OW15622   4.309   6.777   0.053
 4908SOL    HW115623   4.314   6.869   0.012
 4908SOL    HW215624   4.312   6.785   0.152
 4909SOL     OW15625   5.564   4.365   4.275
 4909SOL    HW115626   5.580   4.380   4.178
 4909SOL    HW215627   5.646   4.389   4.327
 4910SOL     OW15628   4.710   1.538   5.479
 4910SOL    HW115629   4.619   1.503   5.458
 4910SOL    HW215630   4.709   1.582   5.569
 4911SOL     OW15631   0.186   2.177   1.785
 4911SOL    HW115632   0.254   2.140   1.847
 4911SOL    HW215633   0.179   2.276   1.797
 4912SOL     OW15634   5.951   2.238   4.100
 4912SOL    HW115635   5.918   2.308   4.037
 4912SOL    HW215636   6.017   2.278   4.164
 4913SOL     OW15637   6.608   2.720   5.701
 4913SOL    HW115638   6.628   2.697   5.796
 4913SOL    HW215639   6.585   2.636   5.651
 4914SOL     OW15640   4.908   0.360   3.914
 4914SOL    HW115641   4.979   0.382   3.846
 4914SOL    HW215642   4.872   0.269   3.896
 4915SOL     OW15643   4.089   5.639   5.570
 4915SOL    HW115644   4.037   5.630   5.485
 4915SOL    HW215645   4.186   5.650   5.549
 4916SOL     OW15646   6.121   2.043   3.945
 4916SOL    HW115647   6.031   2.066   3.981
 4916SOL    HW215648   6.187   2.039   4.020
 4917SOL     OW15649   4.738   7.001   0.780
 4917SOL    HW115650   4.769   0.021   0.695
 4917SOL    HW215651   4.718   0.049   0.847
 4918SOL     OW15652   6.246   5.630   2.172
 4918SOL    HW115653   6.155   5.670   2.162
 4918SOL    HW215654   6.259   5.559   2.103
 4919SOL     OW15655   3.533   4.162   2.501
 4919SOL    HW115656   3.567   4.096   2.568
 4919SOL    HW215657   3.487   4.237   2.548
 4920SOL     OW15658   5.983   0.788   5.162
 4920SOL    HW115659   6.013   0.770   5.256
 4920SOL    HW215660   6.035   0.731   5.099
 4921SOL     OW15661   0.202   6.966   2.310
 4921SOL    HW115662   0.158   0.011   2.368
 4921SOL    HW215663   0.219   6.883   2.362
 4922SOL     OW15664   3.717   2.279   6.343
 4922SOL    HW115665   3.710   2.184   6.313
 4922SOL    HW215666   3.672   2.290   6.432
 4923SOL     OW15667   3.525   1.688   2.479
 4923SOL    HW115668   3.517   1.727   2.571
 4923SOL    HW215669   3.437   1.696   2.432
 4924SOL     OW15670   2.460   0.700   5.692
 4924SOL    HW115671   2.554   0.666   5.698
 4924SOL    HW215672   2.412   0.652   5.619
 4925SOL     OW15673   5.432   5.942   3.599
 4925SOL    HW115674   5.390   5.901   3.518
 4925SOL    HW215675   5.362   5.991   3.652
 4926SOL     OW15676   5.379   2.357   0.858
 4926SOL    HW115677   5.478   2.354   0.845
 4926SOL    HW215678   5.335   2.385   0.772
 4927SOL     OW15679   3.565   1.531   6.507
 4927SOL    HW115680   3.522   1.495   6.424
 4927SOL    HW215681   3.553   1.630   6.510
 4928SOL     OW15682   0.386   2.210   0.382
 4928SOL    HW115683   0.330   2.131   0.360
 4928SOL    HW215684   0.346   2.293   0.343
 4929SOL     OW15685   0.667   6.533   4.642
 4929SOL    HW115686   0.653   6.453   4.700
 4929SOL    HW215687   0.685   6.613   4.700
 4930SOL     OW15688   5.540   6.794   2.161
 4930SOL    HW115689   5.517   6.835   2.249
 4930SOL    HW215690   5.529   6.863   2.089
 4931SOL     OW15691   6.199   6.037   0.655
 4931SOL    HW115692   6.144   5.961   0.690
 4931SOL    HW215693   6.149   6.082   0.581
 4932SOL     OW15694   2.967   3.291   1.981
 4932SOL    HW115695   2.941   3.289   2.077
 4932SOL    HW215696   2.902   3.238   1.927
 4933SOL     OW15697   3.151   6.047   5.444
 4933SOL    HW115698   3.188   5.960   5.410
 4933SOL    HW215699   3.062   6.063   5.402
 4934SOL     OW15700   3.880   4.825   3.089
 4934SOL    HW115701   3.976   4.806   3.107
 4934SOL    HW215702   3.871   4.881   3.007
 4935SOL     OW15703   0.574   0.896   6.282
 4935SOL    HW115704   0.585   0.831   6.207
 4935SOL    HW215705   0.590   0.850   6.369
 4936SOL     OW15706   2.818   3.597   0.890
 4936SOL    HW115707   2.866   3.532   0.948
 4936SOL    HW215708   2.759   3.655   0.947
 4937SOL     OW15709   4.527   2.591   5.161
 4937SOL    HW115710   4.534   2.664   5.229
 4937SOL    HW215711   4.562   2.623   5.073
 4938SOL     OW15712   4.196   5.943   6.043
 4938SOL    HW115713   4.224   6.022   5.988
 4938SOL    HW215714   4.211   5.859   5.990
 4939SOL     OW15715   4.738   3.212   5.820
 4939SOL    HW115716   4.693   3.139   5.768
 4939SOL    HW215717   4.699   3.218   5.911
 4940SOL     OW15718   2.409   6.511   4.219
 4940SOL    HW115719   2.444   6.498   4.127
 4940SOL    HW215720   2.345   6.588   4.220
 4941SOL     OW15721   5.698   0.408   0.631
 4941SOL    HW115722   5.700   0.508   0.631
 4941SOL    HW215723   5.698   0.375   0.726
 4942SOL     OW15724   4.940   3.668   5.284
 4942SOL    HW115725   5.018   3.607   5.277
 4942SOL    HW215726   4.883   3.659   5.203
 4943SOL     OW15727   4.278   2.276   0.992
 4943SOL    HW115728   4.321   2.362   1.022
 4943SOL    HW215729   4.332   2.199   1.025
 4944SOL     OW15730   2.172   4.717   2.280
 4944SOL    HW115731   2.152   4.792   2.342
 4944SOL    HW215732   2.099   4.649   2.286
 4945SOL     OW15733   1.082   6.816   4.540
 4945SOL    HW115734   1.081   6.896   4.601
 4945SOL    HW215735   1.021   6.746   4.577
 4946SOL     OW15736   1.258   3.820   2.518
 4946SOL    HW115737   1.199   3.895   2.546
 4946SOL    HW215738   1.297   3.839   2.428
 4947SOL     OW15739   0.536   6.693   0.685
 4947SOL    HW115740   0.580   6.612   0.645
 4947SOL    HW215741   0.604   6.745   0.736
 4948SOL     OW15742   2.157   1.347   1.950
 4948SOL    HW115743   2.129   1.393   2.034
 4948SOL    HW215744   2.078   1.341   1.888
 4949SOL     OW15745   5.858   1.556   4.100
 4949SOL    HW115746   5.833   1.608   4.018
 4949SOL    HW215747   5.785   1.564   4.168
 4950SOL     OW15748   3.074   5.599   5.029
 4950SOL    HW115749   3.079   5.666   5.103
 4950SOL    HW215750   2.988   5.548   5.035
 4951SOL     OW15751   4.374   2.414   3.726
 4951SOL    HW115752   4.345   2.355   3.651
 4951SOL    HW215753   4.470   2.396   3.748
 4952SOL     OW15754   0.612   5.905   5.152
 4952SOL    HW115755   0.633   6.001   5.170
 4952SOL    HW215756   0.550   5.899   5.074
 4953SOL     OW15757   1.753   5.140   1.826
 4953SOL    HW115758   1.789   5.072   1.890
 4953SOL    HW215759   1.664   5.172   1.858
 4954SOL     OW15760   5.388   6.077   6.812
 4954SOL    HW115761   5.421   6.075   6.906
 4954SOL    HW215762   5.340   5.992   6.792
 4955SOL     OW15763   1.243   6.473   1.159
 4955SOL    HW115764   1.150   6.471   1.196
 4955SOL    HW215765   1.306   6.505   1.230
 4956SOL     OW15766   4.887   6.302   4.121
 4956SOL    HW115767   4.817   6.237   4.093
 4956SOL    HW215768   4.912   6.361   4.044
 4957SOL     OW15769   1.033   0.190   4.134
 4957SOL    HW115770   0.979   0.266   4.170
 4957SOL    HW215771   1.090   0.152   4.207
 4958SOL     OW15772   6.975   5.955   0.090
 4958SOL    HW115773   6.894   5.928   0.037
 4958SOL    HW215774   6.946   6.014   0.166
 4959SOL     OW15775   0.921   0.723   1.260
 4959SOL    HW115776   0.944   0.809   1.307
 4959SOL    HW215777   0.886   0.657   1.327
 4960SOL     OW15778   4.248   6.917   4.996
 4960SOL    HW115779   4.204   6.944   5.082
 4960SOL    HW215780   4.300   6.994   4.961
 4961SOL     OW15781   4.735   0.667   5.215
 4961SOL    HW115782   4.774   0.584   5.256
 4961SOL    HW215783   4.644   0.647   5.180
 4962SOL     OW15784   6.927   1.013   0.662
 4962SOL    HW115785   6.842   0.960   0.653
 4962SOL    HW215786   6.960   1.007   0.755
 4963SOL     OW15787   0.237   4.892   1.728
 4963SOL    HW115788   0.320   4.924   1.774
 4963SOL    HW215789   0.177   4.848   1.794
 4964SOL     OW15790   3.883   6.617   3.149
 4964SOL    HW115791   3.885   6.594   3.051
 4964SOL    HW215792   3.969   6.661   3.174
 4965SOL     OW15793   6.999   6.593   4.318
 4965SOL    HW115794   0.067   6.579   4.357
 4965SOL    HW215795   6.994   6.683   4.275
 4966SOL     OW15796   3.784   4.886   3.763
 4966SOL    HW115797   3.686   4.877   3.781
 4966SOL    HW215798   3.836   4.862   3.845
 4967SOL     OW15799   4.175   2.580   5.742
 4967SOL    HW115800   4.098   2.542   5.793
 4967SOL    HW215801   4.169   2.680   5.743
 4968SOL     OW15802   5.856   2.773   5.729
 4968SOL    HW115803   5.871   2.787   5.631
 4968SOL    HW215804   5.943   2.780   5.778
 4969SOL     OW15805   1.181   1.738   1.825
 4969SOL    HW115806   1.130   1.674   1.768
 4969SOL    HW215807   1.205   1.694   1.912
 4970SOL     OW15808   0.709   2.571   5.954
 4970SOL    HW115809   0.726   2.637   5.881
 4970SOL    HW215810   0.725   2.478   5.920
 4971SOL     OW15811   5.687   5.686   3.677
 4971SOL    HW115812   5.770   5.657   3.630
 4971SOL    HW215813   5.704   5.690   3.775
 4972SOL     OW15814   1.309   2.702   6.176
 4972SOL    HW115815   1.214   2.704   6.143
 4972SOL    HW215816   1.331   2.610   6.207
 4973SOL     OW15817   5.337   6.312   2.423
 4973SOL    HW115818   5.389   6.381   2.372
 4973SOL    HW215819   5.383   6.294   2.509
 4974SOL     OW15820   5.796   6.933   1.995
 4974SOL    HW115821   5.868   6.996   2.023
 4974SOL    HW215822   5.830   6.872   1.923
 4975SOL     OW15823   5.868   6.127   0.697
 4975SOL    HW115824   5.908   6.036   0.688
 4975SOL    HW215825   5.877   6.158   0.792
 4976SOL     OW15826   4.123   0.467   4.727
 4976SOL    HW115827   4.205   0.523   4.736
 4976SOL    HW215828   4.080   0.484   4.638
 4977SOL     OW15829   3.573   4.046   0.473
 4977SOL    HW115830   3.568   4.114   0.546
 4977SOL    HW215831   3.516   3.967   0.497
 4978SOL     OW15832   5.558   3.234   6.269
 4978SOL    HW115833   5.526   3.139   6.259
 4978SOL    HW215834   5.584   3.269   6.179
 4979SOL     OW15835   1.192   1.275   5.396
 4979SOL    HW115836   1.129   1.198   5.387
 4979SOL    HW215837   1.141   1.360   5.397
 4980SOL     OW15838   2.366   5.204   1.995
 4980SOL    HW115839   2.422   5.121   1.995
 4980SOL    HW215840   2.382   5.254   1.910
 4981SOL     OW15841   4.371   6.456   5.368
 4981SOL    HW115842   4.450   6.440   5.427
 4981SOL    HW215843   4.373   6.550   5.334
 4982SOL     OW15844   2.698   3.033   0.458
 4982SOL    HW115845   2.611   3.070   0.423
 4982SOL    HW215846   2.682   2.941   0.494
 4983SOL     OW15847   5.450   2.965   4.313
 4983SOL    HW115848   5.401   2.956   4.227
 4983SOL    HW215849   5.415   3.045   4.363
 4984SOL     OW15850   4.813   4.124   2.501
 4984SOL    HW115851   4.831   4.029   2.528
 4984SOL    HW215852   4.780   4.126   2.406
 4985SOL     OW15853   5.731   4.622   2.387
 4985SOL    HW115854   5.818   4.593   2.347
 4985SOL    HW215855   5.717   4.577   2.475
 4986SOL     OW15856   4.717   5.027   1.770
 4986SOL    HW115857   4.630   5.074   1.754
 4986SOL    HW215858   4.702   4.929   1.775
 4987SOL     OW15859   0.152   3.311   1.437
 4987SOL    HW115860   0.244   3.278   1.458
 4987SOL    HW215861   0.150   3.411   1.441
 4988SOL     OW15862   0.531   2.087   4.807
 4988SOL    HW115863   0.488   2.050   4.889
 4988SOL    HW215864   0.469   2.079   4.730
 4989SOL     OW15865   0.501   0.971   0.504
 4989SOL    HW115866   0.551   0.936   0.425
 4989SOL    HW215867   0.413   1.008   0.475
 4990SOL     OW15868   0.668   2.719   5.648
 4990SOL    HW115869   0.635   2.701   5.555
 4990SOL    HW215870   0.767   2.727   5.647
 4991SOL     OW15871   1.312   2.756   4.485
 4991SOL    HW115872   1.224   2.790   4.517
 4991SOL    HW215873   1.336   2.800   4.398
 4992SOL     OW15874   3.292   0.594   6.060
 4992SOL    HW115875   3.212   0.557   6.107
 4992SOL    HW215876   3.318   0.681   6.102
 4993SOL     OW15877   2.765   5.888   3.937
 4993SOL    HW115878   2.778   5.797   3.897
 4993SOL    HW215879   2.815   5.894   4.023
 4994SOL     OW15880   7.021   6.708   2.450
 4994SOL    HW115881   0.058   6.783   2.478
 4994SOL    HW215882   0.015   6.628   2.507
 4995SOL     OW15883   5.579   2.946   6.114
 4995SOL    HW115884   5.679   2.941   6.118
 4995SOL    HW215885   5.552   3.012   6.044
 4996SOL     OW15886   1.093   1.315   3.918
 4996SOL    HW115887   1.037   1.396   3.939
 4996SOL    HW215888   1.189   1.341   3.917
 4997SOL     OW15889   0.364   2.339   3.735
 4997SOL    HW115890   0.358   2.342   3.835
 4997SOL    HW215891   0.355   2.244   3.705
 4998SOL     OW15892   1.959   5.395   4.702
 4998SOL    HW115893   1.995   5.425   4.791
 4998SOL    HW215894   1.942   5.475   4.645
 4999SOL     OW15895   6.060   4.540   1.574
 4999SOL    HW115896   6.080   4.490   1.658
 4999SOL    HW215897   6.077   4.638   1.589
 5000SOL     OW15898   6.995   6.167   4.747
 5000SOL    HW115899   7.001   6.199   4.652
 5000SOL    HW215900   6.984   6.245   4.808
 5001SOL     OW15901   4.367   4.104   5.825
 5001SOL    HW115902   4.430   4.047   5.772
 5001SOL    HW215903   4.318   4.165   5.763
 5002SOL     OW15904   2.254   1.368   1.461
 5002SOL    HW115905   2.207   1.429   1.524
 5002SOL    HW215906   2.187   1.308   1.416
 5003SOL     OW15907   6.512   5.928   2.880
 5003SOL    HW115908   6.536   5.913   2.784
 5003SOL    HW215909   6.536   5.846   2.933
 5004SOL     OW15910   3.344   5.779   6.869
 5004SOL    HW115911   3.256   5.783   6.915
 5004SOL    HW215912   3.415   5.815   6.929
 5005SOL     OW15913   4.406   2.134   6.721
 5005SOL    HW115914   4.386   2.232   6.732
 5005SOL    HW215915   4.480   2.124   6.654
 5006SOL     OW15916   5.346   5.601   4.069
 5006SOL    HW115917   5.367   5.692   4.032
 5006SOL    HW215918   5.330   5.608   4.167
 5007SOL     OW15919   3.919   1.704   5.262
 5007SOL    HW115920   3.948   1.612   5.236
 5007SOL    HW215921   3.912   1.762   5.181
 5008SOL     OW15922   6.268   1.938   3.744
 5008SOL    HW115923   6.334   1.870   3.778
 5008SOL    HW215924   6.221   1.981   3.822
 5009SOL     OW15925   1.789   5.979   3.492
 5009SOL    HW115926   1.762   6.074   3.510
 5009SOL    HW215927   1.888   5.973   3.484
 5010SOL     OW15928   4.043   3.254   4.876
 5010SOL    HW115929   4.123   3.254   4.936
 5010SOL    HW215930   4.000   3.345   4.877
 5011SOL     OW15931   1.718   2.629   2.341
 5011SOL    HW115932   1.679   2.701   2.399
 5011SOL    HW215933   1.816   2.648   2.327
 5012SOL     OW15934   6.087   3.091   6.612
 5012SOL    HW115935   6.109   3.173   6.664
 5012SOL    HW215936   6.129   3.095   6.522
 5013SOL     OW15937   4.219   0.924   6.828
 5013SOL    HW115938   4.166   1.007   6.809
 5013SOL    HW215939   4.238   0.918   6.926
 5014SOL     OW15940   6.066   6.508   0.160
 5014SOL    HW115941   6.008   6.585   0.185
 5014SOL    HW215942   6.160   6.540   0.146
 5015SOL     OW15943   4.795   2.452   3.493
 5015SOL    HW115944   4.732   2.522   3.528
 5015SOL    HW215945   4.795   2.454   3.393
 5016SOL     OW15946   1.896   0.145   2.810
 5016SOL    HW115947   1.822   0.083   2.782
 5016SOL    HW215948   1.965   0.094   2.862
 5017SOL     OW15949   2.538   2.973   1.412
 5017SOL    HW115950   2.489   2.889   1.436
 5017SOL    HW215951   2.536   2.985   1.313
 5018SOL     OW15952   6.718   5.331   3.956
 5018SOL    HW115953   6.635   5.328   3.899
 5018SOL    HW215954   6.774   5.250   3.938
 5019SOL     OW15955   2.742   5.112   6.217
 5019SOL    HW115956   2.830   5.132   6.259
 5019SOL    HW215957   2.750   5.117   6.118
 5020SOL     OW15958   4.999   6.102   6.536
 5020SOL    HW115959   4.904   6.125   6.515
 5020SOL    HW215960   5.058   6.136   6.463
 5021SOL     OW15961   1.602   5.103   5.898
 5021SOL    HW115962   1.680   5.139   5.950
 5021SOL    HW215963   1.523   5.164   5.910
 5022SOL     OW15964   1.437   5.329   0.458
 5022SOL    HW115965   1.340   5.352   0.455
 5022SOL    HW215966   1.454   5.264   0.532
 5023SOL     OW15967   6.246   2.931   2.453
 5023SOL    HW115968   6.334   2.978   2.462
 5023SOL    HW215969   6.172   2.998   2.461
 5024SOL     OW15970   5.789   3.643   4.848
 5024SOL    HW115971   5.848   3.690   4.913
 5024SOL    HW215972   5.717   3.595   4.898
 5025SOL     OW15973   6.118   1.581   3.281
 5025SOL    HW115974   6.079   1.509   3.224
 5025SOL    HW215975   6.182   1.635   3.226
 5026SOL     OW15976   0.648   6.529   3.569
 5026SOL    HW115977   0.693   6.513   3.657
 5026SOL    HW215978   0.578   6.459   3.555
 5027SOL     OW15979   1.192   6.664   3.625
 5027SOL    HW115980   1.249   6.715   3.689
 5027SOL    HW215981   1.189   6.711   3.537
 5028SOL     OW15982   0.870   0.683   2.499
 5028SOL    HW115983   0.959   0.667   2.457
 5028SOL    HW215984   0.875   0.665   2.597
 5029SOL     OW15985   0.116   0.905   1.941
 5029SOL    HW115986   0.153   0.943   2.026
 5029SOL    HW215987   0.066   0.820   1.962
 5030SOL     OW15988   1.444   6.013   6.975
 5030SOL    HW115989   1.370   6.080   6.969
 5030SOL    HW215990   1.523   6.046   6.922
 5031SOL     OW15991   5.511   0.480   4.615
 5031SOL    HW115992   5.492   0.536   4.696
 5031SOL    HW215993   5.524   0.539   4.536
 5032SOL     OW15994   1.578   5.910   1.033
 5032SOL    HW115995   1.537   5.831   1.079
 5032SOL    HW215996   1.569   5.898   0.934
 5033SOL     OW15997   1.855   4.622   5.840
 5033SOL    HW115998   1.781   4.561   5.812
 5033SOL    HW215999   1.821   4.715   5.848
 5034SOL     OW16000   6.918   3.651   0.631
 5034SOL    HW116001   7.003   3.699   0.612
 5034SOL    HW216002   6.937   3.555   0.650
 5035SOL     OW16003   6.001   4.081   0.877
 5035SOL    HW116004   5.988   4.018   0.954
 5035SOL    HW216005   6.080   4.052   0.823
 5036SOL     OW16006   1.970   0.591   2.393
 5036SOL    HW116007   1.951   0.608   2.296
 5036SOL    HW216008   1.921   0.658   2.449
 5037SOL     OW16009   4.632   2.296   3.800
 5037SOL    HW116010   4.598   2.284   3.893
 5037SOL    HW216011   4.724   2.336   3.804
 5038SOL     OW16012   3.082   6.410   5.606
 5038SOL    HW116013   3.084   6.314   5.636
 5038SOL    HW216014   3.051   6.414   5.511
 5039SOL     OW16015   2.050   1.384   4.320
 5039SOL    HW116016   1.970   1.348   4.368
 5039SOL    HW216017   2.109   1.432   4.385
 5040SOL     OW16018   2.454   3.400   6.335
 5040SOL    HW116019   2.505   3.325   6.378
 5040SOL    HW216020   2.377   3.425   6.393
 5041SOL     OW16021   1.370   5.279   1.106
 5041SOL    HW116022   1.340   5.183   1.101
 5041SOL    HW216023   1.309   5.336   1.051
 5042SOL     OW16024   5.590   2.415   6.362
 5042SOL    HW116025   5.591   2.457   6.271
 5042SOL    HW216026   5.520   2.460   6.418
 5043SOL     OW16027   4.109   0.346   3.316
 5043SOL    HW116028   4.027   0.386   3.357
 5043SOL    HW216029   4.178   0.416   3.304
 5044SOL     OW16030   6.346   4.269   3.201
 5044SOL    HW116031   6.265   4.227   3.162
 5044SOL    HW216032   6.330   4.288   3.298
 5045SOL     OW16033   6.430   3.082   6.415
 5045SOL    HW116034   6.364   3.157   6.423
 5045SOL    HW216035   6.412   3.015   6.486
 5046SOL     OW16036   3.357   3.013   5.142
 5046SOL    HW116037   3.294   3.071   5.090
 5046SOL    HW216038   3.358   3.042   5.237
 5047SOL     OW16039   1.003   1.051   2.531
 5047SOL    HW116040   0.914   1.044   2.576
 5047SOL    HW216041   0.990   1.082   2.437
 5048SOL     OW16042   5.641   3.066   1.389
 5048SOL    HW116043   5.673   3.041   1.480
 5048SOL    HW216044   5.719   3.091   1.332
 5049SOL     OW16045   1.403   2.265   2.532
 5049SOL    HW116046   1.498   2.250   2.560
 5049SOL    HW216047   1.400   2.333   2.459
 5050SOL     OW16048   0.791   3.280   1.223
 5050SOL    HW116049   0.729   3.352   1.254
 5050SOL    HW216050   0.797   3.284   1.123
 5051SOL     OW16051   3.050   5.176   0.019
 5051SOL    HW116052   3.118   5.222   0.075
 5051SOL    HW216053   3.090   5.152   6.954
 5052SOL     OW16054   5.398   4.141   1.049
 5052SOL    HW116055   5.437   4.112   1.136
 5052SOL    HW216056   5.467   4.132   0.977
 5053SOL     OW16057   2.118   4.620   0.160
 5053SOL    HW116058   2.207   4.589   0.195
 5053SOL    HW216059   2.102   4.579   0.070
 5054SOL     OW16060   4.057   5.580   4.749
 5054SOL    HW116061   3.987   5.526   4.702
 5054SOL    HW216062   4.033   5.677   4.743
 5055SOL     OW16063   1.522   1.913   4.315
 5055SOL    HW116064   1.424   1.927   4.328
 5055SOL    HW216065   1.542   1.898   4.218
 5056SOL     OW16066   1.815   2.672   5.494
 5056SOL    HW116067   1.824   2.576   5.467
 5056SOL    HW216068   1.836   2.731   5.415
 5057SOL     OW16069   0.618   4.604   2.893
 5057SOL    HW116070   0.668   4.623   2.978
 5057SOL    HW216071   0.572   4.686   2.862
 5058SOL     OW16072   3.347   4.009   6.556
 5058SOL    HW116073   3.410   4.004   6.634
 5058SOL    HW216074   3.255   4.029   6.590
 5059SOL     OW16075   3.183   1.480   3.503
 5059SOL    HW116076   3.252   1.451   3.437
 5059SOL    HW216077   3.093   1.476   3.461
 5060SOL     OW16078   0.281   3.417   5.768
 5060SOL    HW116079   0.257   3.336   5.714
 5060SOL    HW216080   0.335   3.480   5.711
 5061SOL     OW16081   3.843   2.667   5.576
 5061SOL    HW116082   3.887   2.605   5.641
 5061SOL    HW216083   3.874   2.645   5.483
 5062SOL     OW16084   5.623   1.215   3.298
 5062SOL    HW116085   5.545   1.276   3.313
 5062SOL    HW216086   5.594   1.135   3.246
 5063SOL     OW16087   1.193   0.930   2.386
 5063SOL    HW116088   1.271   0.992   2.381
 5063SOL    HW216089   1.112   0.979   2.419
 5064SOL     OW16090   5.199   5.824   1.134
 5064SOL    HW116091   5.131   5.760   1.170
 5064SOL    HW216092   5.284   5.816   1.187
 5065SOL     OW16093   2.335   0.635   2.359
 5065SOL    HW116094   2.263   0.638   2.428
 5065SOL    HW216095   2.395   0.557   2.376
 5066SOL     OW16096   2.457   4.877   2.115
 5066SOL    HW116097   2.496   4.789   2.087
 5066SOL    HW216098   2.358   4.876   2.101
 5067SOL     OW16099   4.948   2.973   0.463
 5067SOL    HW116100   4.956   2.875   0.478
 5067SOL    HW216101   5.016   3.002   0.395
 5068SOL     OW16102   3.009   6.322   0.657
 5068SOL    HW116103   3.092   6.378   0.653
 5068SOL    HW216104   2.929   6.381   0.670
 5069SOL     OW16105   3.486   4.963   5.407
 5069SOL    HW116106   3.566   4.933   5.356
 5069SOL    HW216107   3.514   5.024   5.481
 5070SOL     OW16108   5.941   3.557   4.181
 5070SOL    HW116109   5.972   3.622   4.112
 5070SOL    HW216110   5.877   3.492   4.140
 5071SOL     OW16111   2.684   0.481   4.042
 5071SOL    HW116112   2.755   0.549   4.058
 5071SOL    HW216113   2.607   0.498   4.103
 5072SOL     OW16114   0.458   1.586   0.245
 5072SOL    HW116115   0.530   1.522   0.271
 5072SOL    HW216116   0.385   1.536   0.197
 5073SOL     OW16117   2.451   1.064   2.556
 5073SOL    HW116118   2.469   1.089   2.651
 5073SOL    HW216119   2.421   1.146   2.506
 5074SOL     OW16120   3.411   2.331   1.684
 5074SOL    HW116121   3.369   2.247   1.718
 5074SOL    HW216122   3.492   2.353   1.739
 5075SOL     OW16123   0.867   3.559   0.144
 5075SOL    HW116124   0.880   3.495   0.068
 5075SOL    HW216125   0.956   3.584   0.182
 5076SOL     OW16126   5.971   0.272   6.238
 5076SOL    HW116127   5.941   0.321   6.320
 5076SOL    HW216128   5.901   0.205   6.211
 5077SOL     OW16129   0.600   4.328   3.953
 5077SOL    HW116130   0.634   4.236   3.975
 5077SOL    HW216131   0.631   4.392   4.023
 5078SOL     OW16132   0.362   1.818   4.531
 5078SOL    HW116133   0.285   1.781   4.480
 5078SOL    HW216134   0.442   1.760   4.518
 5079SOL     OW16135   1.311   3.023   5.377
 5079SOL    HW116136   1.263   3.088   5.318
 5079SOL    HW216137   1.392   3.067   5.416
 5080SOL     OW16138   5.724   5.849   6.920
 5080SOL    HW116139   5.656   5.775   6.926
 5080SOL    HW216140   5.809   5.812   6.881
 5081SOL     OW16141   3.253   5.275   5.440
 5081SOL    HW116142   3.249   5.194   5.499
 5081SOL    HW216143   3.349   5.301   5.427
 5082SOL     OW16144   5.213   6.093   2.338
 5082SOL    HW116145   5.300   6.045   2.325
 5082SOL    HW216146   5.232   6.187   2.369
 5083SOL     OW16147   1.622   0.215   3.079
 5083SOL    HW116148   1.570   0.210   3.165
 5083SOL    HW216149   1.588   0.291   3.024
 5084SOL     OW16150   1.957   4.974   5.377
 5084SOL    HW116151   2.035   4.930   5.421
 5084SOL    HW216152   1.872   4.933   5.409
 5085SOL     OW16153   0.313   4.674   5.874
 5085SOL    HW116154   0.406   4.680   5.912
 5085SOL    HW216155   0.304   4.590   5.821
 5086SOL     OW16156   1.835   5.273   2.111
 5086SOL    HW116157   1.785   5.187   2.101
 5086SOL    HW216158   1.770   5.349   2.103
 5087SOL     OW16159   6.350   4.772   2.097
 5087SOL    HW116160   6.442   4.734   2.099
 5087SOL    HW216161   6.333   4.813   2.007
 5088SOL     OW16162   5.254   6.376   2.087
 5088SOL    HW116163   5.323   6.304   2.097
 5088SOL    HW216164   5.164   6.333   2.077
 5089SOL     OW16165   5.885   5.430   5.640
 5089SOL    HW116166   5.851   5.490   5.713
 5089SOL    HW216167   5.813   5.366   5.615
 5090SOL     OW16168   3.221   6.857   4.992
 5090SOL    HW116169   3.130   6.819   4.977
 5090SOL    HW216170   3.252   6.902   4.909
 5091SOL     OW16171   6.012   6.968   6.490
 5091SOL    HW116172   5.951   0.001   6.546
 5091SOL    HW216173   6.076   0.004   6.441
 5092SOL     OW16174   3.005   3.391   4.226
 5092SOL    HW116175   3.030   3.311   4.281
 5092SOL    HW216176   2.967   3.461   4.286
 5093SOL     OW16177   2.352   2.302   3.125
 5093SOL    HW116178   2.405   2.223   3.156
 5093SOL    HW216179   2.408   2.384   3.130
 5094SOL     OW16180   2.399   5.641   5.411
 5094SOL    HW116181   2.470   5.707   5.385
 5094SOL    HW216182   2.312   5.668   5.371
 5095SOL     OW16183   6.738   1.652   3.269
 5095SOL    HW116184   6.783   1.715   3.333
 5095SOL    HW216185   6.654   1.617   3.311
 5096SOL     OW16186   5.742   3.185   5.366
 5096SOL    HW116187   5.696   3.101   5.394
 5096SOL    HW216188   5.827   3.196   5.417
 5097SOL     OW16189   0.835   0.410   6.271
 5097SOL    HW116190   0.832   0.315   6.240
 5097SOL    HW216191   0.742   0.442   6.290
 5098SOL     OW16192   3.393   2.893   1.512
 5098SOL    HW116193   3.347   2.809   1.483
 5098SOL    HW216194   3.419   2.886   1.608
 5099SOL     OW16195   1.356   0.220   1.784
 5099SOL    HW116196   1.324   0.314   1.776
 5099SOL    HW216197   1.304   0.161   1.723
 5100SOL     OW16198   5.727   4.753   2.769
 5100SOL    HW116199   5.628   4.741   2.769
 5100SOL    HW216200   5.749   4.851   2.769
 5101SOL     OW16201   3.975   0.301   6.487
 5101SOL    HW116202   3.947   0.382   6.436
 5101SOL    HW216203   4.016   0.235   6.423
 5102SOL     OW16204   4.938   4.194   4.655
 5102SOL    HW116205   4.975   4.162   4.567
 5102SOL    HW216206   4.873   4.127   4.690
 5103SOL     OW16207   0.895   0.895   6.472
 5103SOL    HW116208   0.965   0.880   6.402
 5103SOL    HW216209   0.825   0.824   6.465
 5104SOL     OW16210   3.467   3.444   1.235
 5104SOL    HW116211   3.391   3.422   1.174
 5104SOL    HW216212   3.459   3.389   1.318
 5105SOL     OW16213   4.170   3.593   6.264
 5105SOL    HW116214   4.079   3.609   6.225
 5105SOL    HW216215   4.205   3.505   6.234
 5106SOL     OW16216   4.463   2.561   0.665
 5106SOL    HW116217   4.450   2.599   0.756
 5106SOL    HW216218   4.516   2.476   0.672
 5107SOL     OW16219   4.592   3.220   0.254
 5107SOL    HW116220   4.523   3.258   0.192
 5107SOL    HW216221   4.628   3.135   0.215
 5108SOL     OW16222   4.291   4.776   0.041
 5108SOL    HW116223   4.363   4.726   0.090
 5108SOL    HW216224   4.216   4.797   0.103
 5109SOL     OW16225   1.320   2.829   1.311
 5109SOL    HW116226   1.361   2.738   1.318
 5109SOL    HW216227   1.293   2.846   1.216
 5110SOL     OW16228   4.830   0.576   5.779
 5110SOL    HW116229   4.765   0.650   5.765
 5110SOL    HW216230   4.868   0.548   5.690
 5111SOL     OW16231   1.058   6.471   4.855
 5111SOL    HW116232   1.075   6.508   4.764
 5111SOL    HW216233   0.984   6.522   4.898
 5112SOL     OW16234   0.172   0.209   3.106
 5112SOL    HW116235   0.251   0.201   3.046
 5112SOL    HW216236   0.195   0.268   3.184
 5113SOL     OW16237   1.889   3.796   6.980
 5113SOL    HW116238   1.954   3.812   6.907
 5113SOL    HW216239   1.938   3.766   0.039
 5114SOL     OW16240   4.770   5.375   1.201
 5114SOL    HW116241   4.775   5.345   1.296
 5114SOL    HW216242   4.738   5.470   1.198
 5115SOL     OW16243   2.078   3.594   1.264
 5115SOL    HW116244   2.165   3.578   1.311
 5115SOL    HW216245   2.039   3.680   1.296
 5116SOL     OW16246   2.085   0.201   6.729
 5116SOL    HW116247   2.116   0.268   6.662
 5116SOL    HW216248   1.995   0.227   6.764
 5117SOL     OW16249   1.343   2.370   4.089
 5117SOL    HW116250   1.254   2.397   4.053
 5117SOL    HW216251   1.352   2.271   4.085
 5118SOL     OW16252   4.951   6.066   6.201
 5118SOL    HW116253   4.923   6.094   6.110
 5118SOL    HW216254   5.000   6.141   6.246
 5119SOL     OW16255   5.270   1.176   0.213
 5119SOL    HW116256   5.328   1.228   0.151
 5119SOL    HW216257   5.213   1.238   0.267
 5120SOL     OW16258   5.423   6.883   5.764
 5120SOL    HW116259   5.403   6.805   5.705
 5120SOL    HW216260   5.470   6.953   5.712
 5121SOL     OW16261   1.489   3.938   6.307
 5121SOL    HW116262   1.530   3.893   6.228
 5121SOL    HW216263   1.559   3.954   6.376
 5122SOL     OW16264   5.307   5.414   4.523
 5122SOL    HW116265   5.314   5.442   4.619
 5122SOL    HW216266   5.384   5.353   4.501
 5123SOL     OW16267   5.055   3.087   1.656
 5123SOL    HW116268   5.074   3.073   1.559
 5123SOL    HW216269   5.085   3.178   1.683
 5124SOL     OW16270   2.171   5.795   4.533
 5124SOL    HW116271   2.169   5.756   4.625
 5124SOL    HW216272   2.230   5.739   4.474
 5125SOL     OW16273   0.145   1.654   3.849
 5125SOL    HW116274   0.076   1.595   3.808
 5125SOL    HW216275   0.170   1.726   3.784
 5126SOL     OW16276   2.259   0.234   0.354
 5126SOL    HW116277   2.178   0.179   0.331
 5126SOL    HW216278   2.314   0.246   0.271
 5127SOL     OW16279   1.905   5.294   6.872
 5127SOL    HW116280   1.870   5.241   6.949
 5127SOL    HW216281   1.968   5.238   6.819
 5128SOL     OW16282   6.229   6.756   1.956
 5128SOL    HW116283   6.206   6.766   1.859
 5128SOL    HW216284   6.326   6.734   1.965
 5129SOL     OW16285   5.534   6.908   1.183
 5129SOL    HW116286   5.499   6.968   1.111
 5129SOL    HW216287   5.619   6.945   1.219
 5130SOL     OW16288   6.841   4.908   3.370
 5130SOL    HW116289   6.901   4.828   3.371
 5130SOL    HW216290   6.793   4.915   3.458
 5131SOL     OW16291   2.525   2.514   3.123
 5131SOL    HW116292   2.447   2.574   3.102
 5131SOL    HW216293   2.603   2.540   3.066
 5132SOL     OW16294   3.028   5.902   5.201
 5132SOL    HW116295   2.954   5.869   5.142
 5132SOL    HW216296   3.044   5.999   5.183
 5133SOL     OW16297   3.885   6.690   6.213
 5133SOL    HW116298   3.945   6.766   6.187
 5133SOL    HW216299   3.822   6.720   6.284
 5134SOL     OW16300   0.019   3.462   0.403
 5134SOL    HW116301   6.950   3.458   0.440
 5134SOL    HW216302   0.081   3.501   0.471
 5135SOL     OW16303   6.529   1.903   4.629
 5135SOL    HW116304   6.609   1.846   4.608
 5135SOL    HW216305   6.534   1.933   4.724
 5136SOL     OW16306   4.201   1.367   4.087
 5136SOL    HW116307   4.201   1.458   4.045
 5136SOL    HW216308   4.206   1.297   4.016
 5137SOL     OW16309   3.252   4.527   6.246
 5137SOL    HW116310   3.165   4.481   6.265
 5137SOL    HW216311   3.258   4.545   6.147
 5138SOL     OW16312   2.529   3.611   6.122
 5138SOL    HW116313   2.462   3.676   6.157
 5138SOL    HW216314   2.539   3.535   6.187
 5139SOL     OW16315   1.100   0.381   3.502
 5139SOL    HW116316   1.105   0.466   3.555
 5139SOL    HW216317   1.056   0.310   3.558
 5140SOL     OW16318   3.498   2.769   1.178
 5140SOL    HW116319   3.421   2.729   1.228
 5140SOL    HW216320   3.541   2.698   1.122
 5141SOL     OW16321   6.561   3.166   6.950
 5141SOL    HW116322   6.653   3.196   6.975
 5141SOL    HW216323   6.493   3.222   6.998
 5142SOL     OW16324   5.276   3.244   4.178
 5142SOL    HW116325   5.295   3.230   4.275
 5142SOL    HW216326   5.302   3.162   4.126
 5143SOL     OW16327   6.440   5.570   4.282
 5143SOL    HW116328   6.426   5.472   4.266
 5143SOL    HW216329   6.533   5.586   4.314
 5144SOL     OW16330   1.544   1.158   5.205
 5144SOL    HW116331   1.538   1.210   5.290
 5144SOL    HW216332   1.640   1.142   5.183
 5145SOL     OW16333   3.441   5.530   5.603
 5145SOL    HW116334   3.521   5.520   5.662
 5145SOL    HW216335   3.433   5.625   5.573
 5146SOL     OW16336   3.049   4.828   6.802
 5146SOL    HW116337   3.122   4.827   6.733
 5146SOL    HW216338   3.090   4.821   6.893
 5147SOL     OW16339   5.964   4.756   6.892
 5147SOL    HW116340   5.995   4.846   6.861
 5147SOL    HW216341   5.924   4.765   6.984
 5148SOL     OW16342   0.286   5.903   1.517
 5148SOL    HW116343   0.321   5.922   1.425
 5148SOL    HW216344   0.350   5.845   1.566
 5149SOL     OW16345   6.720   1.379   4.978
 5149SOL    HW116346   6.732   1.384   5.077
 5149SOL    HW216347   6.776   1.449   4.934
 5150SOL     OW16348   1.662   5.070   4.389
 5150SOL    HW116349   1.607   5.154   4.387
 5150SOL    HW216350   1.602   4.992   4.402
 5151SOL     OW16351   4.425   0.872   6.655
 5151SOL    HW116352   4.363   0.891   6.731
 5151SOL    HW216353   4.479   0.954   6.634
 5152SOL     OW16354   0.489   4.841   0.212
 5152SOL    HW116355   0.523   4.932   0.234
 5152SOL    HW216356   0.480   4.787   0.296
 5153SOL     OW16357   1.682   1.774   0.688
 5153SOL    HW116358   1.661   1.747   0.594
 5153SOL    HW216359   1.722   1.865   0.689
 5154SOL     OW16360   1.968   2.973   4.548
 5154SOL    HW116361   1.949   2.985   4.451
 5154SOL    HW216362   2.020   3.051   4.582
 5155SOL     OW16363   3.031   0.720   2.402
 5155SOL    HW116364   3.062   0.774   2.324
 5155SOL    HW216365   3.076   0.753   2.485
 5156SOL     OW16366   5.846   2.839   5.157
 5156SOL    HW116367   5.853   2.936   5.135
 5156SOL    HW216368   5.752   2.808   5.143
 5157SOL     OW16369   5.531   3.274   3.290
 5157SOL    HW116370   5.625   3.263   3.321
 5157SOL    HW216371   5.528   3.337   3.212
 5158SOL     OW16372   4.422   1.694   1.640
 5158SOL    HW116373   4.436   1.627   1.713
 5158SOL    HW216374   4.503   1.697   1.581
 5159SOL     OW16375   1.199   2.998   4.089
 5159SOL    HW116376   1.234   3.012   4.182
 5159SOL    HW216377   1.125   3.063   4.072
 5160SOL     OW16378   1.777   2.841   4.312
 5160SOL    HW116379   1.756   2.924   4.364
 5160SOL    HW216380   1.758   2.761   4.368
 5161SOL     OW16381   1.579   2.723   6.350
 5161SOL    HW116382   1.655   2.675   6.395
 5161SOL    HW216383   1.609   2.756   6.261
 5162SOL     OW16384   6.809   6.317   4.396
 5162SOL    HW116385   6.831   6.413   4.416
 5162SOL    HW216386   6.722   6.312   4.347
 5163SOL     OW16387   5.374   3.839   1.046
 5163SOL    HW116388   5.461   3.878   1.015
 5163SOL    HW216389   5.382   3.740   1.051
 5164SOL     OW16390   5.916   4.329   6.371
 5164SOL    HW116391   5.964   4.303   6.455
 5164SOL    HW216392   5.823   4.357   6.393
 5165SOL     OW16393   6.565   4.160   4.320
 5165SOL    HW116394   6.513   4.075   4.329
 5165SOL    HW216395   6.590   4.174   4.224
 5166SOL     OW16396   1.531   6.575   1.694
 5166SOL    HW116397   1.476   6.495   1.673
 5166SOL    HW216398   1.504   6.651   1.634
 5167SOL     OW16399   0.587   6.425   5.680
 5167SOL    HW116400   0.564   6.403   5.586
 5167SOL    HW216401   0.543   6.510   5.707
 5168SOL     OW16402   4.178   2.166   2.880
 5168SOL    HW116403   4.090   2.168   2.831
 5168SOL    HW216404   4.242   2.108   2.831
 5169SOL     OW16405   3.675   4.419   5.932
 5169SOL    HW116406   3.578   4.401   5.915
 5169SOL    HW216407   3.710   4.352   5.997
 5170SOL     OW16408   5.537   3.880   4.622
 5170SOL    HW116409   5.580   3.834   4.544
 5170SOL    HW216410   5.607   3.927   4.676
 5171SOL     OW16411   2.556   4.702   4.659
 5171SOL    HW116412   2.546   4.658   4.571
 5171SOL    HW216413   2.639   4.758   4.659
 5172SOL     OW16414   1.445   5.305   1.591
 5172SOL    HW116415   1.437   5.387   1.649
 5172SOL    HW216416   1.475   5.332   1.500
 5173SOL     OW16417   5.624   3.644   5.899
 5173SOL    HW116418   5.633   3.656   5.998
 5173SOL    HW216419   5.545   3.587   5.879
 5174SOL     OW16420   0.988   4.556   5.997
 5174SOL    HW116421   0.932   4.541   6.079
 5174SOL    HW216422   0.966   4.487   5.929
 5175SOL     OW16423   0.398   4.867   6.470
 5175SOL    HW116424   0.492   4.899   6.459
 5175SOL    HW216425   0.398   4.768   6.485
 5176SOL     OW16426   5.444   3.576   0.759
 5176SOL    HW116427   5.379   3.541   0.826
 5176SOL    HW216428   5.401   3.579   0.669
 5177SOL     OW16429   5.552   0.138   6.525
 5177SOL    HW116430   5.488   0.062   6.516
 5177SOL    HW216431   5.630   0.109   6.581
 5178SOL     OW16432   2.462   2.370   2.140
 5178SOL    HW116433   2.365   2.343   2.137
 5178SOL    HW216434   2.469   2.470   2.137
 5179SOL     OW16435   3.297   6.238   5.887
 5179SOL    HW116436   3.247   6.181   5.823
 5179SOL    HW216437   3.296   6.196   5.978
 5180SOL     OW16438   2.886   2.195   1.293
 5180SOL    HW116439   2.859   2.151   1.208
 5180SOL    HW216440   2.965   2.254   1.277
 5181SOL     OW16441   3.654   6.149   2.053
 5181SOL    HW116442   3.751   6.154   2.076
 5181SOL    HW216443   3.603   6.109   2.129
 5182SOL     OW16444   5.004   4.734   1.843
 5182SOL    HW116445   4.951   4.778   1.915
 5182SOL    HW216446   5.101   4.736   1.867
 5183SOL     OW16447   4.515   0.359   2.285
 5183SOL    HW116448   4.498   0.263   2.266
 5183SOL    HW216449   4.492   0.379   2.380
 5184SOL     OW16450   0.986   1.124   2.858
 5184SOL    HW116451   0.992   1.044   2.919
 5184SOL    HW216452   1.037   1.106   2.774
 5185SOL     OW16453   3.681   0.537   2.438
 5185SOL    HW116454   3.664   0.483   2.520
 5185SOL    HW216455   3.597   0.582   2.410
 5186SOL     OW16456   6.149   4.814   0.684
 5186SOL    HW116457   6.232   4.759   0.672
 5186SOL    HW216458   6.133   4.869   0.602
 5187SOL     OW16459   5.071   1.755   3.906
 5187SOL    HW116460   5.149   1.783   3.962
 5187SOL    HW216461   5.055   1.824   3.835
 5188SOL     OW16462   1.173   3.903   5.612
 5188SOL    HW116463   1.255   3.942   5.568
 5188SOL    HW216464   1.172   3.929   5.708
 5189SOL     OW16465   4.694   5.482   6.333
 5189SOL    HW116466   4.642   5.438   6.406
 5189SOL    HW216467   4.670   5.579   6.329
 5190SOL     OW16468   1.230   2.357   3.649
 5190SOL    HW116469   1.227   2.259   3.668
 5190SOL    HW216470   1.145   2.385   3.604
 5191SOL     OW16471   3.714   0.510   1.760
 5191SOL    HW116472   3.787   0.445   1.781
 5191SOL    HW216473   3.652   0.516   1.838
 5192SOL     OW16474   6.304   5.042   2.834
 5192SOL    HW116475   6.241   4.976   2.792
 5192SOL    HW216476   6.259   5.085   2.912
 5193SOL     OW16477   4.895   3.873   2.578
 5193SOL    HW116478   4.894   3.794   2.517
 5193SOL    HW216479   4.989   3.893   2.607
 5194SOL     OW16480   6.061   0.782   5.421
 5194SOL    HW116481   6.044   0.839   5.501
 5194SOL    HW216482   6.142   0.725   5.438
 5195SOL     OW16483   6.108   5.915   6.053
 5195SOL    HW116484   6.160   5.836   6.085
 5195SOL    HW216485   6.169   5.979   6.007
 5196SOL     OW16486   0.288   3.607   1.810
 5196SOL    HW116487   0.336   3.554   1.880
 5196SOL    HW216488   0.238   3.545   1.750
 5197SOL     OW16489   3.284   6.154   4.611
 5197SOL    HW116490   3.356   6.224   4.604
 5197SOL    HW216491   3.222   6.162   4.533
 5198SOL     OW16492   4.278   6.679   5.114
 5198SOL    HW116493   4.279   6.758   5.054
 5198SOL    HW216494   4.186   6.669   5.153
 5199SOL     OW16495   0.796   4.888   1.845
 5199SOL    HW116496   0.781   4.826   1.922
 5199SOL    HW216497   0.885   4.931   1.854
 5200SOL     OW16498   6.749   0.565   4.934
 5200SOL    HW116499   6.698   0.613   4.863
 5200SOL    HW216500   6.820   0.509   4.892
 5201SOL     OW16501   6.439   5.303   4.324
 5201SOL    HW116502   6.427   5.224   4.384
 5201SOL    HW216503   6.534   5.306   4.292
 5202SOL     OW16504   3.641   3.153   6.285
 5202SOL    HW116505   3.690   3.217   6.226
 5202SOL    HW216506   3.644   3.185   6.380
 5203SOL     OW16507   1.948   0.237   0.074
 5203SOL    HW116508   1.919   0.303   0.142
 5203SOL    HW216509   2.040   0.206   0.094
 5204SOL     OW16510   2.703   0.593   0.490
 5204SOL    HW116511   2.690   0.515   0.429
 5204SOL    HW216512   2.754   0.664   0.443
 5205SOL     OW16513   0.486   5.799   0.844
 5205SOL    HW116514   0.586   5.800   0.850
 5205SOL    HW216515   0.457   5.855   0.766
 5206SOL     OW16516   1.019   4.565   4.021
 5206SOL    HW116517   0.920   4.561   4.035
 5206SOL    HW216518   1.064   4.583   4.108
 5207SOL     OW16519   6.800   0.205   3.944
 5207SOL    HW116520   6.892   0.242   3.934
 5207SOL    HW216521   6.802   0.125   4.004
 5208SOL     OW16522   5.015   1.932   0.419
 5208SOL    HW116523   4.985   1.986   0.498
 5208SOL    HW216524   4.963   1.959   0.338
 5209SOL     OW16525   5.852   6.075   2.881
 5209SOL    HW116526   5.869   6.048   2.976
 5209SOL    HW216527   5.898   6.162   2.863
 5210SOL     OW16528   5.261   4.157   6.875
 5210SOL    HW116529   5.162   4.165   6.866
 5210SOL    HW216530   5.305   4.188   6.791
 5211SOL     OW16531   5.005   2.740   4.762
 5211SOL    HW116532   5.101   2.746   4.733
 5211SOL    HW216533   4.984   2.817   4.822
 5212SOL     OW16534   0.895   3.805   0.543
 5212SOL    HW116535   0.906   3.837   0.449
 5212SOL    HW216536   0.978   3.756   0.572
 5213SOL     OW16537   4.110   3.773   2.952
 5213SOL    HW116538   4.119   3.723   2.866
 5213SOL    HW216539   4.201   3.791   2.990
 5214SOL     OW16540   5.621   3.570   5.453
 5214SOL    HW116541   5.603   3.506   5.528
 5214SOL    HW216542   5.719   3.573   5.435
 5215SOL     OW16543   0.326   3.644   5.045
 5215SOL    HW116544   0.227   3.632   5.037
 5215SOL    HW216545   0.371   3.555   5.039
 5216SOL     OW16546   5.099   5.354   1.272
 5216SOL    HW116547   5.196   5.358   1.296
 5216SOL    HW216548   5.087   5.295   1.192
 5217SOL     OW16549   4.391   6.191   3.196
 5217SOL    HW116550   4.304   6.200   3.147
 5217SOL    HW216551   4.403   6.096   3.227
 5218SOL     OW16552   0.775   6.785   0.814
 5218SOL    HW116553   0.756   6.852   0.886
 5218SOL    HW216554   0.824   6.829   0.740
 5219SOL     OW16555   3.455   1.443   4.787
 5219SOL    HW116556   3.525   1.423   4.855
 5219SOL    HW216557   3.371   1.472   4.833
 5220SOL     OW16558   2.314   4.706   3.869
 5220SOL    HW116559   2.348   4.701   3.775
 5220SOL    HW216560   2.379   4.758   3.925
 5221SOL     OW16561   6.295   5.913   1.170
 5221SOL    HW116562   6.334   5.827   1.201
 5221SOL    HW216563   6.320   5.929   1.075
 5222SOL     OW16564   5.985   3.874   1.086
 5222SOL    HW116565   6.064   3.817   1.067
 5222SOL    HW216566   5.986   3.902   1.182
 5223SOL     OW16567   6.902   3.143   0.727
 5223SOL    HW116568   6.888   3.111   0.633
 5223SOL    HW216569   6.876   3.071   0.791
 5224SOL     OW16570   0.171   2.254   5.061
 5224SOL    HW116571   0.208   2.323   5.124
 5224SOL    HW216572   0.236   2.178   5.054
 5225SOL     OW16573   6.996   1.835   4.799
 5225SOL    HW116574   6.945   1.751   4.781
 5225SOL    HW216575   6.966   1.875   4.885
 5226SOL     OW16576   0.842   6.743   3.521
 5226SOL    HW116577   0.886   6.697   3.443
 5226SOL    HW216578   0.756   6.696   3.542
 5227SOL     OW16579   6.882   2.751   5.264
 5227SOL    HW116580   6.930   2.780   5.347
 5227SOL    HW216581   6.804   2.694   5.289
 5228SOL     OW16582   1.059   1.403   5.705
 5228SOL    HW116583   1.101   1.454   5.781
 5228SOL    HW216584   1.112   1.321   5.687
 5229SOL     OW16585   3.314   1.760   5.851
 5229SOL    HW116586   3.312   1.775   5.752
 5229SOL    HW216587   3.387   1.816   5.891
 5230SOL     OW16588   6.853   6.795   2.099
 5230SOL    HW116589   6.811   6.755   2.180
 5230SOL    HW216590   6.939   6.839   2.125
 5231SOL     OW16591   6.991   2.204   1.215
 5231SOL    HW116592   7.008   2.117   1.262
 5231SOL    HW216593   0.025   2.208   1.133
 5232SOL     OW16594   1.703   2.977   6.016
 5232SOL    HW116595   1.650   2.897   6.044
 5232SOL    HW216596   1.678   3.055   6.073
 5233SOL     OW16597   2.924   0.115   2.866
 5233SOL    HW116598   2.907   0.198   2.813
 5233SOL    HW216599   2.867   0.115   2.948
 5234SOL     OW16600   1.960   2.008   6.960
 5234SOL    HW116601   1.929   1.921   6.922
 5234SOL    HW216602   2.055   2.001   6.989
 5235SOL     OW16603   2.100   2.629   1.539
 5235SOL    HW116604   2.092   2.533   1.513
 5235SOL    HW216605   2.100   2.686   1.457
 5236SOL     OW16606   3.304   5.368   1.847
 5236SOL    HW116607   3.387   5.350   1.794
 5236SOL    HW216608   3.232   5.401   1.785
 5237SOL     OW16609   1.813   1.788   2.550
 5237SOL    HW116610   1.838   1.877   2.512
 5237SOL    HW216611   1.834   1.716   2.484
 5238SOL     OW16612   0.632   6.320   2.878
 5238SOL    HW116613   0.573   6.399   2.859
 5238SOL    HW216614   0.713   6.325   2.819
 5239SOL     OW16615   2.239   3.857   0.895
 5239SOL    HW116616   2.247   3.878   0.798
 5239SOL    HW216617   2.159   3.799   0.910
 5240SOL     OW16618   2.063   3.659   6.012
 5240SOL    HW116619   2.096   3.699   6.097
 5240SOL    HW216620   2.101   3.567   6.002
 5241SOL     OW16621   0.186   5.444   2.156
 5241SOL    HW116622   0.220   5.538   2.159
 5241SOL    HW216623   0.263   5.381   2.169
 5242SOL     OW16624   4.572   0.485   7.011
 5242SOL    HW116625   4.553   0.546   6.935
 5242SOL    HW216626   4.490   0.475   0.045
 5243SOL     OW16627   2.362   6.632   2.024
 5243SOL    HW116628   2.378   6.690   1.944
 5243SOL    HW216629   2.414   6.667   2.101
 5244SOL     OW16630   4.620   2.050   0.102
 5244SOL    HW116631   4.546   2.106   0.140
 5244SOL    HW216632   4.586   1.995   0.026
 5245SOL     OW16633   3.536   3.585   1.520
 5245SOL    HW116634   3.442   3.567   1.491
 5245SOL    HW216635   3.600   3.534   1.462
 5246SOL     OW16636   6.492   3.983   6.945
 5246SOL    HW116637   6.479   4.039   6.864
 5246SOL    HW216638   6.518   4.041   7.022
 5247SOL     OW16639   4.411   1.818   6.365
 5247SOL    HW116640   4.396   1.917   6.366
 5247SOL    HW216641   4.462   1.791   6.446
 5248SOL     OW16642   6.106   1.261   3.721
 5248SOL    HW116643   6.061   1.338   3.767
 5248SOL    HW216644   6.038   1.193   3.696
 5249SOL     OW16645   0.274   4.870   7.018
 5249SOL    HW116646   0.244   4.889   6.924
 5249SOL    HW216647   0.321   4.950   0.031
 5250SOL     OW16648   1.953   5.811   1.030
 5250SOL    HW116649   1.857   5.793   1.008
 5250SOL    HW216650   1.968   5.795   1.127
 5251SOL     OW16651   0.759   4.746   0.083
 5251SOL    HW116652   0.781   4.671   0.145
 5251SOL    HW216653   0.660   4.754   0.075
 5252SOL     OW16654   3.720   6.655   2.439
 5252SOL    HW116655   3.658   6.609   2.503
 5252SOL    HW216656   3.799   6.596   2.421
 5253SOL     OW16657   0.097   5.562   4.764
 5253SOL    HW116658   0.193   5.570   4.794
 5253SOL    HW216659   0.056   5.481   4.805
 5254SOL     OW16660   5.674   6.798   3.838
 5254SOL    HW116661   5.700   6.731   3.768
 5254SOL    HW216662   5.606   6.861   3.800
 5255SOL     OW16663   6.146   1.867   5.410
 5255SOL    HW116664   6.085   1.833   5.481
 5255SOL    HW216665   6.197   1.791   5.370
 5256SOL     OW16666   0.332   1.586   2.340
 5256SOL    HW116667   0.412   1.559   2.394
 5256SOL    HW216668   0.332   1.535   2.254
 5257SOL     OW16669   4.032   1.238   6.233
 5257SOL    HW116670   3.988   1.159   6.277
 5257SOL    HW216671   3.992   1.323   6.268
 5258SOL     OW16672   4.124   1.340   2.937
 5258SOL    HW116673   4.041   1.394   2.942
 5258SOL    HW216674   4.202   1.395   2.968
 5259SOL     OW16675   6.226   4.951   3.577
 5259SOL    HW116676   6.246   5.042   3.614
 5259SOL    HW216677   6.131   4.948   3.546
 5260SOL     OW16678   2.615   0.956   0.833
 5260SOL    HW116679   2.588   1.051   0.817
 5260SOL    HW216680   2.657   0.949   0.924
 5261SOL     OW16681   5.474   4.022   7.004
 5261SOL    HW116682   5.388   4.062   6.974
 5261SOL    HW216683   5.469   3.922   6.997
 5262SOL     OW16684   2.211   0.930   2.447
 5262SOL    HW116685   2.266   0.914   2.365
 5262SOL    HW216686   2.265   0.981   2.514
 5263SOL     OW16687   1.002   6.361   2.225
 5263SOL    HW116688   0.963   6.436   2.279
 5263SOL    HW216689   1.094   6.341   2.258
 5264SOL     OW16690   6.273   1.394   1.791
 5264SOL    HW116691   6.259   1.354   1.882
 5264SOL    HW216692   6.190   1.384   1.737
 5265SOL     OW16693   6.546   5.040   4.568
 5265SOL    HW116694   6.454   5.079   4.578
 5265SOL    HW216695   6.540   4.940   4.576
 5266SOL     OW16696   1.924   0.633   0.022
 5266SOL    HW116697   1.950   0.651   6.951
 5266SOL    HW216698   1.839   0.580   0.024
 5267SOL     OW16699   5.335   2.607   4.404
 5267SOL    HW116700   5.251   2.649   4.439
 5267SOL    HW216701   5.409   2.674   4.407
 5268SOL     OW16702   5.544   0.189   6.255
 5268SOL    HW116703   5.526   0.157   6.348
 5268SOL    HW216704   5.489   0.137   6.190
 5269SOL     OW16705   0.448   6.980   4.127
 5269SOL    HW116706   0.502   6.897   4.135
 5269SOL    HW216707   0.490   0.030   4.180
 5270SOL     OW16708   0.205   1.820   6.305
 5270SOL    HW116709   0.209   1.720   6.313
 5270SOL    HW216710   0.204   1.861   6.396
 5271SOL     OW16711   0.387   4.733   3.181
 5271SOL    HW116712   0.372   4.645   3.136
 5271SOL    HW216713   0.485   4.752   3.184
 5272SOL     OW16714   4.582   0.225   0.274
 5272SOL    HW116715   4.671   0.267   0.254
 5272SOL    HW216716   4.511   0.296   0.273
 5273SOL     OW16717   1.853   1.877   2.804
 5273SOL    HW116718   1.816   1.853   2.714
 5273SOL    HW216719   1.888   1.970   2.801
 5274SOL     OW16720   4.732   5.331   1.557
 5274SOL    HW116721   4.687   5.249   1.523
 5274SOL    HW216722   4.831   5.323   1.543
 5275SOL     OW16723   4.625   2.024   6.581
 5275SOL    HW116724   4.646   2.076   6.498
 5275SOL    HW216725   4.698   1.957   6.598
 5276SOL     OW16726   4.630   6.205   2.012
 5276SOL    HW116727   4.624   6.192   1.914
 5276SOL    HW216728   4.689   6.134   2.052
 5277SOL     OW16729   2.333   2.869   1.815
 5277SOL    HW116730   2.410   2.916   1.773
 5277SOL    HW216731   2.356   2.773   1.829
 5278SOL     OW16732   4.425   3.759   1.655
 5278SOL    HW116733   4.512   3.744   1.704
 5278SOL    HW216734   4.371   3.675   1.659
 5279SOL     OW16735   2.234   5.502   2.954
 5279SOL    HW116736   2.279   5.579   2.909
 5279SOL    HW216737   2.289   5.420   2.941
 5280SOL     OW16738   4.915   6.439   4.767
 5280SOL    HW116739   4.934   6.405   4.674
 5280SOL    HW216740   5.001   6.442   4.819
 5281SOL     OW16741   0.157   2.454   1.818
 5281SOL    HW116742   0.072   2.458   1.870
 5281SOL    HW216743   0.179   2.546   1.784
 5282SOL     OW16744   4.894   1.883   2.118
 5282SOL    HW116745   4.909   1.787   2.093
 5282SOL    HW216746   4.879   1.938   2.036
 5283SOL     OW16747   5.303   5.270   6.565
 5283SOL    HW116748   5.283   5.269   6.467
 5283SOL    HW216749   5.374   5.202   6.585
 5284SOL     OW16750   5.330   3.190   3.686
 5284SOL    HW116751   5.268   3.268   3.694
 5284SOL    HW216752   5.277   3.105   3.688
 5285SOL     OW16753   3.439   5.868   2.639
 5285SOL    HW116754   3.451   5.769   2.628
 5285SOL    HW216755   3.343   5.887   2.658
 5286SOL     OW16756   2.077   4.754   1.901
 5286SOL    HW116757   2.089   4.768   1.803
 5286SOL    HW216758   2.152   4.799   1.950
 5287SOL     OW16759   0.809   1.330   1.364
 5287SOL    HW116760   0.773   1.424   1.368
 5287SOL    HW216761   0.782   1.288   1.277
 5288SOL     OW16762   4.241   1.322   0.665
 5288SOL    HW116763   4.285   1.407   0.697
 5288SOL    HW216764   4.203   1.337   0.574
 5289SOL     OW16765   2.142   5.604   1.244
 5289SOL    HW116766   2.091   5.548   1.178
 5289SOL    HW216767   2.198   5.545   1.302
 5290SOL     OW16768   5.019   5.632   0.626
 5290SOL    HW116769   5.115   5.655   0.612
 5290SOL    HW216770   4.983   5.685   0.703
 5291SOL     OW16771   1.991   5.287   5.809
 5291SOL    HW116772   1.965   5.205   5.860
 5291SOL    HW216773   2.080   5.318   5.840
 5292SOL     OW16774   4.991   2.830   6.183
 5292SOL    HW116775   4.941   2.808   6.099
 5292SOL    HW216776   5.084   2.860   6.159
 5293SOL     OW16777   1.107   1.124   4.595
 5293SOL    HW116778   1.040   1.119   4.668
 5293SOL    HW216779   1.063   1.102   4.508
 5294SOL     OW16780   5.026   2.232   5.438
 5294SOL    HW116781   5.022   2.250   5.340
 5294SOL    HW216782   4.933   2.233   5.475
 5295SOL     OW16783   5.844   0.690   2.278
 5295SOL    HW116784   5.866   0.770   2.335
 5295SOL    HW216785   5.775   0.635   2.324
 5296SOL     OW16786   1.011   3.970   0.299
 5296SOL    HW116787   1.085   3.906   0.275
 5296SOL    HW216788   0.960   3.994   0.216
 5297SOL     OW16789   1.774   3.084   1.592
 5297SOL    HW116790   1.853   3.135   1.558
 5297SOL    HW216791   1.792   3.052   1.685
 5298SOL     OW16792   1.033   5.149   1.567
 5298SOL    HW116793   1.064   5.172   1.475
 5298SOL    HW216794   1.107   5.170   1.632
 5299SOL     OW16795   3.259   0.456   1.389
 5299SOL    HW116796   3.312   0.375   1.365
 5299SOL    HW216797   3.235   0.506   1.305
 5300SOL     OW16798   6.518   5.192   3.268
 5300SOL    HW116799   6.609   5.154   3.253
 5300SOL    HW216800   6.463   5.128   3.321
 5301SOL     OW16801   4.823   0.340   0.261
 5301SOL    HW116802   4.825   0.410   0.189
 5301SOL    HW216803   4.864   0.377   0.345
 5302SOL     OW16804   6.564   4.304   3.460
 5302SOL    HW116805   6.570   4.402   3.480
 5302SOL    HW216806   6.593   4.288   3.365
 5303SOL     OW16807   0.379   5.154   3.503
 5303SOL    HW116808   0.363   5.203   3.417
 5303SOL    HW216809   0.321   5.073   3.506
 5304SOL     OW16810   5.155   1.984   5.485
 5304SOL    HW116811   5.095   2.060   5.462
 5304SOL    HW216812   5.120   1.900   5.442
 5305SOL     OW16813   2.816   0.960   2.710
 5305SOL    HW116814   2.759   0.947   2.792
 5305SOL    HW216815   2.770   0.918   2.631
 5306SOL     OW16816   2.459   0.394   4.687
 5306SOL    HW116817   2.426   0.377   4.780
 5306SOL    HW216818   2.381   0.397   4.625
 5307SOL     OW16819   4.432   6.903   6.661
 5307SOL    HW116820   4.371   6.825   6.671
 5307SOL    HW216821   4.386   6.986   6.694
 5308SOL     OW16822   7.005   1.075   2.842
 5308SOL    HW116823   0.005   1.133   2.764
 5308SOL    HW216824   0.062   1.024   2.872
 5309SOL     OW16825   3.779   3.299   4.520
 5309SOL    HW116826   3.830   3.347   4.448
 5309SOL    HW216827   3.798   3.201   4.515
 5310SOL     OW16828   5.749   1.928   0.681
 5310SOL    HW116829   5.673   1.971   0.730
 5310SOL    HW216830   5.835   1.956   0.723
 5311SOL     OW16831   1.963   5.732   6.796
 5311SOL    HW116832   1.928   5.759   6.707
 5311SOL    HW216833   1.951   5.807   6.861
 5312SOL     OW16834   0.670   2.472   2.111
 5312SOL    HW116835   0.614   2.458   2.193
 5312SOL    HW216836   0.615   2.513   2.039
 5313SOL     OW16837   1.639   5.728   6.707
 5313SOL    HW116838   1.647   5.811   6.761
 5313SOL    HW216839   1.730   5.695   6.683
 5314SOL     OW16840   3.419   4.740   0.796
 5314SOL    HW116841   3.420   4.698   0.705
 5314SOL    HW216842   3.328   4.730   0.837
 5315SOL     OW16843   5.109   3.100   2.430
 5315SOL    HW116844   5.197   3.093   2.476
 5315SOL    HW216845   5.044   3.038   2.473
 5316SOL     OW16846   6.468   5.195   5.360
 5316SOL    HW116847   6.502   5.272   5.307
 5316SOL    HW216848   6.439   5.227   5.451
 5317SOL     OW16849   5.588   5.771   2.902
 5317SOL    HW116850   5.664   5.822   2.863
 5317SOL    HW216851   5.507   5.782   2.844
 5318SOL     OW16852   0.305   2.456   5.186
 5318SOL    HW116853   0.211   2.471   5.216
 5318SOL    HW216854   0.360   2.426   5.264
 5319SOL     OW16855   3.949   6.992   1.452
 5319SOL    HW116856   3.925   0.039   1.520
 5319SOL    HW216857   4.042   7.009   1.419
 5320SOL     OW16858   5.866   3.579   5.796
 5320SOL    HW116859   5.771   3.603   5.814
 5320SOL    HW216860   5.917   3.661   5.771
 5321SOL     OW16861   1.922   5.526   6.403
 5321SOL    HW116862   1.990   5.481   6.461
 5321SOL    HW216863   1.868   5.457   6.356
 5322SOL     OW16864   3.483   6.194   0.431
 5322SOL    HW116865   3.495   6.167   0.335
 5322SOL    HW216866   3.448   6.288   0.436
 5323SOL     OW16867   6.123   3.419   0.106
 5323SOL    HW116868   6.057   3.477   0.057
 5323SOL    HW216869   6.142   3.459   0.196
 5324SOL     OW16870   3.831   3.061   1.798
 5324SOL    HW116871   3.910   3.108   1.758
 5324SOL    HW216872   3.807   2.983   1.740
 5325SOL     OW16873   4.833   5.886   4.258
 5325SOL    HW116874   4.760   5.826   4.288
 5325SOL    HW216875   4.849   5.957   4.327
 5326SOL     OW16876   0.637   0.269   2.200
 5326SOL    HW116877   0.662   0.185   2.250
 5326SOL    HW216878   0.687   0.346   2.238
 5327SOL     OW16879   6.878   0.947   4.722
 5327SOL    HW116880   6.889   1.026   4.661
 5327SOL    HW216881   6.968   0.923   4.759
 5328SOL     OW16882   3.863   5.059   0.839
 5328SOL    HW116883   3.778   5.083   0.887
 5328SOL    HW216884   3.899   4.974   0.876
 5329SOL     OW16885   6.377   5.284   0.333
 5329SOL    HW116886   6.279   5.273   0.318
 5329SOL    HW216887   6.395   5.373   0.375
 5330SOL     OW16888   3.709   4.827   0.220
 5330SOL    HW116889   3.614   4.853   0.198
 5330SOL    HW216890   3.766   4.839   0.139
 5331SOL     OW16891   4.169   2.667   6.486
 5331SOL    HW116892   4.246   2.692   6.427
 5331SOL    HW216893   4.120   2.589   6.448
 5332SOL     OW16894   5.977   3.136   0.210
 5332SOL    HW116895   5.957   3.061   0.147
 5332SOL    HW216896   6.075   3.155   0.208
 5333SOL     OW16897   1.369   2.100   4.067
 5333SOL    HW116898   1.451   2.058   4.027
 5333SOL    HW216899   1.294   2.035   4.064
 5334SOL     OW16900   3.255   5.884   1.684
 5334SOL    HW116901   3.159   5.861   1.669
 5334SOL    HW216902   3.288   5.838   1.767
 5335SOL     OW16903   0.377   4.247   1.327
 5335SOL    HW116904   0.466   4.258   1.372
 5335SOL    HW216905   0.384   4.279   1.233
 5336SOL     OW16906   1.587   3.058   4.982
 5336SOL    HW116907   1.558   3.113   4.904
 5336SOL    HW216908   1.686   3.070   4.995
 5337SOL     OW16909   6.318   5.031   0.697
 5337SOL    HW116910   6.247   4.961   0.705
 5337SOL    HW216911   6.408   4.988   0.702
 5338SOL     OW16912   6.304   3.283   0.999
 5338SOL    HW116913   6.373   3.344   1.039
 5338SOL    HW216914   6.230   3.338   0.959
 5339SOL     OW16915   5.009   3.617   2.743
 5339SOL    HW116916   5.091   3.619   2.801
 5339SOL    HW216917   5.035   3.590   2.650
 5340SOL     OW16918   4.858   3.893   2.209
 5340SOL    HW116919   4.859   3.857   2.116
 5340SOL    HW216920   4.811   3.829   2.269
 5341SOL     OW16921   4.354   4.579   3.659
 5341SOL    HW116922   4.399   4.592   3.571
 5341SOL    HW216923   4.420   4.595   3.733
 5342SOL     OW16924   6.839   5.737   4.968
 5342SOL    HW116925   6.889   5.652   4.953
 5342SOL    HW216926   6.745   5.726   4.934
 5343SOL     OW16927   3.180   2.719   6.164
 5343SOL    HW116928   3.125   2.795   6.129
 5343SOL    HW216929   3.241   2.752   6.236
 5344SOL     OW16930   0.478   1.427   6.266
 5344SOL    HW116931   0.488   1.329   6.288
 5344SOL    HW216932   0.386   1.444   6.232
 5345SOL     OW16933   4.905   1.459   6.844
 5345SOL    HW116934   4.916   1.402   6.924
 5345SOL    HW216935   4.812   1.448   6.807
 5346SOL     OW16936   3.030   5.956   3.232
 5346SOL    HW116937   3.099   6.020   3.269
 5346SOL    HW216938   2.940   5.980   3.269
 5347SOL     OW16939   5.844   1.945   3.978
 5347SOL    HW116940   5.904   1.947   4.058
 5347SOL    HW216941   5.836   1.851   3.945
 5348SOL     OW16942   4.853   2.339   4.429
 5348SOL    HW116943   4.946   2.318   4.399
 5348SOL    HW216944   4.854   2.364   4.526
 5349SOL     OW16945   0.839   3.758   1.306
 5349SOL    HW116946   0.905   3.739   1.378
 5349SOL    HW216947   0.768   3.820   1.341
 5350SOL     OW16948   0.947   5.955   6.991
 5350SOL    HW116949   0.874   5.973   6.925
 5350SOL    HW216950   0.938   5.862   0.002
 5351SOL     OW16951   6.518   6.082   3.362
 5351SOL    HW116952   6.428   6.115   3.390
 5351SOL    HW216953   6.586   6.110   3.430
 5352SOL     OW16954   1.331   3.170   6.021
 5352SOL    HW116955   1.365   3.116   6.099
 5352SOL    HW216956   1.232   3.162   6.016
 5353SOL     OW16957   3.940   4.866   3.539
 5353SOL    HW116958   4.014   4.808   3.574
 5353SOL    HW216959   3.873   4.882   3.612
 5354SOL     OW16960   3.791   5.757   1.432
 5354SOL    HW116961   3.875   5.804   1.459
 5354SOL    HW216962   3.731   5.820   1.383
 5355SOL     OW16963   5.400   4.494   5.417
 5355SOL    HW116964   5.482   4.446   5.386
 5355SOL    HW216965   5.368   4.452   5.502
 5356SOL     OW16966   0.328   5.649   0.678
 5356SOL    HW116967   0.239   5.637   0.722
 5356SOL    HW216968   0.392   5.690   0.743
 5357SOL     OW16969   6.143   3.727   3.039
 5357SOL    HW116970   6.064   3.776   3.077
 5357SOL    HW216971   6.111   3.646   2.989
 5358SOL     OW16972   4.479   1.282   6.819
 5358SOL    HW116973   4.482   1.351   6.891
 5358SOL    HW216974   4.410   1.308   6.750
 5359SOL     OW16975   3.175   2.199   6.487
 5359SOL    HW116976   3.090   2.184   6.438
 5359SOL    HW216977   3.189   2.124   6.553
 5360SOL     OW16978   5.594   4.791   4.281
 5360SOL    HW116979   5.621   4.871   4.227
 5360SOL    HW216980   5.647   4.711   4.251
 5361SOL     OW16981   1.181   5.363   2.077
 5361SOL    HW116982   1.151   5.384   2.170
 5361SOL    HW216983   1.106   5.380   2.014
 5362SOL     OW16984   5.605   1.685   2.488
 5362SOL    HW116985   5.621   1.784   2.482
 5362SOL    HW216986   5.692   1.636   2.482
 5363SOL     OW16987   5.918   4.824   3.894
 5363SOL    HW116988   5.970   4.897   3.847
 5363SOL    HW216989   5.834   4.805   3.844
 5364SOL     OW16990   4.810   2.008   2.963
 5364SOL    HW116991   4.723   1.958   2.964
 5364SOL    HW216992   4.846   2.009   2.870
 5365SOL     OW16993   3.070   3.169   4.350
 5365SOL    HW116994   3.018   3.155   4.435
 5365SOL    HW216995   3.156   3.117   4.355
 5366SOL     OW16996   6.138   6.361   3.320
 5366SOL    HW116997   6.153   6.301   3.241
 5366SOL    HW216998   6.054   6.335   3.366
 5367SOL     OW16999   6.001   5.711   1.321
 5367SOL    HW117000   6.044   5.800   1.310
 5367SOL    HW217001   5.981   5.672   1.231
 5368SOL     OW17002   6.859   5.748   4.185
 5368SOL    HW117003   6.870   5.801   4.101
 5368SOL    HW217004   6.908   5.661   4.176
 5369SOL     OW17005   3.855   5.845   2.415
 5369SOL    HW117006   3.876   5.783   2.491
 5369SOL    HW217007   3.783   5.908   2.443
 5370SOL     OW17008   1.525   3.100   0.407
 5370SOL    HW117009   1.466   3.172   0.370
 5370SOL    HW217010   1.576   3.058   0.332
 5371SOL     OW17011   6.113   5.492   4.904
 5371SOL    HW117012   6.017   5.481   4.880
 5371SOL    HW217013   6.130   5.447   4.992
 5372SOL     OW17014   1.729   6.997   3.089
 5372SOL    HW117015   1.680   0.049   3.045
 5372SOL    HW217016   1.827   7.005   3.071
 5373SOL     OW17017   3.128   1.154   6.396
 5373SOL    HW117018   3.199   1.100   6.441
 5373SOL    HW217019   3.073   1.200   6.466
 5374SOL     OW17020   2.071   4.104   1.848
 5374SOL    HW117021   1.993   4.065   1.898
 5374SOL    HW217022   2.058   4.089   1.750
 5375SOL     OW17023   2.341   4.813   4.776
 5375SOL    HW117024   2.420   4.776   4.727
 5375SOL    HW217025   2.336   4.771   4.867
 5376SOL     OW17026   0.489   0.243   6.022
 5376SOL    HW117027   0.389   0.239   6.012
 5376SOL    HW217028   0.527   0.302   5.951
 5377SOL     OW17029   1.514   1.129   2.694
 5377SOL    HW117030   1.496   1.220   2.656
 5377SOL    HW217031   1.598   1.092   2.654
 5378SOL     OW17032   4.470   0.429   2.545
 5378SOL    HW117033   4.439   0.524   2.539
 5378SOL    HW217034   4.528   0.418   2.626
 5379SOL     OW17035   2.178   2.197   4.867
 5379SOL    HW117036   2.162   2.157   4.957
 5379SOL    HW217037   2.187   2.125   4.799
 5380SOL     OW17038   4.153   6.360   1.809
 5380SOL    HW117039   4.235   6.391   1.761
 5380SOL    HW217040   4.125   6.271   1.774
 5381SOL     OW17041   2.859   0.204   3.746
 5381SOL    HW117042   2.781   0.164   3.794
 5381SOL    HW217043   2.902   0.135   3.688
 5382SOL     OW17044   4.620   0.967   2.409
 5382SOL    HW117045   4.547   0.977   2.477
 5382SOL    HW217046   4.581   0.965   2.317
 5383SOL     OW17047   2.125   2.936   4.284
 5383SOL    HW117048   2.129   3.036   4.293
 5383SOL    HW217049   2.126   2.895   4.375
 5384SOL     OW17050   5.988   5.443   5.383
 5384SOL    HW117051   5.942   5.427   5.470
 5384SOL    HW217052   5.957   5.375   5.316
 5385SOL     OW17053   3.779   3.346   6.168
 5385SOL    HW117054   3.770   3.412   6.243
 5385SOL    HW217055   3.752   3.389   6.082
 5386SOL     OW17056   5.071   4.519   4.464
 5386SOL    HW117057   5.140   4.448   4.478
 5386SOL    HW217058   5.007   4.519   4.541
 5387SOL     OW17059   1.061   1.791   4.198
 5387SOL    HW117060   1.131   1.817   4.131
 5387SOL    HW217061   1.037   1.695   4.184
 5388SOL     OW17062   0.337   6.843   2.935
 5388SOL    HW117063   0.279   6.772   2.895
 5388SOL    HW217064   0.296   6.876   3.020
 5389SOL     OW17065   5.047   1.355   3.672
 5389SOL    HW117066   5.092   1.424   3.729
 5389SOL    HW217067   4.948   1.366   3.678
 5390SOL     OW17068   6.976   3.462   3.482
 5390SOL    HW117069   6.884   3.469   3.521
 5390SOL    HW217070   0.009   3.538   3.515
 5391SOL     OW17071   3.018   2.708   0.526
 5391SOL    HW117072   3.116   2.726   0.519
 5391SOL    HW217073   2.978   2.701   0.435
 5392SOL     OW17074   6.143   0.686   3.784
 5392SOL    HW117075   6.044   0.698   3.793
 5392SOL    HW217076   6.186   0.775   3.772
 5393SOL     OW17077   4.405   2.372   4.344
 5393SOL    HW117078   4.479   2.330   4.396
 5393SOL    HW217079   4.422   2.361   4.246
 5394SOL     OW17080   1.010   1.834   1.300
 5394SOL    HW117081   1.043   1.887   1.222
 5394SOL    HW217082   0.969   1.895   1.368
 5395SOL     OW17083   6.637   1.396   0.796
 5395SOL    HW117084   6.715   1.454   0.777
 5395SOL    HW217085   6.649   1.307   0.752
 5396SOL     OW17086   4.603   3.935   0.477
 5396SOL    HW117087   4.597   4.028   0.513
 5396SOL    HW217088   4.514   3.909   0.438
 5397SOL     OW17089   0.142   0.866   2.896
 5397SOL    HW117090   0.139   0.789   2.960
 5397SOL    HW217091   0.215   0.928   2.924
 5398SOL     OW17092   6.270   3.043   2.135
 5398SOL    HW117093   6.189   2.986   2.132
 5398SOL    HW217094   6.246   3.133   2.173
 5399SOL     OW17095   1.498   1.856   0.134
 5399SOL    HW117096   1.511   1.840   0.036
 5399SOL    HW217097   1.401   1.877   0.151
 5400SOL     OW17098   4.902   2.996   1.371
 5400SOL    HW117099   4.810   3.000   1.410
 5400SOL    HW217100   4.955   2.924   1.417
 5401SOL     OW17101   5.105   2.419   1.252
 5401SOL    HW117102   5.042   2.475   1.198
 5401SOL    HW217103   5.148   2.476   1.322
 5402SOL     OW17104   1.478   6.409   2.477
 5402SOL    HW117105   1.529   6.492   2.453
 5402SOL    HW217106   1.541   6.334   2.492
 5403SOL     OW17107   4.464   2.512   6.990
 5403SOL    HW117108   4.504   2.581   0.027
 5403SOL    HW217109   4.533   2.479   6.926
 5404SOL     OW17110   5.127   0.430   6.880
 5404SOL    HW117111   5.090   0.522   6.872
 5404SOL    HW217112   5.224   0.434   6.902
 5405SOL     OW17113   0.103   4.751   0.191
 5405SOL    HW117114   0.126   4.795   0.277
 5405SOL    HW217115   0.155   4.794   0.117
 5406SOL     OW17116   2.232   1.015   5.937
 5406SOL    HW117117   2.198   0.933   5.890
 5406SOL    HW217118   2.155   1.077   5.954
 5407SOL     OW17119   1.866   7.005   3.333
 5407SOL    HW117120   1.944   0.044   3.332
 5407SOL    HW217121   1.797   0.012   3.267
 5408SOL     OW17122   2.297   1.701   4.738
 5408SOL    HW117123   2.326   1.628   4.676
 5408SOL    HW217124   2.377   1.754   4.765
 5409SOL     OW17125   1.059   2.586   2.214
 5409SOL    HW117126   1.041   2.666   2.271
 5409SOL    HW217127   1.023   2.601   2.122
 5410SOL     OW17128   6.237   2.278   0.437
 5410SOL    HW117129   6.158   2.231   0.477
 5410SOL    HW217130   6.255   2.240   0.346
 5411SOL     OW17131   3.414   5.504   6.781
 5411SOL    HW117132   3.352   5.582   6.783
 5411SOL    HW217133   3.505   5.534   6.810
 5412SOL     OW17134   6.903   2.270   6.166
 5412SOL    HW117135   6.917   2.244   6.261
 5412SOL    HW217136   6.945   2.359   6.150
 5413SOL     OW17137   1.010   5.273   4.771
 5413SOL    HW117138   0.912   5.288   4.761
 5413SOL    HW217139   1.045   5.227   4.689
 5414SOL     OW17140   5.207   4.479   5.804
 5414SOL    HW117141   5.164   4.476   5.894
 5414SOL    HW217142   5.297   4.523   5.812
 5415SOL     OW17143   4.006   1.072   0.327
 5415SOL    HW117144   3.948   1.015   0.385
 5415SOL    HW217145   3.999   1.167   0.356
 5416SOL     OW17146   3.678   5.497   6.876
 5416SOL    HW117147   3.697   5.417   6.820
 5416SOL    HW217148   3.696   5.475   6.973
 5417SOL     OW17149   4.354   6.723   3.970
 5417SOL    HW117150   4.426   6.767   4.025
 5417SOL    HW217151   4.275   6.705   4.029
 5418SOL     OW17152   6.679   2.955   5.608
 5418SOL    HW117153   6.645   2.863   5.624
 5418SOL    HW217154   6.655   3.014   5.685
 5419SOL     OW17155   4.042   1.565   5.930
 5419SOL    HW117156   4.103   1.597   6.003
 5419SOL    HW217157   4.089   1.496   5.876
 5420SOL     OW17158   1.639   2.304   1.851
 5420SOL    HW117159   1.585   2.238   1.902
 5420SOL    HW217160   1.714   2.338   1.909
 5421SOL     OW17161   3.632   4.928   2.179
 5421SOL    HW117162   3.650   4.869   2.100
 5421SOL    HW217163   3.638   5.024   2.150
 5422SOL     OW17164   2.859   5.161   4.108
 5422SOL    HW117165   2.809   5.077   4.128
 5422SOL    HW217166   2.956   5.140   4.095
 5423SOL     OW17167   4.991   6.623   1.972
 5423SOL    HW117168   5.059   6.622   2.045
 5423SOL    HW217169   5.032   6.593   1.886
 5424SOL     OW17170   3.951   3.425   5.385
 5424SOL    HW117171   3.955   3.359   5.310
 5424SOL    HW217172   3.983   3.382   5.469
 5425SOL     OW17173   1.508   4.458   5.493
 5425SOL    HW117174   1.503   4.535   5.429
 5425SOL    HW217175   1.433   4.395   5.474
 5426SOL     OW17176   6.800   5.045   1.347
 5426SOL    HW117177   6.797   5.081   1.441
 5426SOL    HW217178   6.886   5.073   1.304
 5427SOL     OW17179   4.239   2.904   0.335
 5427SOL    HW117180   4.282   2.866   0.417
 5427SOL    HW217181   4.200   2.830   0.280
 5428SOL     OW17182   5.435   5.194   3.270
 5428SOL    HW117183   5.439   5.291   3.296
 5428SOL    HW217184   5.363   5.149   3.323
 5429SOL     OW17185   3.243   0.384   4.616
 5429SOL    HW117186   3.276   0.375   4.710
 5429SOL    HW217187   3.209   0.477   4.602
 5430SOL     OW17188   2.775   3.954   5.540
 5430SOL    HW117189   2.839   3.892   5.585
 5430SOL    HW217190   2.707   3.901   5.490
 5431SOL     OW17191   4.839   4.622   0.532
 5431SOL    HW117192   4.914   4.621   0.467
 5431SOL    HW217193   4.806   4.716   0.544
 5432SOL     OW17194   0.661   5.275   6.823
 5432SOL    HW117195   0.698   5.356   6.869
 5432SOL    HW217196   0.652   5.200   6.889
 5433SOL     OW17197   3.440   0.292   1.193
 5433SOL    HW117198   3.489   0.378   1.209
 5433SOL    HW217199   3.407   0.255   1.280
 5434SOL     OW17200   4.871   0.558   4.411
 5434SOL    HW117201   4.932   0.552   4.490
 5434SOL    HW217202   4.829   0.649   4.408
 5435SOL     OW17203   6.568   4.941   0.721
 5435SOL    HW117204   6.635   5.002   0.763
 5435SOL    HW217205   6.607   4.850   0.710
 5436SOL     OW17206   1.908   4.531   2.837
 5436SOL    HW117207   1.846   4.460   2.870
 5436SOL    HW217208   1.908   4.531   2.737
 5437SOL     OW17209   3.390   6.472   1.106
 5437SOL    HW117210   3.415   6.421   1.023
 5437SOL    HW217211   3.364   6.407   1.178
 5438SOL     OW17212   4.679   6.057   2.396
 5438SOL    HW117213   4.660   6.001   2.316
 5438SOL    HW217214   4.755   6.119   2.377
 5439SOL     OW17215   0.871   4.664   1.487
 5439SOL    HW117216   0.962   4.657   1.446
 5439SOL    HW217217   0.862   4.752   1.534
 5440SOL     OW17218   6.021   6.775   3.681
 5440SOL    HW117219   5.990   6.849   3.741
 5440SOL    HW217220   6.052   6.813   3.594
 5441SOL     OW17221   5.703   2.637   4.627
 5441SOL    HW117222   5.651   2.691   4.561
 5441SOL    HW217223   5.686   2.671   4.719
 5442SOL     OW17224   3.232   0.474   6.675
 5442SOL    HW117225   3.151   0.494   6.730
 5442SOL    HW217226   3.256   0.377   6.685
 5443SOL     OW17227   5.032   1.231   3.326
 5443SOL    HW117228   5.010   1.202   3.233
 5443SOL    HW217229   5.111   1.179   3.360
 5444SOL     OW17230   6.531   0.737   5.918
 5444SOL    HW117231   6.592   0.806   5.958
 5444SOL    HW217232   6.567   0.708   5.829
 5445SOL     OW17233   5.501   5.853   5.985
 5445SOL    HW117234   5.598   5.849   6.009
 5445SOL    HW217235   5.446   5.826   6.063
 5446SOL     OW17236   6.942   4.128   5.970
 5446SOL    HW117237   0.007   4.175   5.964
 5446SOL    HW217238   6.921   4.109   6.066
 5447SOL     OW17239   0.041   1.339   1.700
 5447SOL    HW117240   0.116   1.310   1.642
 5447SOL    HW217241   6.983   1.285   1.680
 5448SOL     OW17242   5.149   4.766   2.877
 5448SOL    HW117243   5.165   4.723   2.788
 5448SOL    HW217244   5.168   4.864   2.871
 5449SOL     OW17245   2.863   1.135   2.075
 5449SOL    HW117246   2.815   1.214   2.036
 5449SOL    HW217247   2.815   1.051   2.049
 5450SOL     OW17248   4.309   5.636   1.919
 5450SOL    HW117249   4.331   5.728   1.886
 5450SOL    HW217250   4.235   5.642   1.986
 5451SOL     OW17251   6.381   6.598   3.174
 5451SOL    HW117252   6.301   6.597   3.234
 5451SOL    HW217253   6.384   6.513   3.121
 5452SOL     OW17254   1.833   3.973   2.432
 5452SOL    HW117255   1.814   3.896   2.370
 5452SOL    HW217256   1.931   3.979   2.449
 5453SOL     OW17257   6.464   4.605   3.996
 5453SOL    HW117258   6.381   4.646   3.957
 5453SOL    HW217259   6.440   4.553   4.078
 5454SOL     OW17260   6.347   4.066   3.421
 5454SOL    HW117261   6.382   4.008   3.347
 5454SOL    HW217262   6.424   4.109   3.468
 5455SOL     OW17263   2.331   2.262   3.796
 5455SOL    HW117264   2.363   2.251   3.890
 5455SOL    HW217265   2.400   2.228   3.733
 5456SOL     OW17266   5.146   2.231   0.597
 5456SOL    HW117267   5.201   2.148   0.599
 5456SOL    HW217268   5.206   2.310   0.581
 5457SOL     OW17269   5.557   1.251   6.374
 5457SOL    HW117270   5.496   1.304   6.315
 5457SOL    HW217271   5.637   1.306   6.397
 5458SOL     OW17272   5.906   3.313   0.393
 5458SOL    HW117273   5.834   3.277   0.453
 5458SOL    HW217274   5.946   3.237   0.341
 5459SOL     OW17275   1.797   3.430   4.951
 5459SOL    HW117276   1.838   3.495   5.015
 5459SOL    HW217277   1.835   3.339   4.968
 5460SOL     OW17278   0.965   0.622   1.532
 5460SOL    HW117279   1.059   0.592   1.516
 5460SOL    HW217280   0.965   0.712   1.575
 5461SOL     OW17281   6.320   0.789   5.539
 5461SOL    HW117282   6.389   0.734   5.494
 5461SOL    HW217283   6.355   0.882   5.553
 5462SOL     OW17284   5.096   4.375   6.508
 5462SOL    HW117285   5.146   4.370   6.422
 5462SOL    HW217286   5.034   4.454   6.506
 5463SOL     OW17287   0.907   2.992   6.034
 5463SOL    HW117288   0.917   2.894   6.017
 5463SOL    HW217289   0.824   3.009   6.087
 5464SOL     OW17290   1.896   5.604   5.887
 5464SOL    HW117291   1.927   5.650   5.804
 5464SOL    HW217292   1.838   5.526   5.862
 5465SOL     OW17293   0.575   6.991   4.488
 5465SOL    HW117294   0.560   0.037   4.417
 5465SOL    HW217295   0.575   6.900   4.446
 5466SOL     OW17296   6.048   2.205   4.689
 5466SOL    HW117297   6.077   2.300   4.682
 5466SOL    HW217298   6.102   2.148   4.627
 5467SOL     OW17299   4.842   3.110   4.381
 5467SOL    HW117300   4.805   3.054   4.456
 5467SOL    HW217301   4.930   3.148   4.408
 5468SOL     OW17302   0.000   1.061   0.952
 5468SOL    HW117303   0.072   1.013   1.003
 5468SOL    HW217304   7.020   1.157   0.983
 5469SOL     OW17305   3.854   0.427   4.100
 5469SOL    HW117306   3.815   0.519   4.114
 5469SOL    HW217307   3.797   0.360   4.148
 5470SOL     OW17308   3.795   5.441   3.997
 5470SOL    HW117309   3.732   5.370   3.963
 5470SOL    HW217310   3.756   5.531   3.980
 5471SOL     OW17311   4.976   0.906   3.301
 5471SOL    HW117312   5.041   0.829   3.302
 5471SOL    HW217313   4.899   0.885   3.362
 5472SOL     OW17314   3.058   3.573   6.558
 5472SOL    HW117315   3.001   3.627   6.620
 5472SOL    HW217316   3.086   3.630   6.481
 5473SOL     OW17317   2.305   4.775   1.707
 5473SOL    HW117318   2.399   4.748   1.725
 5473SOL    HW217319   2.302   4.871   1.680
 5474SOL     OW17320   1.106   5.040   2.590
 5474SOL    HW117321   1.180   5.102   2.564
 5474SOL    HW217322   1.145   4.955   2.625
 5475SOL     OW17323   0.937   1.097   4.831
 5475SOL    HW117324   0.847   1.099   4.874
 5475SOL    HW217325   1.008   1.098   4.903
 5476SOL     OW17326   2.491   6.915   5.203
 5476SOL    HW117327   2.564   6.971   5.165
 5476SOL    HW217328   2.402   6.954   5.179
 5477SOL     OW17329   1.622   3.882   3.985
 5477SOL    HW117330   1.592   3.794   3.951
 5477SOL    HW217331   1.542   3.940   4.004
 5478SOL     OW17332   5.167   4.841   6.147
 5478SOL    HW117333   5.115   4.913   6.101
 5478SOL    HW217334   5.104   4.770   6.178
 5479SOL     OW17335   4.806   1.779   4.835
 5479SOL    HW117336   4.728   1.731   4.795
 5479SOL    HW217337   4.853   1.719   4.900
 5480SOL     OW17338   0.829   3.645   3.990
 5480SOL    HW117339   0.906   3.592   4.025
 5480SOL    HW217340   0.758   3.583   3.957
 5481SOL     OW17341   4.761   1.507   6.018
 5481SOL    HW117342   4.663   1.506   6.000
 5481SOL    HW217343   4.796   1.414   6.018
 5482SOL     OW17344   5.361   2.998   0.928
 5482SOL    HW117345   5.415   3.004   1.012
 5482SOL    HW217346   5.264   2.999   0.951
 5483SOL     OW17347   6.581   2.717   6.500
 5483SOL    HW117348   6.508   2.752   6.558
 5483SOL    HW217349   6.553   2.629   6.461
 5484SOL     OW17350   6.900   6.724   4.694
 5484SOL    HW117351   6.905   6.823   4.693
 5484SOL    HW217352   6.992   6.685   4.698
 5485SOL     OW17353   3.400   0.217   5.482
 5485SOL    HW117354   3.415   0.293   5.419
 5485SOL    HW217355   3.365   0.138   5.432
 5486SOL     OW17356   1.065   0.710   4.181
 5486SOL    HW117357   1.164   0.696   4.191
 5486SOL    HW217358   1.026   0.735   4.269
 5487SOL     OW17359   4.540   4.981   1.008
 5487SOL    HW117360   4.607   4.916   0.974
 5487SOL    HW217361   4.578   5.074   1.002
 5488SOL     OW17362   4.779   1.257   5.912
 5488SOL    HW117363   4.729   1.234   5.830
 5488SOL    HW217364   4.876   1.234   5.900
 5489SOL     OW17365   1.036   3.985   3.284
 5489SOL    HW117366   0.976   3.937   3.220
 5489SOL    HW217367   0.985   4.011   3.366
 5490SOL     OW17368   1.542   1.848   6.899
 5490SOL    HW117369   1.605   1.811   6.830
 5490SOL    HW217370   1.469   1.898   6.853
 5491SOL     OW17371   0.541   5.281   1.156
 5491SOL    HW117372   0.500   5.364   1.194
 5491SOL    HW217373   0.484   5.248   1.080
 5492SOL     OW17374   1.447   0.898   5.139
 5492SOL    HW117375   1.514   0.840   5.092
 5492SOL    HW217376   1.483   0.991   5.146
 5493SOL     OW17377   3.275   3.133   6.991
 5493SOL    HW117378   3.195   3.190   7.008
 5493SOL    HW217379   3.325   3.168   6.912
 5494SOL     OW17380   5.811   3.176   2.032
 5494SOL    HW117381   5.859   3.166   1.945
 5494SOL    HW217382   5.790   3.273   2.047
 5495SOL     OW17383   3.450   2.869   2.626
 5495SOL    HW117384   3.424   2.859   2.530
 5495SOL    HW217385   3.370   2.893   2.681
 5496SOL     OW17386   3.519   5.574   1.508
 5496SOL    HW117387   3.505   5.476   1.491
 5496SOL    HW217388   3.599   5.606   1.456
 5497SOL     OW17389   6.503   6.697   1.926
 5497SOL    HW117390   6.536   6.728   2.015
 5497SOL    HW217391   6.534   6.604   1.909
 5498SOL     OW17392   4.483   0.850   5.083
 5498SOL    HW117393   4.480   0.900   5.169
 5498SOL    HW217394   4.573   0.859   5.041
 5499SOL     OW17395   0.152   2.131   4.201
 5499SOL    HW117396   0.170   2.036   4.228
 5499SOL    HW217397   0.166   2.192   4.279
 5500SOL     OW17398   1.595   5.811   1.918
 5500SOL    HW117399   1.599   5.732   1.855
 5500SOL    HW217400   1.678   5.814   1.973
 5501SOL     OW17401   2.218   6.791   2.574
 5501SOL    HW117402   2.298   6.844   2.548
 5501SOL    HW217403   2.173   6.756   2.492
 5502SOL     OW17404   4.417   4.117   6.796
 5502SOL    HW117405   4.416   4.152   6.702
 5502SOL    HW217406   4.433   4.019   6.795
 5503SOL     OW17407   1.637   5.486   4.262
 5503SOL    HW117408   1.690   5.441   4.334
 5503SOL    HW217409   1.637   5.585   4.277
 5504SOL     OW17410   3.325   2.099   4.941
 5504SOL    HW117411   3.373   2.135   4.861
 5504SOL    HW217412   3.286   2.174   4.993
 5505SOL     OW17413   2.544   4.774   5.946
 5505SOL    HW117414   2.623   4.748   6.001
 5505SOL    HW217415   2.556   4.741   5.852
 5506SOL     OW17416   6.429   7.006   5.499
 5506SOL    HW117417   6.528   6.992   5.500
 5506SOL    HW217418   6.407   0.064   5.446
 5507SOL     OW17419   3.090   5.949   3.887
 5507SOL    HW117420   3.059   5.957   3.982
 5507SOL    HW217421   3.012   5.959   3.826
 5508SOL     OW17422   2.439   0.913   6.076
 5508SOL    HW117423   2.509   0.914   6.004
 5508SOL    HW217424   2.359   0.964   6.046
 5509SOL     OW17425   5.718   6.335   6.636
 5509SOL    HW117426   5.813   6.344   6.665
 5509SOL    HW217427   5.687   6.421   6.594
 5510SOL     OW17428   5.308   0.780   5.088
 5510SOL    HW117429   5.263   0.863   5.121
 5510SOL    HW217430   5.367   0.803   5.010
 5511SOL     OW17431   0.589   1.520   2.407
 5511SOL    HW117432   0.629   1.514   2.498
 5511SOL    HW217433   0.656   1.488   2.339
 5512SOL     OW17434   1.798   0.079   1.248
 5512SOL    HW117435   1.892   0.112   1.254
 5512SOL    HW217436   1.748   0.104   1.331
 5513SOL     OW17437   3.813   4.886   4.532
 5513SOL    HW117438   3.761   4.913   4.613
 5513SOL    HW217439   3.808   4.787   4.521
 5514SOL     OW17440   5.811   5.384   3.145
 5514SOL    HW117441   5.737   5.368   3.210
 5514SOL    HW217442   5.775   5.384   3.052
 5515SOL     OW17443   6.622   2.630   1.227
 5515SOL    HW117444   6.605   2.532   1.217
 5515SOL    HW217445   6.664   2.648   1.316
 5516SOL     OW17446   1.444   3.315   6.320
 5516SOL    HW117447   1.442   3.413   6.339
 5516SOL    HW217448   1.435   3.265   6.406
 5517SOL     OW17449   2.491   1.535   2.796
 5517SOL    HW117450   2.537   1.604   2.740
 5517SOL    HW217451   2.460   1.576   2.881
 5518SOL     OW17452   6.179   4.793   4.668
 5518SOL    HW117453   6.106   4.841   4.716
 5518SOL    HW217454   6.203   4.844   4.585
 5519SOL     OW17455   4.949   3.420   4.046
 5519SOL    HW117456   4.944   3.322   4.029
 5519SOL    HW217457   4.986   3.466   3.966
 5520SOL     OW17458   1.910   3.818   1.666
 5520SOL    HW117459   1.841   3.774   1.608
 5520SOL    HW217460   1.880   3.911   1.689
 5521SOL     OW17461   5.255   5.306   1.783
 5521SOL    HW117462   5.306   5.387   1.754
 5521SOL    HW217463   5.160   5.332   1.802
 5522SOL     OW17464   2.265   3.668   1.723
 5522SOL    HW117465   2.275   3.602   1.798
 5522SOL    HW217466   2.330   3.743   1.736
 5523SOL     OW17467   2.710   0.896   1.966
 5523SOL    HW117468   2.679   0.802   1.954
 5523SOL    HW217469   2.658   0.956   1.905
 5524SOL     OW17470   0.120   5.976   5.962
 5524SOL    HW117471   0.131   5.884   6.001
 5524SOL    HW217472   0.209   6.010   5.932
 5525SOL     OW17473   6.834   5.469   5.199
 5525SOL    HW117474   6.807   5.427   5.286
 5525SOL    HW217475   6.933   5.474   5.193
 5526SOL     OW17476   6.377   2.967   4.617
 5526SOL    HW117477   6.419   2.964   4.707
 5526SOL    HW217478   6.446   2.945   4.547
 5527SOL     OW17479   1.858   3.568   1.519
 5527SOL    HW117480   1.799   3.643   1.490
 5527SOL    HW217481   1.814   3.481   1.495
 5528SOL     OW17482   0.560   3.240   3.330
 5528SOL    HW117483   0.654   3.272   3.319
 5528SOL    HW217484   0.544   3.161   3.271
 5529SOL     OW17485   1.638   1.285   4.945
 5529SOL    HW117486   1.555   1.230   4.937
 5529SOL    HW217487   1.622   1.377   4.910
 5530SOL     OW17488   0.878   2.545   0.688
 5530SOL    HW117489   0.944   2.617   0.710
 5530SOL    HW217490   0.906   2.459   0.730
 5531SOL     OW17491   3.365   2.594   6.015
 5531SOL    HW117492   3.431   2.669   6.014
 5531SOL    HW217493   3.289   2.617   6.074
 5532SOL     OW17494   2.757   1.544   1.071
 5532SOL    HW117495   2.839   1.601   1.069
 5532SOL    HW217496   2.696   1.575   1.144
 5533SOL     OW17497   4.182   0.904   1.389
 5533SOL    HW117498   4.183   0.804   1.392
 5533SOL    HW217499   4.087   0.936   1.398
 5534SOL     OW17500   0.099   3.992   5.655
 5534SOL    HW117501   0.048   3.932   5.716
 5534SOL    HW217502   0.037   4.059   5.615
 5535SOL     OW17503   6.368   2.752   3.231
 5535SOL    HW117504   6.279   2.752   3.185
 5535SOL    HW217505   6.355   2.763   3.330
 5536SOL     OW17506   2.026   0.787   3.660
 5536SOL    HW117507   1.952   0.803   3.725
 5536SOL    HW217508   1.992   0.733   3.584
 5537SOL     OW17509   4.317   0.993   4.348
 5537SOL    HW117510   4.378   0.987   4.270
 5537SOL    HW217511   4.224   1.013   4.317
 5538SOL     OW17512   5.266   1.831   0.413
 5538SOL    HW117513   5.175   1.874   0.415
 5538SOL    HW217514   5.256   1.732   0.413
 5539SOL     OW17515   3.277   0.206   0.346
 5539SOL    HW117516   3.352   0.267   0.320
 5539SOL    HW217517   3.310   0.112   0.347
 5540SOL     OW17518   5.316   0.618   6.587
 5540SOL    HW117519   5.338   0.662   6.674
 5540SOL    HW217520   5.292   0.523   6.602
 5541SOL     OW17521   4.460   3.551   5.986
 5541SOL    HW117522   4.503   3.533   6.075
 5541SOL    HW217523   4.419   3.467   5.951
 5542SOL     OW17524   4.296   4.464   0.445
 5542SOL    HW117525   4.215   4.512   0.478
 5542SOL    HW217526   4.267   4.385   0.391
 5543SOL     OW17527   1.340   0.370   1.061
 5543SOL    HW117528   1.245   0.401   1.056
 5543SOL    HW217529   1.368   0.335   0.972
 5544SOL     OW17530   4.176   5.687   5.894
 5544SOL    HW117531   4.239   5.673   5.818
 5544SOL    HW217532   4.087   5.716   5.858
 5545SOL     OW17533   3.560   0.286   3.156
 5545SOL    HW117534   3.612   0.201   3.146
 5545SOL    HW217535   3.620   0.359   3.188
 5546SOL     OW17536   1.114   5.551   5.037
 5546SOL    HW117537   1.156   5.460   5.032
 5546SOL    HW217538   1.015   5.541   5.047
 5547SOL     OW17539   5.548   1.454   4.851
 5547SOL    HW117540   5.617   1.472   4.921
 5547SOL    HW217541   5.499   1.538   4.829
 5548SOL     OW17542   6.601   4.627   5.338
 5548SOL    HW117543   6.665   4.690   5.293
 5548SOL    HW217544   6.575   4.555   5.274
 5549SOL     OW17545   4.348   2.970   0.851
 5549SOL    HW117546   4.381   3.034   0.921
 5549SOL    HW217547   4.404   2.980   0.768
 5550SOL     OW17548   1.555   3.440   2.366
 5550SOL    HW117549   1.628   3.390   2.320
 5550SOL    HW217550   1.549   3.532   2.328
 5551SOL     OW17551   1.886   5.226   3.959
 5551SOL    HW117552   1.959   5.288   3.988
 5551SOL    HW217553   1.846   5.259   3.874
 5552SOL     OW17554   0.632   6.634   6.898
 5552SOL    HW117555   0.706   6.693   6.867
 5552SOL    HW217556   0.596   6.669   6.985
 5553SOL     OW17557   4.703   0.285   6.881
 5553SOL    HW117558   4.689   0.323   6.790
 5553SOL    HW217559   4.664   0.346   6.950
 5554SOL     OW17560   5.305   2.810   1.348
 5554SOL    HW117561   5.249   2.729   1.363
 5554SOL    HW217562   5.377   2.790   1.281
 5555SOL     OW17563   1.688   4.200   2.523
 5555SOL    HW117564   1.602   4.165   2.561
 5555SOL    HW217565   1.745   4.123   2.495
 5556SOL     OW17566   6.924   0.429   4.791
 5556SOL    HW117567   7.002   0.374   4.821
 5556SOL    HW217568   6.926   0.438   4.691
 5557SOL     OW17569   3.302   6.471   1.763
 5557SOL    HW117570   3.376   6.423   1.812
 5557SOL    HW217571   3.260   6.408   1.697
 5558SOL     OW17572   3.845   4.465   6.916
 5558SOL    HW117573   3.777   4.400   6.883
 5558SOL    HW217574   3.927   4.459   6.859
 5559SOL     OW17575   1.689   0.321   2.727
 5559SOL    HW117576   1.773   0.295   2.774
 5559SOL    HW217577   1.704   0.320   2.628
 5560SOL     OW17578   0.439   5.906   3.003
 5560SOL    HW117579   0.461   5.817   3.044
 5560SOL    HW217580   0.430   5.895   2.904
 5561SOL     OW17581   3.412   0.438   3.941
 5561SOL    HW117582   3.467   0.479   4.015
 5561SOL    HW217583   3.349   0.371   3.980
 5562SOL     OW17584   3.972   3.598   1.402
 5562SOL    HW117585   3.971   3.665   1.328
 5562SOL    HW217586   4.036   3.524   1.380
 5563SOL     OW17587   2.804   4.774   2.772
 5563SOL    HW117588   2.723   4.762   2.829
 5563SOL    HW217589   2.879   4.809   2.828
 5564SOL     OW17590   5.497   0.886   5.624
 5564SOL    HW117591   5.475   0.984   5.626
 5564SOL    HW217592   5.559   0.865   5.700
 5565SOL     OW17593   2.743   2.413   6.926
 5565SOL    HW117594   2.748   2.498   6.979
 5565SOL    HW217595   2.768   2.336   6.985
 5566SOL     OW17596   0.959   3.271   6.652
 5566SOL    HW117597   0.985   3.175   6.648
 5566SOL    HW217598   0.872   3.284   6.604
 5567SOL     OW17599   6.536   4.167   1.455
 5567SOL    HW117600   6.564   4.161   1.359
 5567SOL    HW217601   6.456   4.110   1.471
 5568SOL     OW17602   4.492   6.476   1.745
 5568SOL    HW117603   4.432   6.536   1.798
 5568SOL    HW217604   4.556   6.430   1.806
 5569SOL     OW17605   2.322   2.819   4.125
 5569SOL    HW117606   2.383   2.759   4.177
 5569SOL    HW217607   2.244   2.844   4.182
 5570SOL     OW17608   0.218   3.435   3.279
 5570SOL    HW117609   0.190   3.531   3.275
 5570SOL    HW217610   0.201   3.399   3.371
 5571SOL     OW17611   6.759   5.132   1.865
 5571SOL    HW117612   6.770   5.225   1.899
 5571SOL    HW217613   6.800   5.067   1.929
 5572SOL     OW17614   1.129   3.047   4.703
 5572SOL    HW117615   1.104   3.113   4.774
 5572SOL    HW217616   1.090   3.076   4.615
 5573SOL     OW17617   2.549   5.318   4.292
 5573SOL    HW117618   2.640   5.295   4.326
 5573SOL    HW217619   2.487   5.329   4.369
 5574SOL     OW17620   0.274   2.062   6.449
 5574SOL    HW117621   0.243   2.126   6.378
 5574SOL    HW217622   0.269   2.106   6.538
 5575SOL     OW17623   0.582   0.181   1.559
 5575SOL    HW117624   0.607   0.130   1.641
 5575SOL    HW217625   0.484   0.167   1.540
 5576SOL     OW17626   1.850   4.003   3.898
 5576SOL    HW117627   1.914   4.044   3.963
 5576SOL    HW217628   1.772   3.964   3.948
 5577SOL     OW17629   1.464   3.437   6.584
 5577SOL    HW117630   1.496   3.410   6.675
 5577SOL    HW217631   1.399   3.512   6.592
 5578SOL     OW17632   3.615   3.081   2.810
 5578SOL    HW117633   3.559   3.136   2.749
 5578SOL    HW217634   3.683   3.031   2.757
 5579SOL     OW17635   0.385   2.840   1.419
 5579SOL    HW117636   0.313   2.909   1.416
 5579SOL    HW217637   0.394   2.798   1.329
 5580SOL     OW17638   4.887   2.012   5.186
 5580SOL    HW117639   4.953   1.950   5.227
 5580SOL    HW217640   4.806   1.961   5.158
 5581SOL     OW17641   0.729   1.828   0.210
 5581SOL    HW117642   0.639   1.787   0.197
 5581SOL    HW217643   0.725   1.925   0.189
 5582SOL     OW17644   2.162   3.297   6.393
 5582SOL    HW117645   2.075   3.258   6.425
 5582SOL    HW217646   2.194   3.246   6.313
 5583SOL     OW17647   5.130   1.210   2.003
 5583SOL    HW117648   5.041   1.254   2.016
 5583SOL    HW217649   5.168   1.238   1.914
 5584SOL     OW17650   0.185   4.310   5.067
 5584SOL    HW117651   0.284   4.320   5.070
 5584SOL    HW217652   0.150   4.346   4.980
 5585SOL     OW17653   4.512   5.053   2.050
 5585SOL    HW117654   4.457   5.102   2.117
 5585SOL    HW217655   4.606   5.044   2.085
 5586SOL     OW17656   6.639   3.202   6.181
 5586SOL    HW117657   6.733   3.168   6.189
 5586SOL    HW217658   6.580   3.128   6.150
 5587SOL     OW17659   5.147   0.723   6.192
 5587SOL    HW117660   5.233   0.774   6.188
 5587SOL    HW217661   5.073   0.779   6.155
 5588SOL     OW17662   3.294   6.742   1.328
 5588SOL    HW117663   3.319   6.706   1.417
 5588SOL    HW217664   3.205   6.705   1.301
 5589SOL     OW17665   5.627   4.833   6.697
 5589SOL    HW117666   5.602   4.785   6.781
 5589SOL    HW217667   5.723   4.815   6.676
 5590SOL     OW17668   6.035   5.829   4.266
 5590SOL    HW117669   5.976   5.903   4.233
 5590SOL    HW217670   5.981   5.766   4.322
 5591SOL     OW17671   6.035   1.492   1.419
 5591SOL    HW117672   6.073   1.432   1.489
 5591SOL    HW217673   5.996   1.437   1.345
 5592SOL     OW17674   0.957   4.501   3.514
 5592SOL    HW117675   1.007   4.451   3.585
 5592SOL    HW217676   0.904   4.574   3.557
 5593SOL     OW17677   6.188   1.891   0.099
 5593SOL    HW117678   6.195   1.913   0.001
 5593SOL    HW217679   6.251   1.817   0.121
 5594SOL     OW17680   5.431   2.094   5.426
 5594SOL    HW117681   5.476   2.131   5.345
 5594SOL    HW217682   5.344   2.052   5.399
 5595SOL     OW17683   0.878   3.005   5.426
 5595SOL    HW117684   0.941   2.935   5.459
 5595SOL    HW217685   0.919   3.096   5.438
 5596SOL     OW17686   4.454   6.988   3.011
 5596SOL    HW117687   4.441   0.011   3.099
 5596SOL    HW217688   4.503   0.026   2.948
 5597SOL     OW17689   4.856   3.289   3.370
 5597SOL    HW117690   4.842   3.359   3.440
 5597SOL    HW217691   4.898   3.330   3.289
 5598SOL     OW17692   5.426   2.298   4.467
 5598SOL    HW117693   5.510   2.278   4.517
 5598SOL    HW217694   5.400   2.394   4.481
 5599SOL     OW17695   0.374   2.104   4.556
 5599SOL    HW117696   0.287   2.146   4.530
 5599SOL    HW217697   0.372   2.006   4.533
 5600SOL     OW17698   1.525   2.548   4.179
 5600SOL    HW117699   1.445   2.495   4.148
 5600SOL    HW217700   1.603   2.526   4.120
 5601SOL     OW17701   2.716   1.260   5.838
 5601SOL    HW117702   2.637   1.199   5.847
 5601SOL    HW217703   2.695   1.348   5.878
 5602SOL     OW17704   0.768   1.212   0.765
 5602SOL    HW117705   0.849   1.231   0.821
 5602SOL    HW217706   0.705   1.290   0.770
 5603SOL     OW17707   5.275   2.145   0.115
 5603SOL    HW117708   5.369   2.116   0.094
 5603SOL    HW217709   5.271   2.185   0.206
 5604SOL     OW17710   5.798   2.164   5.728
 5604SOL    HW117711   5.776   2.067   5.733
 5604SOL    HW217712   5.812   2.201   5.820
 5605SOL     OW17713   0.788   1.994   4.367
 5605SOL    HW117714   0.694   1.978   4.395
 5605SOL    HW217715   0.815   1.926   4.299
 5606SOL     OW17716   4.877   6.950   1.618
 5606SOL    HW117717   4.960   6.894   1.615
 5606SOL    HW217718   4.811   6.915   1.551
 5607SOL     OW17719   5.446   1.604   1.788
 5607SOL    HW117720   5.371   1.619   1.853
 5607SOL    HW217721   5.430   1.658   1.706
 5608SOL     OW17722   4.476   0.541   4.868
 5608SOL    HW117723   4.504   0.446   4.853
 5608SOL    HW217724   4.408   0.566   4.800
 5609SOL     OW17725   2.573   6.363   6.543
 5609SOL    HW117726   2.662   6.324   6.564
 5609SOL    HW217727   2.501   6.300   6.572
 5610SOL     OW17728   5.155   0.351   0.191
 5610SOL    HW117729   5.181   0.257   0.173
 5610SOL    HW217730   5.067   0.371   0.147
 5611SOL     OW17731   1.547   5.057   3.144
 5611SOL    HW117732   1.629   5.026   3.191
 5611SOL    HW217733   1.476   5.077   3.211
 5612SOL     OW17734   3.373   0.852   5.809
 5612SOL    HW117735   3.415   0.879   5.722
 5612SOL    HW217736   3.444   0.818   5.871
 5613SOL     OW17737   4.434   4.642   2.224
 5613SOL    HW117738   4.465   4.703   2.152
 5613SOL    HW217739   4.493   4.561   2.227
 5614SOL     OW17740   4.650   2.664   3.196
 5614SOL    HW117741   4.664   2.724   3.275
 5614SOL    HW217742   4.702   2.579   3.209
 5615SOL     OW17743   1.620   0.653   0.271
 5615SOL    HW117744   1.565   0.726   0.231
 5615SOL    HW217745   1.684   0.691   0.337
 5616SOL     OW17746   2.066   1.027   4.493
 5616SOL    HW117747   2.061   1.064   4.400
 5616SOL    HW217748   1.978   0.985   4.516
 5617SOL     OW17749   2.127   0.588   4.695
 5617SOL    HW117750   2.042   0.537   4.713
 5617SOL    HW217751   2.157   0.634   4.779
 5618SOL     OW17752   6.150   4.044   3.713
 5618SOL    HW117753   6.050   4.052   3.710
 5618SOL    HW217754   6.176   3.951   3.689
 5619SOL     OW17755   2.236   3.874   5.550
 5619SOL    HW117756   2.281   3.789   5.578
 5619SOL    HW217757   2.138   3.859   5.541
 5620SOL     OW17758   3.557   2.339   6.818
 5620SOL    HW117759   3.555   2.408   6.890
 5620SOL    HW217760   3.466   2.332   6.776
 5621SOL     OW17761   1.478   1.914   5.492
 5621SOL    HW117762   1.378   1.924   5.490
 5621SOL    HW217763   1.502   1.821   5.463
 5622SOL     OW17764   4.569   0.829   6.053
 5622SOL    HW117765   4.495   0.824   5.986
 5622SOL    HW217766   4.590   0.925   6.072
 5623SOL     OW17767   1.921   6.661   6.628
 5623SOL    HW117768   1.841   6.646   6.571
 5623SOL    HW217769   1.994   6.702   6.572
 5624SOL     OW17770   1.102   4.795   3.580
 5624SOL    HW117771   1.142   4.723   3.638
 5624SOL    HW217772   1.104   4.765   3.485
 5625SOL     OW17773   6.546   2.578   4.856
 5625SOL    HW117774   6.596   2.657   4.892
 5625SOL    HW217775   6.538   2.508   4.927
 5626SOL     OW17776   3.914   6.947   5.048
 5626SOL    HW117777   3.857   6.993   5.116
 5626SOL    HW217778   3.860   6.934   4.964
 5627SOL     OW17779   1.518   6.123   1.372
 5627SOL    HW117780   1.541   6.216   1.401
 5627SOL    HW217781   1.538   6.059   1.446
 5628SOL     OW17782   2.254   1.958   5.044
 5628SOL    HW117783   2.221   1.986   4.954
 5628SOL    HW217784   2.323   1.886   5.033
 5629SOL     OW17785   3.659   3.797   2.801
 5629SOL    HW117786   3.740   3.739   2.804
 5629SOL    HW217787   3.688   3.893   2.794
 5630SOL     OW17788   0.602   4.694   1.055
 5630SOL    HW117789   0.505   4.687   1.079
 5630SOL    HW217790   0.612   4.683   0.957
 5631SOL     OW17791   4.773   1.205   0.522
 5631SOL    HW117792   4.821   1.180   0.438
 5631SOL    HW217793   4.819   1.282   0.565
 5632SOL     OW17794   4.521   3.917   6.462
 5632SOL    HW117795   4.501   4.009   6.428
 5632SOL    HW217796   4.437   3.864   6.466
 5633SOL     OW17797   6.504   2.842   4.408
 5633SOL    HW117798   6.582   2.897   4.379
 5633SOL    HW217799   6.463   2.797   4.329
 5634SOL     OW17800   3.987   5.326   4.433
 5634SOL    HW117801   3.934   5.411   4.439
 5634SOL    HW217802   4.054   5.324   4.507
 5635SOL     OW17803   2.542   2.498   4.903
 5635SOL    HW117804   2.635   2.470   4.926
 5635SOL    HW217805   2.533   2.505   4.804
 5636SOL     OW17806   4.154   5.527   2.953
 5636SOL    HW117807   4.226   5.459   2.936
 5636SOL    HW217808   4.189   5.618   2.932
 5637SOL     OW17809   5.898   6.913   4.004
 5637SOL    HW117810   5.824   6.876   3.948
 5637SOL    HW217811   5.878   7.007   4.028
 5638SOL     OW17812   5.247   3.206   6.886
 5638SOL    HW117813   5.314   3.189   6.959
 5638SOL    HW217814   5.173   3.264   6.921
 5639SOL     OW17815   0.997   1.824   6.172
 5639SOL    HW117816   0.911   1.784   6.141
 5639SOL    HW217817   1.070   1.801   6.107
 5640SOL     OW17818   2.574   0.006   3.627
 5640SOL    HW117819   2.620   0.038   3.710
 5640SOL    HW217820   2.627   6.955   3.586
 5641SOL     OW17821   6.634   5.110   5.590
 5641SOL    HW117822   6.612   5.021   5.551
 5641SOL    HW217823   6.552   5.150   5.632
 5642SOL     OW17824   1.572   1.668   6.346
 5642SOL    HW117825   1.567   1.767   6.360
 5642SOL    HW217826   1.622   1.626   6.422
 5643SOL     OW17827   6.122   2.315   4.293
 5643SOL    HW117828   6.144   2.280   4.384
 5643SOL    HW217829   6.160   2.406   4.282
 5644SOL     OW17830   3.212   0.011   6.354
 5644SOL    HW117831   3.184   0.106   6.339
 5644SOL    HW217832   3.132   6.975   6.351
 5645SOL     OW17833   5.781   3.436   3.681
 5645SOL    HW117834   5.792   3.372   3.757
 5645SOL    HW217835   5.869   3.478   3.660
 5646SOL     OW17836   1.823   4.206   2.985
 5646SOL    HW117837   1.900   4.239   3.040
 5646SOL    HW217838   1.767   4.144   3.041
 5647SOL     OW17839   6.101   5.859   3.170
 5647SOL    HW117840   6.160   5.865   3.090
 5647SOL    HW217841   6.154   5.878   3.252
 5648SOL     OW17842   4.025   6.264   2.745
 5648SOL    HW117843   3.988   6.200   2.678
 5648SOL    HW217844   4.102   6.315   2.704
 5649SOL     OW17845   0.775   5.932   3.829
 5649SOL    HW117846   0.751   5.837   3.850
 5649SOL    HW217847   0.875   5.940   3.823
 5650SOL     OW17848   6.918   4.185   0.765
 5650SOL    HW117849   6.931   4.094   0.726
 5650SOL    HW217850   6.956   4.187   0.857
 5651SOL     OW17851   1.611   0.852   1.545
 5651SOL    HW117852   1.596   0.770   1.600
 5651SOL    HW217853   1.536   0.916   1.560
 5652SOL     OW17854   1.023   5.573   1.579
 5652SOL    HW117855   0.944   5.583   1.519
 5652SOL    HW217856   1.085   5.504   1.542
 5653SOL     OW17857   0.287   6.310   1.856
 5653SOL    HW117858   0.196   6.295   1.894
 5653SOL    HW217859   0.309   6.237   1.791
 5654SOL     OW17860   2.419   5.784   4.809
 5654SOL    HW117861   2.382   5.873   4.785
 5654SOL    HW217862   2.345   5.722   4.833
 5655SOL     OW17863   6.399   2.724   4.186
 5655SOL    HW117864   6.352   2.784   4.122
 5655SOL    HW217865   6.471   2.675   4.137
 5656SOL     OW17866   0.320   3.123   6.768
 5656SOL    HW117867   0.221   3.130   6.781
 5656SOL    HW217868   0.353   3.037   6.806
 5657SOL     OW17869   4.286   5.325   5.022
 5657SOL    HW117870   4.269   5.398   4.956
 5657SOL    HW217871   4.287   5.237   4.975
 5658SOL     OW17872   1.918   2.022   5.606
 5658SOL    HW117873   1.974   1.988   5.531
 5658SOL    HW217874   1.975   2.078   5.667
 5659SOL     OW17875   3.559   4.244   6.366
 5659SOL    HW117876   3.568   4.151   6.330
 5659SOL    HW217877   3.649   4.282   6.385
 5660SOL     OW17878   4.302   0.376   6.602
 5660SOL    HW117879   4.357   0.454   6.632
 5660SOL    HW217880   4.274   0.389   6.507
 5661SOL     OW17881   1.005   5.524   5.712
 5661SOL    HW117882   1.074   5.595   5.724
 5661SOL    HW217883   1.028   5.468   5.633
 5662SOL     OW17884   2.617   6.196   2.249
 5662SOL    HW117885   2.659   6.254   2.179
 5662SOL    HW217886   2.590   6.109   2.208
 5663SOL     OW17887   1.255   2.680   0.356
 5663SOL    HW117888   1.234   2.769   0.396
 5663SOL    HW217889   1.353   2.674   0.338
 5664SOL     OW17890   5.069   4.130   4.418
 5664SOL    HW117891   5.023   4.050   4.380
 5664SOL    HW217892   5.167   4.125   4.398
 5665SOL     OW17893   2.516   1.052   1.225
 5665SOL    HW117894   2.536   1.142   1.262
 5665SOL    HW217895   2.489   0.991   1.300
 5666SOL     OW17896   6.133   1.031   4.846
 5666SOL    HW117897   6.218   0.999   4.805
 5666SOL    HW217898   6.056   0.979   4.808
 5667SOL     OW17899   2.692   5.449   4.719
 5667SOL    HW117900   2.659   5.529   4.669
 5667SOL    HW217901   2.765   5.404   4.666
 5668SOL     OW17902   5.416   3.042   3.357
 5668SOL    HW117903   5.368   3.063   3.442
 5668SOL    HW217904   5.462   3.124   3.324
 5669SOL     OW17905   6.236   4.173   6.900
 5669SOL    HW117906   6.268   4.268   6.898
 5669SOL    HW217907   6.292   4.118   6.838
 5670SOL     OW17908   1.282   2.189   2.224
 5670SOL    HW117909   1.238   2.273   2.256
 5670SOL    HW217910   1.223   2.111   2.244
 5671SOL     OW17911   0.731   0.037   3.402
 5671SOL    HW117912   0.756   0.039   3.499
 5671SOL    HW217913   0.632   0.024   3.393
 5672SOL     OW17914   5.185   3.924   5.259
 5672SOL    HW117915   5.232   3.865   5.194
 5672SOL    HW217916   5.215   3.900   5.352
 5673SOL     OW17917   0.749   0.570   0.776
 5673SOL    HW117918   0.759   0.627   0.858
 5673SOL    HW217919   0.766   0.626   0.695
 5674SOL     OW17920   2.066   5.433   5.221
 5674SOL    HW117921   2.161   5.404   5.212
 5674SOL    HW217922   2.020   5.376   5.289
 5675SOL     OW17923   2.092   1.845   0.595
 5675SOL    HW117924   2.085   1.746   0.609
 5675SOL    HW217925   2.125   1.888   0.679
 5676SOL     OW17926   2.626   2.130   1.687
 5676SOL    HW117927   2.680   2.164   1.764
 5676SOL    HW217928   2.646   2.186   1.606
 5677SOL     OW17929   6.701   0.537   1.404
 5677SOL    HW117930   6.755   0.543   1.488
 5677SOL    HW217931   6.604   0.549   1.425
 5678SOL     OW17932   3.358   2.045   1.737
 5678SOL    HW117933   3.274   2.031   1.684
 5678SOL    HW217934   3.437   2.020   1.681
 5679SOL     OW17935   5.892   3.550   5.397
 5679SOL    HW117936   5.868   3.516   5.306
 5679SOL    HW217937   5.919   3.646   5.391
 5680SOL     OW17938   1.758   5.933   5.797
 5680SOL    HW117939   1.837   5.966   5.746
 5680SOL    HW217940   1.782   5.922   5.893
 5681SOL     OW17941   0.799   3.813   3.171
 5681SOL    HW117942   0.776   3.752   3.096
 5681SOL    HW217943   0.780   3.768   3.258
 5682SOL     OW17944   2.316   4.081   1.954
 5682SOL    HW117945   2.307   4.096   2.053
 5682SOL    HW217946   2.226   4.085   1.911
 5683SOL     OW17947   5.352   1.425   6.419
 5683SOL    HW117948   5.290   1.497   6.387
 5683SOL    HW217949   5.308   1.374   6.493
 5684SOL     OW17950   2.259   2.732   5.332
 5684SOL    HW117951   2.339   2.672   5.334
 5684SOL    HW217952   2.256   2.785   5.417
 5685SOL     OW17953   2.630   1.602   3.729
 5685SOL    HW117954   2.600   1.520   3.778
 5685SOL    HW217955   2.670   1.575   3.641
 5686SOL     OW17956   3.482   6.367   6.422
 5686SOL    HW117957   3.387   6.355   6.393
 5686SOL    HW217958   3.536   6.398   6.345
 5687SOL     OW17959   2.569   6.443   6.229
 5687SOL    HW117960   2.649   6.481   6.275
 5687SOL    HW217961   2.547   6.354   6.269
 5688SOL     OW17962   2.231   2.981   3.477
 5688SOL    HW117963   2.171   3.040   3.424
 5688SOL    HW217964   2.282   3.037   3.543
 5689SOL     OW17965   0.765   1.737   1.587
 5689SOL    HW117966   0.825   1.779   1.656
 5689SOL    HW217967   0.670   1.758   1.609
 5690SOL     OW17968   1.585   5.835   0.140
 5690SOL    HW117969   1.563   5.891   0.060
 5690SOL    HW217970   1.593   5.739   0.112
 5691SOL     OW17971   3.888   1.107   2.581
 5691SOL    HW117972   3.846   1.023   2.546
 5691SOL    HW217973   3.923   1.090   2.673
 5692SOL     OW17974   3.973   4.976   1.139
 5692SOL    HW117975   4.003   5.066   1.109
 5692SOL    HW217976   3.999   4.908   1.070
 5693SOL     OW17977   3.887   0.951   1.320
 5693SOL    HW117978   3.913   0.983   1.229
 5693SOL    HW217979   3.868   0.853   1.316
 5694SOL     OW17980   0.848   6.846   2.150
 5694SOL    HW117981   0.750   6.855   2.130
 5694SOL    HW217982   0.875   6.916   2.216
 5695SOL     OW17983   1.562   0.532   0.800
 5695SOL    HW117984   1.525   0.622   0.777
 5695SOL    HW217985   1.624   0.541   0.879
 5696SOL     OW17986   1.665   6.566   3.860
 5696SOL    HW117987   1.726   6.632   3.904
 5696SOL    HW217988   1.701   6.474   3.875
 5697SOL     OW17989   6.265   2.700   0.145
 5697SOL    HW117990   6.206   2.622   0.123
 5697SOL    HW217991   6.360   2.677   0.125
 5698SOL     OW17992   2.432   2.659   3.758
 5698SOL    HW117993   2.410   2.655   3.660
 5698SOL    HW217994   2.394   2.743   3.797
 5699SOL     OW17995   2.123   2.675   2.609
 5699SOL    HW117996   2.032   2.691   2.647
 5699SOL    HW217997   2.162   2.593   2.649
 5700SOL     OW17998   6.039   0.884   3.535
 5700SOL    HW117999   6.076   0.939   3.460
 5700SOL    HW218000   6.100   0.889   3.614
 5701SOL     OW18001   0.191   0.690   1.389
 5701SOL    HW118002   0.276   0.639   1.374
 5701SOL    HW218003   0.114   0.638   1.352
 5702SOL     OW18004   2.477   6.913   4.712
 5702SOL    HW118005   2.532   6.986   4.671
 5702SOL    HW218006   2.535   6.835   4.733
 5703SOL     OW18007   6.875   2.747   6.802
 5703SOL    HW118008   6.864   2.831   6.749
 5703SOL    HW218009   6.873   2.668   6.740
 5704SOL     OW18010   5.503   4.437   4.013
 5704SOL    HW118011   5.428   4.385   3.971
 5704SOL    HW218012   5.464   4.510   4.070
 5705SOL     OW18013   6.044   6.587   5.998
 5705SOL    HW118014   5.977   6.618   5.931
 5705SOL    HW218015   6.116   6.656   6.007
 5706SOL     OW18016   5.140   2.223   6.924
 5706SOL    HW118017   5.052   2.258   6.956
 5706SOL    HW218018   5.195   2.194   7.002
 5707SOL     OW18019   5.623   6.194   2.753
 5707SOL    HW118020   5.589   6.229   2.841
 5707SOL    HW218021   5.708   6.144   2.768
 5708SOL     OW18022   4.329   5.788   2.964
 5708SOL    HW118023   4.319   5.845   2.883
 5708SOL    HW218024   4.266   5.820   3.035
 5709SOL     OW18025   0.759   1.486   2.202
 5709SOL    HW118026   0.737   1.508   2.106
 5709SOL    HW218027   0.858   1.478   2.212
 5710SOL     OW18028   2.271   2.183   0.742
 5710SOL    HW118029   2.309   2.244   0.811
 5710SOL    HW218030   2.280   2.226   0.652
 5711SOL     OW18031   5.486   2.410   1.977
 5711SOL    HW118032   5.488   2.355   1.893
 5711SOL    HW218033   5.433   2.493   1.961
 5712SOL     OW18034   6.205   6.319   1.429
 5712SOL    HW118035   6.181   6.328   1.332
 5712SOL    HW218036   6.147   6.249   1.471
 5713SOL     OW18037   2.353   6.456   0.627
 5713SOL    HW118038   2.311   6.398   0.558
 5713SOL    HW218039   2.290   6.469   0.703
 5714SOL     OW18040   6.368   6.860   1.357
 5714SOL    HW118041   6.269   6.853   1.347
 5714SOL    HW218042   6.407   6.769   1.362
 5715SOL     OW18043   0.912   0.052   1.521
 5715SOL    HW118044   0.963   0.073   1.604
 5715SOL    HW218045   0.821   0.093   1.526
 5716SOL     OW18046   6.696   4.615   6.106
 5716SOL    HW118047   6.599   4.617   6.129
 5716SOL    HW218048   6.750   4.638   6.187
 5717SOL     OW18049   1.210   5.025   2.924
 5717SOL    HW118050   1.185   4.958   2.854
 5717SOL    HW218051   1.182   4.991   3.014
 5718SOL     OW18052   0.695   3.361   0.243
 5718SOL    HW118053   0.600   3.389   0.256
 5718SOL    HW218054   0.745   3.435   0.197
 5719SOL     OW18055   2.538   3.847   0.962
 5719SOL    HW118056   2.491   3.935   0.968
 5719SOL    HW218057   2.519   3.805   0.874
 5720SOL     OW18058   2.182   4.893   5.587
 5720SOL    HW118059   2.256   4.947   5.550
 5720SOL    HW218060   2.200   4.796   5.571
 5721SOL     OW18061   4.074   4.231   0.113
 5721SOL    HW118062   4.164   4.203   0.080
 5721SOL    HW218063   4.069   4.220   0.212
 5722SOL     OW18064   0.583   1.077   5.464
 5722SOL    HW118065   0.499   1.120   5.433
 5722SOL    HW218066   0.573   1.047   5.559
 5723SOL     OW18067   4.437   2.934   6.957
 5723SOL    HW118068   4.376   2.999   7.002
 5723SOL    HW218069   4.528   2.974   6.945
 5724SOL     OW18070   5.639   2.455   3.640
 5724SOL    HW118071   5.645   2.545   3.683
 5724SOL    HW218072   5.543   2.430   3.628
 5725SOL     OW18073   6.796   3.844   3.813
 5725SOL    HW118074   6.706   3.854   3.771
 5725SOL    HW218075   6.854   3.921   3.785
 5726SOL     OW18076   5.314   4.565   2.527
 5726SOL    HW118077   5.357   4.488   2.481
 5726SOL    HW218078   5.360   4.650   2.501
 5727SOL     OW18079   0.484   2.535   4.991
 5727SOL    HW118080   0.413   2.496   5.049
 5727SOL    HW218081   0.503   2.474   4.914
 5728SOL     OW18082   5.083   6.145   4.858
 5728SOL    HW118083   5.085   6.239   4.893
 5728SOL    HW218084   5.158   6.093   4.897
 5729SOL     OW18085   1.894   1.653   5.390
 5729SOL    HW118086   1.888   1.630   5.487
 5729SOL    HW218087   1.963   1.724   5.377
 5730SOL     OW18088   6.446   3.924   5.366
 5730SOL    HW118089   6.496   3.850   5.411
 5730SOL    HW218090   6.494   3.949   5.282
 5731SOL     OW18091   0.635   6.329   1.800
 5731SOL    HW118092   0.720   6.369   1.834
 5731SOL    HW218093   0.558   6.387   1.826
 5732SOL     OW18094   1.375   6.810   3.776
 5732SOL    HW118095   1.423   6.794   3.862
 5732SOL    HW218096   1.319   6.893   3.784
 5733SOL     OW18097   3.738   0.302   5.223
 5733SOL    HW118098   3.734   0.330   5.318
 5733SOL    HW218099   3.649   0.315   5.180
 5734SOL     OW18100   2.010   6.299   2.832
 5734SOL    HW118101   2.010   6.376   2.895
 5734SOL    HW218102   1.933   6.238   2.854
 5735SOL     OW18103   2.856   1.407   2.013
 5735SOL    HW118104   2.899   1.465   1.944
 5735SOL    HW218105   2.772   1.367   1.975
 5736SOL     OW18106   1.477   5.294   0.189
 5736SOL    HW118107   1.485   5.303   0.288
 5736SOL    HW218108   1.385   5.261   0.165
 5737SOL     OW18109   5.467   4.735   0.890
 5737SOL    HW118110   5.520   4.658   0.854
 5737SOL    HW218111   5.456   4.723   0.989
 5738SOL     OW18112   1.483   4.228   5.970
 5738SOL    HW118113   1.453   4.209   6.064
 5738SOL    HW218114   1.569   4.180   5.952
 5739SOL     OW18115   1.050   1.043   1.129
 5739SOL    HW118116   1.095   1.010   1.213
 5739SOL    HW218117   1.117   1.044   1.054
 5740SOL     OW18118   4.159   6.198   6.297
 5740SOL    HW118119   4.231   6.227   6.360
 5740SOL    HW218120   4.165   6.100   6.282
 5741SOL     OW18121   0.591   4.953   3.503
 5741SOL    HW118122   0.667   4.954   3.568
 5741SOL    HW218123   0.523   5.021   3.531
 5742SOL     OW18124   6.657   6.586   4.237
 5742SOL    HW118125   6.714   6.583   4.319
 5742SOL    HW218126   6.714   6.569   4.157
 5743SOL     OW18127   1.704   6.703   5.357
 5743SOL    HW118128   1.763   6.738   5.285
 5743SOL    HW218129   1.724   6.751   5.443
 5744SOL     OW18130   5.821   6.947   2.522
 5744SOL    HW118131   5.738   6.899   2.550
 5744SOL    HW218132   5.900   6.906   2.567
 5745SOL     OW18133   1.165   1.763   3.782
 5745SOL    HW118134   1.241   1.729   3.728
 5745SOL    HW218135   1.100   1.811   3.723
 5746SOL     OW18136   5.757   3.713   0.228
 5746SOL    HW118137   5.745   3.622   0.267
 5746SOL    HW218138   5.716   3.715   0.136
 5747SOL     OW18139   0.979   5.801   3.257
 5747SOL    HW118140   0.994   5.866   3.332
 5747SOL    HW218141   0.885   5.810   3.224
 5748SOL     OW18142   2.510   6.261   2.622
 5748SOL    HW118143   2.512   6.312   2.708
 5748SOL    HW218144   2.561   6.175   2.633
 5749SOL     OW18145   2.473   1.838   3.674
 5749SOL    HW118146   2.461   1.886   3.761
 5749SOL    HW218147   2.521   1.752   3.689
 5750SOL     OW18148   6.594   5.915   2.622
 5750SOL    HW118149   6.522   5.925   2.553
 5750SOL    HW218150   6.659   5.845   2.592
 5751SOL     OW18151   2.337   3.995   6.065
 5751SOL    HW118152   2.266   3.984   5.996
 5751SOL    HW218153   2.362   4.092   6.072
 5752SOL     OW18154   6.602   0.418   6.703
 5752SOL    HW118155   6.596   0.461   6.793
 5752SOL    HW218156   6.544   0.337   6.701
 5753SOL     OW18157   3.453   2.404   0.368
 5753SOL    HW118158   3.499   2.436   0.450
 5753SOL    HW218159   3.517   2.404   0.291
 5754SOL     OW18160   5.962   4.559   1.211
 5754SOL    HW118161   6.017   4.481   1.241
 5754SOL    HW218162   6.014   4.611   1.142
 5755SOL     OW18163   3.595   3.895   1.366
 5755SOL    HW118164   3.614   3.822   1.300
 5755SOL    HW218165   3.606   3.861   1.459
 5756SOL     OW18166   0.274   6.158   4.560
 5756SOL    HW118167   0.293   6.115   4.648
 5756SOL    HW218168   0.178   6.144   4.536
 5757SOL     OW18169   0.316   5.132   1.179
 5757SOL    HW118170   0.374   5.147   1.259
 5757SOL    HW218171   0.304   5.034   1.164
 5758SOL     OW18172   0.773   1.908   5.559
 5758SOL    HW118173   0.763   2.007   5.568
 5758SOL    HW218174   0.726   1.877   5.477
 5759SOL     OW18175   5.253   1.831   4.804
 5759SOL    HW118176   5.253   1.902   4.874
 5759SOL    HW218177   5.191   1.856   4.730
 5760SOL     OW18178   1.686   5.520   2.084
 5760SOL    HW118179   1.710   5.565   2.169
 5760SOL    HW218180   1.587   5.519   2.073
 5761SOL     OW18181   4.945   7.013   4.845
 5761SOL    HW118182   4.969   6.955   4.923
 5761SOL    HW218183   4.891   6.960   4.780
 5762SOL     OW18184   5.540   6.095   1.697
 5762SOL    HW118185   5.553   6.155   1.777
 5762SOL    HW218186   5.513   6.004   1.728
 5763SOL     OW18187   0.975   1.113   1.763
 5763SOL    HW118188   1.061   1.121   1.713
 5763SOL    HW218189   0.907   1.175   1.723
 5764SOL     OW18190   4.087   3.822   5.359
 5764SOL    HW118191   4.180   3.793   5.335
 5764SOL    HW218192   4.066   3.907   5.311
 5765SOL     OW18193   5.563   4.653   0.512
 5765SOL    HW118194   5.595   4.637   0.605
 5765SOL    HW218195   5.536   4.749   0.502
 5766SOL     OW18196   2.862   1.296   3.239
 5766SOL    HW118197   2.929   1.292   3.313
 5766SOL    HW218198   2.812   1.209   3.234
 5767SOL     OW18199   0.214   6.396   1.539
 5767SOL    HW118200   0.221   6.306   1.583
 5767SOL    HW218201   0.304   6.440   1.538
 5768SOL     OW18202   6.794   1.517   2.904
 5768SOL    HW118203   6.762   1.428   2.938
 5768SOL    HW218204   6.809   1.512   2.806
 5769SOL     OW18205   2.349   5.336   3.519
 5769SOL    HW118206   2.266   5.323   3.572
 5769SOL    HW218207   2.331   5.314   3.423
 5770SOL     OW18208   6.287   0.346   1.834
 5770SOL    HW118209   6.293   0.297   1.747
 5770SOL    HW218210   6.368   0.326   1.889
 5771SOL     OW18211   0.440   1.698   1.935
 5771SOL    HW118212   0.527   1.654   1.916
 5771SOL    HW218213   0.390   1.712   1.850
 5772SOL     OW18214   6.544   4.071   0.334
 5772SOL    HW118215   6.449   4.056   0.306
 5772SOL    HW218216   6.586   3.983   0.355
 5773SOL     OW18217   5.770   5.613   3.946
 5773SOL    HW118218   5.847   5.553   3.968
 5773SOL    HW218219   5.766   5.688   4.012
 5774SOL     OW18220   2.297   5.208   3.277
 5774SOL    HW118221   2.217   5.267   3.282
 5774SOL    HW218222   2.267   5.112   3.272
 5775SOL     OW18223   0.055   0.477   0.328
 5775SOL    HW118224   6.985   0.457   0.358
 5775SOL    HW218225   0.053   0.507   0.232
 5776SOL     OW18226   5.440   1.199   5.569
 5776SOL    HW118227   5.391   1.180   5.654
 5776SOL    HW218228   5.394   1.272   5.519
 5777SOL     OW18229   6.569   0.546   5.139
 5777SOL    HW118230   6.643   0.519   5.077
 5777SOL    HW218231   6.541   0.640   5.119
 5778SOL     OW18232   2.690   0.022   3.871
 5778SOL    HW118233   2.687   0.042   3.968
 5778SOL    HW218234   2.709   6.948   3.858
 5779SOL     OW18235   4.184   0.943   2.383
 5779SOL    HW118236   4.197   1.016   2.450
 5779SOL    HW218237   4.255   0.873   2.397
 5780SOL     OW18238   6.140   3.765   1.667
 5780SOL    HW118239   6.122   3.733   1.573
 5780SOL    HW218240   6.087   3.848   1.684
 5781SOL     OW18241   2.401   5.255   4.934
 5781SOL    HW118242   2.467   5.183   4.913
 5781SOL    HW218243   2.331   5.258   4.862
 5782SOL     OW18244   2.745   1.424   2.911
 5782SOL    HW118245   2.662   1.443   2.858
 5782SOL    HW218246   2.804   1.361   2.861
 5783SOL     OW18247   1.950   6.880   1.015
 5783SOL    HW118248   1.970   6.783   1.034
 5783SOL    HW218249   1.864   6.905   1.060
 5784SOL     OW18250   1.863   5.534   0.096
 5784SOL    HW118251   1.891   5.623   0.131
 5784SOL    HW218252   1.934   5.497   0.037
 5785SOL     OW18253   2.193   1.586   0.311
 5785SOL    HW118254   2.275   1.636   0.285
 5785SOL    HW218255   2.145   1.557   0.229
 5786SOL     OW18256   1.533   3.332   1.125
 5786SOL    HW118257   1.473   3.410   1.109
 5786SOL    HW218258   1.545   3.319   1.224
 5787SOL     OW18259   6.915   2.881   5.786
 5787SOL    HW118260   6.997   2.939   5.777
 5787SOL    HW218261   6.849   2.927   5.845
 5788SOL     OW18262   2.310   2.434   1.687
 5788SOL    HW118263   2.376   2.497   1.726
 5788SOL    HW218264   2.219   2.452   1.726
 5789SOL     OW18265   3.132   5.114   6.796
 5789SOL    HW118266   3.228   5.101   6.773
 5789SOL    HW218267   3.077   5.042   6.753
 5790SOL     OW18268   6.094   5.856   3.748
 5790SOL    HW118269   6.186   5.835   3.713
 5790SOL    HW218270   6.100   5.880   3.845
 5791SOL     OW18271   4.071   1.463   2.395
 5791SOL    HW118272   4.168   1.463   2.416
 5791SOL    HW218273   4.020   1.504   2.470
 5792SOL     OW18274   4.882   2.951   2.566
 5792SOL    HW118275   4.875   2.868   2.620
 5792SOL    HW218276   4.839   2.937   2.476
 5793SOL     OW18277   3.951   2.506   6.398
 5793SOL    HW118278   3.930   2.505   6.301
 5793SOL    HW218279   3.903   2.433   6.445
 5794SOL     OW18280   4.141   6.627   6.940
 5794SOL    HW118281   4.204   6.657   7.011
 5794SOL    HW218282   4.048   6.626   6.976
 5795SOL     OW18283   2.416   5.992   1.462
 5795SOL    HW118284   2.350   6.057   1.425
 5795SOL    HW218285   2.466   5.948   1.387
 5796SOL     OW18286   5.221   0.953   6.493
 5796SOL    HW118287   5.288   0.878   6.494
 5796SOL    HW218288   5.138   0.922   6.539
 5797SOL     OW18289   6.216   2.624   1.129
 5797SOL    HW118290   6.212   2.610   1.030
 5797SOL    HW218291   6.222   2.535   1.175
 5798SOL     OW18292   1.683   3.571   4.755
 5798SOL    HW118293   1.728   3.538   4.838
 5798SOL    HW218294   1.725   3.657   4.726
 5799SOL     OW18295   2.625   6.746   3.655
 5799SOL    HW118296   2.565   6.666   3.659
 5799SOL    HW218297   2.629   6.789   3.745
 5800SOL     OW18298   1.619   0.279   1.681
 5800SOL    HW118299   1.621   0.227   1.595
 5800SOL    HW218300   1.537   0.254   1.732
 5801SOL     OW18301   2.148   1.740   2.040
 5801SOL    HW118302   2.051   1.734   2.019
 5801SOL    HW218303   2.201   1.729   1.955
 5802SOL     OW18304   0.613   0.360   1.955
 5802SOL    HW118305   0.708   0.387   1.936
 5802SOL    HW218306   0.607   0.326   2.049
 5803SOL     OW18307   0.324   5.738   4.326
 5803SOL    HW118308   0.304   5.661   4.386
 5803SOL    HW218309   0.381   5.707   4.249
 5804SOL     OW18310   5.750   1.792   2.799
 5804SOL    HW118311   5.710   1.848   2.872
 5804SOL    HW218312   5.783   1.852   2.726
 5805SOL     OW18313   1.450   2.596   2.015
 5805SOL    HW118314   1.448   2.562   1.921
 5805SOL    HW218315   1.366   2.647   2.033
 5806SOL     OW18316   6.720   4.236   2.065
 5806SOL    HW118317   6.686   4.245   2.159
 5806SOL    HW218318   6.694   4.317   2.012
 5807SOL     OW18319   2.139   0.815   1.293
 5807SOL    HW118320   2.195   0.802   1.210
 5807SOL    HW218321   2.103   0.727   1.323
 5808SOL     OW18322   6.835   0.346   5.467
 5808SOL    HW118323   6.897   0.318   5.394
 5808SOL    HW218324   6.880   0.414   5.525
 5809SOL     OW18325   6.963   2.173   5.329
 5809SOL    HW118326   0.036   2.153   5.345
 5809SOL    HW218327   6.908   2.133   5.402
 5810SOL     OW18328   3.050   6.433   5.001
 5810SOL    HW118329   3.123   6.488   5.042
 5810SOL    HW218330   3.089   6.373   4.931
 5811SOL     OW18331   4.018   4.543   6.419
 5811SOL    HW118332   4.092   4.478   6.433
 5811SOL    HW218333   4.018   4.609   6.495
 5812SOL     OW18334   5.325   2.781   7.012
 5812SOL    HW118335   5.368   2.802   0.076
 5812SOL    HW218336   5.357   2.692   6.979
 5813SOL     OW18337   4.944   5.385   0.540
 5813SOL    HW118338   4.844   5.387   0.537
 5813SOL    HW218339   4.977   5.470   0.582
 5814SOL     OW18340   5.294   1.209   1.796
 5814SOL    HW118341   5.335   1.268   1.726
 5814SOL    HW218342   5.358   1.198   1.872
 5815SOL     OW18343   6.615   2.611   4.084
 5815SOL    HW118344   6.617   2.572   3.991
 5815SOL    HW218345   6.674   2.691   4.088
 5816SOL     OW18346   0.163   3.570   2.734
 5816SOL    HW118347   0.218   3.567   2.650
 5816SOL    HW218348   0.113   3.484   2.745
 5817SOL     OW18349   5.972   3.868   3.477
 5817SOL    HW118350   6.025   3.953   3.480
 5817SOL    HW218351   5.972   3.825   3.567
 5818SOL     OW18352   2.321   0.945   4.399
 5818SOL    HW118353   2.354   0.865   4.448
 5818SOL    HW218354   2.230   0.970   4.432
 5819SOL     OW18355   4.346   4.680   0.661
 5819SOL    HW118356   4.262   4.639   0.624
 5819SOL    HW218357   4.403   4.609   0.701
 5820SOL     OW18358   5.856   6.288   2.558
 5820SOL    HW118359   5.933   6.229   2.534
 5820SOL    HW218360   5.781   6.232   2.593
 5821SOL     OW18361   0.176   0.160   1.301
 5821SOL    HW118362   0.097   0.201   1.347
 5821SOL    HW218363   0.252   0.226   1.300
 5822SOL     OW18364   1.328   3.589   3.168
 5822SOL    HW118365   1.257   3.556   3.230
 5822SOL    HW218366   1.367   3.512   3.118
 5823SOL     OW18367   1.627   5.771   3.433
 5823SOL    HW118368   1.670   5.859   3.454
 5823SOL    HW218369   1.696   5.706   3.402
 5824SOL     OW18370   1.285   0.027   2.430
 5824SOL    HW118371   1.228   6.977   2.467
 5824SOL    HW218372   1.273   0.032   2.331
 5825SOL     OW18373   5.153   1.386   4.099
 5825SOL    HW118374   5.206   1.407   4.017
 5825SOL    HW218375   5.214   1.380   4.177
 5826SOL     OW18376   1.092   6.618   5.665
 5826SOL    HW118377   1.062   6.528   5.696
 5826SOL    HW218378   1.086   6.624   5.566
 5827SOL     OW18379   2.095   4.276   3.571
 5827SOL    HW118380   2.119   4.181   3.592
 5827SOL    HW218381   2.014   4.277   3.511
 5828SOL     OW18382   3.791   0.703   5.449
 5828SOL    HW118383   3.864   0.710   5.381
 5828SOL    HW218384   3.715   0.762   5.422
 5829SOL     OW18385   2.366   0.589   3.441
 5829SOL    HW118386   2.329   0.682   3.431
 5829SOL    HW218387   2.328   0.530   3.370
 5830SOL     OW18388   4.085   4.999   4.542
 5830SOL    HW118389   3.994   4.986   4.503
 5830SOL    HW218390   4.103   4.928   4.610
 5831SOL     OW18391   1.544   2.252   5.278
 5831SOL    HW118392   1.634   2.210   5.288
 5831SOL    HW218393   1.528   2.275   5.182
 5832SOL     OW18394   3.072   5.196   1.969
 5832SOL    HW118395   3.101   5.243   1.885
 5832SOL    HW218396   3.078   5.097   1.956
 5833SOL     OW18397   3.772   5.143   0.049
 5833SOL    HW118398   3.840   5.117   7.004
 5833SOL    HW218399   3.819   5.172   0.133
 5834SOL     OW18400   5.843   2.676   6.582
 5834SOL    HW118401   5.792   2.721   6.509
 5834SOL    HW218402   5.937   2.712   6.584
 5835SOL     OW18403   5.079   2.223   2.886
 5835SOL    HW118404   5.098   2.131   2.852
 5835SOL    HW218405   5.154   2.284   2.860
 5836SOL     OW18406   4.936   6.190   2.885
 5836SOL    HW118407   4.937   6.120   2.814
 5836SOL    HW218408   4.914   6.279   2.843
 5837SOL     OW18409   2.526   5.497   6.507
 5837SOL    HW118410   2.546   5.400   6.492
 5837SOL    HW218411   2.464   5.529   6.435
 5838SOL     OW18412   3.961   2.596   0.537
 5838SOL    HW118413   4.030   2.632   0.600
 5838SOL    HW218414   3.877   2.649   0.546
 5839SOL     OW18415   1.846   2.493   0.352
 5839SOL    HW118416   1.897   2.579   0.348
 5839SOL    HW218417   1.796   2.487   0.438
 5840SOL     OW18418   0.134   3.295   3.602
 5840SOL    HW118419   0.081   3.226   3.651
 5840SOL    HW218420   0.072   3.354   3.550
 5841SOL     OW18421   4.996   1.258   0.823
 5841SOL    HW118422   4.962   1.232   0.913
 5841SOL    HW218423   5.001   1.358   0.816
 5842SOL     OW18424   2.178   2.353   0.980
 5842SOL    HW118425   2.085   2.323   0.962
 5842SOL    HW218426   2.176   2.432   1.042
 5843SOL     OW18427   2.778   3.824   1.079
 5843SOL    HW118428   2.820   3.901   1.126
 5843SOL    HW218429   2.708   3.858   1.015
 5844SOL     OW18430   0.625   5.915   4.851
 5844SOL    HW118431   0.656   5.923   4.756
 5844SOL    HW218432   0.704   5.926   4.912
 5845SOL     OW18433   1.552   0.008   2.453
 5845SOL    HW118434   1.543   6.984   2.541
 5845SOL    HW218435   1.463   0.011   2.408
 5846SOL     OW18436   6.981   3.868   5.395
 5846SOL    HW118437   0.040   3.816   5.373
 5846SOL    HW218438   7.005   3.947   5.451
 5847SOL     OW18439   1.735   3.817   6.673
 5847SOL    HW118440   1.811   3.831   6.736
 5847SOL    HW218441   1.724   3.898   6.615
 5848SOL     OW18442   1.608   5.401   2.416
 5848SOL    HW118443   1.545   5.449   2.356
 5848SOL    HW218444   1.696   5.447   2.416
 5849SOL     OW18445   3.644   5.875   5.829
 5849SOL    HW118446   3.565   5.865   5.889
 5849SOL    HW218447   3.644   5.966   5.788
 5850SOL     OW18448   0.925   1.111   2.257
 5850SOL    HW118449   0.970   1.090   2.170
 5850SOL    HW218450   0.832   1.143   2.238
 5851SOL     OW18451   6.428   3.412   4.560
 5851SOL    HW118452   6.387   3.375   4.476
 5851SOL    HW218453   6.401   3.356   4.638
 5852SOL     OW18454   4.923   4.417   2.106
 5852SOL    HW118455   4.866   4.500   2.106
 5852SOL    HW218456   5.013   4.439   2.069
 5853SOL     OW18457   4.939   5.069   6.286
 5853SOL    HW118458   4.930   5.004   6.211
 5853SOL    HW218459   4.881   5.149   6.268
 5854SOL     OW18460   3.260   4.749   5.437
 5854SOL    HW118461   3.315   4.828   5.409
 5854SOL    HW218462   3.168   4.758   5.399
 5855SOL     OW18463   2.262   2.961   3.189
 5855SOL    HW118464   2.232   3.038   3.133
 5855SOL    HW218465   2.229   2.974   3.283
 5856SOL     OW18466   1.151   5.809   2.869
 5856SOL    HW118467   1.081   5.880   2.872
 5856SOL    HW218468   1.128   5.742   2.799
 5857SOL     OW18469   5.459   5.036   6.637
 5857SOL    HW118470   5.506   4.955   6.671
 5857SOL    HW218471   5.445   5.100   6.712
 5858SOL     OW18472   1.953   0.876   2.355
 5858SOL    HW118473   1.884   0.843   2.419
 5858SOL    HW218474   2.029   0.916   2.406
 5859SOL     OW18475   5.414   5.697   1.354
 5859SOL    HW118476   5.388   5.612   1.399
 5859SOL    HW218477   5.447   5.677   1.261
 5860SOL     OW18478   0.183   4.149   3.297
 5860SOL    HW118479   0.192   4.064   3.244
 5860SOL    HW218480   0.233   4.140   3.383
 5861SOL     OW18481   5.179   0.923   4.777
 5861SOL    HW118482   5.199   0.865   4.698
 5861SOL    HW218483   5.131   0.870   4.846
 5862SOL     OW18484   6.124   5.884   2.566
 5862SOL    HW118485   6.105   5.884   2.664
 5862SOL    HW218486   6.044   5.848   2.517
 5863SOL     OW18487   4.076   6.852   6.564
 5863SOL    HW118488   4.058   6.931   6.624
 5863SOL    HW218489   4.115   6.884   6.478
 5864SOL     OW18490   3.286   4.062   2.449
 5864SOL    HW118491   3.371   4.114   2.462
 5864SOL    HW218492   3.262   4.061   2.351
 5865SOL     OW18493   6.718   0.428   6.058
 5865SOL    HW118494   6.770   0.352   6.098
 5865SOL    HW218495   6.781   0.493   6.017
 5866SOL     OW18496   3.313   3.162   2.886
 5866SOL    HW118497   3.345   3.179   2.979
 5866SOL    HW218498   3.388   3.177   2.822
 5867SOL     OW18499   2.751   1.645   2.096
 5867SOL    HW118500   2.811   1.723   2.112
 5867SOL    HW218501   2.806   1.564   2.077
 5868SOL     OW18502   0.908   1.401   6.192
 5868SOL    HW118503   0.875   1.307   6.203
 5868SOL    HW218504   1.004   1.400   6.168
 5869SOL     OW18505   1.329   6.047   3.182
 5869SOL    HW118506   1.246   6.022   3.232
 5869SOL    HW218507   1.321   6.140   3.147
 5870SOL     OW18508   3.319   5.749   4.411
 5870SOL    HW118509   3.419   5.741   4.413
 5870SOL    HW218510   3.289   5.808   4.486
 5871SOL     OW18511   2.904   3.376   3.911
 5871SOL    HW118512   2.937   3.288   3.876
 5871SOL    HW218513   2.925   3.383   4.008
 5872SOL     OW18514   4.968   5.818   1.417
 5872SOL    HW118515   4.920   5.769   1.489
 5872SOL    HW218516   5.007   5.753   1.352
 5873SOL     OW18517   4.353   6.169   2.288
 5873SOL    HW118518   4.353   6.083   2.238
 5873SOL    HW218519   4.367   6.152   2.385
 5874SOL     OW18520   1.176   4.186   5.220
 5874SOL    HW118521   1.223   4.245   5.155
 5874SOL    HW218522   1.187   4.090   5.192
 5875SOL     OW18523   2.964   1.900   1.265
 5875SOL    HW118524   3.043   1.945   1.221
 5875SOL    HW218525   2.880   1.930   1.220
 5876SOL     OW18526   3.431   2.916   1.806
 5876SOL    HW118527   3.411   2.947   1.899
 5876SOL    HW218528   3.529   2.897   1.797
 5877SOL     OW18529   5.706   4.474   1.298
 5877SOL    HW118530   5.675   4.443   1.207
 5877SOL    HW218531   5.796   4.517   1.289
 5878SOL     OW18532   2.223   4.546   2.616
 5878SOL    HW118533   2.186   4.459   2.584
 5878SOL    HW218534   2.321   4.548   2.599
 5879SOL     OW18535   0.310   4.150   4.443
 5879SOL    HW118536   0.390   4.091   4.435
 5879SOL    HW218537   0.293   4.170   4.539
 5880SOL     OW18538   3.060   5.498   0.539
 5880SOL    HW118539   3.095   5.576   0.591
 5880SOL    HW218540   3.112   5.488   0.454
 5881SOL     OW18541   1.480   5.755   4.730
 5881SOL    HW118542   1.428   5.685   4.681
 5881SOL    HW218543   1.578   5.733   4.725
 5882SOL     OW18544   4.876   0.611   2.130
 5882SOL    HW118545   4.925   0.554   2.064
 5882SOL    HW218546   4.780   0.585   2.131
 5883SOL     OW18547   0.132   3.134   5.233
 5883SOL    HW118548   0.143   3.086   5.320
 5883SOL    HW218549   0.221   3.144   5.188
 5884SOL     OW18550   0.961   1.412   3.553
 5884SOL    HW118551   1.058   1.410   3.529
 5884SOL    HW218552   0.911   1.346   3.497
 5885SOL     OW18553   5.858   6.973   1.053
 5885SOL    HW118554   5.821   6.984   0.961
 5885SOL    HW218555   5.956   6.996   1.053
 5886SOL     OW18556   6.949   0.928   6.318
 5886SOL    HW118557   6.917   1.013   6.276
 5886SOL    HW218558   0.025   0.921   6.308
 5887SOL     OW18559   4.694   6.549   3.392
 5887SOL    HW118560   4.698   6.524   3.488
 5887SOL    HW218561   4.724   6.644   3.381
 5888SOL     OW18562   1.656   0.710   3.372
 5888SOL    HW118563   1.609   0.633   3.328
 5888SOL    HW218564   1.751   0.713   3.340
 5889SOL     OW18565   2.766   0.748   0.725
 5889SOL    HW118566   2.681   0.791   0.754
 5889SOL    HW218567   2.746   0.658   0.686
 5890SOL     OW18568   3.354   5.008   6.047
 5890SOL    HW118569   3.371   4.941   5.975
 5890SOL    HW218570   3.435   5.015   6.105
 5891SOL     OW18571   2.212   3.836   6.929
 5891SOL    HW118572   2.176   3.780   7.004
 5891SOL    HW218573   2.269   3.779   6.870
 5892SOL     OW18574   1.463   0.200   2.057
 5892SOL    HW118575   1.397   0.146   2.110
 5892SOL    HW218576   1.437   0.200   1.961
 5893SOL     OW18577   1.762   1.082   3.088
 5893SOL    HW118578   1.717   1.165   3.057
 5893SOL    HW218579   1.704   1.035   3.155
 5894SOL     OW18580   0.794   3.201   3.493
 5894SOL    HW118581   0.872   3.263   3.489
 5894SOL    HW218582   0.715   3.250   3.532
 5895SOL     OW18583   5.232   3.666   3.928
 5895SOL    HW118584   5.196   3.759   3.933
 5895SOL    HW218585   5.215   3.629   3.837
 5896SOL     OW18586   4.308   2.187   5.567
 5896SOL    HW118587   4.308   2.099   5.519
 5896SOL    HW218588   4.292   2.261   5.501
 5897SOL     OW18589   3.904   0.325   1.828
 5897SOL    HW118590   4.003   0.338   1.830
 5897SOL    HW218591   3.873   0.287   1.915
 5898SOL     OW18592   1.751   0.141   2.277
 5898SOL    HW118593   1.694   0.109   2.353
 5898SOL    HW218594   1.718   0.100   2.191
 5899SOL     OW18595   5.503   0.018   3.875
 5899SOL    HW118596   5.526   7.023   3.970
 5899SOL    HW218597   5.583   0.056   3.828
 5900SOL     OW18598   4.495   5.252   2.391
 5900SOL    HW118599   4.446   5.296   2.466
 5900SOL    HW218600   4.432   5.235   2.315
 5901SOL     OW18601   3.720   6.891   5.347
 5901SOL    HW118602   3.698   6.798   5.318
 5901SOL    HW218603   3.680   6.956   5.283
 5902SOL     OW18604   6.237   1.050   6.685
 5902SOL    HW118605   6.259   1.143   6.714
 5902SOL    HW218606   6.141   1.045   6.660
 5903SOL     OW18607   6.542   3.406   6.359
 5903SOL    HW118608   6.575   3.329   6.304
 5903SOL    HW218609   6.617   3.442   6.414
 5904SOL     OW18610   0.300   4.336   2.442
 5904SOL    HW118611   0.281   4.306   2.535
 5904SOL    HW218612   0.337   4.429   2.444
 5905SOL     OW18613   6.700   4.983   2.589
 5905SOL    HW118614   6.786   4.933   2.574
 5905SOL    HW218615   6.721   5.076   2.616
 5906SOL     OW18616   6.582   1.498   4.011
 5906SOL    HW118617   6.679   1.477   4.008
 5906SOL    HW218618   6.547   1.510   3.918
 5907SOL     OW18619   1.739   0.073   1.818
 5907SOL    HW118620   1.794   0.014   1.758
 5907SOL    HW218621   1.691   0.140   1.763
 5908SOL     OW18622   0.316   2.777   6.153
 5908SOL    HW118623   0.360   2.715   6.218
 5908SOL    HW218624   0.299   2.865   6.196
 5909SOL     OW18625   6.661   3.721   0.853
 5909SOL    HW118626   6.681   3.748   0.947
 5909SOL    HW218627   6.741   3.675   0.814
 5910SOL     OW18628   2.112   2.040   3.804
 5910SOL    HW118629   2.193   2.095   3.785
 5910SOL    HW218630   2.033   2.101   3.816
 5911SOL     OW18631   0.008   5.609   6.124
 5911SOL    HW118632   0.010   5.519   6.079
 5911SOL    HW218633   0.087   5.663   6.095
 5912SOL     OW18634   0.635   0.651   4.096
 5912SOL    HW118635   0.645   0.732   4.037
 5912SOL    HW218636   0.641   0.679   4.192
 5913SOL     OW18637   5.384   1.686   6.898
 5913SOL    HW118638   5.453   1.630   6.851
 5913SOL    HW218639   5.355   1.639   6.982
 5914SOL     OW18640   6.948   5.726   0.519
 5914SOL    HW118641   7.007   5.772   0.453
 5914SOL    HW218642   6.997   5.711   0.604
 5915SOL     OW18643   3.704   1.445   5.836
 5915SOL    HW118644   3.713   1.535   5.878
 5915SOL    HW218645   3.759   1.379   5.886
 5916SOL     OW18646   1.065   6.349   2.536
 5916SOL    HW118647   1.031   6.424   2.480
 5916SOL    HW218648   1.157   6.324   2.505
 5917SOL     OW18649   3.578   4.583   0.410
 5917SOL    HW118650   3.636   4.663   0.391
 5917SOL    HW218651   3.490   4.614   0.445
 5918SOL     OW18652   3.296   6.331   5.352
 5918SOL    HW118653   3.211   6.371   5.317
 5918SOL    HW218654   3.289   6.232   5.350
 5919SOL     OW18655   3.306   2.940   3.958
 5919SOL    HW118656   3.257   3.022   3.987
 5919SOL    HW218657   3.298   2.930   3.859
 5920SOL     OW18658   6.069   0.329   4.768
 5920SOL    HW118659   6.160   0.296   4.793
 5920SOL    HW218660   6.053   0.310   4.671
 5921SOL     OW18661   2.615   4.513   6.154
 5921SOL    HW118662   2.672   4.500   6.073
 5921SOL    HW218663   2.630   4.437   6.218
 5922SOL     OW18664   5.280   3.563   2.852
 5922SOL    HW118665   5.312   3.582   2.945
 5922SOL    HW218666   5.298   3.643   2.794
 5923SOL     OW18667   6.720   0.401   3.001
 5923SOL    HW118668   6.652   0.379   3.071
 5923SOL    HW218669   6.786   0.326   2.995
 5924SOL     OW18670   5.664   0.328   3.334
 5924SOL    HW118671   5.583   0.384   3.354
 5924SOL    HW218672   5.711   0.305   3.419
 5925SOL     OW18673   4.216   0.278   1.484
 5925SOL    HW118674   4.130   0.308   1.525
 5925SOL    HW218675   4.211   0.181   1.463
 5926SOL     OW18676   4.730   4.920   3.965
 5926SOL    HW118677   4.742   5.019   3.972
 5926SOL    HW218678   4.664   4.890   4.033
 5927SOL     OW18679   0.694   4.738   2.027
 5927SOL    HW118680   0.702   4.772   2.121
 5927SOL    HW218681   0.654   4.646   2.028
 5928SOL     OW18682   3.146   0.748   0.404
 5928SOL    HW118683   3.145   0.686   0.325
 5928SOL    HW218684   3.200   0.707   0.478
 5929SOL     OW18685   1.806   1.007   6.413
 5929SOL    HW118686   1.816   1.053   6.501
 5929SOL    HW218687   1.857   0.921   6.414
 5930SOL     OW18688   1.037   3.554   2.393
 5930SOL    HW118689   0.983   3.493   2.451
 5930SOL    HW218690   1.123   3.510   2.368
 5931SOL     OW18691   4.719   6.066   3.071
 5931SOL    HW118692   4.704   6.138   3.140
 5931SOL    HW218693   4.777   6.102   2.998
 5932SOL     OW18694   2.822   0.779   6.809
 5932SOL    HW118695   2.748   0.720   6.775
 5932SOL    HW218696   2.852   0.840   6.735
 5933SOL     OW18697   6.348   6.030   4.062
 5933SOL    HW118698   6.407   6.063   4.135
 5933SOL    HW218699   6.261   6.080   4.063
 5934SOL     OW18700   3.274   3.448   6.236
 5934SOL    HW118701   3.350   3.398   6.278
 5934SOL    HW218702   3.216   3.486   6.308
 5935SOL     OW18703   1.204   5.677   6.359
 5935SOL    HW118704   1.207   5.585   6.320
 5935SOL    HW218705   1.246   5.676   6.450
 5936SOL     OW18706   3.356   3.503   1.764
 5936SOL    HW118707   3.441   3.551   1.741
 5936SOL    HW218708   3.370   3.405   1.758
 5937SOL     OW18709   0.219   3.005   1.736
 5937SOL    HW118710   0.181   3.006   1.643
 5937SOL    HW218711   0.187   3.085   1.786
 5938SOL     OW18712   0.412   4.734   4.682
 5938SOL    HW118713   0.373   4.702   4.769
 5938SOL    HW218714   0.509   4.754   4.695
 5939SOL     OW18715   3.535   0.827   5.035
 5939SOL    HW118716   3.457   0.883   5.008
 5939SOL    HW218717   3.613   0.886   5.053
 5940SOL     OW18718   5.266   5.755   2.331
 5940SOL    HW118719   5.291   5.663   2.362
 5940SOL    HW218720   5.169   5.756   2.307
 5941SOL     OW18721   0.193   2.214   2.410
 5941SOL    HW118722   0.258   2.195   2.485
 5941SOL    HW218723   0.236   2.275   2.344
 5942SOL     OW18724   5.309   3.065   6.326
 5942SOL    HW118725   5.242   3.136   6.349
 5942SOL    HW218726   5.272   3.006   6.254
 5943SOL     OW18727   3.021   4.278   1.648
 5943SOL    HW118728   2.968   4.348   1.695
 5943SOL    HW218729   3.101   4.320   1.606
 5944SOL     OW18730   0.037   3.359   6.796
 5944SOL    HW118731   0.094   3.333   6.874
 5944SOL    HW218732   0.044   3.288   6.725
 5945SOL     OW18733   0.133   5.829   4.913
 5945SOL    HW118734   0.151   5.731   4.903
 5945SOL    HW218735   0.170   5.878   4.833
 5946SOL     OW18736   3.112   4.567   0.623
 5946SOL    HW118737   3.067   4.499   0.682
 5946SOL    HW218738   3.085   4.551   0.528
 5947SOL     OW18739   3.608   3.233   4.754
 5947SOL    HW118740   3.691   3.263   4.706
 5947SOL    HW218741   3.631   3.163   4.821
 5948SOL     OW18742   4.703   3.811   1.762
 5948SOL    HW118743   4.786   3.775   1.718
 5948SOL    HW218744   4.677   3.897   1.719
 5949SOL     OW18745   6.608   4.349   2.296
 5949SOL    HW118746   6.512   4.352   2.270
 5949SOL    HW218747   6.620   4.285   2.372
 5950SOL     OW18748   4.494   0.543   5.138
 5950SOL    HW118749   4.519   0.446   5.140
 5950SOL    HW218750   4.471   0.570   5.045
 5951SOL     OW18751   0.640   3.748   6.288
 5951SOL    HW118752   0.558   3.743   6.346
 5951SOL    HW218753   0.716   3.702   6.333
 5952SOL     OW18754   3.955   4.993   0.583
 5952SOL    HW118755   3.886   5.027   0.647
 5952SOL    HW218756   3.993   5.069   0.530
 5953SOL     OW18757   6.516   2.958   4.868
 5953SOL    HW118758   6.510   3.013   4.951
 5953SOL    HW218759   6.570   2.876   4.887
 5954SOL     OW18760   1.745   5.832   3.990
 5954SOL    HW118761   1.804   5.808   4.067
 5954SOL    HW218762   1.798   5.829   3.906
 5955SOL     OW18763   5.719   3.873   0.629
 5955SOL    HW118764   5.733   3.790   0.684
 5955SOL    HW218765   5.804   3.898   0.583
 5956SOL     OW18766   5.198   2.686   5.049
 5956SOL    HW118767   5.172   2.774   5.089
 5956SOL    HW218768   5.119   2.646   5.003
 5957SOL     OW18769   0.833   1.535   2.855
 5957SOL    HW118770   0.773   1.458   2.834
 5957SOL    HW218771   0.861   1.531   2.951
 5958SOL     OW18772   3.697   6.882   2.626
 5958SOL    HW118773   3.722   6.825   2.548
 5958SOL    HW218774   3.618   6.939   2.602
 5959SOL     OW18775   5.141   2.291   4.401
 5959SOL    HW118776   5.241   2.285   4.401
 5959SOL    HW218777   5.106   2.263   4.312
 5960SOL     OW18778   4.415   0.524   6.098
 5960SOL    HW118779   4.500   0.522   6.045
 5960SOL    HW218780   4.344   0.572   6.046
 5961SOL     OW18781   2.546   2.140   3.212
 5961SOL    HW118782   2.623   2.202   3.227
 5961SOL    HW218783   2.578   2.045   3.217
 5962SOL     OW18784   4.706   6.495   0.826
 5962SOL    HW118785   4.700   6.594   0.808
 5962SOL    HW218786   4.780   6.456   0.771
 5963SOL     OW18787   3.330   4.333   6.621
 5963SOL    HW118788   3.371   4.263   6.563
 5963SOL    HW218789   3.399   4.402   6.644
 5964SOL     OW18790   2.485   6.711   2.729
 5964SOL    HW118791   2.396   6.668   2.717
 5964SOL    HW218792   2.554   6.659   2.679
 5965SOL     OW18793   2.026   0.591   0.251
 5965SOL    HW118794   1.976   0.601   0.166
 5965SOL    HW218795   1.993   0.510   0.300
 5966SOL     OW18796   2.850   1.073   4.822
 5966SOL    HW118797   2.852   1.013   4.741
 5966SOL    HW218798   2.758   1.075   4.860
 5967SOL     OW18799   3.333   1.613   4.282
 5967SOL    HW118800   3.306   1.552   4.357
 5967SOL    HW218801   3.414   1.665   4.309
 5968SOL     OW18802   5.487   2.735   1.175
 5968SOL    HW118803   5.458   2.651   1.128
 5968SOL    HW218804   5.506   2.806   1.107
 5969SOL     OW18805   4.845   1.031   0.067
 5969SOL    HW118806   4.869   1.034   6.994
 5969SOL    HW218807   4.857   0.938   0.102
 5970SOL     OW18808   0.329   3.521   0.930
 5970SOL    HW118809   0.301   3.436   0.974
 5970SOL    HW218810   0.336   3.508   0.832
 5971SOL     OW18811   0.632   6.882   3.717
 5971SOL    HW118812   0.704   6.872   3.649
 5971SOL    HW218813   0.558   6.817   3.697
 5972SOL     OW18814   4.668   5.222   0.980
 5972SOL    HW118815   4.736   5.216   0.907
 5972SOL    HW218816   4.709   5.263   1.061
 5973SOL     OW18817   2.265   2.480   2.738
 5973SOL    HW118818   2.250   2.381   2.728
 5973SOL    HW218819   2.356   2.503   2.702
 5974SOL     OW18820   5.456   2.113   5.700
 5974SOL    HW118821   5.467   2.105   5.600
 5974SOL    HW218822   5.374   2.063   5.728
 5975SOL     OW18823   4.516   5.185   0.717
 5975SOL    HW118824   4.490   5.103   0.769
 5975SOL    HW218825   4.497   5.267   0.772
 5976SOL     OW18826   2.425   3.591   5.872
 5976SOL    HW118827   2.371   3.507   5.873
 5976SOL    HW218828   2.467   3.604   5.962
 5977SOL     OW18829   6.608   4.318   0.647
 5977SOL    HW118830   6.695   4.274   0.669
 5977SOL    HW218831   6.611   4.355   0.555
 5978SOL     OW18832   2.922   4.375   0.755
 5978SOL    HW118833   2.966   4.346   0.840
 5978SOL    HW218834   2.831   4.412   0.775
 5979SOL     OW18835   5.753   0.592   1.615
 5979SOL    HW118836   5.742   0.598   1.714
 5979SOL    HW218837   5.668   0.621   1.570
 5980SOL     OW18838   3.029   3.076   1.219
 5980SOL    HW118839   2.997   3.056   1.311
 5980SOL    HW218840   3.127   3.096   1.220
 5981SOL     OW18841   2.384   2.460   0.594
 5981SOL    HW118842   2.339   2.419   0.515
 5981SOL    HW218843   2.483   2.443   0.588
 5982SOL     OW18844   5.873   2.892   0.937
 5982SOL    HW118845   5.955   2.939   0.968
 5982SOL    HW218846   5.876   2.796   0.965
 5983SOL     OW18847   0.006   0.538   3.690
 5983SOL    HW118848   7.004   0.471   3.620
 5983SOL    HW218849   6.946   0.577   3.730
 5984SOL     OW18850   6.751   6.838   3.629
 5984SOL    HW118851   6.695   6.915   3.601
 5984SOL    HW218852   6.807   6.808   3.552
 5985SOL     OW18853   5.659   2.992   2.615
 5985SOL    HW118854   5.670   2.896   2.643
 5985SOL    HW218855   5.563   3.018   2.622
 5986SOL     OW18856   4.035   3.646   5.147
 5986SOL    HW118857   4.016   3.692   5.234
 5986SOL    HW218858   3.951   3.638   5.094
 5987SOL     OW18859   0.018   0.081   5.528
 5987SOL    HW118860   0.017   0.139   5.610
 5987SOL    HW218861   6.949   0.047   5.510
 5988SOL     OW18862   1.103   2.377   6.250
 5988SOL    HW118863   1.094   2.284   6.215
 5988SOL    HW218864   1.190   2.386   6.299
 5989SOL     OW18865   0.439   5.961   6.650
 5989SOL    HW118866   0.351   5.944   6.694
 5989SOL    HW218867   0.503   5.889   6.674
 5990SOL     OW18868   3.577   4.891   1.712
 5990SOL    HW118869   3.586   4.817   1.779
 5990SOL    HW218870   3.493   4.942   1.729
 5991SOL     OW18871   5.062   7.015   0.871
 5991SOL    HW118872   5.030   6.978   0.958
 5991SOL    HW218873   4.987   0.037   0.823
 5992SOL     OW18874   3.892   6.469   1.885
 5992SOL    HW118875   3.977   6.433   1.846
 5992SOL    HW218876   3.901   6.475   1.984
 5993SOL     OW18877   6.365   1.764   0.268
 5993SOL    HW118878   6.310   1.809   0.339
 5993SOL    HW218879   6.448   1.728   0.308
 5994SOL     OW18880   0.664   3.726   0.653
 5994SOL    HW118881   0.744   3.766   0.609
 5994SOL    HW218882   0.595   3.797   0.669
 5995SOL     OW18883   4.575   3.937   1.469
 5995SOL    HW118884   4.608   4.014   1.523
 5995SOL    HW218885   4.491   3.901   1.510
 5996SOL     OW18886   3.195   5.285   0.911
 5996SOL    HW118887   3.154   5.370   0.946
 5996SOL    HW218888   3.293   5.300   0.895
 5997SOL     OW18889   6.920   6.943   3.822
 5997SOL    HW118890   6.865   6.900   3.750
 5997SOL    HW218891   6.861   6.975   3.895
 5998SOL     OW18892   6.102   6.890   1.294
 5998SOL    HW118893   6.085   6.989   1.287
 5998SOL    HW218894   6.031   6.848   1.350
 5999SOL     OW18895   5.199   2.736   0.831
 5999SOL    HW118896   5.237   2.666   0.892
 5999SOL    HW218897   5.270   2.802   0.808
 6000SOL     OW18898   0.092   3.961   1.542
 6000SOL    HW118899   0.006   3.936   1.498
 6000SOL    HW218900   0.097   4.060   1.551
 6001SOL     OW18901   6.391   5.234   5.646
 6001SOL    HW118902   6.400   5.285   5.731
 6001SOL    HW218903   6.298   5.198   5.638
 6002SOL     OW18904   6.149   5.345   4.456
 6002SOL    HW118905   6.152   5.438   4.421
 6002SOL    HW218906   6.137   5.281   4.380
 6003SOL     OW18907   0.566   3.013   4.496
 6003SOL    HW118908   0.554   3.111   4.480
 6003SOL    HW218909   0.652   2.997   4.544
 6004SOL     OW18910   5.251   2.531   4.176
 6004SOL    HW118911   5.195   2.448   4.178
 6004SOL    HW218912   5.292   2.546   4.266
 6005SOL     OW18913   3.853   5.273   6.385
 6005SOL    HW118914   3.830   5.177   6.370
 6005SOL    HW218915   3.787   5.314   6.449
 6006SOL     OW18916   3.488   6.385   5.765
 6006SOL    HW118917   3.548   6.388   5.845
 6006SOL    HW218918   3.398   6.352   5.793
 6007SOL     OW18919   2.183   5.740   6.502
 6007SOL    HW118920   2.270   5.756   6.550
 6007SOL    HW218921   2.202   5.704   6.411
 6008SOL     OW18922   3.346   3.994   6.070
 6008SOL    HW118923   3.304   3.942   5.995
 6008SOL    HW218924   3.342   4.091   6.050
 6009SOL     OW18925   3.140   5.070   3.128
 6009SOL    HW118926   3.149   5.018   3.213
 6009SOL    HW218927   3.094   5.014   3.059
 6010SOL     OW18928   0.709   5.464   4.961
 6010SOL    HW118929   0.787   5.484   5.020
 6010SOL    HW218930   0.669   5.549   4.928
 6011SOL     OW18931   5.952   2.023   1.642
 6011SOL    HW118932   6.002   2.107   1.663
 6011SOL    HW218933   5.952   1.964   1.723
 6012SOL     OW18934   6.877   0.233   6.148
 6012SOL    HW118935   6.863   0.227   6.247
 6012SOL    HW218936   6.839   0.152   6.104
 6013SOL     OW18937   5.865   1.578   2.495
 6013SOL    HW118938   5.931   1.648   2.469
 6013SOL    HW218939   5.888   1.492   2.451
 6014SOL     OW18940   3.960   3.080   4.180
 6014SOL    HW118941   3.931   3.042   4.268
 6014SOL    HW218942   3.980   3.177   4.190
 6015SOL     OW18943   5.890   1.537   4.455
 6015SOL    HW118944   5.948   1.617   4.441
 6015SOL    HW218945   5.926   1.482   4.530
 6016SOL     OW18946   5.428   1.171   4.420
 6016SOL    HW118947   5.351   1.140   4.476
 6016SOL    HW218948   5.511   1.171   4.475
 6017SOL     OW18949   6.631   2.174   5.303
 6017SOL    HW118950   6.703   2.138   5.362
 6017SOL    HW218951   6.663   2.255   5.255
 6018SOL     OW18952   3.220   0.964   5.393
 6018SOL    HW118953   3.145   1.030   5.405
 6018SOL    HW218954   3.188   0.889   5.334
 6019SOL     OW18955   6.894   3.708   6.907
 6019SOL    HW118956   6.836   3.635   6.870
 6019SOL    HW218957   6.939   3.676   6.990
 6020SOL     OW18958   0.663   4.536   6.752
 6020SOL    HW118959   0.603   4.594   6.808
 6020SOL    HW218960   0.609   4.487   6.684
 6021SOL     OW18961   4.980   0.107   3.369
 6021SOL    HW118962   5.023   0.065   3.289
 6021SOL    HW218963   5.035   0.185   3.400
 6022SOL     OW18964   5.933   1.835   1.831
 6022SOL    HW118965   6.015   1.778   1.820
 6022SOL    HW218966   5.853   1.778   1.846
 6023SOL     OW18967   4.133   0.642   1.875
 6023SOL    HW118968   4.150   0.544   1.862
 6023SOL    HW218969   4.160   0.668   1.968
 6024SOL     OW18970   0.883   5.732   0.327
 6024SOL    HW118971   0.891   5.691   0.418
 6024SOL    HW218972   0.972   5.769   0.300
 6025SOL     OW18973   3.158   0.628   4.519
 6025SOL    HW118974   3.088   0.692   4.551
 6025SOL    HW218975   3.232   0.678   4.473
 6026SOL     OW18976   6.644   4.419   4.479
 6026SOL    HW118977   6.712   4.374   4.538
 6026SOL    HW218978   6.615   4.356   4.408
 6027SOL     OW18979   5.627   4.197   6.663
 6027SOL    HW118980   5.626   4.240   6.572
 6027SOL    HW218981   5.593   4.104   6.656
 6028SOL     OW18982   5.634   5.232   6.472
 6028SOL    HW118983   5.651   5.304   6.540
 6028SOL    HW218984   5.570   5.165   6.510
 6029SOL     OW18985   2.294   0.849   3.066
 6029SOL    HW118986   2.373   0.790   3.056
 6029SOL    HW218987   2.218   0.797   3.105
 6030SOL     OW18988   5.493   3.646   4.284
 6030SOL    HW118989   5.478   3.598   4.197
 6030SOL    HW218990   5.426   3.719   4.294
 6031SOL     OW18991   0.801   6.190   4.925
 6031SOL    HW118992   0.857   6.231   4.997
 6031SOL    HW218993   0.812   6.090   4.927
 6032SOL     OW18994   3.579   6.347   3.550
 6032SOL    HW118995   3.641   6.304   3.485
 6032SOL    HW218996   3.572   6.291   3.632
 6033SOL     OW18997   1.901   1.593   2.374
 6033SOL    HW118998   1.989   1.579   2.419
 6033SOL    HW218999   1.871   1.507   2.332
 6034SOL     OW19000   0.550   0.811   0.089
 6034SOL    HW119001   0.525   0.714   0.085
 6034SOL    HW219002   0.521   0.856   0.004
 6035SOL     OW19003   2.082   0.508   2.754
 6035SOL    HW119004   2.111   0.582   2.693
 6035SOL    HW219005   1.990   0.528   2.788
 6036SOL     OW19006   6.403   2.437   0.842
 6036SOL    HW119007   6.334   2.509   0.851
 6036SOL    HW219008   6.372   2.355   0.890
 6037SOL     OW19009   5.261   2.309   0.328
 6037SOL    HW119010   5.174   2.261   0.343
 6037SOL    HW219011   5.244   2.397   0.284
 6038SOL     OW19012   0.372   1.636   6.007
 6038SOL    HW119013   0.303   1.599   6.070
 6038SOL    HW219014   0.334   1.637   5.914
 6039SOL     OW19015   3.812   3.575   3.432
 6039SOL    HW119016   3.863   3.553   3.516
 6039SOL    HW219017   3.730   3.519   3.427
 6040SOL     OW19018   0.485   1.786   0.454
 6040SOL    HW119019   0.547   1.850   0.410
 6040SOL    HW219020   0.468   1.709   0.393
 6041SOL     OW19021   2.275   3.323   5.829
 6041SOL    HW119022   2.232   3.232   5.834
 6041SOL    HW219023   2.362   3.321   5.877
 6042SOL     OW19024   3.789   6.359   3.223
 6042SOL    HW119025   3.793   6.459   3.228
 6042SOL    HW219026   3.733   6.331   3.145
 6043SOL     OW19027   2.582   0.419   3.611
 6043SOL    HW119028   2.520   0.342   3.597
 6043SOL    HW219029   2.664   0.407   3.555
 6044SOL     OW19030   0.675   2.796   1.393
 6044SOL    HW119031   0.586   2.800   1.438
 6044SOL    HW219032   0.741   2.850   1.444
 6045SOL     OW19033   4.962   2.123   3.535
 6045SOL    HW119034   4.879   2.168   3.503
 6045SOL    HW219035   5.042   2.175   3.504
 6046SOL     OW19036   3.210   3.037   2.512
 6046SOL    HW119037   3.244   3.130   2.525
 6046SOL    HW219038   3.242   3.002   2.424
 6047SOL     OW19039   6.109   1.224   1.225
 6047SOL    HW119040   6.151   1.184   1.143
 6047SOL    HW219041   6.145   1.178   1.306
 6048SOL     OW19042   6.245   5.987   4.388
 6048SOL    HW119043   6.181   5.917   4.358
 6048SOL    HW219044   6.339   5.955   4.375
 6049SOL     OW19045   4.618   5.166   5.395
 6049SOL    HW119046   4.693   5.131   5.339
 6049SOL    HW219047   4.628   5.135   5.489
 6050SOL     OW19048   3.926   6.724   1.738
 6050SOL    HW119049   4.003   6.700   1.678
 6050SOL    HW219050   3.899   6.643   1.790
 6051SOL     OW19051   1.081   1.073   3.546
 6051SOL    HW119052   1.133   0.998   3.503
 6051SOL    HW219053   1.129   1.159   3.531
 6052SOL     OW19054   5.512   6.819   0.329
 6052SOL    HW119055   5.421   6.805   0.288
 6052SOL    HW219056   5.580   6.769   0.275
 6053SOL     OW19057   4.081   2.812   6.217
 6053SOL    HW119058   4.062   2.714   6.223
 6053SOL    HW219059   4.078   2.852   6.309
 6054SOL     OW19060   3.859   4.293   0.990
 6054SOL    HW119061   3.771   4.246   0.981
 6054SOL    HW219062   3.844   4.385   1.026
 6055SOL     OW19063   3.363   4.697   0.517
 6055SOL    HW119064   3.365   4.777   0.456
 6055SOL    HW219065   3.268   4.676   0.540
 6056SOL     OW19066   5.361   5.766   5.269
 6056SOL    HW119067   5.405   5.856   5.269
 6056SOL    HW219068   5.267   5.775   5.302
 6057SOL     OW19069   4.996   0.218   4.355
 6057SOL    HW119070   5.071   0.213   4.422
 6057SOL    HW219071   4.931   0.288   4.384
 6058SOL     OW19072   5.440   2.124   6.121
 6058SOL    HW119073   5.443   2.150   6.025
 6058SOL    HW219074   5.526   2.078   6.146
 6059SOL     OW19075   4.175   3.376   6.803
 6059SOL    HW119076   4.173   3.279   6.827
 6059SOL    HW219077   4.196   3.386   6.706
 6060SOL     OW19078   2.530   3.267   6.577
 6060SOL    HW119079   2.598   3.340   6.575
 6060SOL    HW219080   2.473   3.277   6.658
 6061SOL     OW19081   3.573   4.945   6.951
 6061SOL    HW119082   3.525   4.936   0.015
 6061SOL    HW219083   3.670   4.925   6.964
 6062SOL     OW19084   1.706   2.132   6.980
 6062SOL    HW119085   1.770   2.069   6.936
 6062SOL    HW219086   1.616   2.122   6.938
 6063SOL     OW19087   4.339   4.355   6.216
 6063SOL    HW119088   4.372   4.449   6.231
 6063SOL    HW219089   4.315   4.343   6.120
 6064SOL     OW19090   6.830   5.610   0.994
 6064SOL    HW119091   6.818   5.537   1.060
 6064SOL    HW219092   6.877   5.687   1.037
 6065SOL     OW19093   0.570   6.230   2.505
 6065SOL    HW119094   0.476   6.217   2.538
 6065SOL    HW219095   0.601   6.322   2.531
 6066SOL     OW19096   5.720   6.421   3.544
 6066SOL    HW119097   5.636   6.405   3.596
 6066SOL    HW219098   5.751   6.515   3.557
 6067SOL     OW19099   5.656   0.425   6.362
 6067SOL    HW119100   5.722   0.383   6.423
 6067SOL    HW219101   5.592   0.356   6.329
 6068SOL     OW19102   4.654   1.877   5.141
 6068SOL    HW119103   4.671   1.787   5.101
 6068SOL    HW219104   4.561   1.906   5.118
 6069SOL     OW19105   0.143   3.467   6.570
 6069SOL    HW119106   0.141   3.563   6.546
 6069SOL    HW219107   0.107   3.455   6.663
 6070SOL     OW19108   2.711   1.631   0.564
 6070SOL    HW119109   2.679   1.663   0.653
 6070SOL    HW219110   2.752   1.540   0.575
 6071SOL     OW19111   6.189   0.097   5.089
 6071SOL    HW119112   6.136   0.015   5.067
 6071SOL    HW219113   6.127   0.171   5.115
 6072SOL     OW19114   0.072   2.592   1.091
 6072SOL    HW119115   0.116   2.679   1.068
 6072SOL    HW219116   0.042   2.547   1.007
 6073SOL     OW19117   4.766   2.470   0.332
 6073SOL    HW119118   4.772   2.513   0.423
 6073SOL    HW219119   4.675   2.431   0.320
 6074SOL     OW19120   0.343   6.457   2.682
 6074SOL    HW119121   0.343   6.471   2.583
 6074SOL    HW219122   0.336   6.359   2.702
 6075SOL     OW19123   5.038   6.864   6.642
 6075SOL    HW119124   5.082   6.945   6.682
 6075SOL    HW219125   4.987   6.891   6.560
 6076SOL     OW19126   1.336   5.013   3.523
 6076SOL    HW119127   1.375   4.942   3.465
 6076SOL    HW219128   1.263   5.061   3.474
 6077SOL     OW19129   5.611   6.606   1.978
 6077SOL    HW119130   5.687   6.621   1.915
 6077SOL    HW219131   5.611   6.675   2.049
 6078SOL     OW19132   4.058   3.686   0.605
 6078SOL    HW119133   4.103   3.606   0.645
 6078SOL    HW219134   3.989   3.720   0.668
 6079SOL     OW19135   3.243   3.786   6.427
 6079SOL    HW119136   3.281   3.853   6.491
 6079SOL    HW219137   3.187   3.833   6.359
 6080SOL     OW19138   0.032   4.422   6.808
 6080SOL    HW119139   0.011   4.337   6.758
 6080SOL    HW219140   0.088   4.400   6.888
 6081SOL     OW19141   1.733   3.350   4.299
 6081SOL    HW119142   1.690   3.435   4.270
 6081SOL    HW219143   1.772   3.303   4.219
 6082SOL     OW19144   4.430   1.141   1.007
 6082SOL    HW119145   4.409   1.232   0.972
 6082SOL    HW219146   4.478   1.149   1.095
 6083SOL     OW19147   4.910   0.114   6.428
 6083SOL    HW119148   4.840   0.080   6.490
 6083SOL    HW219149   4.947   0.200   6.463
 6084SOL     OW19150   6.877   6.495   2.938
 6084SOL    HW119151   6.835   6.457   2.856
 6084SOL    HW219152   6.810   6.496   3.012
 6085SOL     OW19153   0.445   6.099   0.797
 6085SOL    HW119154   0.442   6.164   0.874
 6085SOL    HW219155   0.523   6.122   0.738
 6086SOL     OW19156   3.492   3.965   6.330
 6086SOL    HW119157   3.439   3.990   6.411
 6086SOL    HW219158   3.443   3.995   6.248
 6087SOL     OW19159   4.957   6.654   0.653
 6087SOL    HW119160   4.867   6.686   0.683
 6087SOL    HW219161   5.021   6.731   0.650
 6088SOL     OW19162   5.339   6.748   3.490
 6088SOL    HW119163   5.333   6.662   3.540
 6088SOL    HW219164   5.248   6.774   3.458
 6089SOL     OW19165   6.221   3.705   3.310
 6089SOL    HW119166   6.138   3.670   3.354
 6089SOL    HW219167   6.213   3.694   3.211
 6090SOL     OW19168   4.098   6.087   4.037
 6090SOL    HW119169   4.001   6.095   4.014
 6090SOL    HW219170   4.154   6.121   3.961
 6091SOL     OW19171   1.945   1.328   1.789
 6091SOL    HW119172   1.913   1.242   1.749
 6091SOL    HW219173   1.930   1.402   1.723
 6092SOL     OW19174   3.924   6.047   1.296
 6092SOL    HW119175   3.963   6.045   1.388
 6092SOL    HW219176   3.833   6.088   1.300
 6093SOL     OW19177   2.363   2.066   2.262
 6093SOL    HW119178   2.407   2.059   2.173
 6093SOL    HW219179   2.390   1.988   2.318
 6094SOL     OW19180   0.614   6.327   4.809
 6094SOL    HW119181   0.534   6.267   4.811
 6094SOL    HW219182   0.690   6.282   4.855
 6095SOL     OW19183   4.312   5.472   1.016
 6095SOL    HW119184   4.244   5.537   1.051
 6095SOL    HW219185   4.279   5.433   0.931
 6096SOL     OW19186   5.778   6.644   3.201
 6096SOL    HW119187   5.690   6.619   3.243
 6096SOL    HW219188   5.803   6.576   3.132
 6097SOL     OW19189   1.892   5.785   2.149
 6097SOL    HW119190   1.983   5.820   2.171
 6097SOL    HW219191   1.849   5.749   2.232
 6098SOL     OW19192   6.513   0.804   4.900
 6098SOL    HW119193   6.569   0.756   4.833
 6098SOL    HW219194   6.434   0.845   4.855
 6099SOL     OW19195   4.366   0.791   5.874
 6099SOL    HW119196   4.334   0.885   5.861
 6099SOL    HW219197   4.337   0.735   5.797
 6100SOL     OW19198   0.281   6.248   4.982
 6100SOL    HW119199   0.316   6.193   4.906
 6100SOL    HW219200   0.230   6.190   5.046
 6101SOL     OW19201   6.181   2.846   1.324
 6101SOL    HW119202   6.202   2.936   1.286
 6101SOL    HW219203   6.189   2.776   1.253
 6102SOL     OW19204   4.658   0.120   2.879
 6102SOL    HW119205   4.677   0.114   2.781
 6102SOL    HW219206   4.650   0.217   2.905
 6103SOL     OW19207   0.024   1.693   1.762
 6103SOL    HW119208   0.031   1.597   1.790
 6103SOL    HW219209   6.972   1.736   1.811
 6104SOL     OW19210   6.661   0.839   4.300
 6104SOL    HW119211   6.642   0.892   4.383
 6104SOL    HW219212   6.712   0.896   4.236
 6105SOL     OW19213   3.026   4.793   5.311
 6105SOL    HW119214   3.017   4.720   5.243
 6105SOL    HW219215   2.937   4.813   5.351
 6106SOL     OW19216   6.079   5.397   6.457
 6106SOL    HW119217   6.160   5.407   6.399
 6106SOL    HW219218   6.002   5.447   6.416
 6107SOL     OW19219   5.418   4.686   5.778
 6107SOL    HW119220   5.414   4.784   5.759
 6107SOL    HW219221   5.501   4.647   5.737
 6108SOL     OW19222   2.356   1.501   0.826
 6108SOL    HW119223   2.292   1.578   0.827
 6108SOL    HW219224   2.407   1.500   0.911
 6109SOL     OW19225   6.287   0.151   3.153
 6109SOL    HW119226   6.269   0.246   3.128
 6109SOL    HW219227   6.217   0.092   3.112
 6110SOL     OW19228   1.925   1.793   4.896
 6110SOL    HW119229   1.995   1.852   4.855
 6110SOL    HW219230   1.960   1.757   4.983
 6111SOL     OW19231   1.529   4.609   1.050
 6111SOL    HW119232   1.582   4.597   0.966
 6111SOL    HW219233   1.576   4.564   1.126
 6112SOL     OW19234   4.744   0.194   2.598
 6112SOL    HW119235   4.765   0.285   2.633
 6112SOL    HW219236   4.829   0.144   2.584
 6113SOL     OW19237   2.287   5.191   6.803
 6113SOL    HW119238   2.355   5.259   6.828
 6113SOL    HW219239   2.288   5.116   6.869
 6114SOL     OW19240   5.044   1.538   0.830
 6114SOL    HW119241   5.119   1.588   0.786
 6114SOL    HW219242   4.966   1.600   0.842
 6115SOL     OW19243   1.093   0.485   5.352
 6115SOL    HW119244   1.036   0.471   5.271
 6115SOL    HW219245   1.034   0.495   5.433
 6116SOL     OW19246   5.226   1.992   5.741
 6116SOL    HW119247   5.195   2.000   5.646
 6116SOL    HW219248   5.160   2.035   5.802
 6117SOL     OW19249   1.916   2.278   0.998
 6117SOL    HW119250   1.859   2.225   1.061
 6117SOL    HW219251   1.869   2.364   0.975
 6118SOL     OW19252   6.092   0.319   0.192
 6118SOL    HW119253   6.006   0.282   0.157
 6118SOL    HW219254   6.076   0.412   0.226
 6119SOL     OW19255   6.537   1.778   0.823
 6119SOL    HW119256   6.613   1.835   0.856
 6119SOL    HW219257   6.560   1.682   0.834
 6120SOL     OW19258   2.226   0.974   5.367
 6120SOL    HW119259   2.195   1.069   5.375
 6120SOL    HW219260   2.176   0.929   5.293
 6121SOL     OW19261   0.447   2.818   5.090
 6121SOL    HW119262   0.506   2.896   5.070
 6121SOL    HW219263   0.441   2.759   5.010
 6122SOL     OW19264   5.166   5.755   5.848
 6122SOL    HW119265   5.206   5.723   5.934
 6122SOL    HW219266   5.236   5.798   5.793
 6123SOL     OW19267   5.589   1.752   5.103
 6123SOL    HW119268   5.519   1.810   5.145
 6123SOL    HW219269   5.627   1.798   5.023
 6124SOL     OW19270   2.345   6.958   4.067
 6124SOL    HW119271   2.285   0.014   4.066
 6124SOL    HW219272   2.386   6.948   4.158
 6125SOL     OW19273   1.762   2.121   6.515
 6125SOL    HW119274   1.809   2.152   6.598
 6125SOL    HW219275   1.799   2.170   6.436
 6126SOL     OW19276   6.332   2.782   5.640
 6126SOL    HW119277   6.431   2.769   5.641
 6126SOL    HW219278   6.311   2.879   5.648
 6127SOL     OW19279   3.980   2.215   1.864
 6127SOL    HW119280   3.897   2.174   1.901
 6127SOL    HW219281   4.044   2.235   1.939
 6128SOL     OW19282   6.040   5.986   0.260
 6128SOL    HW119283   6.064   5.895   0.226
 6128SOL    HW219284   6.123   6.038   0.279
 6129SOL     OW19285   1.516   5.446   2.672
 6129SOL    HW119286   1.561   5.412   2.589
 6129SOL    HW219287   1.564   5.526   2.706
 6130SOL     OW19288   5.293   2.149   1.013
 6130SOL    HW119289   5.330   2.228   0.965
 6130SOL    HW219290   5.226   2.103   0.955
 6131SOL     OW19291   0.007   1.837   2.523
 6131SOL    HW119292   0.014   1.841   2.622
 6131SOL    HW219293   0.098   1.827   2.483
 6132SOL     OW19294   3.478   1.142   6.529
 6132SOL    HW119295   3.433   1.167   6.615
 6132SOL    HW219296   3.422   1.075   6.481
 6133SOL     OW19297   1.874   1.464   4.022
 6133SOL    HW119298   1.778   1.457   4.049
 6133SOL    HW219299   1.930   1.471   4.104
 6134SOL     OW19300   5.388   6.936   6.439
 6134SOL    HW119301   5.440   6.882   6.372
 6134SOL    HW219302   5.297   6.955   6.402
 6135SOL     OW19303   6.606   0.008   6.625
 6135SOL    HW119304   6.609   6.970   6.546
 6135SOL    HW219305   6.605   6.978   6.709
 6136SOL     OW19306   1.389   3.064   2.469
 6136SOL    HW119307   1.406   2.993   2.400
 6136SOL    HW219308   1.335   3.137   2.428
 6137SOL     OW19309   6.888   4.173   2.304
 6137SOL    HW119310   6.952   4.139   2.235
 6137SOL    HW219311   6.831   4.097   2.336
 6138SOL     OW19312   3.674   0.107   2.008
 6138SOL    HW119313   3.737   0.155   2.069
 6138SOL    HW219314   3.720   0.028   1.968
 6139SOL     OW19315   1.621   0.649   5.521
 6139SOL    HW119316   1.576   0.565   5.550
 6139SOL    HW219317   1.553   0.712   5.485
 6140SOL     OW19318   1.916   6.696   3.365
 6140SOL    HW119319   1.893   6.792   3.349
 6140SOL    HW219320   1.978   6.664   3.293
 6141SOL     OW19321   0.638   0.451   5.883
 6141SOL    HW119322   0.570   0.410   5.822
 6141SOL    HW219323   0.602   0.536   5.921
 6142SOL     OW19324   0.669   0.205   0.996
 6142SOL    HW119325   0.768   0.195   1.008
 6142SOL    HW219326   0.637   0.136   0.931
 6143SOL     OW19327   6.218   4.160   5.645
 6143SOL    HW119328   6.201   4.219   5.724
 6143SOL    HW219329   6.212   4.213   5.561
 6144SOL     OW19330   3.872   5.017   2.885
 6144SOL    HW119331   3.776   5.028   2.860
 6144SOL    HW219332   3.898   5.088   2.951
 6145SOL     OW19333   5.055   3.030   4.546
 6145SOL    HW119334   5.035   3.127   4.532
 6145SOL    HW219335   5.049   3.009   4.643
 6146SOL     OW19336   5.447   0.221   4.664
 6146SOL    HW119337   5.518   0.172   4.614
 6146SOL    HW219338   5.453   0.319   4.645
 6147SOL     OW19339   1.681   2.146   3.632
 6147SOL    HW119340   1.752   2.175   3.569
 6147SOL    HW219341   1.687   2.199   3.716
 6148SOL     OW19342   3.278   6.054   0.611
 6148SOL    HW119343   3.311   5.960   0.597
 6148SOL    HW219344   3.327   6.116   0.551
 6149SOL     OW19345   2.922   6.955   2.013
 6149SOL    HW119346   3.008   7.006   2.016
 6149SOL    HW219347   2.919   6.889   2.087
 6150SOL     OW19348   6.292   4.258   6.520
 6150SOL    HW119349   6.250   4.347   6.536
 6150SOL    HW219350   6.386   4.258   6.553
 6151SOL     OW19351   4.534   4.524   4.559
 6151SOL    HW119352   4.540   4.557   4.464
 6151SOL    HW219353   4.578   4.435   4.566
 6152SOL     OW19354   0.779   4.580   4.161
 6152SOL    HW119355   0.785   4.569   4.260
 6152SOL    HW219356   0.706   4.645   4.140
 6153SOL     OW19357   5.316   5.158   0.898
 6153SOL    HW119358   5.226   5.161   0.942
 6153SOL    HW219359   5.312   5.208   0.812
 6154SOL     OW19360   6.066   3.315   2.077
 6154SOL    HW119361   6.077   3.414   2.066
 6154SOL    HW219362   5.969   3.293   2.087
 6155SOL     OW19363   2.034   1.412   2.995
 6155SOL    HW119364   2.102   1.485   3.003
 6155SOL    HW219365   1.944   1.453   2.980
 6156SOL     OW19366   4.987   5.274   1.497
 6156SOL    HW119367   4.983   5.178   1.524
 6156SOL    HW219368   5.007   5.280   1.399
 6157SOL     OW19369   1.405   1.991   2.403
 6157SOL    HW119370   1.380   1.974   2.498
 6157SOL    HW219371   1.371   2.081   2.376
 6158SOL     OW19372   3.020   2.905   5.718
 6158SOL    HW119373   3.020   2.846   5.637
 6158SOL    HW219374   3.111   2.906   5.759
 6159SOL     OW19375   5.708   3.138   6.997
 6159SOL    HW119376   5.798   3.108   6.965
 6159SOL    HW219377   5.705   3.134   0.074
 6160SOL     OW19378   0.768   0.019   6.976
 6160SOL    HW119379   0.694   0.029   0.018
 6160SOL    HW219380   0.853   7.021   0.001
 6161SOL     OW19381   4.658   2.496   6.395
 6161SOL    HW119382   4.739   2.522   6.344
 6161SOL    HW219383   4.658   2.540   6.485
 6162SOL     OW19384   6.470   5.589   2.578
 6162SOL    HW119385   6.439   5.539   2.659
 6162SOL    HW219386   6.418   5.674   2.570
 6163SOL     OW19387   5.568   5.854   3.289
 6163SOL    HW119388   5.632   5.871   3.365
 6163SOL    HW219389   5.614   5.798   3.220
 6164SOL     OW19390   3.655   4.173   4.796
 6164SOL    HW119391   3.559   4.161   4.819
 6164SOL    HW219392   3.704   4.209   4.876
 6165SOL     OW19393   3.945   1.913   0.135
 6165SOL    HW119394   3.981   1.921   0.228
 6165SOL    HW219395   3.922   1.818   0.116
 6166SOL     OW19396   0.637   2.304   0.089
 6166SOL    HW119397   0.685   2.364   0.154
 6166SOL    HW219398   0.571   2.359   0.037
 6167SOL     OW19399   1.174   3.602   3.613
 6167SOL    HW119400   1.247   3.668   3.597
 6167SOL    HW219401   1.214   3.514   3.642
 6168SOL     OW19402   0.526   3.685   4.396
 6168SOL    HW119403   0.591   3.635   4.453
 6168SOL    HW219404   0.436   3.685   4.440
 6169SOL     OW19405   2.394   6.918   0.156
 6169SOL    HW119406   2.460   6.954   0.223
 6169SOL    HW219407   2.322   6.868   0.205
 6170SOL     OW19408   3.775   3.967   6.818
 6170SOL    HW119409   3.861   3.955   6.769
 6170SOL    HW219410   3.785   4.040   6.885
 6171SOL     OW19411   1.917   4.460   2.557
 6171SOL    HW119412   1.913   4.486   2.461
 6171SOL    HW219413   1.990   4.394   2.571
 6172SOL     OW19414   1.102   6.073   2.596
 6172SOL    HW119415   1.035   6.046   2.665
 6172SOL    HW219416   1.082   6.165   2.563
 6173SOL     OW19417   1.329   5.228   2.505
 6173SOL    HW119418   1.346   5.252   2.601
 6173SOL    HW219419   1.416   5.209   2.460
 6174SOL     OW19420   5.215   5.382   2.854
 6174SOL    HW119421   5.124   5.406   2.887
 6174SOL    HW219422   5.250   5.304   2.905
 6175SOL     OW19423   4.595   0.602   3.372
 6175SOL    HW119424   4.663   0.633   3.439
 6175SOL    HW219425   4.627   0.518   3.329
 6176SOL     OW19426   6.096   3.334   5.958
 6176SOL    HW119427   6.086   3.433   5.952
 6176SOL    HW219428   6.176   3.311   6.014
 6177SOL     OW19429   5.357   2.022   0.591
 6177SOL    HW119430   5.410   2.091   0.541
 6177SOL    HW219431   5.324   1.953   0.527
 6178SOL     OW19432   5.692   3.658   0.816
 6178SOL    HW119433   5.744   3.579   0.850
 6178SOL    HW219434   5.595   3.636   0.813
 6179SOL     OW19435   0.135   2.275   5.652
 6179SOL    HW119436   0.048   2.294   5.696
 6179SOL    HW219437   0.207   2.332   5.693
 6180SOL     OW19438   4.078   6.799   1.001
 6180SOL    HW119439   4.016   6.751   0.939
 6180SOL    HW219440   4.055   6.897   1.002
 6181SOL     OW19441   5.023   6.496   6.879
 6181SOL    HW119442   4.937   6.449   6.903
 6181SOL    HW219443   5.081   6.434   6.826
 6182SOL     OW19444   4.938   6.459   6.454
 6182SOL    HW119445   4.847   6.446   6.414
 6182SOL    HW219446   4.932   6.451   6.553
 6183SOL     OW19447   2.851   6.930   3.525
 6183SOL    HW119448   2.928   6.882   3.484
 6183SOL    HW219449   2.798   6.976   3.454
 6184SOL     OW19450   0.538   0.342   6.474
 6184SOL    HW119451   0.520   0.254   6.430
 6184SOL    HW219452   0.609   0.330   6.543
 6185SOL     OW19453   6.921   3.468   6.305
 6185SOL    HW119454   7.008   3.497   6.266
 6185SOL    HW219455   6.849   3.532   6.280
 6186SOL     OW19456   5.274   0.490   4.328
 6186SOL    HW119457   5.216   0.537   4.262
 6186SOL    HW219458   5.356   0.544   4.345
 6187SOL     OW19459   4.575   4.603   4.270
 6187SOL    HW119460   4.494   4.601   4.211
 6187SOL    HW219461   4.627   4.519   4.259
 6188SOL     OW19462   2.766   6.719   1.270
 6188SOL    HW119463   2.841   6.671   1.226
 6188SOL    HW219464   2.796   6.754   1.359
 6189SOL     OW19465   5.698   5.183   3.462
 6189SOL    HW119466   5.630   5.180   3.389
 6189SOL    HW219467   5.676   5.257   3.526
 6190SOL     OW19468   5.409   2.565   6.886
 6190SOL    HW119469   5.461   2.576   6.801
 6190SOL    HW219470   5.329   2.508   6.869
 6191SOL     OW19471   5.825   1.783   7.003
 6191SOL    HW119472   5.727   1.792   7.015
 6191SOL    HW219473   5.861   1.715   0.045
 6192SOL     OW19474   2.534   2.912   6.846
 6192SOL    HW119475   2.570   2.974   6.775
 6192SOL    HW219476   2.582   2.928   6.932
 6193SOL     OW19477   5.470   0.438   1.871
 6193SOL    HW119478   5.411   0.363   1.902
 6193SOL    HW219479   5.415   0.507   1.825
 6194SOL     OW19480   2.995   0.752   0.879
 6194SOL    HW119481   2.987   0.761   0.978
 6194SOL    HW219482   2.904   0.738   0.839
 6195SOL     OW19483   3.311   6.966   6.598
 6195SOL    HW119484   3.339   6.874   6.570
 6195SOL    HW219485   3.269   7.013   6.520
 6196SOL     OW19486   0.748   2.192   6.152
 6196SOL    HW119487   0.757   2.095   6.129
 6196SOL    HW219488   0.651   2.217   6.153
 6197SOL     OW19489   2.276   3.945   0.633
 6197SOL    HW119490   2.324   4.006   0.571
 6197SOL    HW219491   2.299   3.850   0.611
 6198SOL     OW19492   3.857   4.901   2.347
 6198SOL    HW119493   3.772   4.901   2.295
 6198SOL    HW219494   3.838   4.881   2.443
 6199SOL     OW19495   1.561   6.609   0.082
 6199SOL    HW119496   1.502   6.558   0.144
 6199SOL    HW219497   1.508   6.683   0.039
 6200SOL     OW19498   4.023   0.965   6.497
 6200SOL    HW119499   4.049   0.888   6.555
 6200SOL    HW219500   4.098   1.032   6.495
 6201SOL     OW19501   1.978   3.818   5.541
 6201SOL    HW119502   1.958   3.720   5.535
 6201SOL    HW219503   1.916   3.868   5.481
 6202SOL     OW19504   2.971   2.231   0.930
 6202SOL    HW119505   3.037   2.264   0.862
 6202SOL    HW219506   2.982   2.133   0.941
 6203SOL     OW19507   5.058   1.062   4.369
 6203SOL    HW119508   5.100   1.150   4.392
 6203SOL    HW219509   4.962   1.063   4.396
 6204SOL     OW19510   2.548   6.294   5.463
 6204SOL    HW119511   2.480   6.224   5.487
 6204SOL    HW219512   2.548   6.308   5.364
 6205SOL     OW19513   5.127   5.873   0.218
 6205SOL    HW119514   5.151   5.968   0.239
 6205SOL    HW219515   5.211   5.819   0.210
 6206SOL     OW19516   5.933   0.214   2.982
 6206SOL    HW119517   5.937   0.238   3.079
 6206SOL    HW219518   5.939   0.297   2.927
 6207SOL     OW19519   1.479   4.264   4.796
 6207SOL    HW119520   1.555   4.311   4.840
 6207SOL    HW219521   1.512   4.217   4.714
 6208SOL     OW19522   5.937   6.614   6.298
 6208SOL    HW119523   6.021   6.648   6.342
 6208SOL    HW219524   5.892   6.689   6.251
 6209SOL     OW19525   4.349   6.503   0.382
 6209SOL    HW119526   4.429   6.480   0.437
 6209SOL    HW219527   4.267   6.464   0.425
 6210SOL     OW19528   5.654   4.247   3.571
 6210SOL    HW119529   5.629   4.315   3.502
 6210SOL    HW219530   5.703   4.171   3.527
 6211SOL     OW19531   2.866   0.030   4.772
 6211SOL    HW119532   2.946   0.090   4.770
 6211SOL    HW219533   2.783   0.085   4.765
 6212SOL     OW19534   6.397   6.323   3.932
 6212SOL    HW119535   6.341   6.252   3.976
 6212SOL    HW219536   6.404   6.402   3.992
 6213SOL     OW19537   6.359   0.724   6.256
 6213SOL    HW119538   6.353   0.640   6.203
 6213SOL    HW219539   6.292   0.790   6.221
 6214SOL     OW19540   6.537   4.568   2.681
 6214SOL    HW119541   6.496   4.658   2.670
 6214SOL    HW219542   6.465   4.498   2.684
 6215SOL     OW19543   2.881   3.163   1.019
 6215SOL    HW119544   2.945   3.122   1.084
 6215SOL    HW219545   2.845   3.092   0.958
 6216SOL     OW19546   5.336   1.890   2.049
 6216SOL    HW119547   5.425   1.844   2.050
 6216SOL    HW219548   5.349   1.988   2.063
 6217SOL     OW19549   4.658   2.194   0.921
 6217SOL    HW119550   4.587   2.192   0.991
 6217SOL    HW219551   4.734   2.135   0.948
 6218SOL     OW19552   2.715   5.086   4.434
 6218SOL    HW119553   2.812   5.070   4.453
 6218SOL    HW219554   2.675   5.139   4.508
 6219SOL     OW19555   1.092   2.319   5.250
 6219SOL    HW119556   1.163   2.390   5.242
 6219SOL    HW219557   1.019   2.338   5.184
 6220SOL     OW19558   2.338   4.712   5.016
 6220SOL    HW119559   2.429   4.673   5.010
 6220SOL    HW219560   2.287   4.667   5.090
 6221SOL     OW19561   3.743   4.888   4.254
 6221SOL    HW119562   3.737   4.846   4.345
 6221SOL    HW219563   3.765   4.985   4.265
 6222SOL     OW19564   6.624   0.089   1.799
 6222SOL    HW119565   6.576   0.004   1.778
 6222SOL    HW219566   6.710   0.093   1.749
 6223SOL     OW19567   5.653   2.959   4.671
 6223SOL    HW119568   5.688   2.927   4.583
 6223SOL    HW219569   5.656   2.885   4.738
 6224SOL     OW19570   2.546   1.718   5.592
 6224SOL    HW119571   2.573   1.780   5.518
 6224SOL    HW219572   2.492   1.767   5.660
 6225SOL     OW19573   3.352   3.233   0.595
 6225SOL    HW119574   3.298   3.157   0.561
 6225SOL    HW219575   3.447   3.203   0.610
 6226SOL     OW19576   5.691   0.574   4.127
 6226SOL    HW119577   5.749   0.622   4.193
 6226SOL    HW219578   5.744   0.553   4.045
 6227SOL     OW19579   3.605   4.607   5.740
 6227SOL    HW119580   3.614   4.543   5.816
 6227SOL    HW219581   3.512   4.604   5.704
 6228SOL     OW19582   0.105   1.194   3.425
 6228SOL    HW119583   0.041   1.117   3.420
 6228SOL    HW219584   0.066   1.273   3.376
 6229SOL     OW19585   2.330   2.767   2.842
 6229SOL    HW119586   2.293   2.728   2.927
 6229SOL    HW219587   2.283   2.726   2.764
 6230SOL     OW19588   2.349   2.240   4.074
 6230SOL    HW119589   2.332   2.179   4.152
 6230SOL    HW219590   2.387   2.326   4.107
 6231SOL     OW19591   0.025   5.098   1.227
 6231SOL    HW119592   0.092   5.057   1.289
 6231SOL    HW219593   0.016   5.041   1.145
 6232SOL     OW19594   0.277   0.588   0.454
 6232SOL    HW119595   0.190   0.543   0.437
 6232SOL    HW219596   0.271   0.684   0.428
 6233SOL     OW19597   4.722   2.218   6.365
 6233SOL    HW119598   4.793   2.203   6.435
 6233SOL    HW219599   4.688   2.311   6.372
 6234SOL     OW19600   1.588   1.689   4.557
 6234SOL    HW119601   1.624   1.779   4.531
 6234SOL    HW219602   1.508   1.700   4.616
 6235SOL     OW19603   1.803   0.356   2.459
 6235SOL    HW119604   1.821   0.290   2.386
 6235SOL    HW219605   1.849   0.442   2.439
 6236SOL     OW19606   7.005   4.124   1.016
 6236SOL    HW119607   0.035   4.047   0.983
 6236SOL    HW219608   0.040   4.187   1.067
 6237SOL     OW19609   4.317   6.674   1.024
 6237SOL    HW119610   4.244   6.743   1.029
 6237SOL    HW219611   4.391   6.708   0.965
 6238SOL     OW19612   4.817   5.579   1.489
 6238SOL    HW119613   4.812   5.596   1.390
 6238SOL    HW219614   4.770   5.493   1.510
 6239SOL     OW19615   2.288   6.508   2.682
 6239SOL    HW119616   2.244   6.583   2.633
 6239SOL    HW219617   2.230   6.427   2.680
 6240SOL     OW19618   1.678   3.233   0.582
 6240SOL    HW119619   1.637   3.171   0.514
 6240SOL    HW219620   1.615   3.246   0.658
 6241SOL     OW19621   3.061   0.145   1.303
 6241SOL    HW119622   3.115   0.075   1.256
 6241SOL    HW219623   3.119   0.193   1.369
 6242SOL     OW19624   5.206   2.100   3.907
 6242SOL    HW119625   5.171   2.040   3.836
 6242SOL    HW219626   5.164   2.191   3.899
 6243SOL     OW19627   5.492   6.098   4.140
 6243SOL    HW119628   5.486   6.152   4.224
 6243SOL    HW219629   5.586   6.099   4.106
 6244SOL     OW19630   2.771   2.001   2.274
 6244SOL    HW119631   2.728   2.088   2.300
 6244SOL    HW219632   2.793   2.003   2.176
 6245SOL     OW19633   3.162   4.806   1.478
 6245SOL    HW119634   3.151   4.857   1.564
 6245SOL    HW219635   3.204   4.717   1.497
 6246SOL     OW19636   2.771   2.122   5.610
 6246SOL    HW119637   2.812   2.157   5.526
 6246SOL    HW219638   2.709   2.190   5.648
 6247SOL     OW19639   0.491   6.553   3.311
 6247SOL    HW119640   0.546   6.562   3.394
 6247SOL    HW219641   0.530   6.482   3.252
 6248SOL     OW19642   0.935   4.864   1.215
 6248SOL    HW119643   0.837   4.874   1.199
 6248SOL    HW219644   0.954   4.875   1.313
 6249SOL     OW19645   6.962   3.871   0.255
 6249SOL    HW119646   6.877   3.845   0.302
 6249SOL    HW219647   7.020   3.923   0.317
 6250SOL     OW19648   5.978   6.471   6.915
 6250SOL    HW119649   6.009   6.495   7.006
 6250SOL    HW219650   5.887   6.511   6.899
 6251SOL     OW19651   4.256   1.695   0.545
 6251SOL    HW119652   4.167   1.725   0.510
 6251SOL    HW219653   4.308   1.775   0.576
 6252SOL     OW19654   3.257   5.843   4.899
 6252SOL    HW119655   3.228   5.760   4.948
 6252SOL    HW219656   3.292   5.910   4.965
 6253SOL     OW19657   2.401   3.890   1.756
 6253SOL    HW119658   2.389   3.965   1.822
 6253SOL    HW219659   2.498   3.879   1.735
 6254SOL     OW19660   5.892   0.097   0.412
 6254SOL    HW119661   5.801   0.132   0.434
 6254SOL    HW219662   5.926   0.144   0.331
 6255SOL     OW19663   0.641   1.319   2.734
 6255SOL    HW119664   0.550   1.320   2.693
 6255SOL    HW219665   0.705   1.272   2.674
 6256SOL     OW19666   3.985   4.762   2.772
 6256SOL    HW119667   3.929   4.836   2.810
 6256SOL    HW219668   3.939   4.723   2.693
 6257SOL     OW19669   5.646   2.824   0.144
 6257SOL    HW119670   5.575   2.881   0.186
 6257SOL    HW219671   5.693   2.771   0.214
 6258SOL     OW19672   4.562   1.951   2.143
 6258SOL    HW119673   4.479   1.985   2.188
 6258SOL    HW219674   4.610   2.028   2.100
 6259SOL     OW19675   2.966   2.218   1.703
 6259SOL    HW119676   2.953   2.132   1.754
 6259SOL    HW219677   2.958   2.295   1.766
 6260SOL     OW19678   3.171   4.239   6.899
 6260SOL    HW119679   3.251   4.183   6.923
 6260SOL    HW219680   3.202   4.326   6.861
 6261SOL     OW19681   4.211   1.306   0.225
 6261SOL    HW119682   4.164   1.362   0.157
 6261SOL    HW219683   4.173   1.324   0.315
 6262SOL     OW19684   1.156   4.580   6.622
 6262SOL    HW119685   1.202   4.564   6.534
 6262SOL    HW219686   1.188   4.666   6.662
 6263SOL     OW19687   6.883   6.738   0.564
 6263SOL    HW119688   6.850   6.816   0.618
 6263SOL    HW219689   6.974   6.712   0.597
 6264SOL     OW19690   2.445   2.059   0.284
 6264SOL    HW119691   2.447   2.049   0.383
 6264SOL    HW219692   2.493   1.981   0.242
 6265SOL     OW19693   4.044   3.795   1.225
 6265SOL    HW119694   4.047   3.895   1.228
 6265SOL    HW219695   4.136   3.759   1.209
 6266SOL     OW19696   3.639   0.748   3.056
 6266SOL    HW119697   3.581   0.820   3.018
 6266SOL    HW219698   3.608   0.659   3.020
 6267SOL     OW19699   3.414   0.016   6.851
 6267SOL    HW119700   3.403   7.006   6.758
 6267SOL    HW219701   3.364   0.102   6.862
 6268SOL     OW19702   3.305   4.864   2.877
 6268SOL    HW119703   3.361   4.878   2.959
 6268SOL    HW219704   3.338   4.924   2.804
 6269SOL     OW19705   5.776   5.596   1.421
 6269SOL    HW119706   5.724   5.545   1.353
 6269SOL    HW219707   5.853   5.643   1.377
 6270SOL     OW19708   1.087   0.253   4.835
 6270SOL    HW119709   1.111   0.245   4.932
 6270SOL    HW219710   1.041   0.340   4.818
 6271SOL     OW19711   0.223   1.377   0.411
 6271SOL    HW119712   0.206   1.279   0.397
 6271SOL    HW219713   0.162   1.430   0.352
 6272SOL     OW19714   2.216   2.519   3.907
 6272SOL    HW119715   2.238   2.616   3.894
 6272SOL    HW219716   2.272   2.464   3.845
 6273SOL     OW19717   2.701   1.280   1.356
 6273SOL    HW119718   2.667   1.338   1.429
 6273SOL    HW219719   2.776   1.223   1.390
 6274SOL     OW19720   3.662   6.316   5.968
 6274SOL    HW119721   3.707   6.240   5.921
 6274SOL    HW219722   3.704   6.328   6.058
 6275SOL     OW19723   1.882   0.209   4.649
 6275SOL    HW119724   1.920   0.275   4.714
 6275SOL    HW219725   1.783   0.215   4.650
 6276SOL     OW19726   1.215   5.545   3.782
 6276SOL    HW119727   1.313   5.554   3.803
 6276SOL    HW219728   1.203   5.492   3.698
 6277SOL     OW19729   5.032   2.710   2.663
 6277SOL    HW119730   5.109   2.659   2.625
 6277SOL    HW219731   4.960   2.647   2.690
 6278SOL     OW19732   5.095   0.245   4.103
 6278SOL    HW119733   5.062   0.224   4.196
 6278SOL    HW219734   5.028   0.304   4.057
 6279SOL     OW19735   4.024   1.998   0.378
 6279SOL    HW119736   4.048   1.928   0.446
 6279SOL    HW219737   4.107   2.040   0.343
 6280SOL     OW19738   6.945   4.144   5.541
 6280SOL    HW119739   6.866   4.165   5.598
 6280SOL    HW219740   6.952   4.213   5.468
 6281SOL     OW19741   2.348   0.535   5.475
 6281SOL    HW119742   2.384   0.450   5.437
 6281SOL    HW219743   2.313   0.592   5.402
 6282SOL     OW19744   2.236   6.992   4.600
 6282SOL    HW119745   2.259   0.054   4.552
 6282SOL    HW219746   2.318   6.934   4.606
 6283SOL     OW19747   7.022   2.453   5.256
 6283SOL    HW119748   0.045   2.517   5.318
 6283SOL    HW219749   7.007   2.366   5.302
 6284SOL     OW19750   1.048   4.857   5.406
 6284SOL    HW119751   1.086   4.767   5.382
 6284SOL    HW219752   1.102   4.928   5.361
 6285SOL     OW19753   1.781   3.167   3.372
 6285SOL    HW119754   1.764   3.195   3.277
 6285SOL    HW219755   1.723   3.090   3.395
 6286SOL     OW19756   5.780   1.482   3.488
 6286SOL    HW119757   5.695   1.508   3.442
 6286SOL    HW219758   5.815   1.398   3.447
 6287SOL     OW19759   4.988   4.139   1.592
 6287SOL    HW119760   4.979   4.052   1.542
 6287SOL    HW219761   5.010   4.120   1.687
 6288SOL     OW19762   5.184   3.760   0.261
 6288SOL    HW119763   5.201   3.858   0.260
 6288SOL    HW219764   5.238   3.715   0.190
 6289SOL     OW19765   1.680   1.590   3.658
 6289SOL    HW119766   1.724   1.608   3.746
 6289SOL    HW219767   1.718   1.652   3.589
 6290SOL     OW19768   4.838   4.071   3.501
 6290SOL    HW119769   4.931   4.104   3.482
 6290SOL    HW219770   4.772   4.128   3.453
 6291SOL     OW19771   3.528   4.061   3.720
 6291SOL    HW119772   3.531   4.103   3.811
 6291SOL    HW219773   3.618   4.067   3.677
 6292SOL     OW19774   1.200   1.699   2.295
 6292SOL    HW119775   1.150   1.648   2.365
 6292SOL    HW219776   1.169   1.794   2.296
 6293SOL     OW19777   4.786   6.984   0.371
 6293SOL    HW119778   4.754   6.945   0.285
 6293SOL    HW219779   4.713   0.016   0.412
 6294SOL     OW19780   3.982   5.163   3.083
 6294SOL    HW119781   3.941   5.208   3.163
 6294SOL    HW219782   4.052   5.222   3.044
 6295SOL     OW19783   5.703   5.957   6.536
 6295SOL    HW119784   5.624   6.019   6.539
 6295SOL    HW219785   5.786   6.007   6.561
 6296SOL     OW19786   6.381   1.022   3.146
 6296SOL    HW119787   6.353   1.062   3.058
 6296SOL    HW219788   6.459   0.961   3.131
 6297SOL     OW19789   5.697   6.173   5.938
 6297SOL    HW119790   5.756   6.211   6.009
 6297SOL    HW219791   5.624   6.237   5.917
 6298SOL     OW19792   0.349   2.865   5.341
 6298SOL    HW119793   0.420   2.930   5.369
 6298SOL    HW219794   0.364   2.839   5.245
 6299SOL     OW19795   6.719   2.998   6.442
 6299SOL    HW119796   6.631   3.030   6.407
 6299SOL    HW219797   6.724   2.898   6.434
 6300SOL     OW19798   4.551   0.893   3.557
 6300SOL    HW119799   4.578   0.846   3.641
 6300SOL    HW219800   4.468   0.850   3.520
 6301SOL     OW19801   3.456   6.927   0.676
 6301SOL    HW119802   3.420   6.993   0.742
 6301SOL    HW219803   3.380   6.878   0.633
 6302SOL     OW19804   2.004   1.259   3.629
 6302SOL    HW119805   1.916   1.287   3.666
 6302SOL    HW219806   2.026   1.315   3.548
 6303SOL     OW19807   1.452   6.297   4.945
 6303SOL    HW119808   1.455   6.218   5.006
 6303SOL    HW219809   1.501   6.276   4.861
 6304SOL     OW19810   2.887   1.166   0.035
 6304SOL    HW119811   2.899   1.265   0.041
 6304SOL    HW219812   2.879   1.139   6.963
 6305SOL     OW19813   6.945   6.890   1.401
 6305SOL    HW119814   6.886   6.907   1.322
 6305SOL    HW219815   6.997   6.806   1.386
 6306SOL     OW19816   6.792   3.024   3.722
 6306SOL    HW119817   6.772   2.926   3.721
 6306SOL    HW219818   6.736   3.069   3.792
 6307SOL     OW19819   1.891   5.112   0.095
 6307SOL    HW119820   1.951   5.163   0.157
 6307SOL    HW219821   1.946   5.053   0.036
 6308SOL     OW19822   2.980   1.756   5.271
 6308SOL    HW119823   3.010   1.850   5.286
 6308SOL    HW219824   2.997   1.731   5.176
 6309SOL     OW19825   5.519   2.077   3.819
 6309SOL    HW119826   5.605   2.051   3.776
 6309SOL    HW219827   5.525   2.058   3.917
 6310SOL     OW19828   1.231   4.749   4.686
 6310SOL    HW119829   1.227   4.649   4.694
 6310SOL    HW219830   1.259   4.788   4.774
 6311SOL     OW19831   6.033   0.286   4.495
 6311SOL    HW119832   5.935   0.283   4.513
 6311SOL    HW219833   6.052   0.244   4.406
 6312SOL     OW19834   4.518   5.150   6.016
 6312SOL    HW119835   4.532   5.054   6.041
 6312SOL    HW219836   4.605   5.190   5.989
 6313SOL     OW19837   2.400   6.097   3.544
 6313SOL    HW119838   2.374   6.183   3.500
 6313SOL    HW219839   2.446   6.038   3.478
 6314SOL     OW19840   2.751   6.118   2.489
 6314SOL    HW119841   2.687   6.059   2.538
 6314SOL    HW219842   2.707   6.154   2.406
 6315SOL     OW19843   2.957   3.805   0.241
 6315SOL    HW119844   3.006   3.863   0.307
 6315SOL    HW219845   2.922   3.724   0.288
 6316SOL     OW19846   4.433   2.639   5.875
 6316SOL    HW119847   4.359   2.589   5.829
 6316SOL    HW219848   4.486   2.575   5.932
 6317SOL     OW19849   5.225   0.106   3.753
 6317SOL    HW119850   5.194   0.027   3.699
 6317SOL    HW219851   5.302   0.078   3.811
 6318SOL     OW19852   2.466   2.524   5.445
 6318SOL    HW119853   2.419   2.457   5.389
 6318SOL    HW219854   2.557   2.542   5.408
 6319SOL     OW19855   0.770   1.568   3.426
 6319SOL    HW119856   0.699   1.559   3.496
 6319SOL    HW219857   0.857   1.534   3.463
 6320SOL     OW19858   5.696   3.975   3.093
 6320SOL    HW119859   5.606   3.933   3.091
 6320SOL    HW219860   5.762   3.909   3.131
 6321SOL     OW19861   2.399   4.919   0.635
 6321SOL    HW119862   2.371   4.828   0.606
 6321SOL    HW219863   2.398   4.980   0.556
 6322SOL     OW19864   1.299   0.861   6.741
 6322SOL    HW119865   1.311   0.852   6.840
 6322SOL    HW219866   1.374   0.914   6.703
 6323SOL     OW19867   3.614   2.870   0.672
 6323SOL    HW119868   3.551   2.888   0.596
 6323SOL    HW219869   3.634   2.772   0.675
 6324SOL     OW19870   3.909   1.303   5.983
 6324SOL    HW119871   3.937   1.398   5.988
 6324SOL    HW219872   3.960   1.249   6.050
 6325SOL     OW19873   0.662   2.428   2.406
 6325SOL    HW119874   0.734   2.482   2.449
 6325SOL    HW219875   0.581   2.485   2.391
 6326SOL     OW19876   5.249   5.852   1.589
 6326SOL    HW119877   5.229   5.950   1.589
 6326SOL    HW219878   5.264   5.821   1.495
 6327SOL     OW19879   6.149   5.735   5.596
 6327SOL    HW119880   6.094   5.731   5.679
 6327SOL    HW219881   6.159   5.644   5.557
 6328SOL     OW19882   2.712   4.093   6.455
 6328SOL    HW119883   2.810   4.107   6.444
 6328SOL    HW219884   2.692   3.995   6.454
 6329SOL     OW19885   1.108   1.382   2.920
 6329SOL    HW119886   1.109   1.476   2.885
 6329SOL    HW219887   1.060   1.324   2.855
 6330SOL     OW19888   4.035   1.318   0.433
 6330SOL    HW119889   3.989   1.407   0.422
 6330SOL    HW219890   4.009   1.278   0.521
 6331SOL     OW19891   6.468   2.231   1.482
 6331SOL    HW119892   6.500   2.288   1.407
 6331SOL    HW219893   6.394   2.172   1.450
 6332SOL     OW19894   6.212   5.326   1.283
 6332SOL    HW119895   6.213   5.408   1.339
 6332SOL    HW219896   6.257   5.251   1.332
 6333SOL     OW19897   3.176   4.937   3.391
 6333SOL    HW119898   3.263   4.904   3.429
 6333SOL    HW219899   3.103   4.876   3.420
 6334SOL     OW19900   2.403   0.917   2.214
 6334SOL    HW119901   2.465   0.907   2.292
 6334SOL    HW219902   2.437   0.988   2.153
 6335SOL     OW19903   6.578   1.078   6.193
 6335SOL    HW119904   6.554   1.006   6.258
 6335SOL    HW219905   6.527   1.065   6.108
 6336SOL     OW19906   6.884   2.231   4.401
 6336SOL    HW119907   6.793   2.190   4.408
 6336SOL    HW219908   6.875   2.325   4.368
 6337SOL     OW19909   5.958   4.344   5.614
 6337SOL    HW119910   5.970   4.300   5.525
 6337SOL    HW219911   6.047   4.357   5.657
 6338SOL     OW19912   3.802   1.379   2.686
 6338SOL    HW119913   3.814   1.402   2.782
 6338SOL    HW219914   3.847   1.291   2.666
 6339SOL     OW19915   0.522   1.908   4.163
 6339SOL    HW119916   0.521   1.811   4.190
 6339SOL    HW219917   0.610   1.930   4.122
 6340SOL     OW19918   2.751   5.640   3.842
 6340SOL    HW119919   2.693   5.614   3.765
 6340SOL    HW219920   2.713   5.601   3.926
 6341SOL     OW19921   0.012   4.226   3.514
 6341SOL    HW119922   0.081   4.232   3.442
 6341SOL    HW219923   0.016   4.309   3.570
 6342SOL     OW19924   1.318   2.061   1.381
 6342SOL    HW119925   1.222   2.064   1.410
 6342SOL    HW219926   1.323   2.028   1.287
 6343SOL     OW19927   3.599   1.323   6.834
 6343SOL    HW119928   3.677   1.317   6.771
 6343SOL    HW219929   3.526   1.261   6.803
 6344SOL     OW19930   0.675   4.094   4.834
 6344SOL    HW119931   0.603   4.123   4.897
 6344SOL    HW219932   0.718   4.011   4.869
 6345SOL     OW19933   3.855   1.327   2.224
 6345SOL    HW119934   3.943   1.363   2.256
 6345SOL    HW219935   3.781   1.367   2.279
 6346SOL     OW19936   0.633   3.976   3.510
 6346SOL    HW119937   0.626   3.972   3.610
 6346SOL    HW219938   0.581   3.900   3.471
 6347SOL     OW19939   3.031   6.949   0.491
 6347SOL    HW119940   2.971   6.872   0.513
 6347SOL    HW219941   2.979   0.011   0.495
 6348SOL     OW19942   0.842   2.834   3.972
 6348SOL    HW119943   0.763   2.883   4.008
 6348SOL    HW219944   0.841   2.740   4.005
 6349SOL     OW19945   2.961   1.327   0.889
 6349SOL    HW119946   2.941   1.255   0.822
 6349SOL    HW219947   2.907   1.313   0.971
 6350SOL     OW19948   1.619   5.959   2.387
 6350SOL    HW119949   1.523   5.973   2.366
 6350SOL    HW219950   1.632   5.963   2.486
 6351SOL     OW19951   0.123   1.536   2.536
 6351SOL    HW119952   0.165   1.528   2.626
 6351SOL    HW219953   0.194   1.544   2.466
 6352SOL     OW19954   0.927   5.645   2.377
 6352SOL    HW119955   0.986   5.634   2.458
 6352SOL    HW219956   0.851   5.580   2.382
 6353SOL     OW19957   0.549   0.041   0.814
 6353SOL    HW119958   0.470   7.016   0.851
 6353SOL    HW219959   0.580   7.020   0.730
 6354SOL     OW19960   0.994   6.887   2.882
 6354SOL    HW119961   0.963   6.792   2.878
 6354SOL    HW219962   1.073   6.894   2.943
 6355SOL     OW19963   1.685   2.835   2.964
 6355SOL    HW119964   1.784   2.834   2.951
 6355SOL    HW219965   1.641   2.870   2.882
 6356SOL     OW19966   3.363   4.204   1.092
 6356SOL    HW119967   3.301   4.141   1.137
 6356SOL    HW219968   3.339   4.298   1.117
 6357SOL     OW19969   4.000   2.127   6.976
 6357SOL    HW119970   3.952   2.060   0.008
 6357SOL    HW219971   3.940   2.162   6.904
 6358SOL     OW19972   0.373   2.094   3.596
 6358SOL    HW119973   0.435   2.161   3.554
 6358SOL    HW219974   0.411   2.002   3.586
 6359SOL     OW19975   6.816   0.542   6.361
 6359SOL    HW119976   6.798   0.445   6.381
 6359SOL    HW219977   6.729   0.590   6.347
 6360SOL     OW19978   3.072   5.243   3.833
 6360SOL    HW119979   2.976   5.250   3.858
 6360SOL    HW219980   3.080   5.229   3.734
 6361SOL     OW19981   4.294   6.168   5.916
 6361SOL    HW119982   4.260   6.256   5.951
 6361SOL    HW219983   4.337   6.182   5.827
 6362SOL     OW19984   5.974   5.181   6.598
 6362SOL    HW119985   5.955   5.232   6.682
 6362SOL    HW219986   6.012   5.242   6.529
 6363SOL     OW19987   1.598   5.777   4.397
 6363SOL    HW119988   1.609   5.825   4.310
 6363SOL    HW219989   1.504   5.745   4.406
 6364SOL     OW19990   2.347   2.566   6.060
 6364SOL    HW119991   2.403   2.643   6.091
 6364SOL    HW219992   2.253   2.577   6.094
 6365SOL     OW19993   5.056   6.990   3.162
 6365SOL    HW119994   5.136   6.989   3.103
 6365SOL    HW219995   4.973   7.001   3.106
 6366SOL     OW19996   0.726   5.620   5.428
 6366SOL    HW119997   0.666   5.690   5.467
 6366SOL    HW219998   0.716   5.535   5.479
 6367SOL     OW19999   5.363   6.565   4.171
 6367SOL    HW120000   5.353   6.531   4.265
 6367SOL    HW220001   5.274   6.596   4.137
 6368SOL     OW20002   3.172   6.865   4.568
 6368SOL    HW120003   3.074   6.878   4.552
 6368SOL    HW220004   3.223   6.884   4.484
 6369SOL     OW20005   2.697   4.961   4.197
 6369SOL    HW120006   2.704   5.009   4.285
 6369SOL    HW220007   2.623   4.894   4.202
 6370SOL     OW20008   6.033   2.169   1.195
 6370SOL    HW120009   6.000   2.250   1.244
 6370SOL    HW220010   6.019   2.088   1.251
 6371SOL     OW20011   4.632   2.493   2.434
 6371SOL    HW120012   4.651   2.404   2.392
 6371SOL    HW220013   4.573   2.480   2.514
 6372SOL     OW20014   3.490   6.073   2.286
 6372SOL    HW120015   3.550   6.025   2.350
 6372SOL    HW220016   3.478   6.167   2.315
 6373SOL     OW20017   4.234   3.870   6.509
 6373SOL    HW120018   4.265   3.863   6.414
 6373SOL    HW220019   4.152   3.928   6.513
 6374SOL     OW20020   3.051   3.251   2.863
 6374SOL    HW120021   3.148   3.229   2.852
 6374SOL    HW220022   3.029   3.255   2.960
 6375SOL     OW20023   1.362   6.399   2.896
 6375SOL    HW120024   1.455   6.392   2.860
 6375SOL    HW220025   1.359   6.358   2.987
 6376SOL     OW20026   6.703   2.395   5.087
 6376SOL    HW120027   6.713   2.332   5.010
 6376SOL    HW220028   6.767   2.471   5.077
 6377SOL     OW20029   0.652   1.379   4.262
 6377SOL    HW120030   0.643   1.280   4.260
 6377SOL    HW220031   0.701   1.407   4.345
 6378SOL     OW20032   4.684   4.227   4.008
 6378SOL    HW120033   4.638   4.284   3.940
 6378SOL    HW220034   4.758   4.176   3.965
 6379SOL     OW20035   2.328   4.386   3.870
 6379SOL    HW120036   2.286   4.417   3.956
 6379SOL    HW220037   2.276   4.309   3.834
 6380SOL     OW20038   0.579   0.549   6.300
 6380SOL    HW120039   0.596   0.607   6.379
 6380SOL    HW220040   0.524   0.470   6.328
 6381SOL     OW20041   3.159   4.006   3.121
 6381SOL    HW120042   3.119   3.945   3.053
 6381SOL    HW220043   3.238   4.052   3.082
 6382SOL     OW20044   1.230   3.577   5.984
 6382SOL    HW120045   1.302   3.511   5.962
 6382SOL    HW220046   1.146   3.551   5.937
 6383SOL     OW20047   2.411   1.875   4.190
 6383SOL    HW120048   2.313   1.887   4.175
 6383SOL    HW220049   2.426   1.802   4.257
 6384SOL     OW20050   6.800   4.577   2.632
 6384SOL    HW120051   6.832   4.507   2.568
 6384SOL    HW220052   6.704   4.559   2.656
 6385SOL     OW20053   0.764   5.012   4.851
 6385SOL    HW120054   0.778   5.109   4.834
 6385SOL    HW220055   0.846   4.973   4.893
 6386SOL     OW20056   2.909   5.180   0.937
 6386SOL    HW120057   3.002   5.192   0.970
 6386SOL    HW220058   2.902   5.095   0.885
 6387SOL     OW20059   6.312   0.895   5.207
 6387SOL    HW120060   6.354   0.894   5.116
 6387SOL    HW220061   6.213   0.909   5.198
 6388SOL     OW20062   3.111   4.925   1.991
 6388SOL    HW120063   3.211   4.924   2.002
 6388SOL    HW220064   3.070   4.861   2.056
 6389SOL     OW20065   1.422   5.622   3.282
 6389SOL    HW120066   1.495   5.677   3.324
 6389SOL    HW220067   1.399   5.660   3.193
 6390SOL     OW20068   0.962   2.666   3.797
 6390SOL    HW120069   0.925   2.725   3.869
 6390SOL    HW220070   1.035   2.609   3.834
 6391SOL     OW20071   2.664   1.858   0.205
 6391SOL    HW120072   2.709   1.797   0.140
 6391SOL    HW220073   2.727   1.880   0.280
 6392SOL     OW20074   1.672   6.244   3.568
 6392SOL    HW120075   1.757   6.289   3.597
 6392SOL    HW220076   1.596   6.309   3.575
 6393SOL     OW20077   6.283   6.116   0.293
 6393SOL    HW120078   6.273   6.201   0.346
 6393SOL    HW220079   6.354   6.059   0.334
 6394SOL     OW20080   2.092   4.869   0.279
 6394SOL    HW120081   2.001   4.868   0.320
 6394SOL    HW220082   2.111   4.779   0.239
 6395SOL     OW20083   6.174   1.091   0.693
 6395SOL    HW120084   6.101   1.041   0.648
 6395SOL    HW220085   6.241   1.120   0.625
 6396SOL     OW20086   4.832   4.227   5.759
 6396SOL    HW120087   4.777   4.297   5.804
 6396SOL    HW220088   4.899   4.191   5.824
 6397SOL     OW20089   6.819   1.488   0.574
 6397SOL    HW120090   6.898   1.428   0.558
 6397SOL    HW220091   6.759   1.486   0.494
 6398SOL     OW20092   3.179   1.551   1.365
 6398SOL    HW120093   3.250   1.621   1.369
 6398SOL    HW220094   3.221   1.461   1.373
 6399SOL     OW20095   2.088   5.480   6.643
 6399SOL    HW120096   1.994   5.478   6.678
 6399SOL    HW220097   2.116   5.574   6.628
 6400SOL     OW20098   2.645   5.877   3.530
 6400SOL    HW120099   2.631   5.781   3.553
 6400SOL    HW220100   2.659   5.929   3.614
 6401SOL     OW20101   0.494   4.692   3.837
 6401SOL    HW120102   0.449   4.675   3.750
 6401SOL    HW220103   0.494   4.608   3.892
 6402SOL     OW20104   2.299   1.060   3.252
 6402SOL    HW120105   2.220   1.121   3.247
 6402SOL    HW220106   2.289   0.987   3.185
 6403SOL     OW20107   1.110   4.999   6.701
 6403SOL    HW120108   1.018   4.968   6.727
 6403SOL    HW220109   1.123   5.093   6.731
 6404SOL     OW20110   4.980   1.384   3.031
 6404SOL    HW120111   4.889   1.379   3.073
 6404SOL    HW220112   5.024   1.469   3.059
 6405SOL     OW20113   2.645   1.494   2.478
 6405SOL    HW120114   2.652   1.581   2.528
 6405SOL    HW220115   2.734   1.451   2.473
 6406SOL     OW20116   2.545   1.412   4.235
 6406SOL    HW120117   2.514   1.319   4.254
 6406SOL    HW220118   2.486   1.453   4.166
 6407SOL     OW20119   3.648   5.465   5.741
 6407SOL    HW120120   3.739   5.467   5.699
 6407SOL    HW220121   3.656   5.492   5.837
 6408SOL     OW20122   5.243   1.656   6.328
 6408SOL    HW120123   5.158   1.707   6.339
 6408SOL    HW220124   5.318   1.706   6.371
 6409SOL     OW20125   7.000   3.656   2.909
 6409SOL    HW120126   0.028   3.694   2.986
 6409SOL    HW220127   0.039   3.608   2.848
 6410SOL     OW20128   1.520   1.516   0.439
 6410SOL    HW120129   1.534   1.615   0.431
 6410SOL    HW220130   1.594   1.467   0.394
 6411SOL     OW20131   0.826   1.016   3.631
 6411SOL    HW120132   0.807   1.088   3.697
 6411SOL    HW220133   0.916   1.032   3.590
 6412SOL     OW20134   0.240   2.479   5.805
 6412SOL    HW120135   0.332   2.473   5.767
 6412SOL    HW220136   0.189   2.551   5.758
 6413SOL     OW20137   6.620   4.464   0.906
 6413SOL    HW120138   6.710   4.501   0.882
 6413SOL    HW220139   6.581   4.416   0.827
 6414SOL     OW20140   6.525   6.771   2.195
 6414SOL    HW120141   6.585   6.794   2.272
 6414SOL    HW220142   6.430   6.783   2.222
 6415SOL     OW20143   1.945   1.564   1.634
 6415SOL    HW120144   2.042   1.587   1.634
 6415SOL    HW220145   1.891   1.644   1.608
 6416SOL     OW20146   1.610   0.632   6.537
 6416SOL    HW120147   1.689   0.629   6.599
 6416SOL    HW220148   1.528   0.607   6.587
 6417SOL     OW20149   1.210   6.960   3.554
 6417SOL    HW120150   1.274   7.019   3.604
 6417SOL    HW220151   1.120   6.967   3.597
 6418SOL     OW20152   0.069   6.253   2.323
 6418SOL    HW120153   0.106   6.336   2.281
 6418SOL    HW220154   7.023   6.278   2.391
 6419SOL     OW20155   3.730   4.819   1.496
 6419SOL    HW120156   3.695   4.880   1.567
 6419SOL    HW220157   3.820   4.852   1.466
 6420SOL     OW20158   2.191   4.377   6.148
 6420SOL    HW120159   2.250   4.361   6.068
 6420SOL    HW220160   2.111   4.431   6.121
 6421SOL     OW20161   5.780   1.156   1.499
 6421SOL    HW120162   5.753   1.070   1.456
 6421SOL    HW220163   5.828   1.213   1.432
 6422SOL     OW20164   6.315   1.731   3.501
 6422SOL    HW120165   6.312   1.761   3.406
 6422SOL    HW220166   6.287   1.806   3.561
 6423SOL     OW20167   4.891   3.632   0.804
 6423SOL    HW120168   4.874   3.694   0.728
 6423SOL    HW220169   4.890   3.682   0.890
 6424SOL     OW20170   6.901   3.896   5.825
 6424SOL    HW120171   6.905   3.981   5.876
 6424SOL    HW220172   6.926   3.819   5.885
 6425SOL     OW20173   0.820   4.382   2.497
 6425SOL    HW120174   0.896   4.362   2.435
 6425SOL    HW220175   0.751   4.437   2.450
 6426SOL     OW20176   0.995   2.366   3.463
 6426SOL    HW120177   1.037   2.450   3.430
 6426SOL    HW220178   0.896   2.369   3.448
 6427SOL     OW20179   1.457   3.365   5.541
 6427SOL    HW120180   1.495   3.452   5.508
 6427SOL    HW220181   1.516   3.290   5.511
 6428SOL     OW20182   0.003   3.528   2.094
 6428SOL    HW120183   6.996   3.546   2.001
 6428SOL    HW220184   6.957   3.473   2.142
 6429SOL     OW20185   1.347   6.958   4.133
 6429SOL    HW120186   1.288   6.915   4.201
 6429SOL    HW220187   1.391   6.887   4.078
 6430SOL     OW20188   5.833   2.171   0.980
 6430SOL    HW120189   5.803   2.261   0.948
 6430SOL    HW220190   5.866   2.179   1.075
 6431SOL     OW20191   5.321   6.579   2.683
 6431SOL    HW120192   5.231   6.562   2.644
 6431SOL    HW220193   5.333   6.523   2.765
 6432SOL     OW20194   4.717   3.416   0.817
 6432SOL    HW120195   4.785   3.490   0.818
 6432SOL    HW220196   4.764   3.328   0.816
 6433SOL     OW20197   2.906   4.421   1.208
 6433SOL    HW120198   2.869   4.374   1.289
 6433SOL    HW220199   2.871   4.378   1.125
 6434SOL     OW20200   1.248   3.968   0.651
 6434SOL    HW120201   1.298   3.946   0.735
 6434SOL    HW220202   1.209   3.885   0.612
 6435SOL     OW20203   4.416   4.549   6.511
 6435SOL    HW120204   4.344   4.479   6.512
 6435SOL    HW220205   4.500   4.509   6.548
 6436SOL     OW20206   1.680   3.101   3.808
 6436SOL    HW120207   1.777   3.107   3.783
 6436SOL    HW220208   1.624   3.132   3.731
 6437SOL     OW20209   1.448   0.064   6.607
 6437SOL    HW120210   1.363   0.039   6.560
 6437SOL    HW220211   1.507   7.007   6.615
 6438SOL     OW20212   1.090   3.976   3.771
 6438SOL    HW120213   1.033   3.973   3.689
 6438SOL    HW220214   1.182   4.008   3.746
 6439SOL     OW20215   1.154   6.992   1.317
 6439SOL    HW120216   1.118   6.934   1.390
 6439SOL    HW220217   1.236   6.951   1.278
 6440SOL     OW20218   1.434   1.562   2.794
 6440SOL    HW120219   1.436   1.584   2.892
 6440SOL    HW220220   1.490   1.628   2.744
 6441SOL     OW20221   2.182   1.112   3.952
 6441SOL    HW120222   2.181   1.046   3.877
 6441SOL    HW220223   2.092   1.114   3.996
 6442SOL     OW20224   2.539   2.239   4.351
 6442SOL    HW120225   2.487   2.189   4.421
 6442SOL    HW220226   2.586   2.173   4.291
 6443SOL     OW20227   2.574   2.319   0.271
 6443SOL    HW120228   2.539   2.230   0.301
 6443SOL    HW220229   2.504   2.364   0.214
 6444SOL     OW20230   0.596   1.330   3.012
 6444SOL    HW120231   0.610   1.338   2.913
 6444SOL    HW220232   0.511   1.375   3.037
 6445SOL     OW20233   4.142   3.020   5.360
 6445SOL    HW120234   4.205   3.097   5.370
 6445SOL    HW220235   4.054   3.044   5.401
 6446SOL     OW20236   6.001   1.103   6.958
 6446SOL    HW120237   6.064   1.056   7.019
 6446SOL    HW220238   6.049   1.179   6.914
 6447SOL     OW20239   1.890   0.589   2.129
 6447SOL    HW120240   1.833   0.516   2.091
 6447SOL    HW220241   1.906   0.659   2.060
 6448SOL     OW20242   5.527   2.632   3.244
 6448SOL    HW120243   5.594   2.691   3.199
 6448SOL    HW220244   5.572   2.548   3.274
 6449SOL     OW20245   3.215   3.575   1.103
 6449SOL    HW120246   3.116   3.588   1.106
 6449SOL    HW220247   3.235   3.491   1.052
 6450SOL     OW20248   5.687   3.845   1.002
 6450SOL    HW120249   5.689   3.786   0.921
 6450SOL    HW220250   5.775   3.891   1.011
 6451SOL     OW20251   2.648   5.713   5.180
 6451SOL    HW120252   2.695   5.743   5.097
 6451SOL    HW220253   2.705   5.648   5.230
 6452SOL     OW20254   3.603   6.693   4.094
 6452SOL    HW120255   3.588   6.613   4.037
 6452SOL    HW220256   3.605   6.666   4.190
 6453SOL     OW20257   1.694   6.330   6.535
 6453SOL    HW120258   1.790   6.314   6.511
 6453SOL    HW220259   1.664   6.260   6.600
 6454SOL     OW20260   3.352   1.490   4.549
 6454SOL    HW120261   3.412   1.475   4.628
 6454SOL    HW220262   3.277   1.551   4.576
 6455SOL     OW20263   6.075   2.620   5.319
 6455SOL    HW120264   6.039   2.711   5.303
 6455SOL    HW220265   6.106   2.612   5.414
 6456SOL     OW20266   0.629   0.574   3.367
 6456SOL    HW120267   0.718   0.529   3.360
 6456SOL    HW220268   0.560   0.507   3.395
 6457SOL     OW20269   6.547   2.332   1.229
 6457SOL    HW120270   6.644   2.341   1.253
 6457SOL    HW220271   6.532   2.243   1.186
 6458SOL     OW20272   1.393   5.438   3.504
 6458SOL    HW120273   1.398   5.463   3.407
 6458SOL    HW220274   1.471   5.477   3.553
 6459SOL     OW20275   5.524   4.652   6.879
 6459SOL    HW120276   5.566   4.561   6.883
 6459SOL    HW220277   5.527   4.694   6.970
 6460SOL     OW20278   3.476   4.767   6.228
 6460SOL    HW120279   3.494   4.669   6.238
 6460SOL    HW220280   3.380   4.785   6.250
 6461SOL     OW20281   3.921   5.121   5.289
 6461SOL    HW120282   3.854   5.046   5.293
 6461SOL    HW220283   3.966   5.129   5.378
 6462SOL     OW20284   2.315   3.515   5.238
 6462SOL    HW120285   2.273   3.605   5.255
 6462SOL    HW220286   2.341   3.473   5.324
 6463SOL     OW20287   1.922   4.453   6.091
 6463SOL    HW120288   1.915   4.404   6.004
 6463SOL    HW220289   1.879   4.399   6.163
 6464SOL     OW20290   0.432   5.299   3.033
 6464SOL    HW120291   0.394   5.235   2.965
 6464SOL    HW220292   0.430   5.392   2.995
 6465SOL     OW20293   6.358   1.968   3.308
 6465SOL    HW120294   6.303   2.021   3.372
 6465SOL    HW220295   6.423   2.029   3.261
 6466SOL     OW20296   0.438   2.397   5.429
 6466SOL    HW120297   0.482   2.477   5.390
 6466SOL    HW220298   0.457   2.392   5.528
 6467SOL     OW20299   2.572   0.931   6.480
 6467SOL    HW120300   2.565   0.970   6.572
 6467SOL    HW220301   2.667   0.904   6.463
 6468SOL     OW20302   5.032   6.045   1.103
 6468SOL    HW120303   5.093   5.966   1.109
 6468SOL    HW220304   5.078   6.125   1.140
 6469SOL     OW20305   6.487   1.008   5.577
 6469SOL    HW120306   6.532   0.983   5.492
 6469SOL    HW220307   6.551   1.060   5.634
 6470SOL     OW20308   6.168   6.823   5.868
 6470SOL    HW120309   6.223   6.880   5.929
 6470SOL    HW220310   6.222   6.802   5.786
 6471SOL     OW20311   6.312   4.832   6.646
 6471SOL    HW120312   6.397   4.827   6.593
 6471SOL    HW220313   6.285   4.740   6.675
 6472SOL     OW20314   0.865   6.402   1.971
 6472SOL    HW120315   0.906   6.372   2.056
 6472SOL    HW220316   0.884   6.499   1.957
 6473SOL     OW20317   1.878   1.943   6.296
 6473SOL    HW120318   1.895   1.874   6.366
 6473SOL    HW220319   1.781   1.967   6.296
 6474SOL     OW20320   1.610   3.443   5.163
 6474SOL    HW120321   1.662   3.367   5.202
 6474SOL    HW220322   1.644   3.463   5.071
 6475SOL     OW20323   4.490   5.920   3.952
 6475SOL    HW120324   4.421   5.976   3.906
 6475SOL    HW220325   4.459   5.898   4.044
 6476SOL     OW20326   4.794   4.674   2.600
 6476SOL    HW120327   4.824   4.656   2.506
 6476SOL    HW220328   4.703   4.634   2.614
 6477SOL     OW20329   6.349   5.463   0.560
 6477SOL    HW120330   6.417   5.511   0.503
 6477SOL    HW220331   6.396   5.398   0.619
 6478SOL     OW20332   5.176   6.624   2.168
 6478SOL    HW120333   5.214   6.537   2.135
 6478SOL    HW220334   5.195   6.634   2.266
 6479SOL     OW20335   4.186   5.208   2.362
 6479SOL    HW120336   4.214   5.227   2.457
 6479SOL    HW220337   4.107   5.148   2.363
 6480SOL     OW20338   2.966   2.574   0.250
 6480SOL    HW120339   2.908   2.608   0.176
 6480SOL    HW220340   3.047   2.633   0.258
 6481SOL     OW20341   3.877   1.144   1.526
 6481SOL    HW120342   3.876   1.090   1.442
 6481SOL    HW220343   3.971   1.154   1.557
 6482SOL     OW20344   0.026   0.331   6.624
 6482SOL    HW120345   0.077   0.276   6.690
 6482SOL    HW220346   0.088   0.394   6.577
 6483SOL     OW20347   1.414   6.900   2.686
 6483SOL    HW120348   1.473   6.953   2.747
 6483SOL    HW220349   1.407   6.806   2.718
 6484SOL     OW20350   4.324   0.490   3.285
 6484SOL    HW120351   4.361   0.569   3.334
 6484SOL    HW220352   4.394   0.418   3.280
 6485SOL     OW20353   1.777   2.403   3.340
 6485SOL    HW120354   1.685   2.397   3.379
 6485SOL    HW220355   1.773   2.449   3.252
 6486SOL     OW20356   1.466   3.642   3.969
 6486SOL    HW120357   1.398   3.714   3.957
 6486SOL    HW220358   1.443   3.564   3.910
 6487SOL     OW20359   5.996   6.484   4.459
 6487SOL    HW120360   6.094   6.504   4.454
 6487SOL    HW220361   5.955   6.496   4.369
 6488SOL     OW20362   3.195   5.027   5.589
 6488SOL    HW120363   3.142   5.039   5.673
 6488SOL    HW220364   3.142   4.974   5.523
 6489SOL     OW20365   2.062   1.682   5.104
 6489SOL    HW120366   2.020   1.672   5.194
 6489SOL    HW220367   2.162   1.681   5.113
 6490SOL     OW20368   3.601   1.503   0.490
 6490SOL    HW120369   3.542   1.566   0.542
 6490SOL    HW220370   3.610   1.417   0.540
 6491SOL     OW20371   4.606   1.680   6.215
 6491SOL    HW120372   4.621   1.726   6.127
 6491SOL    HW220373   4.534   1.727   6.265
 6492SOL     OW20374   6.027   6.248   0.094
 6492SOL    HW120375   6.057   6.327   0.148
 6492SOL    HW220376   5.956   6.277   0.030
 6493SOL     OW20377   1.413   6.582   6.038
 6493SOL    HW120378   1.499   6.576   6.088
 6493SOL    HW220379   1.430   6.571   5.941
 6494SOL     OW20380   0.909   0.488   3.308
 6494SOL    HW120381   0.862   0.456   3.226
 6494SOL    HW220382   0.904   0.418   3.380
 6495SOL     OW20383   5.543   5.176   3.024
 6495SOL    HW120384   5.484   5.163   2.945
 6495SOL    HW220385   5.491   5.156   3.107
 6496SOL     OW20386   1.161   6.883   2.603
 6496SOL    HW120387   1.092   6.888   2.675
 6496SOL    HW220388   1.252   6.887   2.644
 6497SOL     OW20389   1.635   4.279   0.356
 6497SOL    HW120390   1.568   4.211   0.386
 6497SOL    HW220391   1.720   4.234   0.330
 6498SOL     OW20392   2.358   4.206   4.111
 6498SOL    HW120393   2.306   4.134   4.157
 6498SOL    HW220394   2.376   4.179   4.016
 6499SOL     OW20395   5.502   1.547   3.512
 6499SOL    HW120396   5.441   1.473   3.481
 6499SOL    HW220397   5.536   1.597   3.432
 6500SOL     OW20398   4.626   4.741   3.755
 6500SOL    HW120399   4.668   4.811   3.812
 6500SOL    HW220400   4.694   4.702   3.694
 6501SOL     OW20401   6.331   3.964   1.508
 6501SOL    HW120402   6.253   4.004   1.557
 6501SOL    HW220403   6.389   3.915   1.572
 6502SOL     OW20404   0.970   4.854   3.037
 6502SOL    HW120405   0.987   4.900   2.950
 6502SOL    HW220406   0.878   4.874   3.069
 6503SOL     OW20407   4.798   6.670   4.845
 6503SOL    HW120408   4.847   6.586   4.822
 6503SOL    HW220409   4.822   6.697   4.938
 6504SOL     OW20410   3.434   0.926   0.732
 6504SOL    HW120411   3.339   0.925   0.765
 6504SOL    HW220412   3.438   0.980   0.648
 6505SOL     OW20413   5.723   4.984   1.161
 6505SOL    HW120414   5.779   4.918   1.212
 6505SOL    HW220415   5.745   4.979   1.064
 6506SOL     OW20416   1.683   2.801   1.239
 6506SOL    HW120417   1.614   2.811   1.167
 6506SOL    HW220418   1.718   2.891   1.264
 6507SOL     OW20419   2.329   6.683   1.401
 6507SOL    HW120420   2.350   6.601   1.454
 6507SOL    HW220421   2.230   6.697   1.400
 6508SOL     OW20422   2.148   2.154   3.391
 6508SOL    HW120423   2.189   2.077   3.343
 6508SOL    HW220424   2.131   2.228   3.327
 6509SOL     OW20425   0.903   2.727   4.677
 6509SOL    HW120426   0.962   2.786   4.731
 6509SOL    HW220427   0.945   2.637   4.667
 6510SOL     OW20428   6.100   4.989   6.749
 6510SOL    HW120429   6.155   4.939   6.682
 6510SOL    HW220430   6.063   5.072   6.707
 6511SOL     OW20431   6.562   6.398   6.321
 6511SOL    HW120432   6.554   6.360   6.229
 6511SOL    HW220433   6.656   6.429   6.337
 6512SOL     OW20434   5.476   6.974   3.514
 6512SOL    HW120435   5.420   0.015   3.463
 6512SOL    HW220436   5.425   6.888   3.527
 6513SOL     OW20437   3.926   6.664   2.851
 6513SOL    HW120438   3.991   6.687   2.779
 6513SOL    HW220439   3.880   6.748   2.882
 6514SOL     OW20440   4.393   0.227   4.217
 6514SOL    HW120441   4.489   0.243   4.192
 6514SOL    HW220442   4.336   0.302   4.183
 6515SOL     OW20443   0.744   6.748   4.869
 6515SOL    HW120444   0.793   6.762   4.955
 6515SOL    HW220445   0.761   6.825   4.808
 6516SOL     OW20446   0.647   1.872   5.308
 6516SOL    HW120447   0.623   1.807   5.235
 6516SOL    HW220448   0.693   1.951   5.268
 6517SOL     OW20449   0.665   1.428   0.301
 6517SOL    HW120450   0.734   1.481   0.349
 6517SOL    HW220451   0.671   1.332   0.330
 6518SOL     OW20452   6.823   6.247   1.293
 6518SOL    HW120453   6.867   6.285   1.374
 6518SOL    HW220454   6.882   6.261   1.213
 6519SOL     OW20455   1.901   2.075   4.413
 6519SOL    HW120456   1.805   2.097   4.434
 6519SOL    HW220457   1.919   2.094   4.316
 6520SOL     OW20458   6.143   5.520   1.488
 6520SOL    HW120459   6.063   5.558   1.441
 6520SOL    HW220460   6.196   5.595   1.528
 6521SOL     OW20461   6.889   1.904   5.045
 6521SOL    HW120462   6.892   2.003   5.062
 6521SOL    HW220463   6.797   1.879   5.015
 6522SOL     OW20464   2.567   5.209   6.422
 6522SOL    HW120465   2.468   5.214   6.407
 6522SOL    HW220466   2.611   5.170   6.341
 6523SOL     OW20467   2.013   1.542   6.147
 6523SOL    HW120468   2.086   1.573   6.087
 6523SOL    HW220469   2.032   1.571   6.241
 6524SOL     OW20470   4.042   3.377   3.210
 6524SOL    HW120471   4.069   3.280   3.211
 6524SOL    HW220472   4.074   3.422   3.293
 6525SOL     OW20473   0.525   3.018   3.623
 6525SOL    HW120474   0.560   2.986   3.534
 6525SOL    HW220475   0.432   3.053   3.612
 6526SOL     OW20476   1.907   6.077   5.126
 6526SOL    HW120477   1.993   6.045   5.085
 6526SOL    HW220478   1.834   6.074   5.058
 6527SOL     OW20479   1.253   6.880   5.097
 6527SOL    HW120480   1.343   6.836   5.100
 6527SOL    HW220481   1.192   6.836   5.163
 6528SOL     OW20482   0.174   1.615   4.479
 6528SOL    HW120483   0.082   1.579   4.492
 6528SOL    HW220484   0.236   1.541   4.454
 6529SOL     OW20485   6.837   1.228   1.623
 6529SOL    HW120486   6.802   1.246   1.714
 6529SOL    HW220487   6.769   1.176   1.571
 6530SOL     OW20488   6.801   1.952   0.660
 6530SOL    HW120489   6.747   1.963   0.576
 6530SOL    HW220490   6.766   1.875   0.713
 6531SOL     OW20491   5.355   3.016   4.021
 6531SOL    HW120492   5.331   2.919   4.028
 6531SOL    HW220493   5.292   3.061   3.956
 6532SOL     OW20494   6.443   1.515   6.298
 6532SOL    HW120495   6.532   1.488   6.262
 6532SOL    HW220496   6.385   1.434   6.310
 6533SOL     OW20497   4.737   0.155   1.406
 6533SOL    HW120498   4.654   0.116   1.367
 6533SOL    HW220499   4.799   0.081   1.434
 6534SOL     OW20500   2.250   4.344   1.105
 6534SOL    HW120501   2.316   4.392   1.162
 6534SOL    HW220502   2.263   4.369   1.009
 6535SOL     OW20503   0.161   3.692   5.320
 6535SOL    HW120504   0.247   3.740   5.302
 6535SOL    HW220505   0.132   3.643   5.237
 6536SOL     OW20506   5.960   1.987   6.873
 6536SOL    HW120507   5.911   1.908   6.910
 6536SOL    HW220508   6.046   1.956   6.831
 6537SOL     OW20509   0.709   6.836   0.305
 6537SOL    HW120510   0.638   6.770   0.331
 6537SOL    HW220511   0.738   6.818   0.211
 6538SOL     OW20512   3.057   3.544   0.001
 6538SOL    HW120513   3.003   3.627   7.009
 6538SOL    HW220514   3.154   3.567   0.007
 6539SOL     OW20515   2.610   1.669   6.902
 6539SOL    HW120516   2.587   1.613   6.822
 6539SOL    HW220517   2.594   1.765   6.881
 6540SOL     OW20518   2.850   1.441   4.770
 6540SOL    HW120519   2.881   1.443   4.675
 6540SOL    HW220520   2.914   1.387   4.825
 6541SOL     OW20521   2.516   2.387   6.169
 6541SOL    HW120522   2.488   2.291   6.165
 6541SOL    HW220523   2.444   2.444   6.129
 6542SOL     OW20524   6.408   4.243   3.908
 6542SOL    HW120525   6.392   4.277   3.816
 6542SOL    HW220526   6.338   4.278   3.970
 6543SOL     OW20527   6.441   6.003   6.711
 6543SOL    HW120528   6.385   5.986   6.630
 6543SOL    HW220529   6.483   6.093   6.705
 6544SOL     OW20530   6.377   6.543   4.191
 6544SOL    HW120531   6.475   6.528   4.192
 6544SOL    HW220532   6.358   6.641   4.182
 6545SOL     OW20533   5.054   1.793   5.265
 6545SOL    HW120534   5.055   1.744   5.177
 6545SOL    HW220535   5.024   1.730   5.337
 6546SOL     OW20536   3.088   4.879   5.902
 6546SOL    HW120537   3.130   4.888   5.992
 6546SOL    HW220538   3.081   4.969   5.860
 6547SOL     OW20539   4.940   2.182   6.514
 6547SOL    HW120540   4.994   2.215   6.437
 6547SOL    HW220541   5.000   2.134   6.579
 6548SOL     OW20542   6.707   4.426   5.911
 6548SOL    HW120543   6.795   4.381   5.902
 6548SOL    HW220544   6.711   4.492   5.986
 6549SOL     OW20545   3.181   2.304   0.730
 6549SOL    HW120546   3.225   2.393   0.746
 6549SOL    HW220547   3.169   2.291   0.631
 6550SOL     OW20548   0.209   5.726   3.425
 6550SOL    HW120549   0.268   5.649   3.402
 6550SOL    HW220550   0.163   5.708   3.512
 6551SOL     OW20551   1.691   4.732   1.719
 6551SOL    HW120552   1.715   4.755   1.625
 6551SOL    HW220553   1.592   4.734   1.730
 6552SOL     OW20554   2.834   5.057   5.579
 6552SOL    HW120555   2.893   5.072   5.501
 6552SOL    HW220556   2.752   5.113   5.571
 6553SOL     OW20557   0.936   3.225   2.814
 6553SOL    HW120558   0.983   3.215   2.901
 6553SOL    HW220559   0.840   3.248   2.830
 6554SOL     OW20560   6.387   2.348   5.438
 6554SOL    HW120561   6.486   2.364   5.436
 6554SOL    HW220562   6.367   2.261   5.392
 6555SOL     OW20563   1.112   1.528   1.682
 6555SOL    HW120564   1.209   1.507   1.671
 6555SOL    HW220565   1.059   1.481   1.611
 6556SOL     OW20566   3.596   5.852   4.449
 6556SOL    HW120567   3.639   5.931   4.407
 6556SOL    HW220568   3.530   5.882   4.518
 6557SOL     OW20569   6.086   5.318   1.043
 6557SOL    HW120570   6.124   5.319   1.135
 6557SOL    HW220571   6.107   5.232   0.998
 6558SOL     OW20572   6.452   5.713   6.458
 6558SOL    HW120573   6.467   5.706   6.557
 6558SOL    HW220574   6.355   5.700   6.438
 6559SOL     OW20575   4.045   3.987   0.797
 6559SOL    HW120576   4.098   3.917   0.844
 6559SOL    HW220577   3.950   3.984   0.829
 6560SOL     OW20578   3.731   2.264   0.010
 6560SOL    HW120579   3.701   2.206   0.086
 6560SOL    HW220580   3.684   2.352   0.014
 6561SOL     OW20581   4.137   3.305   2.862
 6561SOL    HW120582   4.037   3.313   2.856
 6561SOL    HW220583   4.163   3.279   2.955
 6562SOL     OW20584   6.131   4.296   6.186
 6562SOL    HW120585   6.057   4.326   6.246
 6562SOL    HW220586   6.154   4.370   6.123
 6563SOL     OW20587   1.056   5.443   1.822
 6563SOL    HW120588   1.007   5.481   1.901
 6563SOL    HW220589   1.029   5.492   1.739
 6564SOL     OW20590   1.128   4.411   1.868
 6564SOL    HW120591   1.091   4.366   1.787
 6564SOL    HW220592   1.054   4.456   1.918
 6565SOL     OW20593   6.611   2.646   5.316
 6565SOL    HW120594   6.558   2.726   5.345
 6565SOL    HW220595   6.551   2.582   5.267
 6566SOL     OW20596   3.488   6.748   1.041
 6566SOL    HW120597   3.473   6.658   1.083
 6566SOL    HW220598   3.521   6.812   1.110
 6567SOL     OW20599   5.141   2.481   0.940
 6567SOL    HW120600   5.186   2.441   1.020
 6567SOL    HW220601   5.042   2.486   0.956
 6568SOL     OW20602   4.411   4.226   1.444
 6568SOL    HW120603   4.367   4.170   1.515
 6568SOL    HW220604   4.397   4.182   1.355
 6569SOL     OW20605   1.307   4.475   6.882
 6569SOL    HW120606   1.378   4.529   6.927
 6569SOL    HW220607   1.291   4.511   6.790
 6570SOL     OW20608   5.564   2.254   1.728
 6570SOL    HW120609   5.485   2.193   1.729
 6570SOL    HW220610   5.630   2.225   1.798
 6571SOL     OW20611   2.755   6.052   3.308
 6571SOL    HW120612   2.700   6.037   3.226
 6571SOL    HW220613   2.735   5.981   3.375
 6572SOL     OW20614   0.225   4.426   5.756
 6572SOL    HW120615   0.320   4.416   5.727
 6572SOL    HW220616   0.172   4.464   5.680
 6573SOL     OW20617   2.470   1.305   2.423
 6573SOL    HW120618   2.429   1.347   2.342
 6573SOL    HW220619   2.538   1.368   2.461
 6574SOL     OW20620   3.029   4.870   2.896
 6574SOL    HW120621   3.009   4.956   2.848
 6574SOL    HW220622   3.124   4.843   2.878
 6575SOL     OW20623   1.474   1.739   2.355
 6575SOL    HW120624   1.385   1.710   2.319
 6575SOL    HW220625   1.477   1.839   2.360
 6576SOL     OW20626   1.336   6.154   6.470
 6576SOL    HW120627   1.355   6.065   6.511
 6576SOL    HW220628   1.288   6.141   6.383
 6577SOL     OW20629   0.129   2.026   3.933
 6577SOL    HW120630   0.149   2.102   3.995
 6577SOL    HW220631   0.126   2.060   3.839
 6578SOL     OW20632   6.320   5.158   3.726
 6578SOL    HW120633   6.358   5.098   3.797
 6578SOL    HW220634   6.346   5.253   3.744
 6579SOL     OW20635   6.825   4.097   3.024
 6579SOL    HW120636   6.769   4.167   3.068
 6579SOL    HW220637   6.803   4.007   3.063
 6580SOL     OW20638   5.807   1.769   2.228
 6580SOL    HW120639   5.900   1.805   2.220
 6580SOL    HW220640   5.759   1.814   2.304
 6581SOL     OW20641   3.144   2.008   6.707
 6581SOL    HW120642   3.145   1.923   6.654
 6581SOL    HW220643   3.049   2.034   6.726
 6582SOL     OW20644   6.641   0.367   2.701
 6582SOL    HW120645   6.661   0.420   2.783
 6582SOL    HW220646   6.638   0.428   2.622
 6583SOL     OW20647   5.158   1.598   5.682
 6583SOL    HW120648   5.168   1.611   5.781
 6583SOL    HW220649   5.243   1.562   5.644
 6584SOL     OW20650   6.005   1.743   6.547
 6584SOL    HW120651   6.020   1.798   6.465
 6584SOL    HW220652   6.090   1.736   6.599
 6585SOL     OW20653   0.850   1.922   6.592
 6585SOL    HW120654   0.930   1.903   6.535
 6585SOL    HW220655   0.842   1.852   6.662
 6586SOL     OW20656   6.445   2.092   6.103
 6586SOL    HW120657   6.418   2.007   6.057
 6586SOL    HW220658   6.544   2.093   6.116
 6587SOL     OW20659   2.322   6.619   2.990
 6587SOL    HW120660   2.413   6.633   3.027
 6587SOL    HW220661   2.303   6.688   2.920
 6588SOL     OW20662   1.520   2.841   6.806
 6588SOL    HW120663   1.535   2.752   6.763
 6588SOL    HW220664   1.424   2.850   6.833
 6589SOL     OW20665   4.483   1.541   5.132
 6589SOL    HW120666   4.480   1.484   5.214
 6589SOL    HW220667   4.573   1.532   5.088
 6590SOL     OW20668   0.369   1.534   5.455
 6590SOL    HW120669   0.446   1.542   5.392
 6590SOL    HW220670   0.330   1.625   5.471
 6591SOL     OW20671   5.958   0.967   3.199
 6591SOL    HW120672   5.918   0.966   3.108
 6591SOL    HW220673   6.002   1.055   3.216
 6592SOL     OW20674   4.632   5.522   4.451
 6592SOL    HW120675   4.686   5.552   4.373
 6592SOL    HW220676   4.673   5.557   4.536
 6593SOL     OW20677   3.433   1.488   2.833
 6593SOL    HW120678   3.439   1.465   2.930
 6593SOL    HW220679   3.403   1.583   2.823
 6594SOL     OW20680   5.395   0.486   6.869
 6594SOL    HW120681   5.395   0.416   6.797
 6594SOL    HW220682   5.483   0.486   6.915
 6595SOL     OW20683   1.753   3.930   1.263
 6595SOL    HW120684   1.790   3.905   1.174
 6595SOL    HW220685   1.803   4.009   1.299
 6596SOL     OW20686   4.783   0.041   5.145
 6596SOL    HW120687   4.708   0.005   5.090
 6596SOL    HW220688   4.862   0.060   5.087
 6597SOL     OW20689   0.576   5.659   4.841
 6597SOL    HW120690   0.580   5.759   4.853
 6597SOL    HW220691   0.560   5.637   4.745
 6598SOL     OW20692   2.081   5.705   5.040
 6598SOL    HW120693   1.991   5.663   5.030
 6598SOL    HW220694   2.152   5.639   5.016
 6599SOL     OW20695   4.266   4.716   6.163
 6599SOL    HW120696   4.223   4.782   6.101
 6599SOL    HW220697   4.212   4.632   6.165
 6600SOL     OW20698   4.824   5.928   3.809
 6600SOL    HW120699   4.782   5.978   3.885
 6600SOL    HW220700   4.877   5.852   3.844
 6601SOL     OW20701   0.550   7.022   0.101
 6601SOL    HW120702   0.451   0.005   0.095
 6601SOL    HW220703   0.582   0.046   0.183
 6602SOL     OW20704   6.710   1.471   1.427
 6602SOL    HW120705   6.638   1.538   1.410
 6602SOL    HW220706   6.750   1.487   1.518
 6603SOL     OW20707   2.062   3.737   3.169
 6603SOL    HW120708   2.066   3.754   3.268
 6603SOL    HW220709   2.083   3.820   3.119
 6604SOL     OW20710   3.308   5.281   2.483
 6604SOL    HW120711   3.390   5.301   2.538
 6604SOL    HW220712   3.323   5.198   2.430
 6605SOL     OW20713   5.763   6.021   0.129
 6605SOL    HW120714   5.723   5.975   0.050
 6605SOL    HW220715   5.856   6.050   0.108
 6606SOL     OW20716   5.333   1.389   2.482
 6606SOL    HW120717   5.320   1.488   2.489
 6606SOL    HW220718   5.281   1.353   2.405
 6607SOL     OW20719   2.076   1.399   2.199
 6607SOL    HW120720   2.087   1.302   2.220
 6607SOL    HW220721   2.105   1.454   2.277
 6608SOL     OW20722   5.935   3.808   3.735
 6608SOL    HW120723   5.852   3.753   3.729
 6608SOL    HW220724   5.910   3.903   3.753
 6609SOL     OW20725   5.339   1.098   5.817
 6609SOL    HW120726   5.265   1.036   5.844
 6609SOL    HW220727   5.382   1.136   5.899
 6610SOL     OW20728   2.381   0.501   0.292
 6610SOL    HW120729   2.393   0.421   0.350
 6610SOL    HW220730   2.284   0.524   0.287
 6611SOL     OW20731   5.693   2.311   2.505
 6611SOL    HW120732   5.726   2.313   2.599
 6611SOL    HW220733   5.613   2.252   2.499
 6612SOL     OW20734   1.453   6.358   6.952
 6612SOL    HW120735   1.377   6.415   6.920
 6612SOL    HW220736   1.437   6.331   0.023
 6613SOL     OW20737   4.697   5.361   2.215
 6613SOL    HW120738   4.661   5.430   2.152
 6613SOL    HW220739   4.622   5.326   2.272
 6614SOL     OW20740   4.867   5.764   6.251
 6614SOL    HW120741   4.767   5.755   6.257
 6614SOL    HW220742   4.892   5.860   6.263
 6615SOL     OW20743   0.964   3.823   5.215
 6615SOL    HW120744   0.988   3.768   5.295
 6615SOL    HW220745   1.006   3.784   5.133
 6616SOL     OW20746   5.217   0.728   4.593
 6616SOL    HW120747   5.212   0.730   4.493
 6616SOL    HW220748   5.192   0.636   4.625
 6617SOL     OW20749   4.126   6.951   5.219
 6617SOL    HW120750   4.054   6.959   5.150
 6617SOL    HW220751   4.099   6.885   5.289
 6618SOL     OW20752   0.928   4.598   1.771
 6618SOL    HW120753   0.942   4.682   1.823
 6618SOL    HW220754   0.911   4.620   1.675
 6619SOL     OW20755   4.612   5.683   2.420
 6619SOL    HW120756   4.520   5.664   2.383
 6619SOL    HW220757   4.604   5.721   2.512
 6620SOL     OW20758   1.494   2.788   5.817
 6620SOL    HW120759   1.399   2.763   5.835
 6620SOL    HW220760   1.504   2.888   5.820
 6621SOL     OW20761   2.759   4.409   0.209
 6621SOL    HW120762   2.840   4.437   0.157
 6621SOL    HW220763   2.787   4.382   0.301
 6622SOL     OW20764   6.955   6.132   0.320
 6622SOL    HW120765   6.942   6.231   0.317
 6622SOL    HW220766   7.012   6.108   0.399
 6623SOL     OW20767   3.249   3.336   2.542
 6623SOL    HW120768   3.319   3.380   2.485
 6623SOL    HW220769   3.189   3.405   2.581
 6624SOL     OW20770   4.263   5.050   4.311
 6624SOL    HW120771   4.228   5.048   4.405
 6624SOL    HW220772   4.191   5.024   4.247
 6625SOL     OW20773   6.505   0.884   6.831
 6625SOL    HW120774   6.478   0.886   6.735
 6625SOL    HW220775   6.509   0.790   6.863
 6626SOL     OW20776   3.722   5.181   3.357
 6626SOL    HW120777   3.741   5.086   3.330
 6626SOL    HW220778   3.699   5.184   3.455
 6627SOL     OW20779   1.964   0.216   0.591
 6627SOL    HW120780   1.906   0.155   0.644
 6627SOL    HW220781   2.019   0.272   0.652
 6628SOL     OW20782   4.124   6.033   3.384
 6628SOL    HW120783   4.048   5.967   3.390
 6628SOL    HW220784   4.132   6.066   3.290
 6629SOL     OW20785   3.449   5.492   0.889
 6629SOL    HW120786   3.530   5.474   0.944
 6629SOL    HW220787   3.472   5.484   0.792
 6630SOL     OW20788   3.350   1.842   0.237
 6630SOL    HW120789   3.320   1.763   0.290
 6630SOL    HW220790   3.276   1.872   0.176
 6631SOL     OW20791   5.132   0.715   2.344
 6631SOL    HW120792   5.064   0.644   2.325
 6631SOL    HW220793   5.219   0.689   2.303
 6632SOL     OW20794   6.971   0.883   1.487
 6632SOL    HW120795   6.993   0.793   1.450
 6632SOL    HW220796   0.030   0.923   1.528
 6633SOL     OW20797   1.709   6.845   1.221
 6633SOL    HW120798   1.629   6.848   1.280
 6633SOL    HW220799   1.760   6.931   1.228
 6634SOL     OW20800   6.853   2.755   6.474
 6634SOL    HW120801   6.925   2.691   6.501
 6634SOL    HW220802   6.764   2.713   6.490
 6635SOL     OW20803   4.449   4.583   3.398
 6635SOL    HW120804   4.398   4.546   3.320
 6635SOL    HW220805   4.509   4.657   3.367
 6636SOL     OW20806   2.434   2.490   4.134
 6636SOL    HW120807   2.443   2.558   4.206
 6636SOL    HW220808   2.373   2.525   4.063
 6637SOL     OW20809   0.172   0.109   0.938
 6637SOL    HW120810   0.190   0.038   1.007
 6637SOL    HW220811   0.241   0.180   0.946
 6638SOL     OW20812   2.645   5.957   5.757
 6638SOL    HW120813   2.545   5.957   5.754
 6638SOL    HW220814   2.680   6.019   5.687
 6639SOL     OW20815   5.866   5.316   6.853
 6639SOL    HW120816   5.810   5.329   6.771
 6639SOL    HW220817   5.944   5.378   6.851
 6640SOL     OW20818   6.582   2.302   3.583
 6640SOL    HW120819   6.573   2.203   3.591
 6640SOL    HW220820   6.630   2.325   3.499
 6641SOL     OW20821   1.898   4.320   5.844
 6641SOL    HW120822   1.972   4.253   5.839
 6641SOL    HW220823   1.855   4.328   5.754
 6642SOL     OW20824   0.577   5.715   6.751
 6642SOL    HW120825   0.527   5.645   6.701
 6642SOL    HW220826   0.664   5.734   6.705
 6643SOL     OW20827   5.044   4.728   6.712
 6643SOL    HW120828   5.104   4.786   6.656
 6643SOL    HW220829   5.047   4.760   6.807
 6644SOL     OW20830   2.973   4.765   2.145
 6644SOL    HW120831   3.015   4.699   2.207
 6644SOL    HW220832   2.913   4.718   2.081
 6645SOL     OW20833   0.041   4.987   5.623
 6645SOL    HW120834   0.118   4.924   5.622
 6645SOL    HW220835   0.012   5.004   5.717
 6646SOL     OW20836   2.602   5.589   3.600
 6646SOL    HW120837   2.603   5.499   3.557
 6646SOL    HW220838   2.512   5.607   3.638
 6647SOL     OW20839   3.031   1.492   1.807
 6647SOL    HW120840   2.977   1.510   1.725
 6647SOL    HW220841   3.097   1.419   1.788
 6648SOL     OW20842   4.874   5.675   2.424
 6648SOL    HW120843   4.779   5.664   2.396
 6648SOL    HW220844   4.896   5.773   2.428
 6649SOL     OW20845   4.225   2.175   6.517
 6649SOL    HW120846   4.252   2.148   6.609
 6649SOL    HW220847   4.295   2.145   6.452
 6650SOL     OW20848   4.082   1.729   3.648
 6650SOL    HW120849   4.120   1.789   3.577
 6650SOL    HW220850   3.985   1.749   3.659
 6651SOL     OW20851   0.561   2.840   6.892
 6651SOL    HW120852   0.611   2.918   6.930
 6651SOL    HW220853   0.612   2.803   6.814
 6652SOL     OW20854   6.934   5.837   2.313
 6652SOL    HW120855   6.946   5.747   2.271
 6652SOL    HW220856   6.850   5.878   2.279
 6653SOL     OW20857   3.748   3.983   3.937
 6653SOL    HW120858   3.672   4.042   3.965
 6653SOL    HW220859   3.812   3.974   4.014
 6654SOL     OW20860   2.303   3.225   1.681
 6654SOL    HW120861   2.306   3.295   1.751
 6654SOL    HW220862   2.375   3.157   1.699
 6655SOL     OW20863   2.681   6.554   1.914
 6655SOL    HW120864   2.643   6.522   1.827
 6655SOL    HW220865   2.730   6.640   1.899
 6656SOL     OW20866   6.309   2.026   1.357
 6656SOL    HW120867   6.344   2.040   1.265
 6656SOL    HW220868   6.209   2.027   1.356
 6657SOL     OW20869   3.124   6.204   6.625
 6657SOL    HW120870   3.105   6.299   6.603
 6657SOL    HW220871   3.221   6.185   6.611
 6658SOL     OW20872   5.746   1.149   4.958
 6658SOL    HW120873   5.779   1.239   4.931
 6658SOL    HW220874   5.743   1.143   5.058
 6659SOL     OW20875   2.190   3.131   0.414
 6659SOL    HW120876   2.164   3.225   0.437
 6659SOL    HW220877   2.134   3.098   0.338
 6660SOL     OW20878   6.641   6.827   2.839
 6660SOL    HW120879   6.709   6.900   2.835
 6660SOL    HW220880   6.618   6.808   2.935
 6661SOL     OW20881   0.496   5.900   3.836
 6661SOL    HW120882   0.595   5.908   3.853
 6661SOL    HW220883   0.477   5.811   3.795
 6662SOL     OW20884   1.242   1.923   0.127
 6662SOL    HW120885   1.231   2.015   0.089
 6662SOL    HW220886   1.152   1.878   0.132
 6663SOL     OW20887   0.223   5.685   2.308
 6663SOL    HW120888   0.310   5.640   2.326
 6663SOL    HW220889   0.238   5.783   2.296
 6664SOL     OW20890   1.488   0.712   2.523
 6664SOL    HW120891   1.441   0.633   2.484
 6664SOL    HW220892   1.444   0.737   2.609
 6665SOL     OW20893   2.130   6.766   2.845
 6665SOL    HW120894   2.196   6.803   2.780
 6665SOL    HW220895   2.056   6.722   2.795
 6666SOL     OW20896   5.883   0.748   6.011
 6666SOL    HW120897   5.950   0.701   5.954
 6666SOL    HW220898   5.886   0.710   6.104
 6667SOL     OW20899   6.705   5.110   5.171
 6667SOL    HW120900   6.606   5.120   5.163
 6667SOL    HW220901   6.740   5.058   5.093
 6668SOL     OW20902   1.236   4.311   1.502
 6668SOL    HW120903   1.273   4.311   1.409
 6668SOL    HW220904   1.154   4.370   1.505
 6669SOL     OW20905   2.045   5.886   2.932
 6669SOL    HW120906   2.044   5.962   2.997
 6669SOL    HW220907   2.023   5.801   2.980
 6670SOL     OW20908   3.442   4.963   0.172
 6670SOL    HW120909   3.456   5.061   0.162
 6670SOL    HW220910   3.346   4.944   0.192
 6671SOL     OW20911   6.532   3.144   5.068
 6671SOL    HW120912   6.483   3.135   5.154
 6671SOL    HW220913   6.562   3.239   5.056
 6672SOL     OW20914   1.176   1.067   5.893
 6672SOL    HW120915   1.077   1.069   5.899
 6672SOL    HW220916   1.205   1.097   5.802
 6673SOL     OW20917   4.576   4.941   1.526
 6673SOL    HW120918   4.657   4.992   1.558
 6673SOL    HW220919   4.545   4.978   1.439
 6674SOL     OW20920   0.902   6.146   4.578
 6674SOL    HW120921   0.893   6.215   4.506
 6674SOL    HW220922   0.818   6.092   4.582
 6675SOL     OW20923   6.074   5.083   0.238
 6675SOL    HW120924   6.138   5.048   0.170
 6675SOL    HW220925   6.086   5.033   0.324
 6676SOL     OW20926   0.576   2.171   5.733
 6676SOL    HW120927   0.649   2.197   5.797
 6676SOL    HW220928   0.525   2.093   5.770
 6677SOL     OW20929   0.690   3.302   0.541
 6677SOL    HW120930   0.609   3.249   0.564
 6677SOL    HW220931   0.688   3.327   0.445
 6678SOL     OW20932   0.624   2.995   5.792
 6678SOL    HW120933   0.720   3.023   5.782
 6678SOL    HW220934   0.604   2.922   5.727
 6679SOL     OW20935   1.616   2.417   5.016
 6679SOL    HW120936   1.651   2.400   4.924
 6679SOL    HW220937   1.682   2.471   5.068
 6680SOL     OW20938   3.258   6.601   6.408
 6680SOL    HW120939   3.290   6.576   6.316
 6680SOL    HW220940   3.334   6.640   6.460
 6681SOL     OW20941   5.255   5.390   0.696
 6681SOL    HW120942   5.281   5.483   0.670
 6681SOL    HW220943   5.156   5.383   0.701
 6682SOL     OW20944   0.729   5.335   1.940
 6682SOL    HW120945   0.775   5.307   1.855
 6682SOL    HW220946   0.797   5.356   2.010
 6683SOL     OW20947   5.018   1.852   4.603
 6683SOL    HW120948   4.940   1.806   4.646
 6683SOL    HW220949   5.004   1.858   4.505
 6684SOL     OW20950   1.784   6.924   2.739
 6684SOL    HW120951   1.865   6.955   2.690
 6684SOL    HW220952   1.767   6.827   2.719
 6685SOL     OW20953   5.077   3.235   6.415
 6685SOL    HW120954   5.060   3.189   6.502
 6685SOL    HW220955   5.065   3.334   6.427
 6686SOL     OW20956   6.304   3.976   3.025
 6686SOL    HW120957   6.263   3.885   3.028
 6686SOL    HW220958   6.233   4.044   3.043
 6687SOL     OW20959   0.903   1.599   0.812
 6687SOL    HW120960   0.890   1.609   0.910
 6687SOL    HW220961   1.000   1.602   0.790
 6688SOL     OW20962   0.833   4.173   2.655
 6688SOL    HW120963   0.828   4.259   2.605
 6688SOL    HW220964   0.808   4.098   2.594
 6689SOL     OW20965   4.725   4.658   0.114
 6689SOL    HW120966   4.808   4.657   0.170
 6689SOL    HW220967   4.661   4.726   0.151
 6690SOL     OW20968   2.232   2.788   0.539
 6690SOL    HW120969   2.203   2.711   0.597
 6690SOL    HW220970   2.317   2.826   0.575
 6691SOL     OW20971   2.673   5.023   1.567
 6691SOL    HW120972   2.583   5.062   1.587
 6691SOL    HW220973   2.714   4.988   1.652
 6692SOL     OW20974   3.364   4.281   5.218
 6692SOL    HW120975   3.449   4.285   5.269
 6692SOL    HW220976   3.304   4.356   5.247
 6693SOL     OW20977   4.262   3.469   5.222
 6693SOL    HW120978   4.208   3.545   5.184
 6693SOL    HW220979   4.356   3.500   5.236
 6694SOL     OW20980   4.093   5.947   0.930
 6694SOL    HW120981   4.113   6.045   0.917
 6694SOL    HW220982   3.994   5.933   0.928
 6695SOL     OW20983   1.107   1.453   6.777
 6695SOL    HW120984   1.127   1.356   6.769
 6695SOL    HW220985   1.164   1.505   6.714
 6696SOL     OW20986   1.977   3.118   1.947
 6696SOL    HW120987   1.911   3.054   1.908
 6696SOL    HW220988   1.967   3.208   1.906
 6697SOL     OW20989   4.746   1.304   3.188
 6697SOL    HW120990   4.785   1.325   3.277
 6697SOL    HW220991   4.662   1.250   3.199
 6698SOL     OW20992   3.706   3.584   0.441
 6698SOL    HW120993   3.626   3.625   0.397
 6698SOL    HW220994   3.778   3.571   0.373
 6699SOL     OW20995   1.722   4.243   7.007
 6699SOL    HW120996   1.636   4.197   6.985
 6699SOL    HW220997   1.795   4.209   6.948
 6700SOL     OW20998   0.043   5.701   0.772
 6700SOL    HW120999   0.052   5.801   0.781
 6700SOL    HW221000   7.010   5.666   0.846
 6701SOL     OW21001   0.278   1.882   0.787
 6701SOL    HW121002   0.304   1.803   0.843
 6701SOL    HW221003   0.191   1.863   0.742
 6702SOL     OW21004   2.485   1.505   1.467
 6702SOL    HW121005   2.388   1.481   1.475
 6702SOL    HW221006   2.498   1.567   1.390
 6703SOL     OW21007   6.831   1.218   6.819
 6703SOL    HW121008   6.828   1.118   6.813
 6703SOL    HW221009   6.893   1.245   6.892
 6704SOL     OW21010   5.009   1.932   2.380
 6704SOL    HW121011   5.105   1.908   2.371
 6704SOL    HW221012   4.959   1.902   2.299
 6705SOL     OW21013   5.710   1.917   0.414
 6705SOL    HW121014   5.719   1.907   0.513
 6705SOL    HW221015   5.800   1.938   0.375
 6706SOL     OW21016   0.495   4.371   6.136
 6706SOL    HW121017   0.438   4.290   6.125
 6706SOL    HW221018   0.553   4.360   6.217
 6707SOL     OW21019   0.716   5.542   3.142
 6707SOL    HW121020   0.750   5.591   3.062
 6707SOL    HW221021   0.729   5.443   3.128
 6708SOL     OW21022   1.920   6.000   1.928
 6708SOL    HW121023   1.936   5.904   1.904
 6708SOL    HW221024   1.886   6.005   2.022
 6709SOL     OW21025   4.808   1.478   2.209
 6709SOL    HW121026   4.840   1.436   2.294
 6709SOL    HW221027   4.767   1.567   2.229
 6710SOL     OW21028   3.140   2.367   0.432
 6710SOL    HW121029   3.089   2.451   0.453
 6710SOL    HW221030   3.234   2.391   0.409
 6711SOL     OW21031   3.898   4.433   0.145
 6711SOL    HW121032   3.977   4.372   0.135
 6711SOL    HW221033   3.866   4.459   0.054
 6712SOL     OW21034   3.851   6.186   6.757
 6712SOL    HW121035   3.930   6.243   6.778
 6712SOL    HW221036   3.788   6.237   6.699
 6713SOL     OW21037   2.072   2.375   1.429
 6713SOL    HW121038   2.148   2.355   1.368
 6713SOL    HW221039   2.052   2.295   1.486
 6714SOL     OW21040   6.096   0.565   4.554
 6714SOL    HW121041   6.029   0.533   4.487
 6714SOL    HW221042   6.106   0.497   4.626
 6715SOL     OW21043   0.560   1.045   0.752
 6715SOL    HW121044   0.635   1.110   0.750
 6715SOL    HW221045   0.534   1.020   0.658
 6716SOL     OW21046   2.086   5.809   1.397
 6716SOL    HW121047   2.109   5.739   1.330
 6716SOL    HW221048   2.154   5.809   1.470
 6717SOL     OW21049   4.013   1.864   6.820
 6717SOL    HW121050   3.927   1.815   6.803
 6717SOL    HW221051   3.993   1.960   6.837
 6718SOL     OW21052   3.285   0.698   0.874
 6718SOL    HW121053   3.192   0.723   0.898
 6718SOL    HW221054   3.294   0.598   0.877
 6719SOL     OW21055   6.376   6.759   5.335
 6719SOL    HW121056   6.357   6.737   5.431
 6719SOL    HW221057   6.441   6.835   5.331
 6720SOL     OW21058   1.809   5.072   1.325
 6720SOL    HW121059   1.807   5.153   1.384
 6720SOL    HW221060   1.780   5.097   1.233
 6721SOL     OW21061   5.222   6.245   3.671
 6721SOL    HW121062   5.126   6.271   3.668
 6721SOL    HW221063   5.232   6.159   3.722
 6722SOL     OW21064   4.530   3.278   6.605
 6722SOL    HW121065   4.628   3.295   6.606
 6722SOL    HW221066   4.483   3.342   6.666
 6723SOL     OW21067   4.299   6.657   2.657
 6723SOL    HW121068   4.222   6.713   2.626
 6723SOL    HW221069   4.328   6.687   2.748
 6724SOL     OW21070   3.489   5.099   4.959
 6724SOL    HW121071   3.568   5.119   5.017
 6724SOL    HW221072   3.411   5.073   5.016
 6725SOL     OW21073   0.207   4.671   2.677
 6725SOL    HW121074   0.157   4.609   2.737
 6725SOL    HW221075   0.152   4.752   2.660
 6726SOL     OW21076   2.449   2.161   3.573
 6726SOL    HW121077   2.520   2.191   3.509
 6726SOL    HW221078   2.375   2.116   3.523
 6727SOL     OW21079   3.588   3.375   6.802
 6727SOL    HW121080   3.595   3.413   6.894
 6727SOL    HW221081   3.514   3.308   6.800
 6728SOL     OW21082   4.155   1.518   3.804
 6728SOL    HW121083   4.192   1.566   3.884
 6728SOL    HW221084   4.136   1.585   3.732
 6729SOL     OW21085   5.782   0.701   2.757
 6729SOL    HW121086   5.828   0.679   2.843
 6729SOL    HW221087   5.700   0.755   2.775
 6730SOL     OW21088   2.387   1.018   0.183
 6730SOL    HW121089   2.428   0.929   0.201
 6730SOL    HW221090   2.456   1.078   0.142
 6731SOL     OW21091   2.588   4.732   1.724
 6731SOL    HW121092   2.570   4.734   1.822
 6731SOL    HW221093   2.684   4.752   1.707
 6732SOL     OW21094   2.723   5.261   0.767
 6732SOL    HW121095   2.652   5.317   0.811
 6732SOL    HW221096   2.800   5.250   0.830
 6733SOL     OW21097   5.170   6.119   5.354
 6733SOL    HW121098   5.256   6.068   5.343
 6733SOL    HW221099   5.190   6.212   5.386
 6734SOL     OW21100   2.469   3.638   5.601
 6734SOL    HW121101   2.466   3.545   5.565
 6734SOL    HW221102   2.482   3.635   5.700
 6735SOL     OW21103   0.097   5.243   6.337
 6735SOL    HW121104   0.096   5.335   6.377
 6735SOL    HW221105   0.149   5.244   6.252
 6736SOL     OW21106   2.093   3.430   2.221
 6736SOL    HW121107   2.082   3.333   2.200
 6736SOL    HW221108   2.164   3.468   2.162
 6737SOL     OW21109   2.845   0.779   1.337
 6737SOL    HW121110   2.834   0.851   1.269
 6737SOL    HW221111   2.844   0.820   1.429
 6738SOL     OW21112   3.095   1.093   2.509
 6738SOL    HW121113   3.007   1.050   2.488
 6738SOL    HW221114   3.108   1.174   2.452
 6739SOL     OW21115   3.742   6.559   4.485
 6739SOL    HW121116   3.698   6.647   4.503
 6739SOL    HW221117   3.673   6.492   4.459
 6740SOL     OW21118   0.114   2.210   4.479
 6740SOL    HW121119   0.142   2.295   4.523
 6740SOL    HW221120   0.033   2.228   4.422
 6741SOL     OW21121   6.304   6.938   6.324
 6741SOL    HW121122   6.259   0.004   6.335
 6741SOL    HW221123   6.381   6.931   6.387
 6742SOL     OW21124   6.330   5.726   6.126
 6742SOL    HW121125   6.358   5.722   6.030
 6742SOL    HW221126   6.254   5.663   6.142
 6743SOL     OW21127   4.662   2.951   1.029
 6743SOL    HW121128   4.736   3.005   1.069
 6743SOL    HW221129   4.578   2.965   1.082
 6744SOL     OW21130   4.772   4.619   5.683
 6744SOL    HW121131   4.680   4.605   5.646
 6744SOL    HW221132   4.839   4.574   5.624
 6745SOL     OW21133   0.384   4.335   3.761
 6745SOL    HW121134   0.357   4.426   3.729
 6745SOL    HW221135   0.465   4.342   3.819
 6746SOL     OW21136   0.297   1.418   0.677
 6746SOL    HW121137   0.278   1.404   0.580
 6746SOL    HW221138   0.359   1.347   0.709
 6747SOL     OW21139   5.545   6.042   5.583
 6747SOL    HW121140   5.577   6.126   5.540
 6747SOL    HW221141   5.476   6.064   5.652
 6748SOL     OW21142   0.411   0.018   2.154
 6748SOL    HW121143   0.490   0.049   2.208
 6748SOL    HW221144   0.343   7.001   2.215
 6749SOL     OW21145   4.104   6.246   0.972
 6749SOL    HW121146   4.120   6.340   0.941
 6749SOL    HW221147   4.007   6.235   0.996
 6750SOL     OW21148   2.655   3.185   5.338
 6750SOL    HW121149   2.708   3.114   5.383
 6750SOL    HW221150   2.584   3.143   5.281
 6751SOL     OW21151   3.288   2.045   5.566
 6751SOL    HW121152   3.326   1.961   5.606
 6751SOL    HW221153   3.300   2.042   5.466
 6752SOL     OW21154   6.181   1.538   0.157
 6752SOL    HW121155   6.221   1.450   0.179
 6752SOL    HW221156   6.230   1.611   0.206
 6753SOL     OW21157   5.152   2.000   6.635
 6753SOL    HW121158   5.138   1.960   6.726
 6753SOL    HW221159   5.238   2.051   6.634
 6754SOL     OW21160   5.790   0.861   0.032
 6754SOL    HW121161   5.719   0.813   0.083
 6754SOL    HW221162   5.773   0.959   0.036
 6755SOL     OW21163   4.651   2.055   3.609
 6755SOL    HW121164   4.673   2.129   3.673
 6755SOL    HW221165   4.619   1.975   3.661
 6756SOL     OW21166   5.368   4.459   4.581
 6756SOL    HW121167   5.374   4.422   4.488
 6756SOL    HW221168   5.273   4.457   4.612
 6757SOL     OW21169   5.764   5.282   1.896
 6757SOL    HW121170   5.856   5.312   1.870
 6757SOL    HW221171   5.759   5.182   1.892
 6758SOL     OW21172   5.240   2.670   2.456
 6758SOL    HW121173   5.153   2.713   2.434
 6758SOL    HW221174   5.297   2.667   2.375
 6759SOL     OW21175   7.022   4.473   3.613
 6759SOL    HW121176   0.007   4.542   3.542
 6759SOL    HW221177   6.942   4.493   3.670
 6760SOL     OW21178   6.514   3.679   4.916
 6760SOL    HW121179   6.513   3.706   4.819
 6760SOL    HW221180   6.428   3.634   4.939
 6761SOL     OW21181   5.218   3.596   6.246
 6761SOL    HW121182   5.282   3.528   6.283
 6761SOL    HW221183   5.145   3.612   6.312
 6762SOL     OW21184   5.726   4.679   4.507
 6762SOL    HW121185   5.671   4.724   4.437
 6762SOL    HW221186   5.709   4.723   4.596
 6763SOL     OW21187   5.746   6.500   6.034
 6763SOL    HW121188   5.696   6.536   5.956
 6763SOL    HW221189   5.835   6.545   6.040
 6764SOL     OW21190   2.330   4.089   6.607
 6764SOL    HW121191   2.401   4.091   6.677
 6764SOL    HW221192   2.317   3.994   6.576
 6765SOL     OW21193   5.776   4.983   3.065
 6765SOL    HW121194   5.693   5.033   3.039
 6765SOL    HW221195   5.847   5.048   3.092
 6766SOL     OW21196   1.413   0.809   5.677
 6766SOL    HW121197   1.495   0.866   5.681
 6766SOL    HW221198   1.394   0.784   5.582
 6767SOL     OW21199   0.363   2.555   6.582
 6767SOL    HW121200   0.325   2.509   6.662
 6767SOL    HW221201   0.386   2.487   6.512
 6768SOL     OW21202   0.209   0.507   5.405
 6768SOL    HW121203   0.114   0.509   5.437
 6768SOL    HW221204   0.214   0.545   5.313
 6769SOL     OW21205   1.868   3.371   6.133
 6769SOL    HW121206   1.958   3.410   6.151
 6769SOL    HW221207   1.860   3.347   6.036
 6770SOL     OW21208   0.385   1.584   3.293
 6770SOL    HW121209   0.296   1.617   3.325
 6770SOL    HW221210   0.430   1.532   3.365
 6771SOL     OW21211   4.328   1.627   2.816
 6771SOL    HW121212   4.322   1.552   2.750
 6771SOL    HW221213   4.347   1.591   2.907
 6772SOL     OW21214   0.467   0.655   1.993
 6772SOL    HW121215   0.560   0.617   1.996
 6772SOL    HW221216   0.444   0.678   1.899
 6773SOL     OW21217   1.083   6.809   1.014
 6773SOL    HW121218   1.100   6.802   1.112
 6773SOL    HW221219   1.042   6.723   0.981
 6774SOL     OW21220   2.633   2.352   5.895
 6774SOL    HW121221   2.603   2.383   5.986
 6774SOL    HW221222   2.702   2.281   5.906
 6775SOL     OW21223   0.676   2.388   4.520
 6775SOL    HW121224   0.752   2.324   4.508
 6775SOL    HW221225   0.637   2.411   4.431
 6776SOL     OW21226   3.827   3.485   3.062
 6776SOL    HW121227   3.849   3.567   3.115
 6776SOL    HW221228   3.882   3.408   3.095
 6777SOL     OW21229   6.662   6.193   6.486
 6777SOL    HW121230   6.610   6.279   6.477
 6777SOL    HW221231   6.723   6.183   6.408
 6778SOL     OW21232   5.772   5.955   1.929
 6778SOL    HW121233   5.801   6.044   1.894
 6778SOL    HW221234   5.848   5.890   1.922
 6779SOL     OW21235   5.052   4.061   6.364
 6779SOL    HW121236   5.138   4.093   6.403
 6779SOL    HW221237   4.983   4.134   6.372
 6780SOL     OW21238   3.796   1.994   2.598
 6780SOL    HW121239   3.743   2.012   2.515
 6780SOL    HW221240   3.873   1.935   2.576
 6781SOL     OW21241   6.667   1.925   3.148
 6781SOL    HW121242   6.616   1.860   3.091
 6781SOL    HW221243   6.748   1.881   3.184
 6782SOL     OW21244   0.130   2.106   3.153
 6782SOL    HW121245   0.207   2.165   3.127
 6782SOL    HW221246   0.048   2.134   3.102
 6783SOL     OW21247   0.313   5.281   6.155
 6783SOL    HW121248   0.309   5.243   6.062
 6783SOL    HW221249   0.398   5.252   6.199
 6784SOL     OW21250   2.246   3.971   1.511
 6784SOL    HW121251   2.290   3.933   1.592
 6784SOL    HW221252   2.297   3.946   1.429
 6785SOL     OW21253   5.628   5.243   4.361
 6785SOL    HW121254   5.686   5.323   4.345
 6785SOL    HW221255   5.533   5.267   4.341
 6786SOL     OW21256   5.722   1.908   5.782
 6786SOL    HW121257   5.631   1.930   5.746
 6786SOL    HW221258   5.739   1.810   5.771
 6787SOL     OW21259   3.127   1.947   0.129
 6787SOL    HW121260   3.049   1.951   0.066
 6787SOL    HW221261   3.136   2.035   0.176
 6788SOL     OW21262   0.321   4.237   2.091
 6788SOL    HW121263   0.269   4.153   2.082
 6788SOL    HW221264   0.403   4.220   2.147
 6789SOL     OW21265   5.212   4.570   3.081
 6789SOL    HW121266   5.135   4.517   3.116
 6789SOL    HW221267   5.178   4.636   3.014
 6790SOL     OW21268   0.913   4.560   6.486
 6790SOL    HW121269   0.998   4.555   6.539
 6790SOL    HW221270   0.892   4.656   6.467
 6791SOL     OW21271   2.540   6.945   2.891
 6791SOL    HW121272   2.494   7.018   2.841
 6791SOL    HW221273   2.515   6.857   2.851
 6792SOL     OW21274   4.180   0.181   5.644
 6792SOL    HW121275   4.170   0.230   5.557
 6792SOL    HW221276   4.263   0.212   5.690
 6793SOL     OW21277   2.154   3.403   6.118
 6793SOL    HW121278   2.140   3.306   6.098
 6793SOL    HW221279   2.190   3.414   6.210
 6794SOL     OW21280   5.883   2.410   5.295
 6794SOL    HW121281   5.980   2.424   5.278
 6794SOL    HW221282   5.839   2.499   5.311
 6795SOL     OW21283   1.233   0.671   1.512
 6795SOL    HW121284   1.248   0.710   1.602
 6795SOL    HW221285   1.302   0.601   1.493
 6796SOL     OW21286   6.397   1.816   2.460
 6796SOL    HW121287   6.424   1.746   2.394
 6796SOL    HW221288   6.411   1.782   2.553
 6797SOL     OW21289   0.876   3.244   1.560
 6797SOL    HW121290   0.780   3.265   1.577
 6797SOL    HW221291   0.893   3.241   1.461
 6798SOL     OW21292   5.259   0.618   1.828
 6798SOL    HW121293   5.292   0.652   1.916
 6798SOL    HW221294   5.278   0.686   1.757
 6799SOL     OW21295   6.082   0.099   3.545
 6799SOL    HW121296   6.082   0.016   3.489
 6799SOL    HW221297   6.159   0.096   3.609
 6800SOL     OW21298   6.433   3.301   1.661
 6800SOL    HW121299   6.402   3.281   1.754
 6800SOL    HW221300   6.467   3.395   1.657
 6801SOL     OW21301   0.728   6.312   6.892
 6801SOL    HW121302   0.659   6.256   6.845
 6801SOL    HW221303   0.753   6.389   6.834
 6802SOL     OW21304   3.079   4.981   1.700
 6802SOL    HW121305   3.043   4.960   1.791
 6802SOL    HW221306   3.173   5.015   1.708
 6803SOL     OW21307   5.548   5.144   5.978
 6803SOL    HW121308   5.585   5.184   6.063
 6803SOL    HW221309   5.493   5.063   6.000
 6804SOL     OW21310   3.631   5.119   2.758
 6804SOL    HW121311   3.622   5.203   2.705
 6804SOL    HW221312   3.581   5.128   2.844
 6805SOL     OW21313   0.080   4.165   4.273
 6805SOL    HW121314   0.159   4.150   4.333
 6805SOL    HW221315   0.103   4.139   4.180
 6806SOL     OW21316   6.254   2.758   1.578
 6806SOL    HW121317   6.239   2.755   1.479
 6806SOL    HW221318   6.171   2.793   1.623
 6807SOL     OW21319   3.075   4.073   2.017
 6807SOL    HW121320   3.020   4.148   1.979
 6807SOL    HW221321   3.024   3.987   2.009
 6808SOL     OW21322   3.385   0.842   4.288
 6808SOL    HW121323   3.378   0.778   4.211
 6808SOL    HW221324   3.310   0.908   4.283
 6809SOL     OW21325   6.224   3.251   6.424
 6809SOL    HW121326   6.249   3.346   6.444
 6809SOL    HW221327   6.142   3.249   6.366
 6810SOL     OW21328   2.796   0.843   4.629
 6810SOL    HW121329   2.753   0.895   4.555
 6810SOL    HW221330   2.806   0.747   4.602
 6811SOL     OW21331   6.019   1.059   0.328
 6811SOL    HW121332   6.039   0.963   0.308
 6811SOL    HW221333   5.954   1.093   0.260
 6812SOL     OW21334   3.576   4.258   5.396
 6812SOL    HW121335   3.636   4.323   5.443
 6812SOL    HW221336   3.629   4.177   5.370
 6813SOL     OW21337   0.313   3.225   2.583
 6813SOL    HW121338   0.390   3.289   2.581
 6813SOL    HW221339   0.236   3.266   2.632
 6814SOL     OW21340   5.603   0.708   0.151
 6814SOL    HW121341   5.625   0.624   0.102
 6814SOL    HW221342   5.573   0.686   0.243
 6815SOL     OW21343   1.054   5.328   6.252
 6815SOL    HW121344   1.028   5.311   6.347
 6815SOL    HW221345   1.151   5.352   6.248
 6816SOL     OW21346   0.065   0.171   3.573
 6816SOL    HW121347   7.004   0.215   3.541
 6816SOL    HW221348   0.090   0.207   3.662
 6817SOL     OW21349   4.042   2.240   1.434
 6817SOL    HW121350   4.140   2.253   1.417
 6817SOL    HW221351   4.017   2.283   1.520
 6818SOL     OW21352   1.345   6.576   5.281
 6818SOL    HW121353   1.316   6.517   5.206
 6818SOL    HW221354   1.392   6.657   5.245
 6819SOL     OW21355   4.584   4.566   1.917
 6819SOL    HW121356   4.513   4.630   1.948
 6819SOL    HW221357   4.551   4.472   1.927
 6820SOL     OW21358   2.706   5.315   1.732
 6820SOL    HW121359   2.678   5.305   1.637
 6820SOL    HW221360   2.745   5.407   1.745
 6821SOL     OW21361   3.733   2.831   5.313
 6821SOL    HW121362   3.660   2.816   5.246
 6821SOL    HW221363   3.797   2.754   5.310
 6822SOL     OW21364   5.958   3.295   5.504
 6822SOL    HW121365   5.943   3.387   5.467
 6822SOL    HW221366   5.926   3.291   5.599
 6823SOL     OW21367   6.946   2.740   5.549
 6823SOL    HW121368   6.909   2.763   5.639
 6823SOL    HW221369   6.904   2.654   5.517
 6824SOL     OW21370   0.517   6.903   5.633
 6824SOL    HW121371   0.440   6.845   5.660
 6824SOL    HW221372   0.595   6.845   5.608
 6825SOL     OW21373   4.504   4.424   0.738
 6825SOL    HW121374   4.576   4.437   0.670
 6825SOL    HW221375   4.543   4.390   0.823
 6826SOL     OW21376   6.622   6.636   3.741
 6826SOL    HW121377   6.672   6.716   3.707
 6826SOL    HW221378   6.608   6.572   3.666
 6827SOL     OW21379   5.047   5.879   5.056
 6827SOL    HW121380   5.043   5.801   5.119
 6827SOL    HW221381   4.961   5.885   5.007
 6828SOL     OW21382   3.297   2.046   2.229
 6828SOL    HW121383   3.210   2.089   2.205
 6828SOL    HW221384   3.369   2.081   2.170
 6829SOL     OW21385   3.759   0.182   2.899
 6829SOL    HW121386   3.754   0.156   2.996
 6829SOL    HW221387   3.805   0.270   2.890
 6830SOL     OW21388   4.577   5.140   2.818
 6830SOL    HW121389   4.637   5.074   2.863
 6830SOL    HW221390   4.547   5.104   2.730
 6831SOL     OW21391   1.572   1.935   6.265
 6831SOL    HW121392   1.594   1.899   6.175
 6831SOL    HW221393   1.489   1.990   6.260
 6832SOL     OW21394   2.126   2.245   6.279
 6832SOL    HW121395   2.198   2.312   6.260
 6832SOL    HW221396   2.158   2.178   6.346
 6833SOL     OW21397   3.872   5.554   6.036
 6833SOL    HW121398   3.935   5.536   6.111
 6833SOL    HW221399   3.849   5.468   5.991
 6834SOL     OW21400   6.760   6.541   6.685
 6834SOL    HW121401   6.733   6.446   6.694
 6834SOL    HW221402   6.692   6.599   6.730
 6835SOL     OW21403   2.577   1.099   4.913
 6835SOL    HW121404   2.489   1.115   4.869
 6835SOL    HW221405   2.562   1.070   5.008
 6836SOL     OW21406   1.647   4.641   6.528
 6836SOL    HW121407   1.661   4.645   6.627
 6836SOL    HW221408   1.586   4.566   6.506
 6837SOL     OW21409   6.474   0.734   2.621
 6837SOL    HW121410   6.455   0.831   2.636
 6837SOL    HW221411   6.405   0.696   2.559
 6838SOL     OW21412   2.812   4.145   5.352
 6838SOL    HW121413   2.840   4.106   5.264
 6838SOL    HW221414   2.807   4.073   5.421
 6839SOL     OW21415   6.331   3.295   4.795
 6839SOL    HW121416   6.270   3.216   4.783
 6839SOL    HW221417   6.425   3.265   4.783
 6840SOL     OW21418   2.778   6.465   4.957
 6840SOL    HW121419   2.743   6.403   4.887
 6840SOL    HW221420   2.874   6.444   4.976
 6841SOL     OW21421   5.294   6.530   1.187
 6841SOL    HW121422   5.341   6.516   1.274
 6841SOL    HW221423   5.353   6.584   1.127
 6842SOL     OW21424   0.338   3.485   4.679
 6842SOL    HW121425   0.391   3.425   4.619
 6842SOL    HW221426   0.326   3.574   4.636
 6843SOL     OW21427   3.921   2.402   1.657
 6843SOL    HW121428   3.943   2.354   1.742
 6843SOL    HW221429   3.831   2.373   1.624
 6844SOL     OW21430   3.674   5.308   4.582
 6844SOL    HW121431   3.581   5.342   4.572
 6844SOL    HW221432   3.686   5.226   4.527
 6845SOL     OW21433   4.215   4.463   0.901
 6845SOL    HW121434   4.289   4.530   0.893
 6845SOL    HW221435   4.130   4.503   0.866
 6846SOL     OW21436   3.210   2.934   2.757
 6846SOL    HW121437   3.212   3.025   2.798
 6846SOL    HW221438   3.193   2.942   2.659
 6847SOL     OW21439   6.112   3.591   2.074
 6847SOL    HW121440   6.040   3.660   2.068
 6847SOL    HW221441   6.183   3.621   2.137
 6848SOL     OW21442   6.798   6.536   3.231
 6848SOL    HW121443   6.719   6.508   3.285
 6848SOL    HW221444   6.882   6.506   3.276
 6849SOL     OW21445   3.510   6.888   3.910
 6849SOL    HW121446   3.520   6.833   3.993
 6849SOL    HW221447   3.588   6.950   3.901
 6850SOL     OW21448   5.545   3.315   1.297
 6850SOL    HW121449   5.566   3.229   1.344
 6850SOL    HW221450   5.472   3.363   1.347
 6851SOL     OW21451   1.986   5.704   5.600
 6851SOL    HW121452   2.030   5.709   5.510
 6851SOL    HW221453   1.888   5.722   5.590
 6852SOL     OW21454   0.355   4.516   2.070
 6852SOL    HW121455   0.308   4.452   2.010
 6852SOL    HW221456   0.449   4.484   2.087
 6853SOL     OW21457   6.559   4.021   5.864
 6853SOL    HW121458   6.517   3.967   5.937
 6853SOL    HW221459   6.649   3.984   5.842
 6854SOL     OW21460   0.007   1.912   6.641
 6854SOL    HW121461   0.094   1.884   6.683
 6854SOL    HW221462   6.991   1.834   6.592
 6855SOL     OW21463   3.497   5.943   1.531
 6855SOL    HW121464   3.447   5.911   1.611
 6855SOL    HW221465   3.588   5.974   1.559
 6856SOL     OW21466   6.600   4.311   5.402
 6856SOL    HW121467   6.625   4.386   5.464
 6856SOL    HW221468   6.559   4.237   5.455
 6857SOL     OW21469   4.686   1.646   5.728
 6857SOL    HW121470   4.763   1.682   5.780
 6857SOL    HW221471   4.601   1.669   5.775
 6858SOL     OW21472   3.785   3.143   5.099
 6858SOL    HW121473   3.755   3.127   5.194
 6858SOL    HW221474   3.880   3.173   5.099
 6859SOL     OW21475   3.546   0.262   0.400
 6859SOL    HW121476   3.619   0.203   0.365
 6859SOL    HW221477   3.577   0.357   0.400
 6860SOL     OW21478   4.968   4.629   0.255
 6860SOL    HW121479   5.030   4.577   0.197
 6860SOL    HW221480   5.015   4.710   0.291
 6861SOL     OW21481   5.887   4.712   0.667
 6861SOL    HW121482   5.860   4.734   0.573
 6861SOL    HW221483   5.971   4.762   0.690
 6862SOL     OW21484   3.758   5.686   3.706
 6862SOL    HW121485   3.665   5.684   3.669
 6862SOL    HW221486   3.755   5.663   3.803
 6863SOL     OW21487   6.976   2.873   4.211
 6863SOL    HW121488   6.929   2.882   4.123
 6863SOL    HW221489   6.967   2.957   4.263
 6864SOL     OW21490   4.540   5.924   5.310
 6864SOL    HW121491   4.578   5.837   5.278
 6864SOL    HW221492   4.463   5.906   5.371
 6865SOL     OW21493   6.348   3.624   4.065
 6865SOL    HW121494   6.362   3.717   4.031
 6865SOL    HW221495   6.289   3.627   4.146
 6866SOL     OW21496   0.589   3.366   2.484
 6866SOL    HW121497   0.624   3.429   2.416
 6866SOL    HW221498   0.661   3.302   2.511
 6867SOL     OW21499   2.256   4.140   2.401
 6867SOL    HW121500   2.264   4.200   2.322
 6867SOL    HW221501   2.249   4.045   2.371
 6868SOL     OW21502   2.299   5.267   5.197
 6868SOL    HW121503   2.363   5.272   5.120
 6868SOL    HW221504   2.227   5.201   5.176
 6869SOL     OW21505   5.940   3.848   5.745
 6869SOL    HW121506   6.030   3.884   5.769
 6869SOL    HW221507   5.872   3.921   5.753
 6870SOL     OW21508   5.087   4.342   2.659
 6870SOL    HW121509   5.083   4.367   2.562
 6870SOL    HW221510   5.183   4.335   2.688
 6871SOL     OW21511   5.277   6.930   2.206
 6871SOL    HW121512   5.323   6.910   2.119
 6871SOL    HW221513   5.201   6.867   2.219
 6872SOL     OW21514   2.698   3.470   6.681
 6872SOL    HW121515   2.705   3.565   6.709
 6872SOL    HW221516   2.730   3.410   6.754
 6873SOL     OW21517   4.920   4.709   5.886
 6873SOL    HW121518   4.868   4.691   5.803
 6873SOL    HW221519   5.017   4.717   5.863
 6874SOL     OW21520   0.953   2.767   5.662
 6874SOL    HW121521   0.953   2.859   5.701
 6874SOL    HW221522   1.048   2.737   5.647
 6875SOL     OW21523   2.843   1.984   3.942
 6875SOL    HW121524   2.820   1.999   3.846
 6875SOL    HW221525   2.928   1.933   3.949
 6876SOL     OW21526   3.285   5.836   6.257
 6876SOL    HW121527   3.188   5.814   6.266
 6876SOL    HW221528   3.297   5.905   6.186
 6877SOL     OW21529   2.579   4.427   6.595
 6877SOL    HW121530   2.527   4.383   6.522
 6877SOL    HW221531   2.519   4.485   6.649
 6878SOL     OW21532   1.336   1.583   5.162
 6878SOL    HW121533   1.383   1.575   5.074
 6878SOL    HW221534   1.239   1.604   5.146
 6879SOL     OW21535   0.767   1.938   6.029
 6879SOL    HW121536   0.743   1.913   5.935
 6879SOL    HW221537   0.708   1.889   6.093
 6880SOL     OW21538   1.957   4.399   4.584
 6880SOL    HW121539   1.932   4.493   4.607
 6880SOL    HW221540   2.054   4.384   4.600
 6881SOL     OW21541   6.366   4.417   1.303
 6881SOL    HW121542   6.362   4.467   1.389
 6881SOL    HW221543   6.282   4.364   1.291
 6882SOL     OW21544   2.030   0.015   5.384
 6882SOL    HW121545   2.078   0.080   5.443
 6882SOL    HW221546   2.075   6.950   5.388
 6883SOL     OW21547   3.344   5.796   1.934
 6883SOL    HW121548   3.312   5.834   2.020
 6883SOL    HW221549   3.438   5.764   1.944
 6884SOL     OW21550   2.866   4.778   3.122
 6884SOL    HW121551   2.931   4.801   3.049
 6884SOL    HW221552   2.821   4.691   3.100
 6885SOL     OW21553   3.168   5.249   4.562
 6885SOL    HW121554   3.198   5.310   4.488
 6885SOL    HW221555   3.164   5.155   4.529
 6886SOL     OW21556   5.725   2.307   2.764
 6886SOL    HW121557   5.771   2.365   2.831
 6886SOL    HW221558   5.633   2.286   2.795
 6887SOL     OW21559   5.881   0.384   4.927
 6887SOL    HW121560   5.945   0.359   4.855
 6887SOL    HW221561   5.795   0.333   4.914
 6888SOL     OW21562   5.666   6.073   4.436
 6888SOL    HW121563   5.676   5.983   4.478
 6888SOL    HW221564   5.725   6.078   4.355
 6889SOL     OW21565   1.646   4.130   5.669
 6889SOL    HW121566   1.739   4.166   5.671
 6889SOL    HW221567   1.627   4.084   5.756
 6890SOL     OW21568   2.245   0.626   0.635
 6890SOL    HW121569   2.307   0.695   0.600
 6890SOL    HW221570   2.279   0.535   0.611
 6891SOL     OW21571   3.301   4.943   3.972
 6891SOL    HW121572   3.386   4.932   4.023
 6891SOL    HW221573   3.320   4.986   3.884
 6892SOL     OW21574   4.206   0.695   3.960
 6892SOL    HW121575   4.214   0.710   4.059
 6892SOL    HW221576   4.117   0.730   3.929
 6893SOL     OW21577   5.458   6.567   2.281
 6893SOL    HW121578   5.502   6.655   2.262
 6893SOL    HW221579   5.409   6.536   2.200
 6894SOL     OW21580   6.262   4.667   6.423
 6894SOL    HW121581   6.216   4.752   6.450
 6894SOL    HW221582   6.212   4.589   6.462
 6895SOL     OW21583   4.241   5.889   6.322
 6895SOL    HW121584   4.201   5.888   6.230
 6895SOL    HW221585   4.183   5.838   6.384
 6896SOL     OW21586   4.634   0.395   2.962
 6896SOL    HW121587   4.594   0.477   2.922
 6896SOL    HW221588   4.626   0.400   3.062
 6897SOL     OW21589   3.430   2.074   0.403
 6897SOL    HW121590   3.366   2.003   0.376
 6897SOL    HW221591   3.389   2.164   0.387
 6898SOL     OW21592   4.248   1.819   2.420
 6898SOL    HW121593   4.319   1.820   2.491
 6898SOL    HW221594   4.274   1.754   2.348
 6899SOL     OW21595   5.236   6.158   0.274
 6899SOL    HW121596   5.188   6.226   0.219
 6899SOL    HW221597   5.332   6.153   0.246
 6900SOL     OW21598   4.046   1.350   5.486
 6900SOL    HW121599   4.019   1.435   5.530
 6900SOL    HW221600   3.999   1.341   5.398
 6901SOL     OW21601   1.355   0.720   6.984
 6901SOL    HW121602   1.368   0.770   0.046
 6901SOL    HW221603   1.307   0.635   7.003
 6902SOL     OW21604   6.509   5.439   0.885
 6902SOL    HW121605   6.607   5.459   0.881
 6902SOL    HW221606   6.486   5.368   0.818
 6903SOL     OW21607   4.384   3.484   1.167
 6903SOL    HW121608   4.403   3.456   1.072
 6903SOL    HW221609   4.400   3.582   1.176
 6904SOL     OW21610   0.547   1.865   2.887
 6904SOL    HW121611   0.473   1.879   2.821
 6904SOL    HW221612   0.521   1.792   2.951
 6905SOL     OW21613   4.512   5.452   0.808
 6905SOL    HW121614   4.557   5.403   0.883
 6905SOL    HW221615   4.464   5.532   0.843
 6906SOL     OW21616   4.623   6.951   3.530
 6906SOL    HW121617   4.637   6.872   3.590
 6906SOL    HW221618   4.526   6.976   3.531
 6907SOL     OW21619   3.567   1.974   1.583
 6907SOL    HW121620   3.614   1.961   1.670
 6907SOL    HW221621   3.587   1.897   1.522
 6908SOL     OW21622   0.625   6.678   6.562
 6908SOL    HW121623   0.689   6.601   6.565
 6908SOL    HW221624   0.648   6.743   6.634
 6909SOL     OW21625   4.774   3.527   6.824
 6909SOL    HW121626   4.804   3.474   6.744
 6909SOL    HW221627   4.770   3.624   6.799
 6910SOL     OW21628   6.912   1.408   2.169
 6910SOL    HW121629   6.915   1.504   2.194
 6910SOL    HW221630   6.858   1.358   2.236
 6911SOL     OW21631   4.039   0.922   4.870
 6911SOL    HW121632   4.055   0.899   4.774
 6911SOL    HW221633   4.022   0.838   4.922
 6912SOL     OW21634   4.863   5.603   1.005
 6912SOL    HW121635   4.800   5.597   1.082
 6912SOL    HW221636   4.833   5.676   0.943
 6913SOL     OW21637   5.792   5.312   5.188
 6913SOL    HW121638   5.708   5.315   5.242
 6913SOL    HW221639   5.783   5.374   5.109
 6914SOL     OW21640   6.045   5.004   0.527
 6914SOL    HW121641   5.960   5.010   0.578
 6914SOL    HW221642   6.096   5.090   0.537
 6915SOL     OW21643   0.739   5.555   0.943
 6915SOL    HW121644   0.692   5.564   1.031
 6915SOL    HW221645   0.760   5.646   0.907
 6916SOL     OW21646   6.296   1.053   7.010
 6916SOL    HW121647   6.320   1.055   6.913
 6916SOL    HW221648   6.333   0.971   0.029
 6917SOL     OW21649   4.554   6.582   6.207
 6917SOL    HW121650   4.469   6.551   6.163
 6917SOL    HW221651   4.535   6.661   6.265
 6918SOL     OW21652   1.915   2.864   3.365
 6918SOL    HW121653   1.940   2.877   3.461
 6918SOL    HW221654   1.936   2.947   3.313
 6919SOL     OW21655   1.881   6.634   3.626
 6919SOL    HW121656   1.908   6.656   3.533
 6919SOL    HW221657   1.866   6.536   3.634
 6920SOL     OW21658   5.272   6.007   4.990
 6920SOL    HW121659   5.186   5.960   5.011
 6920SOL    HW221660   5.330   6.008   5.071
 6921SOL     OW21661   0.441   0.228   2.994
 6921SOL    HW121662   0.466   0.151   2.936
 6921SOL    HW221663   0.508   0.238   3.068
 6922SOL     OW21664   1.957   5.978   0.642
 6922SOL    HW121665   2.034   6.023   0.597
 6922SOL    HW221666   1.959   5.880   0.621
 6923SOL     OW21667   4.532   6.793   4.231
 6923SOL    HW121668   4.563   6.885   4.206
 6923SOL    HW221669   4.437   6.797   4.262
 6924SOL     OW21670   0.153   5.638   1.292
 6924SOL    HW121671   0.212   5.684   1.226
 6924SOL    HW221672   0.157   5.539   1.277
 6925SOL     OW21673   5.691   6.401   2.344
 6925SOL    HW121674   5.741   6.374   2.427
 6925SOL    HW221675   5.680   6.500   2.343
 6926SOL     OW21676   3.013   3.550   5.153
 6926SOL    HW121677   2.983   3.460   5.184
 6926SOL    HW221678   2.945   3.619   5.177
 6927SOL     OW21679   4.377   3.792   5.899
 6927SOL    HW121680   4.414   3.712   5.946
 6927SOL    HW221681   4.394   3.785   5.801
 6928SOL     OW21682   5.854   0.321   6.509
 6928SOL    HW121683   5.847   0.246   6.575
 6928SOL    HW221684   5.922   0.388   6.541
 6929SOL     OW21685   3.253   4.946   0.406
 6929SOL    HW121686   3.172   4.947   0.347
 6929SOL    HW221687   3.225   4.925   0.500
 6930SOL     OW21688   0.729   6.099   3.022
 6930SOL    HW121689   0.682   6.181   2.988
 6930SOL    HW221690   0.814   6.126   3.067
 6931SOL     OW21691   1.815   1.323   1.489
 6931SOL    HW121692   1.851   1.403   1.537
 6931SOL    HW221693   1.723   1.342   1.457
 6932SOL     OW21694   2.770   2.975   0.855
 6932SOL    HW121695   2.744   2.879   0.843
 6932SOL    HW221696   2.690   3.033   0.837
 6933SOL     OW21697   3.729   6.780   6.424
 6933SOL    HW121698   3.745   6.879   6.413
 6933SOL    HW221699   3.781   6.747   6.503
 6934SOL     OW21700   5.632   3.662   6.192
 6934SOL    HW121701   5.643   3.567   6.222
 6934SOL    HW221702   5.692   3.720   6.247
 6935SOL     OW21703   4.420   5.249   3.288
 6935SOL    HW121704   4.473   5.332   3.304
 6935SOL    HW221705   4.432   5.219   3.193
 6936SOL     OW21706   1.418   4.372   0.814
 6936SOL    HW121707   1.394   4.430   0.892
 6936SOL    HW221708   1.339   4.316   0.789
 6937SOL     OW21709   4.730   0.040   5.463
 6937SOL    HW121710   4.656   0.029   5.397
 6937SOL    HW221711   4.816   0.056   5.414
 6938SOL     OW21712   4.663   2.237   5.243
 6938SOL    HW121713   4.740   2.176   5.230
 6938SOL    HW221714   4.684   2.302   5.316
 6939SOL     OW21715   1.196   4.093   2.487
 6939SOL    HW121716   1.135   4.159   2.531
 6939SOL    HW221717   1.166   4.077   2.393
 6940SOL     OW21718   4.236   0.777   5.000
 6940SOL    HW121719   4.332   0.783   5.028
 6940SOL    HW221720   4.205   0.868   4.972
 6941SOL     OW21721   3.835   2.922   3.093
 6941SOL    HW121722   3.834   2.928   3.192
 6941SOL    HW221723   3.741   2.916   3.059
 6942SOL     OW21724   6.740   1.814   0.247
 6942SOL    HW121725   6.732   1.900   0.297
 6942SOL    HW221726   6.685   1.818   0.164
 6943SOL     OW21727   5.097   6.284   6.321
 6943SOL    HW121728   5.188   6.305   6.356
 6943SOL    HW221729   5.029   6.334   6.376
 6944SOL     OW21730   1.716   6.514   6.089
 6944SOL    HW121731   1.712   6.510   5.989
 6944SOL    HW221732   1.803   6.475   6.121
 6945SOL     OW21733   5.304   2.925   6.085
 6945SOL    HW121734   5.402   2.918   6.099
 6945SOL    HW221735   5.277   2.872   6.005
 6946SOL     OW21736   6.094   4.426   3.334
 6946SOL    HW121737   6.000   4.420   3.300
 6946SOL    HW221738   6.150   4.478   3.270
 6947SOL     OW21739   3.534   6.705   2.879
 6947SOL    HW121740   3.595   6.740   2.808
 6947SOL    HW221741   3.579   6.708   2.968
 6948SOL     OW21742   4.199   1.707   5.426
 6948SOL    HW121743   4.106   1.742   5.437
 6948SOL    HW221744   4.220   1.699   5.328
 6949SOL     OW21745   5.309   0.462   2.524
 6949SOL    HW121746   5.254   0.544   2.540
 6949SOL    HW221747   5.364   0.444   2.605
 6950SOL     OW21748   1.968   1.030   3.477
 6950SOL    HW121749   1.897   0.966   3.505
 6950SOL    HW221750   1.972   1.106   3.541
 6951SOL     OW21751   6.123   5.031   5.780
 6951SOL    HW121752   6.216   5.023   5.815
 6951SOL    HW221753   6.061   4.979   5.839
 6952SOL     OW21754   0.364   4.990   4.568
 6952SOL    HW121755   0.305   4.950   4.498
 6952SOL    HW221756   0.400   4.918   4.627
 6953SOL     OW21757   5.175   1.381   4.993
 6953SOL    HW121758   5.260   1.380   5.046
 6953SOL    HW221759   5.184   1.320   4.915
 6954SOL     OW21760   1.122   4.382   3.025
 6954SOL    HW121761   1.218   4.356   3.026
 6954SOL    HW221762   1.076   4.344   3.105
 6955SOL     OW21763   6.482   5.944   1.951
 6955SOL    HW121764   6.455   6.040   1.945
 6955SOL    HW221765   6.506   5.910   1.860
 6956SOL     OW21766   3.297   4.717   1.768
 6956SOL    HW121767   3.394   4.714   1.792
 6956SOL    HW221768   3.251   4.785   1.825
 6957SOL     OW21769   0.597   4.471   0.159
 6957SOL    HW121770   0.653   4.472   0.076
 6957SOL    HW221771   0.657   4.465   0.240
 6958SOL     OW21772   2.379   3.807   6.298
 6958SOL    HW121773   2.320   3.805   6.379
 6958SOL    HW221774   2.339   3.868   6.229
 6959SOL     OW21775   2.978   1.144   4.366
 6959SOL    HW121776   3.046   1.141   4.438
 6959SOL    HW221777   2.976   1.236   4.325
 6960SOL     OW21778   0.370   5.171   0.004
 6960SOL    HW121779   0.320   5.190   6.943
 6960SOL    HW221780   0.318   5.206   0.082
 6961SOL     OW21781   0.355   1.365   2.798
 6961SOL    HW121782   0.398   1.452   2.772
 6961SOL    HW221783   0.387   1.293   2.737
 6962SOL     OW21784   4.027   3.997   0.517
 6962SOL    HW121785   4.029   3.973   0.614
 6962SOL    HW221786   4.097   3.944   0.468
 6963SOL     OW21787   6.832   5.828   1.766
 6963SOL    HW121788   6.748   5.875   1.740
 6963SOL    HW221789   6.892   5.821   1.686
 6964SOL     OW21790   4.127   6.317   4.948
 6964SOL    HW121791   4.171   6.327   5.037
 6964SOL    HW221792   4.033   6.351   4.953
 6965SOL     OW21793   6.649   2.629   5.960
 6965SOL    HW121794   6.614   2.561   6.024
 6965SOL    HW221795   6.747   2.642   5.976
 6966SOL     OW21796   4.770   2.842   4.077
 6966SOL    HW121797   4.756   2.812   4.171
 6966SOL    HW221798   4.723   2.780   4.014
 6967SOL     OW21799   2.406   0.765   6.352
 6967SOL    HW121800   2.444   0.781   6.260
 6967SOL    HW221801   2.465   0.808   6.420
 6968SOL     OW21802   5.176   6.684   2.436
 6968SOL    HW121803   5.137   6.774   2.456
 6968SOL    HW221804   5.275   6.687   2.452
 6969SOL     OW21805   3.505   2.033   0.866
 6969SOL    HW121806   3.558   2.055   0.783
 6969SOL    HW221807   3.542   2.084   0.943
 6970SOL     OW21808   5.170   4.295   0.387
 6970SOL    HW121809   5.240   4.363   0.411
 6970SOL    HW221810   5.213   4.220   0.335
 6971SOL     OW21811   5.329   0.742   2.069
 6971SOL    HW121812   5.419   0.769   2.104
 6971SOL    HW221813   5.279   0.824   2.040
 6972SOL     OW21814   6.246   4.910   4.419
 6972SOL    HW121815   6.332   4.956   4.398
 6972SOL    HW221816   6.227   4.840   4.349
 6973SOL     OW21817   2.194   4.962   3.334
 6973SOL    HW121818   2.190   4.944   3.432
 6973SOL    HW221819   2.214   4.878   3.285
 6974SOL     OW21820   3.450   4.042   4.460
 6974SOL    HW121821   3.404   4.006   4.379
 6974SOL    HW221822   3.382   4.076   4.525
 6975SOL     OW21823   3.475   1.296   5.696
 6975SOL    HW121824   3.403   1.277   5.763
 6975SOL    HW221825   3.563   1.304   5.744
 6976SOL     OW21826   2.469   4.905   6.228
 6976SOL    HW121827   2.432   4.986   6.272
 6976SOL    HW221828   2.540   4.932   6.162
 6977SOL     OW21829   3.923   2.193   2.769
 6977SOL    HW121830   3.885   2.130   2.700
 6977SOL    HW221831   3.928   2.285   2.730
 6978SOL     OW21832   6.402   0.302   2.794
 6978SOL    HW121833   6.366   0.209   2.785
 6978SOL    HW221834   6.475   0.317   2.728
 6979SOL     OW21835   0.472   4.368   2.878
 6979SOL    HW121836   0.521   4.334   2.959
 6979SOL    HW221837   0.507   4.458   2.854
 6980SOL     OW21838   3.346   0.923   4.664
 6980SOL    HW121839   3.263   0.915   4.609
 6980SOL    HW221840   3.350   1.013   4.706
 6981SOL     OW21841   2.610   5.158   6.683
 6981SOL    HW121842   2.601   5.181   6.586
 6981SOL    HW221843   2.617   5.242   6.737
 6982SOL     OW21844   0.368   6.917   4.661
 6982SOL    HW121845   0.387   6.861   4.742
 6982SOL    HW221846   0.452   6.927   4.607
 6983SOL     OW21847   6.376   0.819   3.945
 6983SOL    HW121848   6.434   0.743   3.917
 6983SOL    HW221849   6.431   0.902   3.955
 6984SOL     OW21850   1.694   1.244   6.327
 6984SOL    HW121851   1.686   1.259   6.228
 6984SOL    HW221852   1.722   1.150   6.345
 6985SOL     OW21853   5.488   5.784   1.722
 6985SOL    HW121854   5.494   5.689   1.753
 6985SOL    HW221855   5.408   5.795   1.663
 6986SOL     OW21856   2.086   6.825   5.075
 6986SOL    HW121857   2.128   6.812   4.985
 6986SOL    HW221858   2.087   6.922   5.099
 6987SOL     OW21859   0.131   3.262   6.378
 6987SOL    HW121860   0.129   3.338   6.443
 6987SOL    HW221861   0.214   3.268   6.322
 6988SOL     OW21862   5.584   0.855   4.046
 6988SOL    HW121863   5.639   0.912   3.985
 6988SOL    HW221864   5.640   0.779   4.079
 6989SOL     OW21865   1.719   2.342   3.830
 6989SOL    HW121866   1.644   2.405   3.852
 6989SOL    HW221867   1.763   2.312   3.914
 6990SOL     OW21868   3.783   3.381   0.625
 6990SOL    HW121869   3.761   3.428   0.711
 6990SOL    HW221870   3.752   3.438   0.548
 6991SOL     OW21871   4.040   4.515   5.529
 6991SOL    HW121872   4.020   4.604   5.487
 6991SOL    HW221873   4.102   4.528   5.606
 6992SOL     OW21874   5.313   6.356   4.649
 6992SOL    HW121875   5.248   6.350   4.724
 6992SOL    HW221876   5.401   6.389   4.684
 6993SOL     OW21877   0.684   0.267   3.226
 6993SOL    HW121878   0.750   0.306   3.162
 6993SOL    HW221879   0.709   0.172   3.244
 6994SOL     OW21880   1.358   2.775   6.496
 6994SOL    HW121881   1.429   2.739   6.435
 6994SOL    HW221882   1.391   2.772   6.591
 6995SOL     OW21883   6.996   5.762   3.179
 6995SOL    HW121884   0.059   5.801   3.211
 6995SOL    HW221885   6.960   5.699   3.247
 6996SOL     OW21886   2.601   0.118   5.877
 6996SOL    HW121887   2.568   0.212   5.880
 6996SOL    HW221888   2.541   0.063   5.818
 6997SOL     OW21889   5.059   0.270   4.802
 6997SOL    HW121890   5.137   0.276   4.865
 6997SOL    HW221891   5.039   0.173   4.785
 6998SOL     OW21892   1.092   2.670   3.150
 6998SOL    HW121893   1.049   2.746   3.100
 6998SOL    HW221894   1.134   2.607   3.084
 6999SOL     OW21895   3.624   1.903   6.209
 6999SOL    HW121896   3.567   1.919   6.290
 6999SOL    HW221897   3.704   1.849   6.234
 7000SOL     OW21898   0.468   6.319   2.104
 7000SOL    HW121899   0.396   6.327   2.035
 7000SOL    HW221900   0.478   6.223   2.129
 7001SOL     OW21901   2.801   2.824   5.872
 7001SOL    HW121902   2.802   2.839   5.971
 7001SOL    HW221903   2.870   2.882   5.828
 7002SOL     OW21904   1.294   4.852   3.278
 7002SOL    HW121905   1.382   4.824   3.239
 7002SOL    HW221906   1.230   4.775   3.276
 7003SOL     OW21907   2.473   6.062   0.491
 7003SOL    HW121908   2.448   5.987   0.552
 7003SOL    HW221909   2.565   6.095   0.514
 7004SOL     OW21910   1.206   4.231   0.798
 7004SOL    HW121911   1.203   4.149   0.855
 7004SOL    HW221912   1.151   4.303   0.840
 7005SOL     OW21913   5.311   6.396   5.580
 7005SOL    HW121914   5.229   6.418   5.633
 7005SOL    HW221915   5.379   6.468   5.592
 7006SOL     OW21916   4.315   4.760   4.890
 7006SOL    HW121917   4.306   4.674   4.940
 7006SOL    HW221918   4.363   4.743   4.804
 7007SOL     OW21919   4.855   4.904   2.716
 7007SOL    HW121920   4.854   4.804   2.722
 7007SOL    HW221921   4.779   4.935   2.658
 7008SOL     OW21922   0.685   5.126   4.104
 7008SOL    HW121923   0.678   5.129   4.204
 7008SOL    HW221924   0.781   5.137   4.077
 7009SOL     OW21925   0.694   4.563   2.356
 7009SOL    HW121926   0.683   4.659   2.329
 7009SOL    HW221927   0.605   4.518   2.356
 7010SOL     OW21928   4.018   5.458   6.239
 7010SOL    HW121929   3.942   5.418   6.290
 7010SOL    HW221930   4.080   5.504   6.303
 7011SOL     OW21931   3.030   0.899   4.991
 7011SOL    HW121932   2.983   0.961   4.928
 7011SOL    HW221933   3.124   0.930   5.003
 7012SOL     OW21934   1.045   0.777   2.070
 7012SOL    HW121935   0.959   0.762   2.022
 7012SOL    HW221936   1.062   0.875   2.080
 7013SOL     OW21937   0.742   0.536   2.251
 7013SOL    HW121938   0.774   0.591   2.329
 7013SOL    HW221939   0.677   0.590   2.197
 7014SOL     OW21940   2.137   4.590   1.631
 7014SOL    HW121941   2.192   4.508   1.617
 7014SOL    HW221942   2.196   4.667   1.654
 7015SOL     OW21943   5.074   2.856   2.297
 7015SOL    HW121944   4.981   2.894   2.291
 7015SOL    HW221945   5.140   2.928   2.277
 7016SOL     OW21946   3.501   5.156   1.449
 7016SOL    HW121947   3.455   5.200   1.372
 7016SOL    HW221948   3.539   5.068   1.420
 7017SOL     OW21949   3.412   1.260   3.803
 7017SOL    HW121950   3.466   1.269   3.887
 7017SOL    HW221951   3.393   1.164   3.786
 7018SOL     OW21952   0.528   5.205   4.547
 7018SOL    HW121953   0.479   5.126   4.585
 7018SOL    HW221954   0.474   5.244   4.472
 7019SOL     OW21955   2.173   6.187   0.120
 7019SOL    HW121956   2.202   6.159   0.029
 7019SOL    HW221957   2.074   6.175   0.129
 7020SOL     OW21958   6.169   6.323   6.282
 7020SOL    HW121959   6.185   6.225   6.297
 7020SOL    HW221960   6.083   6.349   6.326
 7021SOL     OW21961   2.653   1.500   5.956
 7021SOL    HW121962   2.691   1.572   5.898
 7021SOL    HW221963   2.569   1.533   5.998
 7022SOL     OW21964   5.084   4.951   0.195
 7022SOL    HW121965   5.137   5.034   0.211
 7022SOL    HW221966   4.987   4.969   0.212
 7023SOL     OW21967   6.306   3.986   2.505
 7023SOL    HW121968   6.248   3.989   2.586
 7023SOL    HW221969   6.357   3.899   2.504
 7024SOL     OW21970   0.605   5.911   0.438
 7024SOL    HW121971   0.623   5.960   0.352
 7024SOL    HW221972   0.507   5.897   0.448
 7025SOL     OW21973   2.450   1.125   5.833
 7025SOL    HW121974   2.447   1.079   5.744
 7025SOL    HW221975   2.367   1.104   5.884
 7026SOL     OW21976   4.285   2.035   0.831
 7026SOL    HW121977   4.240   1.988   0.907
 7026SOL    HW221978   4.303   2.130   0.856
 7027SOL     OW21979   4.279   6.718   4.293
 7027SOL    HW121980   4.293   6.619   4.298
 7027SOL    HW221981   4.182   6.737   4.274
 7028SOL     OW21982   3.581   0.536   4.416
 7028SOL    HW121983   3.513   0.516   4.486
 7028SOL    HW221984   3.666   0.567   4.458
 7029SOL     OW21985   3.704   0.755   5.883
 7029SOL    HW121986   3.794   0.752   5.842
 7029SOL    HW221987   3.659   0.842   5.859
 7030SOL     OW21988   1.842   3.812   4.652
 7030SOL    HW121989   1.776   3.877   4.690
 7030SOL    HW221990   1.868   3.841   4.560
 7031SOL     OW21991   2.419   5.862   4.184
 7031SOL    HW121992   2.511   5.870   4.223
 7031SOL    HW221993   2.375   5.951   4.183
 7032SOL     OW21994   6.200   1.571   2.103
 7032SOL    HW121995   6.289   1.594   2.142
 7032SOL    HW221996   6.164   1.649   2.053
 7033SOL     OW21997   6.804   0.619   3.794
 7033SOL    HW121998   6.800   0.570   3.881
 7033SOL    HW221999   6.711   0.635   3.760
 7034SOL     OW22000   5.972   6.329   2.805
 7034SOL    HW122001   5.923   6.325   2.717
 7034SOL    HW222002   6.063   6.368   2.790
 7035SOL     OW22003   6.710   5.446   1.464
 7035SOL    HW122004   6.757   5.532   1.445
 7035SOL    HW222005   6.614   5.453   1.436
 7036SOL     OW22006   6.618   4.700   2.097
 7036SOL    HW122007   6.687   4.664   2.161
 7036SOL    HW222008   6.628   4.654   2.009
 7037SOL     OW22009   1.337   6.425   6.431
 7037SOL    HW122010   1.307   6.331   6.449
 7037SOL    HW222011   1.408   6.424   6.360
 7038SOL     OW22012   1.050   4.214   4.180
 7038SOL    HW122013   1.118   4.234   4.251
 7038SOL    HW222014   0.995   4.136   4.209
 7039SOL     OW22015   4.046   1.417   0.027
 7039SOL    HW122016   3.958   1.370   0.033
 7039SOL    HW222017   4.058   1.453   6.958
 7040SOL     OW22018   4.458   2.630   6.294
 7040SOL    HW122019   4.364   2.601   6.273
 7040SOL    HW222020   4.509   2.552   6.329
 7041SOL     OW22021   2.316   2.313   2.392
 7041SOL    HW122022   2.353   2.245   2.329
 7041SOL    HW222023   2.385   2.385   2.406
 7042SOL     OW22024   2.437   0.238   6.670
 7042SOL    HW122025   2.492   0.217   6.589
 7042SOL    HW222026   2.375   0.162   6.689
 7043SOL     OW22027   1.617   1.877   2.969
 7043SOL    HW122028   1.576   1.964   2.996
 7043SOL    HW222029   1.704   1.894   2.922
 7044SOL     OW22030   4.611   5.779   2.673
 7044SOL    HW122031   4.563   5.866   2.673
 7044SOL    HW222032   4.706   5.793   2.698
 7045SOL     OW22033   5.379   5.488   0.972
 7045SOL    HW122034   5.386   5.422   1.048
 7045SOL    HW222035   5.340   5.442   0.892
 7046SOL     OW22036   3.078   0.445   5.089
 7046SOL    HW122037   3.081   0.526   5.030
 7046SOL    HW222038   3.017   0.376   5.049
 7047SOL     OW22039   1.710   0.781   4.161
 7047SOL    HW122040   1.710   0.695   4.210
 7047SOL    HW222041   1.805   0.809   4.141
 7048SOL     OW22042   6.720   6.553   0.181
 7048SOL    HW122043   6.756   6.475   0.131
 7048SOL    HW222044   6.750   6.549   0.276
 7049SOL     OW22045   2.580   1.246   0.874
 7049SOL    HW122046   2.658   1.256   0.937
 7049SOL    HW222047   2.495   1.263   0.924
 7050SOL     OW22048   3.914   3.895   4.650
 7050SOL    HW122049   3.831   3.867   4.601
 7050SOL    HW222050   3.955   3.973   4.603
 7051SOL     OW22051   6.644   6.475   1.865
 7051SOL    HW122052   6.656   6.379   1.840
 7051SOL    HW222053   6.733   6.521   1.866
 7052SOL     OW22054   0.178   2.343   3.472
 7052SOL    HW122055   0.247   2.290   3.422
 7052SOL    HW222056   0.223   2.417   3.522
 7053SOL     OW22057   0.551   4.878   6.770
 7053SOL    HW122058   0.467   4.906   6.724
 7053SOL    HW222059   0.548   4.908   6.866
 7054SOL     OW22060   6.982   6.779   1.673
 7054SOL    HW122061   7.011   6.719   1.598
 7054SOL    HW222062   0.032   6.843   1.694
 7055SOL     OW22063   3.753   0.155   4.882
 7055SOL    HW122064   3.716   0.125   4.970
 7055SOL    HW222065   3.850   0.179   4.892
 7056SOL     OW22066   5.310   5.079   3.925
 7056SOL    HW122067   5.371   5.081   3.846
 7056SOL    HW222068   5.310   5.168   3.970
 7057SOL     OW22069   0.224   5.921   3.203
 7057SOL    HW122070   0.302   5.916   3.141
 7057SOL    HW222071   0.239   5.861   3.282
 7058SOL     OW22072   1.088   5.790   5.494
 7058SOL    HW122073   1.047   5.712   5.447
 7058SOL    HW222074   1.102   5.865   5.429
 7059SOL     OW22075   1.324   0.492   2.389
 7059SOL    HW122076   1.234   0.526   2.364
 7059SOL    HW222077   1.317   0.440   2.474
 7060SOL     OW22078   3.079   6.597   1.310
 7060SOL    HW122079   3.063   6.569   1.404
 7060SOL    HW222080   3.051   6.524   1.248
 7061SOL     OW22081   0.748   1.049   2.633
 7061SOL    HW122082   0.729   1.061   2.730
 7061SOL    HW222083   0.716   0.959   2.603
 7062SOL     OW22084   5.426   2.070   4.753
 7062SOL    HW122085   5.480   2.144   4.712
 7062SOL    HW222086   5.340   2.059   4.702
 7063SOL     OW22087   3.760   6.525   1.129
 7063SOL    HW122088   3.735   6.602   1.188
 7063SOL    HW222089   3.742   6.439   1.178
 7064SOL     OW22090   3.701   2.580   0.329
 7064SOL    HW122091   3.769   2.551   0.261
 7064SOL    HW222092   3.689   2.679   0.323
 7065SOL     OW22093   4.152   3.398   1.357
 7065SOL    HW122094   4.169   3.362   1.265
 7065SOL    HW222095   4.214   3.355   1.422
 7066SOL     OW22096   3.502   6.487   0.627
 7066SOL    HW122097   3.464   6.501   0.535
 7066SOL    HW222098   3.580   6.426   0.621
 7067SOL     OW22099   0.111   4.086   5.205
 7067SOL    HW122100   0.131   4.166   5.149
 7067SOL    HW222101   0.012   4.073   5.212
 7068SOL     OW22102   1.587   0.772   3.622
 7068SOL    HW122103   1.671   0.794   3.671
 7068SOL    HW222104   1.610   0.732   3.533
 7069SOL     OW22105   1.299   4.477   4.705
 7069SOL    HW122106   1.340   4.531   4.632
 7069SOL    HW222107   1.349   4.391   4.716
 7070SOL     OW22108   6.002   5.043   4.417
 7070SOL    HW122109   5.944   4.977   4.464
 7070SOL    HW222110   6.093   5.003   4.402
 7071SOL     OW22111   1.429   6.461   5.726
 7071SOL    HW122112   1.418   6.529   5.654
 7071SOL    HW222113   1.520   6.471   5.767
 7072SOL     OW22114   0.424   6.444   6.454
 7072SOL    HW122115   0.522   6.445   6.432
 7072SOL    HW222116   0.412   6.448   6.553
 7073SOL     OW22117   0.885   0.523   6.017
 7073SOL    HW122118   0.880   0.494   6.113
 7073SOL    HW222119   0.797   0.508   5.973
 7074SOL     OW22120   3.312   2.213   1.386
 7074SOL    HW122121   3.379   2.208   1.460
 7074SOL    HW222122   3.223   2.184   1.420
 7075SOL     OW22123   1.687   5.915   2.949
 7075SOL    HW122124   1.591   5.888   2.952
 7075SOL    HW222125   1.726   5.907   3.041
 7076SOL     OW22126   2.536   2.665   6.930
 7076SOL    HW122127   2.615   2.653   6.990
 7076SOL    HW222128   2.525   2.762   6.909
 7077SOL     OW22129   2.230   5.695   5.733
 7077SOL    HW122130   2.134   5.681   5.709
 7077SOL    HW222131   2.287   5.691   5.651
 7078SOL     OW22132   5.901   1.102   3.643
 7078SOL    HW122133   5.804   1.080   3.650
 7078SOL    HW222134   5.952   1.019   3.621
 7079SOL     OW22135   5.999   6.208   6.050
 7079SOL    HW122136   5.987   6.278   6.121
 7079SOL    HW222137   5.978   6.118   6.089
 7080SOL     OW22138   4.395   0.891   3.880
 7080SOL    HW122139   4.330   0.829   3.925
 7080SOL    HW222140   4.485   0.849   3.878
 7081SOL     OW22141   3.845   1.062   4.534
 7081SOL    HW122142   3.783   1.012   4.595
 7081SOL    HW222143   3.926   1.091   4.584
 7082SOL     OW22144   5.290   0.648   5.908
 7082SOL    HW122145   5.330   0.706   5.980
 7082SOL    HW222146   5.212   0.598   5.946
 7083SOL     OW22147   3.543   0.224   6.211
 7083SOL    HW122148   3.512   0.237   6.117
 7083SOL    HW222149   3.562   0.313   6.252
 7084SOL     OW22150   6.755   6.422   5.814
 7084SOL    HW122151   6.835   6.479   5.793
 7084SOL    HW222152   6.768   6.331   5.775
 7085SOL     OW22153   2.499   2.331   1.472
 7085SOL    HW122154   2.452   2.364   1.554
 7085SOL    HW222155   2.598   2.332   1.488
 7086SOL     OW22156   6.174   0.135   6.375
 7086SOL    HW122157   6.245   0.202   6.397
 7086SOL    HW222158   6.097   0.180   6.331
 7087SOL     OW22159   1.106   3.573   3.985
 7087SOL    HW122160   1.072   3.521   3.907
 7087SOL    HW222161   1.196   3.538   4.012
 7088SOL     OW22162   5.899   2.953   5.480
 7088SOL    HW122163   5.981   3.007   5.459
 7088SOL    HW222164   5.874   2.899   5.400
 7089SOL     OW22165   2.780   1.427   0.352
 7089SOL    HW122166   2.871   1.467   0.341
 7089SOL    HW222167   2.722   1.490   0.403
 7090SOL     OW22168   2.684   2.612   5.241
 7090SOL    HW122169   2.727   2.681   5.300
 7090SOL    HW222170   2.603   2.652   5.197
 7091SOL     OW22171   6.835   6.202   6.848
 7091SOL    HW122172   6.903   6.274   6.833
 7091SOL    HW222173   6.848   6.129   6.781
 7092SOL     OW22174   3.381   3.798   1.075
 7092SOL    HW122175   3.383   3.823   0.978
 7092SOL    HW222176   3.319   3.722   1.089
 7093SOL     OW22177   3.409   3.857   4.704
 7093SOL    HW122178   3.373   3.950   4.706
 7093SOL    HW222179   3.419   3.827   4.609
 7094SOL     OW22180   0.779   0.309   5.704
 7094SOL    HW122181   0.735   0.354   5.782
 7094SOL    HW222182   0.712   0.250   5.658
 7095SOL     OW22183   0.616   3.163   6.829
 7095SOL    HW122184   0.522   3.169   6.796
 7095SOL    HW222185   0.678   3.148   6.752
 7096SOL     OW22186   4.514   1.932   2.959
 7096SOL    HW122187   4.450   1.967   2.891
 7096SOL    HW222188   4.501   1.981   3.045
 7097SOL     OW22189   0.578   0.465   1.690
 7097SOL    HW122190   0.587   0.375   1.648
 7097SOL    HW222191   0.566   0.455   1.789
 7098SOL     OW22192   1.880   6.898   5.792
 7098SOL    HW122193   1.875   6.905   5.692
 7098SOL    HW222194   1.797   6.855   5.827
 7099SOL     OW22195   0.235   1.171   6.331
 7099SOL    HW122196   0.187   1.226   6.400
 7099SOL    HW222197   0.250   1.079   6.367
 7100SOL     OW22198   6.017   3.127   1.444
 7100SOL    HW122199   6.103   3.082   1.418
 7100SOL    HW222200   5.969   3.155   1.361
 7101SOL     OW22201   2.676   0.366   5.149
 7101SOL    HW122202   2.731   0.441   5.185
 7101SOL    HW222203   2.729   0.313   5.083
 7102SOL     OW22204   4.391   1.933   0.605
 7102SOL    HW122205   4.403   1.998   0.531
 7102SOL    HW222206   4.362   1.981   0.688
 7103SOL     OW22207   3.641   6.666   6.798
 7103SOL    HW122208   3.723   6.671   6.741
 7103SOL    HW222209   3.633   6.574   6.836
 7104SOL     OW22210   1.064   2.312   3.059
 7104SOL    HW122211   1.123   2.387   3.028
 7104SOL    HW222212   1.010   2.278   2.982
 7105SOL     OW22213   3.541   3.952   5.085
 7105SOL    HW122214   3.448   3.989   5.081
 7105SOL    HW222215   3.580   3.951   4.993
 7106SOL     OW22216   3.191   2.756   5.250
 7106SOL    HW122217   3.190   2.806   5.164
 7106SOL    HW222218   3.285   2.747   5.283
 7107SOL     OW22219   2.998   1.825   0.454
 7107SOL    HW122220   3.042   1.912   0.431
 7107SOL    HW222221   2.899   1.837   0.457
 7108SOL     OW22222   5.180   0.055   1.567
 7108SOL    HW122223   5.145   0.144   1.596
 7108SOL    HW222224   5.190   7.019   1.647
 7109SOL     OW22225   3.673   0.042   6.402
 7109SOL    HW122226   3.658   0.047   6.500
 7109SOL    HW222227   3.605   0.097   6.354
 7110SOL     OW22228   4.618   5.089   3.410
 7110SOL    HW122229   4.540   5.069   3.351
 7110SOL    HW222230   4.611   5.183   3.444
 7111SOL     OW22231   2.120   3.207   4.249
 7111SOL    HW122232   2.034   3.216   4.198
 7111SOL    HW222233   2.118   3.268   4.329
 7112SOL     OW22234   0.928   6.223   3.222
 7112SOL    HW122235   0.982   6.148   3.261
 7112SOL    HW222236   0.883   6.273   3.296
 7113SOL     OW22237   3.977   3.093   3.911
 7113SOL    HW122238   3.973   3.002   3.870
 7113SOL    HW222239   3.966   3.086   4.010
 7114SOL     OW22240   3.916   1.091   1.077
 7114SOL    HW122241   3.958   1.087   0.987
 7114SOL    HW222242   3.932   1.181   1.117
 7115SOL     OW22243   4.767   1.516   0.982
 7115SOL    HW122244   4.784   1.538   1.079
 7115SOL    HW222245   4.761   1.417   0.971
 7116SOL     OW22246   5.600   4.567   2.970
 7116SOL    HW122247   5.538   4.636   2.932
 7116SOL    HW222248   5.572   4.476   2.941
 7117SOL     OW22249   6.218   6.829   1.689
 7117SOL    HW122250   6.215   6.770   1.608
 7117SOL    HW222251   6.307   6.875   1.693
 7118SOL     OW22252   6.428   2.779   0.778
 7118SOL    HW122253   6.486   2.777   0.859
 7118SOL    HW222254   6.391   2.871   0.766
 7119SOL     OW22255   6.879   1.805   3.452
 7119SOL    HW122256   6.883   1.904   3.438
 7119SOL    HW222257   6.959   1.762   3.408
 7120SOL     OW22258   5.350   1.337   3.408
 7120SOL    HW122259   5.305   1.291   3.484
 7120SOL    HW222260   5.318   1.297   3.321
 7121SOL     OW22261   3.308   6.628   3.280
 7121SOL    HW122262   3.407   6.638   3.289
 7121SOL    HW222263   3.280   6.653   3.187
 7122SOL     OW22264   6.135   0.795   6.531
 7122SOL    HW122265   6.128   0.737   6.449
 7122SOL    HW222266   6.049   0.793   6.581
 7123SOL     OW22267   2.845   5.170   1.197
 7123SOL    HW122268   2.797   5.092   1.237
 7123SOL    HW222269   2.826   5.174   1.099
 7124SOL     OW22270   0.476   4.925   0.596
 7124SOL    HW122271   0.459   4.833   0.562
 7124SOL    HW222272   0.528   4.977   0.527
 7125SOL     OW22273   6.256   6.770   2.305
 7125SOL    HW122274   6.211   6.859   2.313
 7125SOL    HW222275   6.186   6.700   2.286
 7126SOL     OW22276   1.319   4.471   0.277
 7126SOL    HW122277   1.398   4.527   0.303
 7126SOL    HW222278   1.281   4.427   0.358
 7127SOL     OW22279   3.981   6.467   4.345
 7127SOL    HW122280   4.032   6.389   4.382
 7127SOL    HW222281   3.933   6.514   4.419
 7128SOL     OW22282   3.144   3.917   1.417
 7128SOL    HW122283   3.083   3.932   1.495
 7128SOL    HW222284   3.170   3.821   1.413
 7129SOL     OW22285   2.446   7.018   1.561
 7129SOL    HW122286   2.394   6.933   1.569
 7129SOL    HW222287   2.536   7.005   1.601
 7130SOL     OW22288   1.966   4.306   3.186
 7130SOL    HW122289   1.944   4.393   3.231
 7130SOL    HW222290   2.049   4.268   3.226
 7131SOL     OW22291   2.634   0.943   2.918
 7131SOL    HW122292   2.599   0.851   2.932
 7131SOL    HW222293   2.560   1.002   2.884
 7132SOL     OW22294   3.456   4.068   3.472
 7132SOL    HW122295   3.473   4.073   3.570
 7132SOL    HW222296   3.359   4.051   3.456
 7133SOL     OW22297   5.349   5.120   2.853
 7133SOL    HW122298   5.413   5.095   2.780
 7133SOL    HW222299   5.256   5.107   2.821
 7134SOL     OW22300   5.776   4.408   4.464
 7134SOL    HW122301   5.870   4.373   4.472
 7134SOL    HW222302   5.775   4.505   4.488
 7135SOL     OW22303   1.006   2.073   4.823
 7135SOL    HW122304   0.911   2.093   4.848
 7135SOL    HW222305   1.067   2.106   4.894
 7136SOL     OW22306   1.753   1.441   0.321
 7136SOL    HW122307   1.766   1.510   0.250
 7136SOL    HW222308   1.843   1.410   0.354
 7137SOL     OW22309   4.343   0.578   4.633
 7137SOL    HW122310   4.300   0.509   4.575
 7137SOL    HW222311   4.400   0.638   4.576
 7138SOL     OW22312   2.230   4.407   0.828
 7138SOL    HW122313   2.329   4.395   0.820
 7138SOL    HW222314   2.185   4.321   0.806
 7139SOL     OW22315   3.621   2.537   1.358
 7139SOL    HW122316   3.605   2.441   1.379
 7139SOL    HW222317   3.717   2.550   1.332
 7140SOL     OW22318   5.954   3.854   5.394
 7140SOL    HW122319   5.878   3.871   5.457
 7140SOL    HW222320   6.040   3.877   5.438
 7141SOL     OW22321   2.618   0.092   0.278
 7141SOL    HW122322   2.700   0.039   0.256
 7141SOL    HW222323   2.610   0.101   0.377
 7142SOL     OW22324   4.105   5.906   4.262
 7142SOL    HW122325   4.093   5.816   4.220
 7142SOL    HW222326   4.091   5.977   4.193
 7143SOL     OW22327   1.790   3.998   5.349
 7143SOL    HW122328   1.691   4.011   5.356
 7143SOL    HW222329   1.813   3.959   5.260
 7144SOL     OW22330   0.717   2.404   3.601
 7144SOL    HW122331   0.730   2.498   3.569
 7144SOL    HW222332   0.684   2.405   3.696
 7145SOL     OW22333   4.713   6.960   6.859
 7145SOL    HW122334   4.743   0.010   6.920
 7145SOL    HW222335   4.693   6.998   6.769
 7146SOL     OW22336   3.535   5.215   0.138
 7146SOL    HW122337   3.621   5.199   0.088
 7146SOL    HW222338   3.463   5.237   0.073
 7147SOL     OW22339   0.495   0.329   3.430
 7147SOL    HW122340   0.541   0.291   3.350
 7147SOL    HW222341   0.562   0.349   3.501
 7148SOL     OW22342   0.959   0.827   1.754
 7148SOL    HW122343   0.941   0.923   1.775
 7148SOL    HW222344   1.056   0.807   1.767
 7149SOL     OW22345   6.308   1.736   3.190
 7149SOL    HW122346   6.382   1.697   3.136
 7149SOL    HW222347   6.326   1.833   3.207
 7150SOL     OW22348   6.233   3.206   0.223
 7150SOL    HW122349   6.328   3.220   0.250
 7150SOL    HW222350   6.203   3.281   0.164
 7151SOL     OW22351   2.569   5.987   1.794
 7151SOL    HW122352   2.514   5.932   1.730
 7151SOL    HW222353   2.511   6.059   1.833
 7152SOL     OW22354   1.435   2.747   3.922
 7152SOL    HW122355   1.481   2.773   4.007
 7152SOL    HW222356   1.503   2.738   3.849
 7153SOL     OW22357   3.926   1.367   3.825
 7153SOL    HW122358   4.000   1.433   3.811
 7153SOL    HW222359   3.843   1.414   3.855
 7154SOL     OW22360   4.733   5.497   4.028
 7154SOL    HW122361   4.635   5.492   4.012
 7154SOL    HW222362   4.780   5.521   3.943
 7155SOL     OW22363   2.554   0.216   1.151
 7155SOL    HW122364   2.596   0.135   1.110
 7155SOL    HW222365   2.495   0.260   1.083
 7156SOL     OW22366   0.301   5.828   4.694
 7156SOL    HW122367   0.385   5.774   4.686
 7156SOL    HW222368   0.257   5.835   4.605
 7157SOL     OW22369   4.774   4.428   1.019
 7157SOL    HW122370   4.800   4.438   0.922
 7157SOL    HW222371   4.753   4.518   1.057
 7158SOL     OW22372   6.603   6.483   3.417
 7158SOL    HW122373   6.653   6.412   3.465
 7158SOL    HW222374   6.509   6.453   3.401
 7159SOL     OW22375   1.160   5.428   0.421
 7159SOL    HW122376   1.062   5.428   0.400
 7159SOL    HW222377   1.207   5.485   0.354
 7160SOL     OW22378   5.690   0.280   1.926
 7160SOL    HW122379   5.763   0.241   1.871
 7160SOL    HW222380   5.646   0.355   1.876
 7161SOL     OW22381   3.692   3.308   4.024
 7161SOL    HW122382   3.792   3.304   4.023
 7161SOL    HW222383   3.656   3.258   3.946
 7162SOL     OW22384   3.436   5.002   3.708
 7162SOL    HW122385   3.442   5.098   3.680
 7162SOL    HW222386   3.476   4.944   3.637
 7163SOL     OW22387   2.465   0.273   2.943
 7163SOL    HW122388   2.520   0.272   3.027
 7163SOL    HW222389   2.493   0.351   2.887
 7164SOL     OW22390   2.029   1.196   3.162
 7164SOL    HW122391   2.042   1.289   3.127
 7164SOL    HW222392   1.955   1.152   3.111
 7165SOL     OW22393   5.030   1.137   1.138
 7165SOL    HW122394   5.058   1.232   1.127
 7165SOL    HW222395   5.061   1.103   1.227
 7166SOL     OW22396   5.132   4.638   1.155
 7166SOL    HW122397   5.104   4.554   1.203
 7166SOL    HW222398   5.230   4.634   1.137
 7167SOL     OW22399   4.829   3.156   5.041
 7167SOL    HW122400   4.766   3.234   5.037
 7167SOL    HW222401   4.792   3.087   5.103
 7168SOL     OW22402   0.929   0.402   3.857
 7168SOL    HW122403   0.969   0.480   3.808
 7168SOL    HW222404   0.889   0.435   3.943
 7169SOL     OW22405   1.259   2.568   5.222
 7169SOL    HW122406   1.351   2.539   5.246
 7169SOL    HW222407   1.201   2.568   5.303
 7170SOL     OW22408   6.516   4.808   4.403
 7170SOL    HW122409   6.614   4.815   4.423
 7170SOL    HW222410   6.479   4.727   4.447
 7171SOL     OW22411   4.315   3.213   5.308
 7171SOL    HW122412   4.401   3.206   5.358
 7171SOL    HW222413   4.305   3.306   5.272
 7172SOL     OW22414   1.206   0.400   0.519
 7172SOL    HW122415   1.289   0.421   0.468
 7172SOL    HW222416   1.220   0.420   0.616
 7173SOL     OW22417   6.953   5.999   5.718
 7173SOL    HW122418   0.010   6.045   5.681
 7173SOL    HW222419   6.969   5.978   5.815
 7174SOL     OW22420   2.026   5.318   0.345
 7174SOL    HW122421   1.948   5.350   0.291
 7174SOL    HW222422   2.036   5.376   0.426
 7175SOL     OW22423   6.623   3.975   6.304
 7175SOL    HW122424   6.715   4.013   6.310
 7175SOL    HW222425   6.611   3.931   6.215
 7176SOL     OW22426   5.972   3.933   1.369
 7176SOL    HW122427   5.889   3.892   1.408
 7176SOL    HW222428   5.960   4.032   1.362
 7177SOL     OW22429   0.481   5.610   2.226
 7177SOL    HW122430   0.507   5.535   2.287
 7177SOL    HW222431   0.560   5.668   2.207
 7178SOL     OW22432   0.510   2.433   5.708
 7178SOL    HW122433   0.510   2.333   5.702
 7178SOL    HW222434   0.600   2.464   5.740
 7179SOL     OW22435   2.779   3.702   5.887
 7179SOL    HW122436   2.846   3.686   5.960
 7179SOL    HW222437   2.687   3.682   5.921
 7180SOL     OW22438   0.356   5.974   1.953
 7180SOL    HW122439   0.263   5.939   1.941
 7180SOL    HW222440   0.370   5.997   2.049
 7181SOL     OW22441   5.274   0.541   1.354
 7181SOL    HW122442   5.268   0.601   1.275
 7181SOL    HW222443   5.247   0.591   1.436
 7182SOL     OW22444   2.736   4.206   5.702
 7182SOL    HW122445   2.726   4.250   5.613
 7182SOL    HW222446   2.687   4.119   5.702
 7183SOL     OW22447   0.968   5.417   2.568
 7183SOL    HW122448   0.996   5.376   2.655
 7183SOL    HW222449   0.891   5.365   2.530
 7184SOL     OW22450   2.168   6.508   3.958
 7184SOL    HW122451   2.114   6.573   3.904
 7184SOL    HW222452   2.191   6.550   4.046
 7185SOL     OW22453   4.730   2.509   6.867
 7185SOL    HW122454   4.751   2.559   6.951
 7185SOL    HW222455   4.781   2.423   6.866
 7186SOL     OW22456   0.692   6.150   5.220
 7186SOL    HW122457   0.781   6.196   5.225
 7186SOL    HW222458   0.620   6.218   5.203
 7187SOL     OW22459   2.070   4.201   1.496
 7187SOL    HW122460   2.139   4.274   1.498
 7187SOL    HW222461   2.116   4.112   1.490
 7188SOL     OW22462   5.191   1.587   1.523
 7188SOL    HW122463   5.191   1.500   1.474
 7188SOL    HW222464   5.281   1.629   1.515
 7189SOL     OW22465   6.513   1.203   5.019
 7189SOL    HW122466   6.583   1.270   4.996
 7189SOL    HW222467   6.452   1.190   4.941
 7190SOL     OW22468   4.788   4.601   3.562
 7190SOL    HW122469   4.874   4.551   3.569
 7190SOL    HW222470   4.714   4.536   3.544
 7191SOL     OW22471   1.749   3.339   1.766
 7191SOL    HW122472   1.794   3.419   1.806
 7191SOL    HW222473   1.791   3.318   1.677
 7192SOL     OW22474   2.949   4.636   5.842
 7192SOL    HW122475   2.962   4.615   5.746
 7192SOL    HW222476   2.978   4.730   5.860
 7193SOL     OW22477   4.129   2.250   3.813
 7193SOL    HW122478   4.200   2.283   3.751
 7193SOL    HW222479   4.072   2.183   3.766
 7194SOL     OW22480   2.534   1.628   2.277
 7194SOL    HW122481   2.559   1.558   2.344
 7194SOL    HW222482   2.604   1.631   2.205
 7195SOL     OW22483   1.177   5.617   1.142
 7195SOL    HW122484   1.208   5.544   1.081
 7195SOL    HW222485   1.155   5.578   1.232
 7196SOL     OW22486   2.905   3.248   2.237
 7196SOL    HW122487   2.921   3.337   2.280
 7196SOL    HW222488   2.820   3.209   2.272
 7197SOL     OW22489   6.694   1.919   6.348
 7197SOL    HW122490   6.688   2.009   6.392
 7197SOL    HW222491   6.788   1.902   6.319
 7198SOL     OW22492   1.078   6.307   6.847
 7198SOL    HW122493   1.107   6.221   6.889
 7198SOL    HW222494   1.023   6.288   6.766
 7199SOL     OW22495   6.270   6.600   2.532
 7199SOL    HW122496   6.239   6.674   2.472
 7199SOL    HW222497   6.339   6.545   2.483
 7200SOL     OW22498   1.848   1.341   1.093
 7200SOL    HW122499   1.934   1.392   1.097
 7200SOL    HW222500   1.771   1.405   1.092
 7201SOL     OW22501   1.880   4.394   3.958
 7201SOL    HW122502   1.914   4.314   4.008
 7201SOL    HW222503   1.946   4.418   3.886
 7202SOL     OW22504   4.074   0.727   6.648
 7202SOL    HW122505   4.116   0.732   6.739
 7202SOL    HW222506   4.001   0.659   6.649
 7203SOL     OW22507   5.167   0.949   0.096
 7203SOL    HW122508   5.141   0.999   0.013
 7203SOL    HW222509   5.195   1.014   0.166
 7204SOL     OW22510   5.931   1.767   3.070
 7204SOL    HW122511   5.939   1.860   3.034
 7204SOL    HW222512   5.940   1.769   3.169
 7205SOL     OW22513   1.952   4.798   2.466
 7205SOL    HW122514   1.974   4.763   2.557
 7205SOL    HW222515   1.914   4.724   2.411
 7206SOL     OW22516   6.344   1.076   1.774
 7206SOL    HW122517   6.329   0.994   1.830
 7206SOL    HW222518   6.437   1.075   1.737
 7207SOL     OW22519   3.783   6.928   1.860
 7207SOL    HW122520   3.734   6.990   1.799
 7207SOL    HW222521   3.837   6.864   1.805
 7208SOL     OW22522   3.129   0.341   5.573
 7208SOL    HW122523   3.125   0.254   5.622
 7208SOL    HW222524   3.174   0.409   5.630
 7209SOL     OW22525   3.900   3.518   4.875
 7209SOL    HW122526   3.946   3.535   4.787
 7209SOL    HW222527   3.915   3.596   4.936
 7210SOL     OW22528   4.631   1.358   4.164
 7210SOL    HW122529   4.633   1.278   4.105
 7210SOL    HW222530   4.678   1.337   4.250
 7211SOL     OW22531   1.658   5.395   3.242
 7211SOL    HW122532   1.572   5.381   3.192
 7211SOL    HW222533   1.719   5.452   3.187
 7212SOL     OW22534   6.117   6.179   4.093
 7212SOL    HW122535   6.055   6.239   4.043
 7212SOL    HW222536   6.133   6.216   4.185
 7213SOL     OW22537   5.759   1.126   5.228
 7213SOL    HW122538   5.708   1.045   5.257
 7213SOL    HW222539   5.856   1.103   5.220
 7214SOL     OW22540   1.758   5.042   4.651
 7214SOL    HW122541   1.725   5.065   4.560
 7214SOL    HW222542   1.850   5.003   4.645
 7215SOL     OW22543   1.242   3.820   3.957
 7215SOL    HW122544   1.176   3.752   3.990
 7215SOL    HW222545   1.200   3.877   3.887
 7216SOL     OW22546   2.478   0.591   1.310
 7216SOL    HW122547   2.391   0.606   1.263
 7216SOL    HW222548   2.470   0.617   1.406
 7217SOL     OW22549   1.186   3.181   2.325
 7217SOL    HW122550   1.160   3.107   2.386
 7217SOL    HW222551   1.147   3.164   2.234
 7218SOL     OW22552   5.126   2.724   5.591
 7218SOL    HW122553   5.172   2.795   5.538
 7218SOL    HW222554   5.164   2.635   5.566
 7219SOL     OW22555   3.770   0.874   2.448
 7219SOL    HW122556   3.734   0.926   2.372
 7219SOL    HW222557   3.854   0.828   2.420
 7220SOL     OW22558   6.771   0.977   2.737
 7220SOL    HW122559   6.774   0.881   2.709
 7220SOL    HW222560   6.851   0.997   2.794
 7221SOL     OW22561   5.498   5.606   6.251
 7221SOL    HW122562   5.493   5.579   6.347
 7221SOL    HW222563   5.514   5.525   6.195
 7222SOL     OW22564   0.376   5.994   1.226
 7222SOL    HW122565   0.287   6.032   1.252
 7222SOL    HW222566   0.362   5.911   1.172
 7223SOL     OW22567   3.585   0.860   5.361
 7223SOL    HW122568   3.523   0.798   5.313
 7223SOL    HW222569   3.539   0.899   5.440
 7224SOL     OW22570   5.131   6.942   4.478
 7224SOL    HW122571   5.072   6.919   4.401
 7224SOL    HW222572   5.168   6.858   4.518
 7225SOL     OW22573   2.247   6.367   6.781
 7225SOL    HW122574   2.160   6.416   6.787
 7225SOL    HW222575   2.323   6.431   6.797
 7226SOL     OW22576   6.905   6.513   0.823
 7226SOL    HW122577   6.828   6.567   0.855
 7226SOL    HW222578   6.961   6.567   0.760
 7227SOL     OW22579   6.884   2.243   6.760
 7227SOL    HW122580   6.947   2.293   6.819
 7227SOL    HW222581   6.801   2.297   6.745
 7228SOL     OW22582   1.307   0.527   2.879
 7228SOL    HW122583   1.321   0.611   2.932
 7228SOL    HW222584   1.328   0.448   2.936
 7229SOL     OW22585   0.703   0.376   3.638
 7229SOL    HW122586   0.788   0.326   3.658
 7229SOL    HW222587   0.705   0.465   3.684
 7230SOL     OW22588   5.131   4.022   3.222
 7230SOL    HW122589   5.228   4.011   3.245
 7230SOL    HW222590   5.092   4.098   3.274
 7231SOL     OW22591   5.674   0.793   6.465
 7231SOL    HW122592   5.696   0.890   6.480
 7231SOL    HW222593   5.595   0.786   6.404
 7232SOL     OW22594   3.960   4.581   1.304
 7232SOL    HW122595   3.996   4.673   1.319
 7232SOL    HW222596   4.036   4.515   1.306
 7233SOL     OW22597   6.442   2.065   6.605
 7233SOL    HW122598   6.479   2.005   6.676
 7233SOL    HW222599   6.458   2.160   6.629
 7234SOL     OW22600   6.054   1.987   2.033
 7234SOL    HW122601   6.069   1.935   2.117
 7234SOL    HW222602   6.014   1.927   1.963
 7235SOL     OW22603   5.730   3.970   5.518
 7235SOL    HW122604   5.777   4.004   5.598
 7235SOL    HW222605   5.673   4.043   5.479
 7236SOL     OW22606   3.248   0.561   3.057
 7236SOL    HW122607   3.158   0.595   3.028
 7236SOL    HW222608   3.312   0.570   2.980
 7237SOL     OW22609   5.793   5.737   6.039
 7237SOL    HW122610   5.770   5.781   6.126
 7237SOL    HW222611   5.807   5.806   5.969
 7238SOL     OW22612   1.662   1.526   1.075
 7238SOL    HW122613   1.680   1.610   1.126
 7238SOL    HW222614   1.687   1.539   0.979
 7239SOL     OW22615   3.959   1.606   1.671
 7239SOL    HW122616   4.039   1.592   1.613
 7239SOL    HW222617   3.987   1.606   1.767
 7240SOL     OW22618   2.557   4.600   0.124
 7240SOL    HW122619   2.549   4.666   0.198
 7240SOL    HW222620   2.638   4.543   0.138
 7241SOL     OW22621   3.654   0.044   5.144
 7241SOL    HW122622   3.675   0.127   5.195
 7241SOL    HW222623   3.559   0.046   5.115
 7242SOL     OW22624   5.030   4.829   6.992
 7242SOL    HW122625   5.078   4.879   0.040
 7242SOL    HW222626   4.997   4.742   0.005
 7243SOL     OW22627   0.624   5.533   0.267
 7243SOL    HW122628   0.599   5.512   0.362
 7243SOL    HW222629   0.616   5.632   0.252
 7244SOL     OW22630   6.027   0.801   1.268
 7244SOL    HW122631   5.964   0.871   1.299
 7244SOL    HW222632   6.116   0.813   1.313
 7245SOL     OW22633   0.332   1.830   3.704
 7245SOL    HW122634   0.418   1.781   3.688
 7245SOL    HW222635   0.345   1.897   3.777
 7246SOL     OW22636   0.337   6.082   5.827
 7246SOL    HW122637   0.419   6.060   5.773
 7246SOL    HW222638   0.263   6.110   5.766
 7247SOL     OW22639   3.501   5.608   2.744
 7247SOL    HW122640   3.425   5.577   2.800
 7247SOL    HW222641   3.570   5.651   2.803
 7248SOL     OW22642   3.305   0.406   4.867
 7248SOL    HW122643   3.226   0.417   4.928
 7248SOL    HW222644   3.355   0.493   4.862
 7249SOL     OW22645   6.172   5.886   6.788
 7249SOL    HW122646   6.230   5.941   6.729
 7249SOL    HW222647   6.208   5.886   6.881
 7250SOL     OW22648   2.820   4.284   6.752
 7250SOL    HW122649   2.879   4.279   6.673
 7250SOL    HW222650   2.774   4.373   6.755
 7251SOL     OW22651   5.962   0.243   5.140
 7251SOL    HW122652   5.947   0.281   5.048
 7251SOL    HW222653   5.881   0.258   5.196
 7252SOL     OW22654   3.809   3.735   5.034
 7252SOL    HW122655   3.864   3.818   5.042
 7252SOL    HW222656   3.745   3.744   4.957
 7253SOL     OW22657   5.499   6.229   1.483
 7253SOL    HW122658   5.526   6.191   1.572
 7253SOL    HW222659   5.485   6.155   1.418
 7254SOL     OW22660   4.933   6.017   5.304
 7254SOL    HW122661   4.958   5.928   5.265
 7254SOL    HW222662   5.015   6.073   5.317
 7255SOL     OW22663   3.720   3.868   2.464
 7255SOL    HW122664   3.779   3.916   2.529
 7255SOL    HW222665   3.723   3.915   2.375
 7256SOL     OW22666   4.569   4.867   4.167
 7256SOL    HW122667   4.568   4.768   4.174
 7256SOL    HW222668   4.481   4.899   4.131
 7257SOL     OW22669   5.875   4.148   2.993
 7257SOL    HW122670   5.806   4.094   3.042
 7257SOL    HW222671   5.847   4.244   2.991
 7258SOL     OW22672   3.599   6.976   4.727
 7258SOL    HW122673   3.675   6.958   4.665
 7258SOL    HW222674   3.583   0.051   4.734
 7259SOL     OW22675   2.633   5.700   5.843
 7259SOL    HW122676   2.650   5.778   5.783
 7259SOL    HW222677   2.682   5.712   5.929
 7260SOL     OW22678   3.689   1.984   1.822
 7260SOL    HW122679   3.775   1.936   1.841
 7260SOL    HW222680   3.684   2.067   1.876
 7261SOL     OW22681   1.574   3.965   2.235
 7261SOL    HW122682   1.634   4.021   2.292
 7261SOL    HW222683   1.513   4.024   2.183
 7262SOL     OW22684   6.270   2.151   5.287
 7262SOL    HW122685   6.304   2.058   5.275
 7262SOL    HW222686   6.177   2.148   5.323
 7263SOL     OW22687   4.155   6.252   2.099
 7263SOL    HW122688   4.226   6.231   2.166
 7263SOL    HW222689   4.173   6.201   2.014
 7264SOL     OW22690   1.097   6.500   5.410
 7264SOL    HW122691   1.114   6.556   5.329
 7264SOL    HW222692   1.146   6.414   5.403
 7265SOL     OW22693   4.204   4.574   5.821
 7265SOL    HW122694   4.111   4.561   5.856
 7265SOL    HW222695   4.220   4.672   5.805
 7266SOL     OW22696   5.800   1.505   2.060
 7266SOL    HW122697   5.826   1.575   2.127
 7266SOL    HW222698   5.711   1.467   2.084
 7267SOL     OW22699   0.079   3.715   4.345
 7267SOL    HW122700   0.086   3.757   4.254
 7267SOL    HW222701   0.042   3.781   4.410
 7268SOL     OW22702   3.208   6.959   1.193
 7268SOL    HW122703   3.248   6.872   1.221
 7268SOL    HW222704   3.227   6.975   1.096
 7269SOL     OW22705   1.379   6.699   1.504
 7269SOL    HW122706   1.303   6.642   1.534
 7269SOL    HW222707   1.381   6.701   1.404
 7270SOL     OW22708   3.209   1.598   2.429
 7270SOL    HW122709   3.151   1.588   2.510
 7270SOL    HW222710   3.237   1.693   2.420
 7271SOL     OW22711   6.253   3.784   3.609
 7271SOL    HW122712   6.351   3.779   3.624
 7271SOL    HW222713   6.235   3.786   3.510
 7272SOL     OW22714   5.807   2.333   1.271
 7272SOL    HW122715   5.777   2.248   1.314
 7272SOL    HW222716   5.754   2.410   1.308
 7273SOL     OW22717   5.639   5.412   6.680
 7273SOL    HW122718   5.560   5.402   6.739
 7273SOL    HW222719   5.642   5.505   6.643
 7274SOL     OW22720   6.765   4.787   5.197
 7274SOL    HW122721   6.744   4.843   5.116
 7274SOL    HW222722   6.861   4.801   5.222
 7275SOL     OW22723   5.784   0.236   1.090
 7275SOL    HW122724   5.815   0.313   1.146
 7275SOL    HW222725   5.758   0.160   1.150
 7276SOL     OW22726   3.150   1.916   3.729
 7276SOL    HW122727   3.070   1.856   3.717
 7276SOL    HW222728   3.119   2.010   3.738
 7277SOL     OW22729   5.533   1.551   4.421
 7277SOL    HW122730   5.594   1.472   4.434
 7277SOL    HW222731   5.507   1.588   4.511
 7278SOL     OW22732   2.722   1.612   3.102
 7278SOL    HW122733   2.803   1.666   3.127
 7278SOL    HW222734   2.751   1.533   3.047
 7279SOL     OW22735   4.502   4.088   0.870
 7279SOL    HW122736   4.540   4.002   0.837
 7279SOL    HW222737   4.408   4.097   0.838
 7280SOL     OW22738   6.090   2.172   5.560
 7280SOL    HW122739   6.120   2.251   5.613
 7280SOL    HW222740   6.116   2.088   5.608
 7281SOL     OW22741   4.101   5.077   1.907
 7281SOL    HW122742   4.036   5.072   1.983
 7281SOL    HW222743   4.107   4.987   1.862
 7282SOL     OW22744   5.978   3.756   2.416
 7282SOL    HW122745   6.077   3.767   2.427
 7282SOL    HW222746   5.932   3.806   2.489
 7283SOL     OW22747   4.407   5.112   3.056
 7283SOL    HW122748   4.473   5.109   2.981
 7283SOL    HW222749   4.417   5.031   3.113
 7284SOL     OW22750   0.362   2.262   2.698
 7284SOL    HW122751   0.462   2.258   2.698
 7284SOL    HW222752   0.330   2.313   2.778
 7285SOL     OW22753   4.700   3.216   1.641
 7285SOL    HW122754   4.710   3.143   1.574
 7285SOL    HW222755   4.655   3.180   1.723
 7286SOL     OW22756   0.216   1.685   3.035
 7286SOL    HW122757   0.188   1.731   2.951
 7286SOL    HW222758   0.288   1.618   3.014
 7287SOL     OW22759   2.100   2.349   3.225
 7287SOL    HW122760   2.042   2.425   3.198
 7287SOL    HW222761   2.190   2.358   3.181
 7288SOL     OW22762   2.357   1.910   2.682
 7288SOL    HW122763   2.439   1.887   2.735
 7288SOL    HW222764   2.276   1.903   2.741
 7289SOL     OW22765   6.371   1.549   1.138
 7289SOL    HW122766   6.452   1.497   1.111
 7289SOL    HW222767   6.385   1.587   1.230
 7290SOL     OW22768   3.673   1.136   4.913
 7290SOL    HW122769   3.702   1.079   4.990
 7290SOL    HW222770   3.629   1.219   4.947
 7291SOL     OW22771   3.120   1.383   0.556
 7291SOL    HW122772   3.175   1.367   0.474
 7291SOL    HW222773   3.068   1.301   0.578
 7292SOL     OW22774   2.488   0.439   2.409
 7292SOL    HW122775   2.518   0.366   2.348
 7292SOL    HW222776   2.568   0.493   2.438
 7293SOL     OW22777   0.012   1.576   4.108
 7293SOL    HW122778   0.010   1.676   4.105
 7293SOL    HW222779   0.105   1.543   4.092
 7294SOL     OW22780   3.453   6.328   2.338
 7294SOL    HW122781   3.547   6.354   2.318
 7294SOL    HW222782   3.391   6.400   2.307
 7295SOL     OW22783   6.272   5.151   1.989
 7295SOL    HW122784   6.280   5.070   1.930
 7295SOL    HW222785   6.178   5.161   2.020
 7296SOL     OW22786   4.815   5.053   2.243
 7296SOL    HW122787   4.852   5.023   2.331
 7296SOL    HW222788   4.807   5.153   2.243
 7297SOL     OW22789   4.180   0.040   1.359
 7297SOL    HW122790   4.272   0.007   1.381
 7297SOL    HW222791   4.181   0.083   1.269
 7298SOL     OW22792   4.073   4.989   6.959
 7298SOL    HW122793   4.023   4.938   0.005
 7298SOL    HW222794   4.105   4.926   6.888
 7299SOL     OW22795   1.072   2.681   6.040
 7299SOL    HW122796   1.006   2.670   6.115
 7299SOL    HW222797   1.070   2.599   5.982
 7300SOL     OW22798   0.400   4.577   2.465
 7300SOL    HW122799   0.379   4.664   2.420
 7300SOL    HW222800   0.351   4.572   2.552
 7301SOL     OW22801   4.848   1.928   5.575
 7301SOL    HW122802   4.870   1.855   5.640
 7301SOL    HW222803   4.796   1.891   5.498
 7302SOL     OW22804   5.636   1.961   6.100
 7302SOL    HW122805   5.645   1.939   6.003
 7302SOL    HW222806   5.608   1.879   6.151
 7303SOL     OW22807   2.593   1.778   1.907
 7303SOL    HW122808   2.557   1.849   1.968
 7303SOL    HW222809   2.649   1.714   1.959
 7304SOL     OW22810   2.782   5.908   1.163
 7304SOL    HW122811   2.754   5.901   1.067
 7304SOL    HW222812   2.847   5.983   1.174
 7305SOL     OW22813   6.279   1.152   0.428
 7305SOL    HW122814   6.180   1.152   0.418
 7305SOL    HW222815   6.320   1.221   0.368
 7306SOL     OW22816   0.439   2.623   1.619
 7306SOL    HW122817   0.402   2.704   1.573
 7306SOL    HW222818   0.405   2.541   1.574
 7307SOL     OW22819   2.155   0.533   0.877
 7307SOL    HW122820   2.071   0.479   0.881
 7307SOL    HW222821   2.167   0.568   0.784
 7308SOL     OW22822   4.671   1.009   2.735
 7308SOL    HW122823   4.676   1.107   2.714
 7308SOL    HW222824   4.725   0.958   2.669
 7309SOL     OW22825   2.648   5.080   3.428
 7309SOL    HW122826   2.651   5.040   3.337
 7309SOL    HW222827   2.732   5.056   3.477
 7310SOL     OW22828   2.213   3.070   5.873
 7310SOL    HW122829   2.284   3.001   5.886
 7310SOL    HW222830   2.123   3.029   5.890
 7311SOL     OW22831   0.219   6.009   6.276
 7311SOL    HW122832   0.280   5.937   6.243
 7311SOL    HW222833   0.240   6.095   6.229
 7312SOL     OW22834   6.860   2.101   3.781
 7312SOL    HW122835   6.878   2.075   3.876
 7312SOL    HW222836   6.947   2.107   3.732
 7313SOL     OW22837   2.432   0.802   2.666
 7313SOL    HW122838   2.341   0.761   2.671
 7313SOL    HW222839   2.430   0.881   2.605
 7314SOL     OW22840   0.316   4.588   6.172
 7314SOL    HW122841   0.393   4.528   6.149
 7314SOL    HW222842   0.255   4.596   6.093
 7315SOL     OW22843   1.927   5.025   2.316
 7315SOL    HW122844   1.933   4.951   2.383
 7315SOL    HW222845   1.861   5.001   2.245
 7316SOL     OW22846   3.140   2.379   1.284
 7316SOL    HW122847   3.162   2.440   1.208
 7316SOL    HW222848   3.221   2.327   1.311
 7317SOL     OW22849   3.635   2.129   0.229
 7317SOL    HW122850   3.718   2.145   0.283
 7317SOL    HW222851   3.557   2.119   0.291
 7318SOL     OW22852   5.259   5.958   0.869
 7318SOL    HW122853   5.337   6.019   0.860
 7318SOL    HW222854   5.252   5.927   0.964
 7319SOL     OW22855   5.593   5.635   6.539
 7319SOL    HW122856   5.665   5.702   6.557
 7319SOL    HW222857   5.503   5.679   6.552
 7320SOL     OW22858   0.383   2.113   1.442
 7320SOL    HW122859   0.481   2.100   1.430
 7320SOL    HW222860   0.341   2.029   1.477
 7321SOL     OW22861   1.236   1.033   0.040
 7321SOL    HW122862   1.236   1.043   0.140
 7321SOL    HW222863   1.321   1.072   0.003
 7322SOL     OW22864   1.520   3.030   3.159
 7322SOL    HW122865   1.610   3.049   3.121
 7322SOL    HW222866   1.526   2.958   3.228
 7323SOL     OW22867   1.022   2.999   0.757
 7323SOL    HW122868   1.056   2.914   0.717
 7323SOL    HW222869   0.945   2.980   0.818
 7324SOL     OW22870   5.754   4.474   3.769
 7324SOL    HW122871   5.697   4.406   3.722
 7324SOL    HW222872   5.697   4.552   3.796
 7325SOL     OW22873   4.309   1.061   5.867
 7325SOL    HW122874   4.290   1.066   5.965
 7325SOL    HW222875   4.240   1.113   5.817
 7326SOL     OW22876   3.649   0.760   0.615
 7326SOL    HW122877   3.699   0.688   0.662
 7326SOL    HW222878   3.580   0.799   0.676
 7327SOL     OW22879   1.292   4.290   3.438
 7327SOL    HW122880   1.218   4.262   3.499
 7327SOL    HW222881   1.370   4.228   3.449
 7328SOL     OW22882   4.614   4.941   4.699
 7328SOL    HW122883   4.588   5.031   4.732
 7328SOL    HW222884   4.589   4.933   4.602
 7329SOL     OW22885   3.249   3.621   1.420
 7329SOL    HW122886   3.151   3.606   1.433
 7329SOL    HW222887   3.276   3.587   1.329
 7330SOL     OW22888   2.768   3.194   1.792
 7330SOL    HW122889   2.796   3.108   1.749
 7330SOL    HW222890   2.714   3.248   1.727
 7331SOL     OW22891   5.601   2.930   2.221
 7331SOL    HW122892   5.583   2.849   2.277
 7331SOL    HW222893   5.589   3.012   2.277
 7332SOL     OW22894   3.279   5.991   6.038
 7332SOL    HW122895   3.373   6.006   6.068
 7332SOL    HW222896   3.279   5.926   5.962
 7333SOL     OW22897   0.960   0.901   0.793
 7333SOL    HW122898   0.901   0.877   0.869
 7333SOL    HW222899   0.908   0.897   0.707
 7334SOL     OW22900   2.846   6.333   4.317
 7334SOL    HW122901   2.914   6.407   4.319
 7334SOL    HW222902   2.782   6.345   4.393
 7335SOL     OW22903   6.873   3.239   1.868
 7335SOL    HW122904   6.841   3.183   1.791
 7335SOL    HW222905   6.914   3.179   1.937
 7336SOL     OW22906   2.106   6.567   2.133
 7336SOL    HW122907   2.033   6.608   2.078
 7336SOL    HW222908   2.194   6.579   2.087
 7337SOL     OW22909   2.510   1.805   3.374
 7337SOL    HW122910   2.513   1.705   3.367
 7337SOL    HW222911   2.499   1.832   3.470
 7338SOL     OW22912   5.290   3.380   1.403
 7338SOL    HW122913   5.218   3.361   1.337
 7338SOL    HW222914   5.264   3.459   1.458
 7339SOL     OW22915   6.942   5.756   4.650
 7339SOL    HW122916   7.013   5.694   4.684
 7339SOL    HW222917   6.984   5.830   4.599
 7340SOL     OW22918   2.539   6.975   0.782
 7340SOL    HW122919   2.480   6.898   0.757
 7340SOL    HW222920   2.627   6.940   0.816
 7341SOL     OW22921   6.412   5.579   4.579
 7341SOL    HW122922   6.422   5.557   4.482
 7341SOL    HW222923   6.319   5.612   4.596
 7342SOL     OW22924   0.997   5.202   1.229
 7342SOL    HW122925   0.928   5.225   1.160
 7342SOL    HW222926   1.081   5.172   1.183
 7343SOL     OW22927   5.185   2.959   2.766
 7343SOL    HW122928   5.131   2.888   2.720
 7343SOL    HW222929   5.166   2.956   2.864
 7344SOL     OW22930   2.212   1.235   0.158
 7344SOL    HW122931   2.252   1.145   0.179
 7344SOL    HW222932   2.282   1.306   0.170
 7345SOL     OW22933   3.637   5.399   0.308
 7345SOL    HW122934   3.586   5.454   0.375
 7345SOL    HW222935   3.574   5.337   0.262
 7346SOL     OW22936   3.910   4.629   1.719
 7346SOL    HW122937   4.003   4.593   1.729
 7346SOL    HW222938   3.900   4.712   1.773
 7347SOL     OW22939   6.092   3.057   2.745
 7347SOL    HW122940   6.173   2.998   2.738
 7347SOL    HW222941   6.089   3.118   2.666
 7348SOL     OW22942   0.775   2.126   4.970
 7348SOL    HW122943   0.694   2.096   4.919
 7348SOL    HW222944   0.777   2.226   4.972
 7349SOL     OW22945   3.848   1.567   0.355
 7349SOL    HW122946   3.859   1.601   0.261
 7349SOL    HW222947   3.751   1.565   0.378
 7350SOL     OW22948   2.195   1.086   2.962
 7350SOL    HW122949   2.151   1.129   3.040
 7350SOL    HW222950   2.221   0.992   2.985
 7351SOL     OW22951   4.066   4.388   6.756
 7351SOL    HW122952   4.099   4.304   6.714
 7351SOL    HW222953   4.141   4.432   6.805
 7352SOL     OW22954   6.873   1.106   3.304
 7352SOL    HW122955   6.796   1.087   3.242
 7352SOL    HW222956   6.838   1.152   3.386
 7353SOL     OW22957   4.964   2.542   4.947
 7353SOL    HW122958   4.937   2.452   4.913
 7353SOL    HW222959   4.969   2.607   4.871
 7354SOL     OW22960   6.199   3.973   5.421
 7354SOL    HW122961   6.291   3.953   5.387
 7354SOL    HW222962   6.205   4.007   5.515
 7355SOL     OW22963   1.207   4.567   2.070
 7355SOL    HW122964   1.216   4.524   1.980
 7355SOL    HW222965   1.116   4.548   2.107
 7356SOL     OW22966   5.963   1.799   5.612
 7356SOL    HW122967   5.943   1.717   5.665
 7356SOL    HW222968   5.877   1.842   5.582
 7357SOL     OW22969   6.418   1.572   0.555
 7357SOL    HW122970   6.335   1.576   0.498
 7357SOL    HW222971   6.412   1.493   0.615
 7358SOL     OW22972   3.020   0.854   3.932
 7358SOL    HW122973   3.086   0.781   3.913
 7358SOL    HW222974   3.044   0.935   3.879
 7359SOL     OW22975   3.573   2.965   3.043
 7359SOL    HW122976   3.607   3.013   2.962
 7359SOL    HW222977   3.475   2.946   3.031
 7360SOL     OW22978   0.155   2.595   6.029
 7360SOL    HW122979   0.226   2.655   6.067
 7360SOL    HW222980   0.195   2.536   5.960
 7361SOL     OW22981   5.450   6.807   2.448
 7361SOL    HW122982   5.401   6.839   2.529
 7361SOL    HW222983   5.499   6.723   2.470
 7362SOL     OW22984   1.670   6.494   5.812
 7362SOL    HW122985   1.747   6.463   5.757
 7362SOL    HW222986   1.646   6.588   5.788
 7363SOL     OW22987   5.072   2.553   6.502
 7363SOL    HW122988   5.054   2.506   6.589
 7363SOL    HW222989   5.151   2.511   6.457
 7364SOL     OW22990   5.605   0.966   1.680
 7364SOL    HW122991   5.622   1.064   1.694
 7364SOL    HW222992   5.596   0.921   1.769
 7365SOL     OW22993   3.108   0.891   2.170
 7365SOL    HW122994   3.128   0.822   2.101
 7365SOL    HW222995   3.162   0.973   2.151
 7366SOL     OW22996   0.916   5.604   0.556
 7366SOL    HW122997   0.901   5.515   0.512
 7366SOL    HW222998   1.002   5.602   0.606
 7367SOL     OW22999   4.793   3.525   0.075
 7367SOL    HW123000   4.869   3.576   0.114
 7367SOL    HW223001   4.797   3.529   6.999
 7368SOL     OW23002   3.362   3.816   3.783
 7368SOL    HW123003   3.375   3.822   3.882
 7368SOL    HW223004   3.405   3.894   3.738
 7369SOL     OW23005   4.302   2.375   6.796
 7369SOL    HW123006   4.214   2.418   6.776
 7369SOL    HW223007   4.357   2.437   6.853
 7370SOL     OW23008   1.999   6.203   1.433
 7370SOL    HW123009   1.994   6.188   1.532
 7370SOL    HW223010   1.948   6.131   1.386
 7371SOL     OW23011   2.633   5.175   4.674
 7371SOL    HW123012   2.618   5.126   4.760
 7371SOL    HW223013   2.646   5.272   4.693
 7372SOL     OW23014   3.332   6.980   6.114
 7372SOL    HW123015   3.285   6.974   6.202
 7372SOL    HW223016   3.415   6.925   6.117
 7373SOL     OW23017   3.871   0.674   1.317
 7373SOL    HW123018   3.806   0.675   1.393
 7373SOL    HW223019   3.889   0.580   1.290
 7374SOL     OW23020   1.657   3.215   6.159
 7374SOL    HW123021   1.574   3.234   6.212
 7374SOL    HW223022   1.714   3.296   6.155
 7375SOL     OW23023   0.702   0.063   2.969
 7375SOL    HW123024   0.767   0.010   3.022
 7375SOL    HW223025   0.744   0.151   2.944
 7376SOL     OW23026   2.954   4.029   5.791
 7376SOL    HW123027   2.929   3.951   5.734
 7376SOL    HW223028   2.897   4.108   5.767
 7377SOL     OW23029   4.694   4.652   1.142
 7377SOL    HW123030   4.756   4.663   1.220
 7377SOL    HW223031   4.605   4.690   1.164
 7378SOL     OW23032   6.326   1.716   5.315
 7378SOL    HW123033   6.329   1.623   5.279
 7378SOL    HW223034   6.382   1.776   5.257
 7379SOL     OW23035   3.432   1.507   1.684
 7379SOL    HW123036   3.355   1.571   1.680
 7379SOL    HW223037   3.516   1.557   1.706
 7380SOL     OW23038   6.806   3.008   5.324
 7380SOL    HW123039   6.836   2.928   5.273
 7380SOL    HW223040   6.745   2.980   5.398
 7381SOL     OW23041   5.671   2.323   0.216
 7381SOL    HW123042   5.660   2.387   0.140
 7381SOL    HW223043   5.714   2.239   0.183
 7382SOL     OW23044   0.436   6.343   3.587
 7382SOL    HW123045   0.427   6.297   3.499
 7382SOL    HW223046   0.439   6.275   3.660
 7383SOL     OW23047   6.911   6.159   3.333
 7383SOL    HW123048   6.956   6.142   3.246
 7383SOL    HW223049   6.896   6.258   3.344
 7384SOL     OW23050   5.998   1.360   2.408
 7384SOL    HW123051   5.948   1.295   2.465
 7384SOL    HW223052   6.073   1.399   2.461
 7385SOL     OW23053   4.907   6.890   1.892
 7385SOL    HW123054   4.838   6.914   1.823
 7385SOL    HW223055   4.903   6.792   1.910
 7386SOL     OW23056   0.089   2.138   5.938
 7386SOL    HW123057   7.014   2.137   5.956
 7386SOL    HW223058   0.107   2.189   5.854
 7387SOL     OW23059   3.990   5.800   3.449
 7387SOL    HW123060   3.903   5.849   3.444
 7387SOL    HW223061   4.014   5.784   3.545
 7388SOL     OW23062   6.539   4.922   4.144
 7388SOL    HW123063   6.503   4.890   4.232
 7388SOL    HW223064   6.620   4.978   4.161
 7389SOL     OW23065   1.282   4.061   5.879
 7389SOL    HW123066   1.352   4.131   5.894
 7389SOL    HW223067   1.322   3.970   5.891
 7390SOL     OW23068   2.171   6.807   5.476
 7390SOL    HW123069   2.116   6.760   5.407
 7390SOL    HW223070   2.140   6.783   5.567
 7391SOL     OW23071   6.780   3.185   0.291
 7391SOL    HW123072   6.865   3.214   0.249
 7391SOL    HW223073   6.799   3.134   0.375
 7392SOL     OW23074   2.634   4.584   3.182
 7392SOL    HW123075   2.681   4.517   3.240
 7392SOL    HW223076   2.586   4.650   3.240
 7393SOL     OW23077   0.534   3.771   1.605
 7393SOL    HW123078   0.573   3.776   1.698
 7393SOL    HW223079   0.516   3.864   1.573
 7394SOL     OW23080   2.839   3.458   6.380
 7394SOL    HW123081   2.886   3.540   6.349
 7394SOL    HW223082   2.774   3.482   6.453
 7395SOL     OW23083   1.568   6.214   0.356
 7395SOL    HW123084   1.523   6.128   0.330
 7395SOL    HW223085   1.654   6.193   0.403
 7396SOL     OW23086   0.908   0.114   0.310
 7396SOL    HW123087   0.809   0.118   0.324
 7396SOL    HW223088   0.955   0.159   0.386
 7397SOL     OW23089   6.445   5.528   4.873
 7397SOL    HW123090   6.375   5.544   4.804
 7397SOL    HW223091   6.507   5.456   4.841
 7398SOL     OW23092   4.222   5.434   3.332
 7398SOL    HW123093   4.289   5.364   3.308
 7398SOL    HW223094   4.138   5.418   3.280
 7399SOL     OW23095   4.766   4.062   4.961
 7399SOL    HW123096   4.721   4.145   4.929
 7399SOL    HW223097   4.831   4.031   4.892
 7400SOL     OW23098   1.796   5.137   6.565
 7400SOL    HW123099   1.733   5.200   6.610
 7400SOL    HW223100   1.890   5.156   6.595
 7401SOL     OW23101   6.345   1.853   4.438
 7401SOL    HW123102   6.394   1.841   4.351
 7401SOL    HW223103   6.409   1.883   4.508
 7402SOL     OW23104   2.408   0.229   3.536
 7402SOL    HW123105   2.435   0.136   3.561
 7402SOL    HW223106   2.313   0.244   3.562
 7403SOL     OW23107   1.932   3.273   1.425
 7403SOL    HW123108   2.007   3.256   1.360
 7403SOL    HW223109   1.846   3.283   1.374
 7404SOL     OW23110   1.355   1.160   2.395
 7404SOL    HW123111   1.378   1.220   2.472
 7404SOL    HW223112   1.414   1.079   2.397
 7405SOL     OW23113   2.740   4.744   6.158
 7405SOL    HW123114   2.727   4.821   6.220
 7405SOL    HW223115   2.690   4.665   6.193
 7406SOL     OW23116   0.031   5.227   1.642
 7406SOL    HW123117   0.078   5.214   1.554
 7406SOL    HW223118   6.957   5.243   1.625
 7407SOL     OW23119   1.962   0.134   6.388
 7407SOL    HW123120   2.002   0.215   6.431
 7407SOL    HW223121   1.941   0.066   6.458
 7408SOL     OW23122   0.906   3.833   5.591
 7408SOL    HW123123   0.863   3.875   5.511
 7408SOL    HW223124   0.998   3.870   5.603
 7409SOL     OW23125   3.213   5.533   5.754
 7409SOL    HW123126   3.285   5.507   5.690
 7409SOL    HW223127   3.139   5.579   5.705
 7410SOL     OW23128   6.121   5.068   0.914
 7410SOL    HW123129   6.201   5.011   0.932
 7410SOL    HW223130   6.042   5.010   0.894
 7411SOL     OW23131   4.778   5.743   5.640
 7411SOL    HW123132   4.769   5.648   5.612
 7411SOL    HW223133   4.867   5.778   5.612
 7412SOL     OW23134   0.933   2.171   7.004
 7412SOL    HW123135   0.936   2.121   0.067
 7412SOL    HW223136   0.848   2.223   6.999
 7413SOL     OW23137   6.576   3.205   4.740
 7413SOL    HW123138   6.658   3.232   4.791
 7413SOL    HW223139   6.570   3.105   4.739
 7414SOL     OW23140   6.598   5.735   3.028
 7414SOL    HW123141   6.647   5.651   3.052
 7414SOL    HW223142   6.558   5.775   3.110
 7415SOL     OW23143   2.014   2.452   2.878
 7415SOL    HW123144   2.113   2.440   2.875
 7415SOL    HW223145   1.979   2.461   2.784
 7416SOL     OW23146   4.659   6.546   4.079
 7416SOL    HW123147   4.743   6.601   4.078
 7416SOL    HW223148   4.584   6.602   4.114
 7417SOL     OW23149   0.620   6.129   0.610
 7417SOL    HW123150   0.608   6.052   0.548
 7417SOL    HW223151   0.651   6.209   0.558
 7418SOL     OW23152   1.732   3.493   0.492
 7418SOL    HW123153   1.704   3.410   0.540
 7418SOL    HW223154   1.720   3.481   0.393
 7419SOL     OW23155   6.397   1.184   4.773
 7419SOL    HW123156   6.448   1.231   4.701
 7419SOL    HW223157   6.382   1.089   4.746
 7420SOL     OW23158   6.973   5.320   2.073
 7420SOL    HW123159   6.948   5.228   2.103
 7420SOL    HW223160   0.043   5.340   2.102
 7421SOL     OW23161   3.978   2.933   1.144
 7421SOL    HW123162   3.904   2.895   1.199
 7421SOL    HW223163   4.038   2.859   1.113
 7422SOL     OW23164   0.868   2.928   1.006
 7422SOL    HW123165   0.843   2.841   1.047
 7422SOL    HW223166   0.906   2.988   1.077
 7423SOL     OW23167   1.968   5.976   6.945
 7423SOL    HW123168   2.053   6.005   6.903
 7423SOL    HW223169   1.949   6.033   0.002
 7424SOL     OW23170   6.163   1.533   4.172
 7424SOL    HW123171   6.205   1.476   4.102
 7424SOL    HW223172   6.064   1.538   4.156
 7425SOL     OW23173   3.998   5.994   5.759
 7425SOL    HW123174   3.968   5.899   5.751
 7425SOL    HW223175   4.094   6.002   5.731
 7426SOL     OW23176   0.961   0.986   6.729
 7426SOL    HW123177   0.911   1.069   6.755
 7426SOL    HW223178   0.935   0.959   6.637
 7427SOL     OW23179   4.458   5.452   4.050
 7427SOL    HW123180   4.449   5.431   4.147
 7427SOL    HW223181   4.494   5.371   4.002
 7428SOL     OW23182   3.317   2.174   6.168
 7428SOL    HW123183   3.371   2.180   6.085
 7428SOL    HW223184   3.299   2.265   6.203
 7429SOL     OW23185   6.359   0.010   3.380
 7429SOL    HW123186   6.279   6.989   3.420
 7429SOL    HW223187   6.334   0.050   3.291
 7430SOL     OW23188   6.882   4.015   4.963
 7430SOL    HW123189   6.953   3.956   4.925
 7430SOL    HW223190   6.857   3.983   5.054
 7431SOL     OW23191   0.630   4.442   2.068
 7431SOL    HW123192   0.617   4.378   2.144
 7431SOL    HW223193   0.681   4.397   1.995
 7432SOL     OW23194   0.945   6.316   5.180
 7432SOL    HW123195   0.942   6.401   5.127
 7432SOL    HW223196   1.039   6.298   5.208
 7433SOL     OW23197   6.030   5.841   0.979
 7433SOL    HW123198   6.092   5.765   0.959
 7433SOL    HW223199   6.082   5.916   1.020
 7434SOL     OW23200   4.551   1.107   6.561
 7434SOL    HW123201   4.584   1.082   6.470
 7434SOL    HW223202   4.621   1.161   6.608
 7435SOL     OW23203   2.185   6.328   0.349
 7435SOL    HW123204   2.129   6.410   0.349
 7435SOL    HW223205   2.154   6.265   0.278
 7436SOL     OW23206   5.230   2.711   0.398
 7436SOL    HW123207   5.211   2.660   0.314
 7436SOL    HW223208   5.299   2.661   0.452
 7437SOL     OW23209   0.555   6.023   5.638
 7437SOL    HW123210   0.602   5.935   5.634
 7437SOL    HW223211   0.623   6.096   5.652
 7438SOL     OW23212   6.102   4.293   2.096
 7438SOL    HW123213   6.189   4.269   2.139
 7438SOL    HW223214   6.061   4.212   2.055
 7439SOL     OW23215   1.469   6.431   3.563
 7439SOL    HW123216   1.440   6.522   3.534
 7439SOL    HW223217   1.394   6.366   3.547
 7440SOL     OW23218   0.999   2.063   4.164
 7440SOL    HW123219   1.036   2.147   4.203
 7440SOL    HW223220   1.045   1.984   4.206
 7441SOL     OW23221   5.139   6.962   4.046
 7441SOL    HW123222   5.204   6.982   4.120
 7441SOL    HW223223   5.138   0.015   3.981
 7442SOL     OW23224   1.769   1.406   6.789
 7442SOL    HW123225   1.841   1.393   6.857
 7442SOL    HW223226   1.680   1.412   6.834
 7443SOL     OW23227   0.177   0.769   0.767
 7443SOL    HW123228   0.081   0.761   0.740
 7443SOL    HW223229   0.234   0.722   0.701
 7444SOL     OW23230   0.080   2.617   6.277
 7444SOL    HW123231   0.097   2.588   6.183
 7444SOL    HW223232   0.083   2.717   6.282
 7445SOL     OW23233   5.314   2.598   1.888
 7445SOL    HW123234   5.264   2.543   1.822
 7445SOL    HW223235   5.259   2.678   1.913
 7446SOL     OW23236   6.923   2.936   1.365
 7446SOL    HW123237   6.911   2.851   1.415
 7446SOL    HW223238   6.886   2.926   1.273
 7447SOL     OW23239   0.901   4.357   5.837
 7447SOL    HW123240   0.814   4.337   5.791
 7447SOL    HW223241   0.964   4.281   5.823
 7448SOL     OW23242   6.912   6.630   6.074
 7448SOL    HW123243   7.011   6.645   6.075
 7448SOL    HW223244   6.882   6.616   5.979
 7449SOL     OW23245   4.893   2.318   2.695
 7449SOL    HW123246   4.972   2.270   2.735
 7449SOL    HW223247   4.926   2.398   2.644
 7450SOL     OW23248   3.444   0.773   2.722
 7450SOL    HW123249   3.396   0.804   2.640
 7450SOL    HW223250   3.406   0.685   2.751
 7451SOL     OW23251   1.800   0.830   3.828
 7451SOL    HW123252   1.817   0.922   3.863
 7451SOL    HW223253   1.763   0.773   3.900
 7452SOL     OW23254   1.802   6.835   5.102
 7452SOL    HW123255   1.788   6.819   5.004
 7452SOL    HW223256   1.900   6.828   5.123
 7453SOL     OW23257   6.270   6.210   4.933
 7453SOL    HW123258   6.327   6.265   4.873
 7453SOL    HW223259   6.327   6.143   4.981
 7454SOL     OW23260   0.349   3.789   0.950
 7454SOL    HW123261   0.319   3.808   1.044
 7454SOL    HW223262   0.346   3.690   0.934
 7455SOL     OW23263   4.839   2.197   0.058
 7455SOL    HW123264   4.891   2.219   0.141
 7455SOL    HW223265   4.749   2.161   0.085
 7456SOL     OW23266   2.048   3.257   4.949
 7456SOL    HW123267   2.111   3.243   5.025
 7456SOL    HW223268   2.051   3.353   4.920
 7457SOL     OW23269   5.737   1.062   5.840
 7457SOL    HW123270   5.706   1.066   5.935
 7457SOL    HW223271   5.770   1.153   5.813
 7458SOL     OW23272   2.644   1.193   0.349
 7458SOL    HW123273   2.677   1.287   0.341
 7458SOL    HW223274   2.628   1.156   0.257
 7459SOL     OW23275   4.491   0.754   4.450
 7459SOL    HW123276   4.588   0.780   4.446
 7459SOL    HW223277   4.440   0.803   4.379
 7460SOL     OW23278   0.471   4.623   6.987
 7460SOL    HW123279   0.485   4.570   0.047
 7460SOL    HW223280   0.409   4.699   7.007
 7461SOL     OW23281   4.779   0.974   4.121
 7461SOL    HW123282   4.857   0.928   4.080
 7461SOL    HW223283   4.755   1.054   4.066
 7462SOL     OW23284   2.284   1.776   2.287
 7462SOL    HW123285   2.374   1.733   2.276
 7462SOL    HW223286   2.239   1.782   2.198
 7463SOL     OW23287   3.875   3.617   2.833
 7463SOL    HW123288   3.856   3.536   2.890
 7463SOL    HW223289   3.973   3.626   2.818
 7464SOL     OW23290   5.581   6.141   0.640
 7464SOL    HW123291   5.678   6.144   0.666
 7464SOL    HW223292   5.527   6.116   0.720
 7465SOL     OW23293   3.012   0.481   1.585
 7465SOL    HW123294   3.091   0.466   1.525
 7465SOL    HW223295   2.930   0.496   1.530
 7466SOL     OW23296   0.928   0.391   6.894
 7466SOL    HW123297   0.866   0.454   6.848
 7466SOL    HW223298   0.973   0.333   6.826
 7467SOL     OW23299   6.840   1.495   1.193
 7467SOL    HW123300   6.817   1.483   1.289
 7467SOL    HW223301   6.891   1.416   1.160
 7468SOL     OW23302   6.458   3.405   3.090
 7468SOL    HW123303   6.374   3.354   3.072
 7468SOL    HW223304   6.468   3.419   3.189
 7469SOL     OW23305   0.380   1.234   2.190
 7469SOL    HW123306   0.479   1.230   2.206
 7469SOL    HW223307   0.357   1.319   2.143
 7470SOL     OW23308   6.751   2.479   2.202
 7470SOL    HW123309   6.703   2.462   2.288
 7470SOL    HW223310   6.817   2.553   2.215
 7471SOL     OW23311   6.261   6.129   5.942
 7471SOL    HW123312   6.283   6.154   5.848
 7471SOL    HW223313   6.184   6.184   5.974
 7472SOL     OW23314   3.303   6.569   2.950
 7472SOL    HW123315   3.317   6.470   2.941
 7472SOL    HW223316   3.388   6.616   2.926
 7473SOL     OW23317   6.752   3.356   4.897
 7473SOL    HW123318   6.712   3.385   4.983
 7473SOL    HW223319   6.805   3.272   4.911
 7474SOL     OW23320   3.876   1.222   3.126
 7474SOL    HW123321   3.927   1.292   3.176
 7474SOL    HW223322   3.898   1.132   3.161
 7475SOL     OW23323   4.335   1.722   0.255
 7475SOL    HW123324   4.411   1.773   0.293
 7475SOL    HW223325   4.294   1.664   0.326
 7476SOL     OW23326   4.046   6.738   4.832
 7476SOL    HW123327   4.122   6.785   4.876
 7476SOL    HW223328   3.986   6.698   4.901
 7477SOL     OW23329   4.604   2.181   4.095
 7477SOL    HW123330   4.525   2.120   4.105
 7477SOL    HW223331   4.687   2.133   4.125
 7478SOL     OW23332   1.640   5.233   1.109
 7478SOL    HW123333   1.547   5.263   1.131
 7478SOL    HW223334   1.636   5.157   1.044
 7479SOL     OW23335   4.901   0.594   6.655
 7479SOL    HW123336   4.964   0.559   6.585
 7479SOL    HW223337   4.824   0.531   6.664
 7480SOL     OW23338   6.912   4.952   1.010
 7480SOL    HW123339   6.889   4.903   1.094
 7480SOL    HW223340   6.940   4.886   0.940
 7481SOL     OW23341   5.973   5.329   0.773
 7481SOL    HW123342   6.059   5.300   0.730
 7481SOL    HW223343   5.975   5.307   0.870
 7482SOL     OW23344   5.167   0.800   4.339
 7482SOL    HW123345   5.095   0.867   4.358
 7482SOL    HW223346   5.251   0.848   4.312
 7483SOL     OW23347   3.354   0.845   6.186
 7483SOL    HW123348   3.264   0.880   6.160
 7483SOL    HW223349   3.425   0.903   6.146
 7484SOL     OW23350   1.997   0.024   2.304
 7484SOL    HW123351   2.084   0.044   2.259
 7484SOL    HW223352   1.928   0.090   2.273
 7485SOL     OW23353   1.924   6.711   6.901
 7485SOL    HW123354   1.924   6.702   6.801
 7485SOL    HW223355   1.831   6.727   6.933
 7486SOL     OW23356   2.361   6.995   5.496
 7486SOL    HW123357   2.439   6.973   5.438
 7486SOL    HW223358   2.290   6.925   5.484
 7487SOL     OW23359   4.055   5.792   3.725
 7487SOL    HW123360   3.956   5.783   3.742
 7487SOL    HW223361   4.104   5.775   3.811
 7488SOL     OW23362   3.578   1.017   5.894
 7488SOL    HW123363   3.498   1.010   5.835
 7488SOL    HW223364   3.555   1.067   5.977
 7489SOL     OW23365   5.432   3.620   3.075
 7489SOL    HW123366   5.522   3.578   3.068
 7489SOL    HW223367   5.433   3.692   3.145
 7490SOL     OW23368   5.919   1.378   1.830
 7490SOL    HW123369   5.900   1.410   1.922
 7490SOL    HW223370   5.833   1.367   1.780
 7491SOL     OW23371   6.647   5.564   6.351
 7491SOL    HW123372   6.587   5.627   6.401
 7491SOL    HW223373   6.741   5.598   6.353
 7492SOL     OW23374   1.714   2.609   4.446
 7492SOL    HW123375   1.655   2.631   4.524
 7492SOL    HW223376   1.703   2.512   4.423
 7493SOL     OW23377   5.001   3.704   0.045
 7493SOL    HW123378   5.017   3.766   6.992
 7493SOL    HW223379   4.994   3.756   0.130
 7494SOL     OW23380   5.700   1.311   1.694
 7494SOL    HW123381   5.603   1.329   1.679
 7494SOL    HW223382   5.734   1.250   1.623
 7495SOL     OW23383   0.850   1.877   1.806
 7495SOL    HW123384   0.937   1.903   1.848
 7495SOL    HW223385   0.775   1.912   1.862
 7496SOL     OW23386   0.924   4.820   5.976
 7496SOL    HW123387   0.833   4.797   5.941
 7496SOL    HW223388   0.980   4.738   5.980
 7497SOL     OW23389   1.886   4.531   1.729
 7497SOL    HW123390   1.969   4.577   1.697
 7497SOL    HW223391   1.811   4.597   1.733
 7498SOL     OW23392   3.801   1.835   4.316
 7498SOL    HW123393   3.826   1.858   4.222
 7498SOL    HW223394   3.880   1.793   4.361
 7499SOL     OW23395   5.092   5.803   4.189
 7499SOL    HW123396   5.000   5.810   4.229
 7499SOL    HW223397   5.114   5.706   4.173
 7500SOL     OW23398   5.102   4.345   1.318
 7500SOL    HW123399   5.013   4.355   1.364
 7500SOL    HW223400   5.174   4.380   1.378
 7501SOL     OW23401   0.213   4.051   4.031
 7501SOL    HW123402   0.310   4.034   4.043
 7501SOL    HW223403   0.162   3.966   4.046
 7502SOL     OW23404   1.782   1.551   4.813
 7502SOL    HW123405   1.824   1.490   4.880
 7502SOL    HW223406   1.838   1.634   4.805
 7503SOL     OW23407   2.664   1.838   6.518
 7503SOL    HW123408   2.593   1.768   6.512
 7503SOL    HW223409   2.633   1.912   6.578
 7504SOL     OW23410   4.220   6.517   3.291
 7504SOL    HW123411   4.278   6.591   3.325
 7504SOL    HW223412   4.217   6.443   3.358
 7505SOL     OW23413   1.658   1.884   4.913
 7505SOL    HW123414   1.591   1.811   4.929
 7505SOL    HW223415   1.748   1.842   4.898
 7506SOL     OW23416   3.223   1.654   3.228
 7506SOL    HW123417   3.207   1.718   3.153
 7506SOL    HW223418   3.306   1.682   3.277
 7507SOL     OW23419   1.117   5.919   6.208
 7507SOL    HW123420   1.022   5.912   6.238
 7507SOL    HW223421   1.173   5.855   6.260
 7508SOL     OW23422   5.289   0.204   3.487
 7508SOL    HW123423   5.286   0.143   3.565
 7508SOL    HW223424   5.328   0.292   3.515
 7509SOL     OW23425   4.529   4.010   6.033
 7509SOL    HW123426   4.535   3.910   6.036
 7509SOL    HW223427   4.462   4.037   5.964
 7510SOL     OW23428   3.268   4.146   4.640
 7510SOL    HW123429   3.246   4.239   4.671
 7510SOL    HW223430   3.207   4.080   4.685
 7511SOL     OW23431   1.090   0.684   2.346
 7511SOL    HW123432   1.134   0.772   2.359
 7511SOL    HW223433   1.058   0.676   2.251
 7512SOL     OW23434   1.794   2.471   1.673
 7512SOL    HW123435   1.732   2.402   1.711
 7512SOL    HW223436   1.742   2.538   1.622
 7513SOL     OW23437   1.084   2.599   6.943
 7513SOL    HW123438   1.007   2.601   6.879
 7513SOL    HW223439   1.058   2.647   0.003
 7514SOL     OW23440   2.813   5.698   2.908
 7514SOL    HW123441   2.807   5.624   2.974
 7514SOL    HW223442   2.738   5.690   2.842
 7515SOL     OW23443   5.930   5.906   2.332
 7515SOL    HW123444   5.933   5.845   2.253
 7515SOL    HW223445   5.951   5.999   2.303
 7516SOL     OW23446   0.266   1.076   3.020
 7516SOL    HW123447   0.240   1.173   3.023
 7516SOL    HW223448   0.210   1.025   3.086
 7517SOL     OW23449   0.590   4.189   1.539
 7517SOL    HW123450   0.535   4.162   1.618
 7517SOL    HW223451   0.622   4.283   1.552
 7518SOL     OW23452   5.004   5.390   3.575
 7518SOL    HW123453   4.977   5.313   3.516
 7518SOL    HW223454   5.092   5.370   3.618
 7519SOL     OW23455   2.579   6.139   3.992
 7519SOL    HW123456   2.590   6.191   3.908
 7519SOL    HW223457   2.562   6.043   3.971
 7520SOL     OW23458   1.780   6.141   4.024
 7520SOL    HW123459   1.699   6.126   3.968
 7520SOL    HW223460   1.832   6.056   4.031
 7521SOL     OW23461   4.649   4.090   5.590
 7521SOL    HW123462   4.716   4.126   5.655
 7521SOL    HW223463   4.640   4.153   5.513
 7522SOL     OW23464   1.785   0.873   1.352
 7522SOL    HW123465   1.727   0.868   1.433
 7522SOL    HW223466   1.786   0.967   1.317
 7523SOL     OW23467   5.796   0.043   6.625
 7523SOL    HW123468   5.773   6.987   6.569
 7523SOL    HW223469   5.804   0.015   6.721
 7524SOL     OW23470   0.241   1.530   4.973
 7524SOL    HW123471   0.155   1.544   5.022
 7524SOL    HW223472   0.245   1.591   4.894
 7525SOL     OW23473   1.469   0.259   0.837
 7525SOL    HW123474   1.386   0.232   0.788
 7525SOL    HW223475   1.515   0.333   0.788
 7526SOL     OW23476   3.709   2.986   4.882
 7526SOL    HW123477   3.675   2.895   4.907
 7526SOL    HW223478   3.725   3.039   4.965
 7527SOL     OW23479   5.179   5.114   3.352
 7527SOL    HW123480   5.105   5.182   3.348
 7527SOL    HW223481   5.159   5.047   3.423
 7528SOL     OW23482   6.567   3.612   6.653
 7528SOL    HW123483   6.656   3.568   6.658
 7528SOL    HW223484   6.513   3.588   6.733
 7529SOL     OW23485   3.220   1.222   5.804
 7529SOL    HW123486   3.144   1.191   5.747
 7529SOL    HW223487   3.193   1.304   5.855
 7530SOL     OW23488   0.729   3.813   2.896
 7530SOL    HW123489   0.827   3.826   2.905
 7530SOL    HW223490   0.684   3.902   2.889
 7531SOL     OW23491   3.966   2.072   3.645
 7531SOL    HW123492   3.867   2.065   3.631
 7531SOL    HW223493   3.995   2.007   3.714
 7532SOL     OW23494   5.298   5.346   2.592
 7532SOL    HW123495   5.252   5.274   2.540
 7532SOL    HW223496   5.281   5.333   2.689
 7533SOL     OW23497   3.812   0.682   4.144
 7533SOL    HW123498   3.768   0.771   4.129
 7533SOL    HW223499   3.863   0.685   4.230
 7534SOL     OW23500   5.136   6.457   4.898
 7534SOL    HW123501   5.167   6.539   4.851
 7534SOL    HW223502   5.113   6.479   4.993
 7535SOL     OW23503   3.111   3.000   6.211
 7535SOL    HW123504   3.079   3.093   6.221
 7535SOL    HW223505   3.207   3.001   6.181
 7536SOL     OW23506   4.120   6.315   3.834
 7536SOL    HW123507   4.215   6.337   3.816
 7536SOL    HW223508   4.065   6.398   3.833
 7537SOL     OW23509   1.965   4.896   5.768
 7537SOL    HW123510   1.885   4.941   5.729
 7537SOL    HW223511   2.043   4.908   5.706
 7538SOL     OW23512   2.988   3.490   2.572
 7538SOL    HW123513   2.938   3.521   2.653
 7538SOL    HW223514   2.992   3.390   2.570
 7539SOL     OW23515   2.089   2.628   4.771
 7539SOL    HW123516   2.050   2.536   4.774
 7539SOL    HW223517   2.021   2.692   4.734
 7540SOL     OW23518   1.954   1.283   6.971
 7540SOL    HW123519   1.865   1.247   6.998
 7540SOL    HW223520   1.991   1.339   0.022
 7541SOL     OW23521   6.661   2.265   5.845
 7541SOL    HW123522   6.579   2.314   5.874
 7541SOL    HW223523   6.635   2.176   5.807
 7542SOL     OW23524   1.535   6.615   6.580
 7542SOL    HW123525   1.484   6.559   6.514
 7542SOL    HW223526   1.633   6.602   6.566
 7543SOL     OW23527   3.954   2.881   0.167
 7543SOL    HW123528   4.014   2.949   0.124
 7543SOL    HW223529   3.890   2.846   0.099
 7544SOL     OW23530   1.926   2.014   2.429
 7544SOL    HW123531   2.007   1.964   2.460
 7544SOL    HW223532   1.904   1.989   2.335
 7545SOL     OW23533   5.437   6.198   4.386
 7545SOL    HW123534   5.510   6.140   4.422
 7545SOL    HW223535   5.386   6.239   4.462
 7546SOL     OW23536   4.957   0.956   6.568
 7546SOL    HW123537   4.889   0.998   6.627
 7546SOL    HW223538   4.945   0.856   6.568
 7547SOL     OW23539   3.433   0.495   0.198
 7547SOL    HW123540   3.499   0.425   0.170
 7547SOL    HW223541   3.452   0.523   0.292
 7548SOL     OW23542   1.787   2.446   1.376
 7548SOL    HW123543   1.759   2.534   1.414
 7548SOL    HW223544   1.883   2.428   1.397
 7549SOL     OW23545   5.660   2.325   2.170
 7549SOL    HW123546   5.726   2.395   2.196
 7549SOL    HW223547   5.606   2.358   2.092
 7550SOL     OW23548   2.085   5.436   1.740
 7550SOL    HW123549   2.048   5.411   1.650
 7550SOL    HW223550   2.016   5.487   1.791
 7551SOL     OW23551   5.065   3.533   6.459
 7551SOL    HW123552   4.966   3.534   6.445
 7551SOL    HW223553   5.091   3.608   6.520
 7552SOL     OW23554   3.342   5.365   3.593
 7552SOL    HW123555   3.296   5.378   3.505
 7552SOL    HW223556   3.367   5.453   3.632
 7553SOL     OW23557   4.264   5.293   5.922
 7553SOL    HW123558   4.346   5.239   5.905
 7553SOL    HW223559   4.278   5.353   6.000
 7554SOL     OW23560   6.676   0.889   1.101
 7554SOL    HW123561   6.746   0.951   1.136
 7554SOL    HW223562   6.596   0.893   1.161
 7555SOL     OW23563   1.395   5.840   5.417
 7555SOL    HW123564   1.344   5.926   5.417
 7555SOL    HW223565   1.331   5.763   5.428
 7556SOL     OW23566   0.745   2.898   5.197
 7556SOL    HW123567   0.796   2.934   5.275
 7556SOL    HW223568   0.807   2.848   5.137
 7557SOL     OW23569   4.540   3.625   0.169
 7557SOL    HW123570   4.555   3.721   0.146
 7557SOL    HW223571   4.626   3.575   0.163
 7558SOL     OW23572   1.573   3.352   3.535
 7558SOL    HW123573   1.583   3.424   3.466
 7558SOL    HW223574   1.664   3.324   3.566
 7559SOL     OW23575   0.580   4.002   1.130
 7559SOL    HW123576   0.490   4.017   1.089
 7559SOL    HW223577   0.626   3.927   1.082
 7560SOL     OW23578   4.677   6.877   0.102
 7560SOL    HW123579   4.692   6.889   0.004
 7560SOL    HW223580   4.698   6.782   0.128
 7561SOL     OW23581   0.350   2.940   0.793
 7561SOL    HW123582   0.445   2.957   0.817
 7561SOL    HW223583   0.318   3.011   0.730
 7562SOL     OW23584   5.770   5.883   5.256
 7562SOL    HW123585   5.695   5.835   5.302
 7562SOL    HW223586   5.852   5.880   5.313
 7563SOL     OW23587   2.417   0.761   1.915
 7563SOL    HW123588   2.399   0.804   2.003
 7563SOL    HW223589   2.333   0.760   1.860
 7564SOL     OW23590   4.951   5.710   3.899
 7564SOL    HW123591   4.970   5.665   3.986
 7564SOL    HW223592   5.037   5.725   3.850
 7565SOL     OW23593   4.855   4.477   0.769
 7565SOL    HW123594   4.824   4.387   0.736
 7565SOL    HW223595   4.854   4.542   0.693
 7566SOL     OW23596   1.334   5.673   4.056
 7566SOL    HW123597   1.320   5.576   4.037
 7566SOL    HW223598   1.391   5.713   3.985
 7567SOL     OW23599   2.851   4.302   0.451
 7567SOL    HW123600   2.790   4.223   0.453
 7567SOL    HW223601   2.886   4.320   0.543
 7568SOL     OW23602   4.881   4.839   3.160
 7568SOL    HW123603   4.879   4.785   3.076
 7568SOL    HW223604   4.895   4.936   3.137
 7569SOL     OW23605   4.688   0.166   0.947
 7569SOL    HW123606   4.696   0.164   1.047
 7569SOL    HW223607   4.767   0.214   0.909
 7570SOL     OW23608   6.372   5.043   3.966
 7570SOL    HW123609   6.357   5.137   3.995
 7570SOL    HW223610   6.425   4.995   4.036
 7571SOL     OW23611   5.126   4.760   2.264
 7571SOL    HW123612   5.076   4.700   2.326
 7571SOL    HW223613   5.206   4.711   2.229
 7572SOL     OW23614   2.584   1.725   4.914
 7572SOL    HW123615   2.595   1.627   4.934
 7572SOL    HW223616   2.667   1.760   4.872
 7573SOL     OW23617   2.190   5.718   4.086
 7573SOL    HW123618   2.275   5.767   4.103
 7573SOL    HW223619   2.112   5.777   4.108
 7574SOL     OW23620   4.981   6.497   3.056
 7574SOL    HW123621   5.016   6.589   3.040
 7574SOL    HW223622   5.057   6.432   3.057
 7575SOL     OW23623   3.541   2.099   4.757
 7575SOL    HW123624   3.638   2.119   4.746
 7575SOL    HW223625   3.527   2.000   4.759
 7576SOL     OW23626   6.212   2.551   0.406
 7576SOL    HW123627   6.236   2.467   0.454
 7576SOL    HW223628   6.185   2.529   0.312
 7577SOL     OW23629   5.620   0.220   4.916
 7577SOL    HW123630   5.572   0.206   4.829
 7577SOL    HW223631   5.554   0.218   4.991
 7578SOL     OW23632   2.235   5.031   4.566
 7578SOL    HW123633   2.206   4.995   4.477
 7578SOL    HW223634   2.300   4.967   4.608
 7579SOL     OW23635   3.880   1.515   2.941
 7579SOL    HW123636   3.836   1.536   3.028
 7579SOL    HW223637   3.921   1.598   2.903
 7580SOL     OW23638   1.894   3.827   2.706
 7580SOL    HW123639   1.988   3.795   2.692
 7580SOL    HW223640   1.833   3.782   2.641
 7581SOL     OW23641   6.070   0.546   1.166
 7581SOL    HW123642   6.037   0.637   1.191
 7581SOL    HW223643   6.130   0.511   1.238
 7582SOL     OW23644   3.376   1.207   0.857
 7582SOL    HW123645   3.366   1.116   0.818
 7582SOL    HW223646   3.314   1.218   0.934
 7583SOL     OW23647   6.452   3.132   2.483
 7583SOL    HW123648   6.402   3.173   2.406
 7583SOL    HW223649   6.436   3.186   2.566
 7584SOL     OW23650   2.345   0.333   1.327
 7584SOL    HW123651   2.373   0.255   1.272
 7584SOL    HW223652   2.361   0.418   1.276
 7585SOL     OW23653   1.659   4.818   6.302
 7585SOL    HW123654   1.688   4.773   6.217
 7585SOL    HW223655   1.648   4.749   6.374
 7586SOL     OW23656   2.686   0.883   2.450
 7586SOL    HW123657   2.626   0.813   2.488
 7586SOL    HW223658   2.721   0.852   2.361
 7587SOL     OW23659   1.246   1.212   5.656
 7587SOL    HW123660   1.258   1.220   5.557
 7587SOL    HW223661   1.335   1.207   5.700
 7588SOL     OW23662   0.393   4.152   1.734
 7588SOL    HW123663   0.356   4.059   1.735
 7588SOL    HW223664   0.347   4.206   1.663
 7589SOL     OW23665   5.470   5.751   0.796
 7589SOL    HW123666   5.534   5.827   0.785
 7589SOL    HW223667   5.412   5.767   0.876
 7590SOL     OW23668   1.755   0.890   5.910
 7590SOL    HW123669   1.831   0.825   5.915
 7590SOL    HW223670   1.729   0.919   6.002
 7591SOL     OW23671   6.671   4.684   0.677
 7591SOL    HW123672   6.674   4.590   0.712
 7591SOL    HW223673   6.759   4.707   0.637
 7592SOL     OW23674   5.509   5.997   0.386
 7592SOL    HW123675   5.424   6.046   0.406
 7592SOL    HW223676   5.578   6.022   0.454
 7593SOL     OW23677   6.134   2.145   6.495
 7593SOL    HW123678   6.137   2.208   6.573
 7593SOL    HW223679   6.222   2.146   6.448
 7594SOL     OW23680   1.242   6.106   3.797
 7594SOL    HW123681   1.158   6.069   3.759
 7594SOL    HW223682   1.264   6.059   3.882
 7595SOL     OW23683   6.065   2.827   6.672
 7595SOL    HW123684   5.990   2.820   6.738
 7595SOL    HW223685   6.091   2.923   6.661
 7596SOL     OW23686   5.444   4.245   2.148
 7596SOL    HW123687   5.431   4.164   2.204
 7596SOL    HW223688   5.397   4.233   2.060
 7597SOL     OW23689   3.511   5.309   1.667
 7597SOL    HW123690   3.495   5.250   1.588
 7597SOL    HW223691   3.604   5.295   1.701
 7598SOL     OW23692   6.813   1.158   3.747
 7598SOL    HW123693   6.796   1.060   3.742
 7598SOL    HW223694   6.907   1.174   3.778
 7599SOL     OW23695   6.749   2.203   2.539
 7599SOL    HW123696   6.735   2.120   2.486
 7599SOL    HW223697   6.846   2.210   2.565
 7600SOL     OW23698   2.317   1.799   1.429
 7600SOL    HW123699   2.277   1.847   1.351
 7600SOL    HW223700   2.387   1.856   1.471
 7601SOL     OW23701   1.791   6.540   4.804
 7601SOL    HW123702   1.793   6.639   4.822
 7601SOL    HW223703   1.770   6.525   4.708
 7602SOL     OW23704   0.645   3.676   4.809
 7602SOL    HW123705   0.727   3.677   4.752
 7602SOL    HW223706   0.622   3.582   4.833
 7603SOL     OW23707   1.016   6.622   1.280
 7603SOL    HW123708   0.955   6.574   1.217
 7603SOL    HW223709   0.975   6.709   1.306
 7604SOL     OW23710   5.323   6.120   5.715
 7604SOL    HW123711   5.233   6.107   5.756
 7604SOL    HW223712   5.331   6.215   5.683
 7605SOL     OW23713   6.179   4.468   6.610
 7605SOL    HW123714   6.227   4.458   6.697
 7605SOL    HW223715   6.084   4.495   6.627
 7606SOL     OW23716   6.129   2.034   2.643
 7606SOL    HW123717   6.149   2.088   2.561
 7606SOL    HW223718   6.207   2.038   2.705
 7607SOL     OW23719   4.640   0.018   6.591
 7607SOL    HW123720   4.591   0.103   6.571
 7607SOL    HW223721   4.574   6.966   6.598
 7608SOL     OW23722   3.329   3.460   3.474
 7608SOL    HW123723   3.323   3.431   3.570
 7608SOL    HW223724   3.422   3.445   3.441
 7609SOL     OW23725   1.367   3.332   4.325
 7609SOL    HW123726   1.403   3.283   4.405
 7609SOL    HW223727   1.432   3.404   4.298
 7610SOL     OW23728   5.499   0.215   1.315
 7610SOL    HW123729   5.434   0.148   1.280
 7610SOL    HW223730   5.459   0.261   1.395
 7611SOL     OW23731   1.604   2.121   0.290
 7611SOL    HW123732   1.555   2.069   0.360
 7611SOL    HW223733   1.613   2.066   0.207
 7612SOL     OW23734   3.619   1.950   3.122
 7612SOL    HW123735   3.570   1.977   3.205
 7612SOL    HW223736   3.716   1.973   3.131
 7613SOL     OW23737   4.898   0.828   1.936
 7613SOL    HW123738   4.902   0.747   1.994
 7613SOL    HW223739   4.816   0.882   1.958
 7614SOL     OW23740   4.260   2.292   0.474
 7614SOL    HW123741   4.263   2.252   0.382
 7614SOL    HW223742   4.264   2.392   0.467
 7615SOL     OW23743   3.622   5.000   5.845
 7615SOL    HW123744   3.602   5.066   5.918
 7615SOL    HW223745   3.537   4.956   5.816
 7616SOL     OW23746   6.532   3.871   3.678
 7616SOL    HW123747   6.496   3.852   3.770
 7616SOL    HW223748   6.544   3.969   3.666
 7617SOL     OW23749   2.866   5.388   2.710
 7617SOL    HW123750   2.912   5.475   2.726
 7617SOL    HW223751   2.790   5.401   2.647
 7618SOL     OW23752   1.935   2.620   7.007
 7618SOL    HW123753   1.950   2.521   7.002
 7618SOL    HW223754   1.950   2.661   6.918
 7619SOL     OW23755   5.297   3.622   5.701
 7619SOL    HW123756   5.315   3.610   5.799
 7619SOL    HW223757   5.223   3.688   5.689
 7620SOL     OW23758   3.298   6.902   1.792
 7620SOL    HW123759   3.355   6.825   1.821
 7620SOL    HW223760   3.357   6.978   1.764
 7621SOL     OW23761   2.438   0.672   1.578
 7621SOL    HW123762   2.411   0.582   1.613
 7621SOL    HW223763   2.445   0.736   1.655
 7622SOL     OW23764   4.220   2.531   0.140
 7622SOL    HW123765   4.312   2.511   0.105
 7622SOL    HW223766   4.223   2.540   0.239
 7623SOL     OW23767   4.660   0.813   5.744
 7623SOL    HW123768   4.560   0.813   5.744
 7623SOL    HW223769   4.694   0.787   5.654
 7624SOL     OW23770   0.491   1.109   3.634
 7624SOL    HW123771   0.558   1.036   3.622
 7624SOL    HW223772   0.521   1.170   3.707
 7625SOL     OW23773   4.785   0.431   1.474
 7625SOL    HW123774   4.789   0.353   1.411
 7625SOL    HW223775   4.819   0.403   1.563
 7626SOL     OW23776   1.808   5.661   4.851
 7626SOL    HW123777   1.783   5.757   4.860
 7626SOL    HW223778   1.807   5.635   4.755
 7627SOL     OW23779   6.978   2.425   0.898
 7627SOL    HW123780   6.929   2.415   0.812
 7627SOL    HW223781   6.978   2.338   0.948
 7628SOL     OW23782   3.042   1.973   0.938
 7628SOL    HW123783   3.110   1.935   1.001
 7628SOL    HW223784   3.032   1.913   0.859
 7629SOL     OW23785   0.051   6.127   3.113
 7629SOL    HW123786   0.093   6.165   3.030
 7629SOL    HW223787   0.094   6.039   3.134
 7630SOL     OW23788   6.138   1.116   2.920
 7630SOL    HW123789   6.161   1.213   2.906
 7630SOL    HW223790   6.039   1.106   2.917
 7631SOL     OW23791   0.338   2.543   3.570
 7631SOL    HW123792   0.416   2.603   3.555
 7631SOL    HW223793   0.368   2.460   3.617
 7632SOL     OW23794   4.589   1.494   0.170
 7632SOL    HW123795   4.530   1.428   0.218
 7632SOL    HW223796   4.617   1.566   0.234
 7633SOL     OW23797   5.547   3.843   6.698
 7633SOL    HW123798   5.541   3.762   6.640
 7633SOL    HW223799   5.473   3.907   6.674
 7634SOL     OW23800   1.459   1.337   2.035
 7634SOL    HW123801   1.502   1.258   1.992
 7634SOL    HW223802   1.504   1.421   2.003
 7635SOL     OW23803   3.014   4.549   5.580
 7635SOL    HW123804   2.962   4.502   5.508
 7635SOL    HW223805   3.100   4.500   5.596
 7636SOL     OW23806   0.704   0.212   4.023
 7636SOL    HW123807   0.775   0.181   3.961
 7636SOL    HW223808   0.631   0.256   3.970
 7637SOL     OW23809   2.045   6.027   4.354
 7637SOL    HW123810   2.001   6.095   4.412
 7637SOL    HW223811   2.111   5.974   4.408
 7638SOL     OW23812   5.417   5.099   2.026
 7638SOL    HW123813   5.338   5.094   2.087
 7638SOL    HW223814   5.386   5.105   1.932
 7639SOL     OW23815   0.879   1.968   5.174
 7639SOL    HW123816   0.862   2.036   5.102
 7639SOL    HW223817   0.975   1.968   5.199
 7640SOL     OW23818   2.249   1.684   0.053
 7640SOL    HW123819   2.159   1.712   0.019
 7640SOL    HW223820   2.319   1.743   0.013
 7641SOL     OW23821   5.444   3.684   2.135
 7641SOL    HW123822   5.404   3.759   2.082
 7641SOL    HW223823   5.495   3.722   2.212
 7642SOL     OW23824   2.754   2.255   2.596
 7642SOL    HW123825   2.691   2.178   2.602
 7642SOL    HW223826   2.796   2.257   2.505
 7643SOL     OW23827   4.875   3.012   3.413
 7643SOL    HW123828   4.848   3.108   3.402
 7643SOL    HW223829   4.965   3.007   3.455
 7644SOL     OW23830   6.835   3.229   2.838
 7644SOL    HW123831   6.856   3.275   2.925
 7644SOL    HW223832   6.767   3.158   2.854
 7645SOL     OW23833   4.339   3.628   6.590
 7645SOL    HW123834   4.286   3.546   6.570
 7645SOL    HW223835   4.281   3.709   6.578
 7646SOL     OW23836   2.168   1.920   1.738
 7646SOL    HW123837   2.220   2.004   1.754
 7646SOL    HW223838   2.224   1.841   1.765
 7647SOL     OW23839   2.647   3.836   1.696
 7647SOL    HW123840   2.728   3.895   1.690
 7647SOL    HW223841   2.674   3.746   1.731
 7648SOL     OW23842   4.073   0.878   3.724
 7648SOL    HW123843   4.006   0.838   3.786
 7648SOL    HW223844   4.051   0.974   3.707
 7649SOL     OW23845   3.083   0.746   1.722
 7649SOL    HW123846   3.048   0.664   1.677
 7649SOL    HW223847   3.141   0.797   1.658
 7650SOL     OW23848   6.333   4.345   2.256
 7650SOL    HW123849   6.353   4.442   2.271
 7650SOL    HW223850   6.343   4.296   2.343
 7651SOL     OW23851   3.698   1.302   6.572
 7651SOL    HW123852   3.626   1.236   6.550
 7651SOL    HW223853   3.657   1.394   6.578
 7652SOL     OW23854   0.773   3.802   2.274
 7652SOL    HW123855   0.845   3.810   2.342
 7652SOL    HW223856   0.799   3.734   2.205
 7653SOL     OW23857   2.766   2.299   1.511
 7653SOL    HW123858   2.845   2.307   1.571
 7653SOL    HW223859   2.796   2.274   1.419
 7654SOL     OW23860   5.047   3.930   3.664
 7654SOL    HW123861   5.000   3.876   3.734
 7654SOL    HW223862   4.979   3.978   3.608
 7655SOL     OW23863   4.230   6.303   5.215
 7655SOL    HW123864   4.288   6.247   5.156
 7655SOL    HW223865   4.278   6.387   5.238
 7656SOL     OW23866   0.705   6.743   5.528
 7656SOL    HW123867   0.735   6.647   5.536
 7656SOL    HW223868   0.676   6.760   5.434
 7657SOL     OW23869   3.537   1.485   3.625
 7657SOL    HW123870   3.497   1.404   3.668
 7657SOL    HW223871   3.467   1.531   3.570
 7658SOL     OW23872   4.148   0.796   5.542
 7658SOL    HW123873   4.135   0.887   5.502
 7658SOL    HW223874   4.245   0.784   5.564
 7659SOL     OW23875   5.582   0.042   0.853
 7659SOL    HW123876   5.485   0.064   0.866
 7659SOL    HW223877   5.591   6.990   0.788
 7660SOL     OW23878   5.673   5.021   4.193
 7660SOL    HW123879   5.660   5.092   4.262
 7660SOL    HW223880   5.688   5.062   4.104
 7661SOL     OW23881   6.622   2.628   3.783
 7661SOL    HW123882   6.591   2.695   3.716
 7661SOL    HW223883   6.553   2.557   3.793
 7662SOL     OW23884   6.961   5.026   2.090
 7662SOL    HW123885   0.032   5.034   2.060
 7662SOL    HW223886   6.944   4.934   2.125
 7663SOL     OW23887   0.195   5.185   6.819
 7663SOL    HW123888   0.106   5.229   6.805
 7663SOL    HW223889   0.233   5.158   6.731
 7664SOL     OW23890   2.435   5.068   3.617
 7664SOL    HW123891   2.495   5.077   3.537
 7664SOL    HW223892   2.373   5.146   3.622
 7665SOL     OW23893   3.276   6.579   5.050
 7665SOL    HW123894   3.370   6.555   5.073
 7665SOL    HW223895   3.263   6.677   5.064
 7666SOL     OW23896   1.165   0.917   1.347
 7666SOL    HW123897   1.216   0.860   1.282
 7666SOL    HW223898   1.150   0.866   1.431
 7667SOL     OW23899   4.108   6.399   6.527
 7667SOL    HW123900   4.093   6.314   6.477
 7667SOL    HW223901   4.134   6.471   6.463
 7668SOL     OW23902   3.375   4.046   1.453
 7668SOL    HW123903   3.449   3.985   1.424
 7668SOL    HW223904   3.287   4.003   1.437
 7669SOL     OW23905   4.678   6.523   4.374
 7669SOL    HW123906   4.761   6.544   4.425
 7669SOL    HW223907   4.698   6.520   4.276
 7670SOL     OW23908   1.615   5.134   0.643
 7670SOL    HW123909   1.703   5.126   0.597
 7670SOL    HW223910   1.626   5.108   0.739
 7671SOL     OW23911   6.013   2.799   4.315
 7671SOL    HW123912   5.930   2.841   4.278
 7671SOL    HW223913   6.037   2.844   4.400
 7672SOL     OW23914   5.610   0.909   2.876
 7672SOL    HW123915   5.560   0.824   2.859
 7672SOL    HW223916   5.548   0.977   2.914
 7673SOL     OW23917   0.931   4.629   0.805
 7673SOL    HW123918   0.869   4.615   0.882
 7673SOL    HW223919   0.922   4.553   0.741
 7674SOL     OW23920   5.742   1.709   4.831
 7674SOL    HW123921   5.769   1.777   4.762
 7674SOL    HW223922   5.661   1.660   4.798
 7675SOL     OW23923   4.457   6.596   3.134
 7675SOL    HW123924   4.398   6.617   3.211
 7675SOL    HW223925   4.553   6.610   3.160
 7676SOL     OW23926   1.908   0.422   0.915
 7676SOL    HW123927   1.852   0.501   0.939
 7676SOL    HW223928   1.851   0.340   0.912
 7677SOL     OW23929   1.820   2.930   2.590
 7677SOL    HW123930   1.812   2.942   2.491
 7677SOL    HW223931   1.760   2.995   2.637
 7678SOL     OW23932   6.342   6.574   0.573
 7678SOL    HW123933   6.310   6.511   0.503
 7678SOL    HW223934   6.279   6.572   0.651
 7679SOL     OW23935   0.780   5.326   5.454
 7679SOL    HW123936   0.795   5.323   5.355
 7679SOL    HW223937   0.865   5.301   5.501
 7680SOL     OW23938   3.760   2.888   0.360
 7680SOL    HW123939   3.819   2.882   0.441
 7680SOL    HW223940   3.813   2.867   0.278
 7681SOL     OW23941   3.001   1.475   0.062
 7681SOL    HW123942   3.005   1.483   0.161
 7681SOL    HW223943   3.091   1.450   0.027
 7682SOL     OW23944   3.185   0.176   1.597
 7682SOL    HW123945   3.143   0.089   1.620
 7682SOL    HW223946   3.156   0.246   1.662
 7683SOL     OW23947   5.370   1.998   3.450
 7683SOL    HW123948   5.336   2.016   3.358
 7683SOL    HW223949   5.335   1.910   3.482
 7684SOL     OW23950   4.481   1.718   5.872
 7684SOL    HW123951   4.431   1.804   5.858
 7684SOL    HW223952   4.438   1.666   5.945
 7685SOL     OW23953   3.141   3.069   0.890
 7685SOL    HW123954   3.059   3.125   0.884
 7685SOL    HW223955   3.143   3.004   0.814
 7686SOL     OW23956   3.932   6.545   3.832
 7686SOL    HW123957   3.919   6.546   3.733
 7686SOL    HW223958   3.958   6.637   3.863
 7687SOL     OW23959   5.438   5.027   5.547
 7687SOL    HW123960   5.476   4.940   5.517
 7687SOL    HW223961   5.502   5.072   5.610
 7688SOL     OW23962   0.434   6.467   4.508
 7688SOL    HW123963   0.514   6.497   4.559
 7688SOL    HW223964   0.416   6.370   4.528
 7689SOL     OW23965   4.395   6.189   4.792
 7689SOL    HW123966   4.461   6.242   4.845
 7689SOL    HW223967   4.303   6.206   4.827
 7690SOL     OW23968   0.137   4.966   3.481
 7690SOL    HW123969   0.066   4.950   3.550
 7690SOL    HW223970   0.094   4.979   3.391
 7691SOL     OW23971   5.130   3.320   4.947
 7691SOL    HW123972   5.118   3.340   5.044
 7691SOL    HW223973   5.177   3.232   4.937
 7692SOL     OW23974   1.831   6.667   2.055
 7692SOL    HW123975   1.810   6.729   2.130
 7692SOL    HW223976   1.751   6.610   2.036
 7693SOL     OW23977   4.920   1.459   6.446
 7693SOL    HW123978   4.966   1.421   6.366
 7693SOL    HW223979   4.985   1.470   6.520
 7694SOL     OW23980   6.954   5.266   4.608
 7694SOL    HW123981   6.889   5.339   4.629
 7694SOL    HW223982   0.023   5.304   4.604
 7695SOL     OW23983   4.028   6.997   0.702
 7695SOL    HW123984   4.067   0.042   0.764
 7695SOL    HW223985   3.929   6.992   0.715
 7696SOL     OW23986   0.174   2.711   5.651
 7696SOL    HW123987   0.172   2.794   5.708
 7696SOL    HW223988   0.085   2.700   5.607
 7697SOL     OW23989   3.277   1.851   2.433
 7697SOL    HW123990   3.255   1.913   2.508
 7697SOL    HW223991   3.314   1.903   2.356
 7698SOL     OW23992   6.885   3.230   5.920
 7698SOL    HW123993   6.963   3.173   5.892
 7698SOL    HW223994   6.916   3.297   5.987
 7699SOL     OW23995   2.333   4.970   6.623
 7699SOL    HW123996   2.400   4.896   6.616
 7699SOL    HW223997   2.375   5.048   6.669
 7700SOL     OW23998   4.950   6.264   4.543
 7700SOL    HW123999   4.995   6.262   4.454
 7700SOL    HW224000   4.859   6.224   4.535
 7701SOL     OW24001   6.591   2.135   4.492
 7701SOL    HW124002   6.588   2.046   4.537
 7701SOL    HW224003   6.569   2.123   4.395
 7702SOL     OW24004   3.037   6.634   5.746
 7702SOL    HW124005   3.047   6.544   5.704
 7702SOL    HW224006   3.054   6.627   5.844
 7703SOL     OW24007   0.881   1.177   5.695
 7703SOL    HW124008   0.872   1.124   5.780
 7703SOL    HW224009   0.897   1.273   5.717
 7704SOL     OW24010   4.362   4.432   6.757
 7704SOL    HW124011   4.448   4.392   6.789
 7704SOL    HW224012   4.307   4.461   6.836
 7705SOL     OW24013   3.755   5.215   5.080
 7705SOL    HW124014   3.810   5.176   5.007
 7705SOL    HW224015   3.810   5.225   5.162
 7706SOL     OW24016   0.274   0.850   4.911
 7706SOL    HW124017   0.197   0.892   4.959
 7706SOL    HW224018   0.271   0.751   4.923
 7707SOL     OW24019   0.223   4.925   6.180
 7707SOL    HW124020   0.187   4.907   6.272
 7707SOL    HW224021   0.148   4.929   6.115
 7708SOL     OW24022   4.346   6.581   4.651
 7708SOL    HW124023   4.247   6.578   4.663
 7708SOL    HW224024   4.371   6.545   4.561
 7709SOL     OW24025   4.294   2.048   2.230
 7709SOL    HW124026   4.241   1.963   2.235
 7709SOL    HW224027   4.239   2.118   2.185
 7710SOL     OW24028   2.038   1.063   0.461
 7710SOL    HW124029   2.033   0.967   0.433
 7710SOL    HW224030   2.134   1.091   0.465
 7711SOL     OW24031   5.429   6.643   5.596
 7711SOL    HW124032   5.529   6.656   5.596
 7711SOL    HW224033   5.389   6.692   5.519
 7712SOL     OW24034   5.367   5.304   1.173
 7712SOL    HW124035   5.447   5.275   1.226
 7712SOL    HW224036   5.332   5.227   1.121
 7713SOL     OW24037   1.370   4.177   6.225
 7713SOL    HW124038   1.411   4.092   6.259
 7713SOL    HW224039   1.290   4.200   6.280
 7714SOL     OW24040   5.798   4.241   3.957
 7714SOL    HW124041   5.799   4.266   4.054
 7714SOL    HW224042   5.768   4.319   3.902
 7715SOL     OW24043   4.753   1.019   1.265
 7715SOL    HW124044   4.736   0.958   1.188
 7715SOL    HW224045   4.683   1.090   1.267
 7716SOL     OW24046   4.466   2.098   3.175
 7716SOL    HW124047   4.377   2.143   3.173
 7716SOL    HW224048   4.468   2.032   3.250
 7717SOL     OW24049   2.891   1.789   5.537
 7717SOL    HW124050   2.967   1.772   5.474
 7717SOL    HW224051   2.808   1.810   5.486
 7718SOL     OW24052   2.895   6.397   4.033
 7718SOL    HW124053   2.838   6.455   3.975
 7718SOL    HW224054   2.859   6.398   4.127
 7719SOL     OW24055   6.576   2.256   4.827
 7719SOL    HW124056   6.662   2.249   4.776
 7719SOL    HW224057   6.511   2.311   4.775
 7720SOL     OW24058   6.021   5.889   1.627
 7720SOL    HW124059   6.031   5.905   1.725
 7720SOL    HW224060   5.924   5.872   1.605
 7721SOL     OW24061   1.940   4.508   2.273
 7721SOL    HW124062   1.979   4.531   2.184
 7721SOL    HW224063   1.873   4.434   2.262
 7722SOL     OW24064   6.945   5.414   3.861
 7722SOL    HW124065   6.849   5.415   3.886
 7722SOL    HW224066   6.968   5.497   3.811
 7723SOL     OW24067   6.507   3.208   0.249
 7723SOL    HW124068   6.515   3.133   0.315
 7723SOL    HW224069   6.592   3.260   0.249
 7724SOL     OW24070   1.337   4.307   1.242
 7724SOL    HW124071   1.301   4.399   1.227
 7724SOL    HW224072   1.429   4.301   1.203
 7725SOL     OW24073   5.750   2.989   4.246
 7725SOL    HW124074   5.790   3.056   4.309
 7725SOL    HW224075   5.650   2.999   4.246
 7726SOL     OW24076   0.299   4.491   3.055
 7726SOL    HW124077   0.351   4.458   2.976
 7726SOL    HW224078   0.318   4.431   3.133
 7727SOL     OW24079   6.254   2.268   2.302
 7727SOL    HW124080   6.319   2.192   2.294
 7727SOL    HW224081   6.260   2.325   2.221
 7728SOL     OW24082   2.021   2.641   3.184
 7728SOL    HW124083   2.048   2.660   3.278
 7728SOL    HW224084   1.927   2.607   3.182
 7729SOL     OW24085   4.976   2.267   0.314
 7729SOL    HW124086   4.932   2.267   0.404
 7729SOL    HW224087   4.979   2.360   0.279
 7730SOL     OW24088   5.574   0.781   2.195
 7730SOL    HW124089   5.587   0.697   2.249
 7730SOL    HW224090   5.659   0.835   2.198
 7731SOL     OW24091   5.972   1.040   6.673
 7731SOL    HW124092   5.922   0.954   6.655
 7731SOL    HW224093   5.990   1.048   6.771
 7732SOL     OW24094   4.181   5.533   0.642
 7732SOL    HW124095   4.260   5.540   0.581
 7732SOL    HW224096   4.192   5.454   0.702
 7733SOL     OW24097   3.654   0.230   2.356
 7733SOL    HW124098   3.672   0.318   2.312
 7733SOL    HW224099   3.574   0.239   2.415
 7734SOL     OW24100   1.813   2.461   3.080
 7734SOL    HW124101   1.877   2.442   3.005
 7734SOL    HW224102   1.720   2.460   3.044
 7735SOL     OW24103   4.657   4.406   0.236
 7735SOL    HW124104   4.718   4.482   0.214
 7735SOL    HW224105   4.645   4.401   0.335
 7736SOL     OW24106   6.474   5.015   6.763
 7736SOL    HW124107   6.515   4.972   6.844
 7736SOL    HW224108   6.392   4.965   6.736
 7737SOL     OW24109   4.838   1.466   0.582
 7737SOL    HW124110   4.886   1.543   0.541
 7737SOL    HW224111   4.775   1.499   0.652
 7738SOL     OW24112   3.384   5.263   6.921
 7738SOL    HW124113   3.382   5.202   6.842
 7738SOL    HW224114   3.403   5.357   6.890
 7739SOL     OW24115   6.006   2.428   0.742
 7739SOL    HW124116   6.030   2.349   0.687
 7739SOL    HW224117   5.939   2.484   0.693
 7740SOL     OW24118   0.856   6.916   3.207
 7740SOL    HW124119   0.826   6.969   3.286
 7740SOL    HW224120   0.841   6.819   3.224
 7741SOL     OW24121   2.424   5.420   4.534
 7741SOL    HW124122   2.364   5.376   4.601
 7741SOL    HW224123   2.485   5.484   4.581
 7742SOL     OW24124   6.756   1.681   3.882
 7742SOL    HW124125   6.741   1.680   3.783
 7742SOL    HW224126   6.844   1.638   3.902
 7743SOL     OW24127   4.374   2.475   3.984
 7743SOL    HW124128   4.284   2.457   4.026
 7743SOL    HW224129   4.364   2.477   3.885
 7744SOL     OW24130   6.792   0.486   4.035
 7744SOL    HW124131   6.797   0.390   4.007
 7744SOL    HW224132   6.718   0.497   4.102
 7745SOL     OW24133   4.265   3.361   6.151
 7745SOL    HW124134   4.232   3.274   6.189
 7745SOL    HW224135   4.301   3.346   6.059
 7746SOL     OW24136   1.363   0.743   0.740
 7746SOL    HW124137   1.273   0.704   0.761
 7746SOL    HW224138   1.377   0.826   0.793
 7747SOL     OW24139   4.988   5.937   0.830
 7747SOL    HW124140   5.083   5.949   0.803
 7747SOL    HW224141   4.976   5.963   0.926
 7748SOL     OW24142   2.707   4.493   6.919
 7748SOL    HW124143   2.621   4.530   6.953
 7748SOL    HW224144   2.704   4.393   6.922
 7749SOL     OW24145   5.229   3.038   5.762
 7749SOL    HW124146   5.150   2.979   5.781
 7749SOL    HW224147   5.278   3.003   5.682
 7750SOL     OW24148   6.324   5.338   2.359
 7750SOL    HW124149   6.364   5.426   2.387
 7750SOL    HW224150   6.381   5.298   2.287
 7751SOL     OW24151   0.958   2.833   2.311
 7751SOL    HW124152   0.911   2.900   2.254
 7751SOL    HW224153   1.014   2.880   2.379
 7752SOL     OW24154   4.516   1.868   3.737
 7752SOL    HW124155   4.462   1.888   3.819
 7752SOL    HW224156   4.455   1.835   3.664
 7753SOL     OW24157   3.142   1.632   4.654
 7753SOL    HW124158   3.069   1.699   4.649
 7753SOL    HW224159   3.180   1.631   4.747
 7754SOL     OW24160   4.853   6.433   2.186
 7754SOL    HW124161   4.904   6.517   2.166
 7754SOL    HW224162   4.757   6.447   2.161
 7755SOL     OW24163   0.042   4.496   5.537
 7755SOL    HW124164   7.008   4.578   5.543
 7755SOL    HW224165   0.037   4.458   5.444
 7756SOL     OW24166   2.581   4.996   1.905
 7756SOL    HW124167   2.565   4.947   1.990
 7756SOL    HW224168   2.663   5.053   1.915
 7757SOL     OW24169   0.166   4.012   2.088
 7757SOL    HW124170   0.082   4.056   2.057
 7757SOL    HW224171   0.154   3.913   2.087
 7758SOL     OW24172   1.527   1.585   4.906
 7758SOL    HW124173   1.624   1.592   4.883
 7758SOL    HW224174   1.473   1.636   4.840
 7759SOL     OW24175   2.332   2.433   0.200
 7759SOL    HW124176   2.335   2.523   0.244
 7759SOL    HW224177   2.239   2.398   0.204
 7760SOL     OW24178   4.159   2.736   6.971
 7760SOL    HW124179   4.191   2.661   0.006
 7760SOL    HW224180   4.225   2.811   6.973
 7761SOL     OW24181   5.014   5.525   4.112
 7761SOL    HW124182   4.934   5.470   4.138
 7761SOL    HW224183   5.097   5.473   4.129
 7762SOL     OW24184   6.132   1.778   2.520
 7762SOL    HW124185   6.091   1.865   2.547
 7762SOL    HW224186   6.232   1.785   2.526
 7763SOL     OW24187   2.484   6.963   4.295
 7763SOL    HW124188   2.525   6.910   4.369
 7763SOL    HW224189   2.556   6.994   4.233
 7764SOL     OW24190   2.475   4.023   5.694
 7764SOL    HW124191   2.528   3.938   5.696
 7764SOL    HW224192   2.400   4.014   5.629
 7765SOL     OW24193   6.250   3.046   5.662
 7765SOL    HW124194   6.222   3.050   5.566
 7765SOL    HW224195   6.254   3.139   5.699
 7766SOL     OW24196   5.555   4.010   6.293
 7766SOL    HW124197   5.645   3.970   6.272
 7766SOL    HW224198   5.490   3.982   6.222
 7767SOL     OW24199   3.602   0.129   3.948
 7767SOL    HW124200   3.611   0.175   3.859
 7767SOL    HW224201   3.593   0.197   4.020
 7768SOL     OW24202   4.855   4.958   3.397
 7768SOL    HW124203   4.873   4.908   3.313
 7768SOL    HW224204   4.756   4.974   3.405
 7769SOL     OW24205   3.692   3.217   5.375
 7769SOL    HW124206   3.599   3.183   5.389
 7769SOL    HW224207   3.690   3.317   5.364
 7770SOL     OW24208   2.153   3.359   4.512
 7770SOL    HW124209   2.172   3.273   4.558
 7770SOL    HW224210   2.062   3.392   4.537
 7771SOL     OW24211   2.387   2.866   5.932
 7771SOL    HW124212   2.430   2.861   6.022
 7771SOL    HW224213   2.443   2.817   5.865
 7772SOL     OW24214   5.342   6.701   1.896
 7772SOL    HW124215   5.392   6.626   1.940
 7772SOL    HW224216   5.402   6.781   1.888
 7773SOL     OW24217   3.006   6.030   6.790
 7773SOL    HW124218   3.023   6.035   6.888
 7773SOL    HW224219   3.063   6.096   6.742
 7774SOL     OW24220   4.829   1.370   2.480
 7774SOL    HW124221   4.886   1.447   2.507
 7774SOL    HW224222   4.732   1.397   2.487
 7775SOL     OW24223   2.177   1.923   0.299
 7775SOL    HW124224   2.149   1.871   0.380
 7775SOL    HW224225   2.254   1.982   0.322
 7776SOL     OW24226   1.624   1.391   4.633
 7776SOL    HW124227   1.657   1.457   4.701
 7776SOL    HW224228   1.562   1.437   4.570
 7777SOL     OW24229   6.279   5.287   4.076
 7777SOL    HW124230   6.320   5.285   4.167
 7777SOL    HW224231   6.181   5.270   4.083
 7778SOL     OW24232   6.886   4.791   2.787
 7778SOL    HW124233   6.956   4.747   2.843
 7778SOL    HW224234   6.839   4.722   2.732
 7779SOL     OW24235   4.359   5.954   2.135
 7779SOL    HW124236   4.330   5.916   2.047
 7779SOL    HW224237   4.444   5.909   2.164
 7780SOL     OW24238   6.235   6.536   4.945
 7780SOL    HW124239   6.162   6.472   4.922
 7780SOL    HW224240   6.323   6.499   4.916
 7781SOL     OW24241   1.324   2.569   0.987
 7781SOL    HW124242   1.235   2.615   0.993
 7781SOL    HW224243   1.372   2.601   0.905
 7782SOL     OW24244   6.020   2.627   3.974
 7782SOL    HW124245   6.036   2.718   3.937
 7782SOL    HW224246   6.081   2.612   4.052
 7783SOL     OW24247   1.489   6.752   5.133
 7783SOL    HW124248   1.563   6.819   5.141
 7783SOL    HW224249   1.525   6.666   5.097
 7784SOL     OW24250   2.000   2.101   1.553
 7784SOL    HW124251   2.024   2.013   1.512
 7784SOL    HW224252   1.989   2.091   1.652
 7785SOL     OW24253   0.433   6.976   3.440
 7785SOL    HW124254   0.456   6.883   3.471
 7785SOL    HW224255   0.335   6.982   3.422
 7786SOL     OW24256   3.927   1.284   5.232
 7786SOL    HW124257   3.911   1.367   5.180
 7786SOL    HW224258   4.003   1.233   5.192
 7787SOL     OW24259   2.458   2.598   1.839
 7787SOL    HW124260   2.408   2.611   1.925
 7787SOL    HW224261   2.556   2.602   1.856
 7788SOL     OW24262   6.851   4.343   1.282
 7788SOL    HW124263   6.883   4.431   1.247
 7788SOL    HW224264   6.760   4.324   1.247
 7789SOL     OW24265   3.050   1.831   5.933
 7789SOL    HW124266   3.030   1.915   5.884
 7789SOL    HW224267   3.146   1.805   5.917
 7790SOL     OW24268   4.405   4.400   1.655
 7790SOL    HW124269   4.407   4.350   1.568
 7790SOL    HW224270   4.417   4.337   1.731
 7791SOL     OW24271   2.245   4.994   2.440
 7791SOL    HW124272   2.327   4.938   2.444
 7791SOL    HW224273   2.214   5.016   2.532
 7792SOL     OW24274   0.597   1.797   2.360
 7792SOL    HW124275   0.597   1.697   2.356
 7792SOL    HW224276   0.655   1.827   2.436
 7793SOL     OW24277   4.992   0.689   6.895
 7793SOL    HW124278   4.943   0.685   6.808
 7793SOL    HW224279   5.077   0.741   6.883
 7794SOL     OW24280   0.880   6.615   3.255
 7794SOL    HW124281   0.964   6.639   3.206
 7794SOL    HW224282   0.833   6.541   3.207
 7795SOL     OW24283   2.985   5.572   0.120
 7795SOL    HW124284   2.904   5.513   0.123
 7795SOL    HW224285   3.068   5.516   0.125
 7796SOL     OW24286   3.274   3.754   0.260
 7796SOL    HW124287   3.241   3.754   0.355
 7796SOL    HW224288   3.288   3.849   0.230
 7797SOL     OW24289   0.402   6.153   3.087
 7797SOL    HW124290   0.427   6.061   3.057
 7797SOL    HW224291   0.407   6.216   3.010
 7798SOL     OW24292   1.190   3.395   0.583
 7798SOL    HW124293   1.116   3.328   0.576
 7798SOL    HW224294   1.154   3.487   0.568
 7799SOL     OW24295   2.689   6.328   3.339
 7799SOL    HW124296   2.692   6.229   3.356
 7799SOL    HW224297   2.704   6.377   3.424
 7800SOL     OW24298   0.129   6.518   2.237
 7800SOL    HW124299   0.093   6.565   2.319
 7800SOL    HW224300   0.208   6.569   2.202
 7801SOL     OW24301   1.737   1.748   1.760
 7801SOL    HW124302   1.799   1.751   1.839
 7801SOL    HW224303   1.684   1.833   1.757
 7802SOL     OW24304   6.537   3.706   4.639
 7802SOL    HW124305   6.618   3.754   4.606
 7802SOL    HW224306   6.520   3.626   4.582
 7803SOL     OW24307   3.385   2.725   5.525
 7803SOL    HW124308   3.326   2.704   5.603
 7803SOL    HW224309   3.397   2.643   5.470
 7804SOL     OW24310   3.410   1.928   5.139
 7804SOL    HW124311   3.379   1.992   5.068
 7804SOL    HW224312   3.414   1.836   5.101
 7805SOL     OW24313   4.604   3.521   0.584
 7805SOL    HW124314   4.665   3.509   0.506
 7805SOL    HW224315   4.642   3.473   0.664
 7806SOL     OW24316   6.369   1.339   5.861
 7806SOL    HW124317   6.389   1.340   5.763
 7806SOL    HW224318   6.383   1.431   5.898
 7807SOL     OW24319   1.412   4.710   5.880
 7807SOL    HW124320   1.395   4.706   5.979
 7807SOL    HW224321   1.409   4.618   5.842
 7808SOL     OW24322   6.098   3.838   2.705
 7808SOL    HW124323   6.041   3.759   2.726
 7808SOL    HW224324   6.047   3.922   2.726
 7809SOL     OW24325   4.896   5.356   2.532
 7809SOL    HW124326   4.880   5.397   2.442
 7809SOL    HW224327   4.809   5.341   2.578
 7810SOL     OW24328   3.489   6.552   6.154
 7810SOL    HW124329   3.429   6.533   6.077
 7810SOL    HW224330   3.571   6.496   6.147
 7811SOL     OW24331   1.767   6.196   2.925
 7811SOL    HW124332   1.733   6.226   3.014
 7811SOL    HW224333   1.758   6.096   2.918
 7812SOL     OW24334   3.347   1.898   6.262
 7812SOL    HW124335   3.263   1.850   6.235
 7812SOL    HW224336   3.341   1.993   6.231
 7813SOL     OW24337   5.644   0.154   0.505
 7813SOL    HW124338   5.570   0.091   0.530
 7813SOL    HW224339   5.627   0.244   0.545
 7814SOL     OW24340   6.623   2.728   1.835
 7814SOL    HW124341   6.557   2.675   1.888
 7814SOL    HW224342   6.703   2.671   1.816
 7815SOL     OW24343   5.502   4.098   5.411
 7815SOL    HW124344   5.422   4.039   5.422
 7815SOL    HW224345   5.476   4.180   5.361
 7816SOL     OW24346   0.869   1.039   5.457
 7816SOL    HW124347   0.781   1.017   5.415
 7816SOL    HW224348   0.853   1.077   5.548
 7817SOL     OW24349   3.317   2.847   6.996
 7817SOL    HW124350   3.294   2.943   7.014
 7817SOL    HW224351   3.400   2.843   6.941
 7818SOL     OW24352   5.598   0.272   4.058
 7818SOL    HW124353   5.567   0.365   4.076
 7818SOL    HW224354   5.550   0.209   4.119
 7819SOL     OW24355   1.104   3.266   4.246
 7819SOL    HW124356   1.104   3.251   4.148
 7819SOL    HW224357   1.196   3.291   4.277
 7820SOL     OW24358   1.341   6.666   5.549
 7820SOL    HW124359   1.329   6.624   5.459
 7820SOL    HW224360   1.252   6.676   5.593
 7821SOL     OW24361   4.700   6.619   0.242
 7821SOL    HW124362   4.780   6.610   0.302
 7821SOL    HW224363   4.680   6.531   0.199
 7822SOL     OW24364   0.669   1.421   5.024
 7822SOL    HW124365   0.670   1.321   5.029
 7822SOL    HW224366   0.665   1.449   4.928
 7823SOL     OW24367   2.427   3.355   5.452
 7823SOL    HW124368   2.364   3.278   5.451
 7823SOL    HW224369   2.515   3.327   5.415
 7824SOL     OW24370   5.319   3.192   2.968
 7824SOL    HW124371   5.272   3.246   3.038
 7824SOL    HW224372   5.349   3.252   2.894
 7825SOL     OW24373   3.701   3.596   2.398
 7825SOL    HW124374   3.698   3.602   2.298
 7825SOL    HW224375   3.707   3.688   2.437
 7826SOL     OW24376   6.467   0.020   1.524
 7826SOL    HW124377   6.439   6.977   1.455
 7826SOL    HW224378   6.496   6.996   1.607
 7827SOL     OW24379   4.863   3.770   0.271
 7827SOL    HW124380   4.783   3.771   0.212
 7827SOL    HW224381   4.903   3.861   0.275
 7828SOL     OW24382   0.730   5.792   0.635
 7828SOL    HW124383   0.794   5.717   0.615
 7828SOL    HW224384   0.704   5.836   0.549
 7829SOL     OW24385   4.009   3.164   2.344
 7829SOL    HW124386   4.088   3.129   2.294
 7829SOL    HW224387   4.030   3.165   2.442
 7830SOL     OW24388   5.949   3.015   6.977
 7830SOL    HW124389   5.921   2.920   6.960
 7830SOL    HW224390   6.043   3.028   6.947
 7831SOL     OW24391   1.551   2.609   6.680
 7831SOL    HW124392   1.603   2.590   6.597
 7831SOL    HW224393   1.591   2.559   6.757
 7832SOL     OW24394   2.767   2.566   5.689
 7832SOL    HW124395   2.835   2.496   5.667
 7832SOL    HW224396   2.786   2.603   5.780
 7833SOL     OW24397   1.434   6.974   0.694
 7833SOL    HW124398   1.354   6.988   0.635
 7833SOL    HW224399   1.517   6.976   0.639
 7834SOL     OW24400   0.299   0.151   1.593
 7834SOL    HW124401   0.258   0.242   1.592
 7834SOL    HW224402   0.282   0.108   1.681
 7835SOL     OW24403   2.293   2.544   4.975
 7835SOL    HW124404   2.239   2.536   4.892
 7835SOL    HW224405   2.390   2.532   4.954
 7836SOL     OW24406   2.211   0.474   6.982
 7836SOL    HW124407   2.243   0.442   0.047
 7836SOL    HW224408   2.113   0.457   6.973
 7837SOL     OW24409   5.839   0.257   3.559
 7837SOL    HW124410   5.921   0.201   3.564
 7837SOL    HW224411   5.848   0.336   3.618
 7838SOL     OW24412   3.489   6.772   3.672
 7838SOL    HW124413   3.473   6.799   3.767
 7838SOL    HW224414   3.510   6.853   3.617
 7839SOL     OW24415   6.776   5.003   4.226
 7839SOL    HW124416   6.831   5.086   4.217
 7839SOL    HW224417   6.805   4.953   4.308
 7840SOL     OW24418   5.296   3.252   6.070
 7840SOL    HW124419   5.288   3.282   6.165
 7840SOL    HW224420   5.234   3.175   6.054
 7841SOL     OW24421   1.056   1.850   6.433
 7841SOL    HW124422   1.156   1.838   6.438
 7841SOL    HW224423   1.024   1.823   6.343
 7842SOL     OW24424   2.920   1.370   2.452
 7842SOL    HW124425   2.961   1.417   2.374
 7842SOL    HW224426   2.891   1.278   2.425
 7843SOL     OW24427   6.202   3.829   1.311
 7843SOL    HW124428   6.267   3.878   1.370
 7843SOL    HW224429   6.109   3.843   1.346
 7844SOL     OW24430   4.359   1.350   4.308
 7844SOL    HW124431   4.450   1.379   4.278
 7844SOL    HW224432   4.294   1.358   4.232
 7845SOL     OW24433   0.727   0.970   3.970
 7845SOL    HW124434   0.789   0.894   3.990
 7845SOL    HW224435   0.774   1.037   3.912
 7846SOL     OW24436   3.918   0.229   2.094
 7846SOL    HW124437   4.004   0.189   2.124
 7846SOL    HW224438   3.899   0.311   2.149
 7847SOL     OW24439   6.781   0.643   0.106
 7847SOL    HW124440   6.859   0.698   0.075
 7847SOL    HW224441   6.780   0.639   0.206
 7848SOL     OW24442   4.914   4.276   0.435
 7848SOL    HW124443   4.913   4.259   0.533
 7848SOL    HW224444   5.003   4.314   0.409
 7849SOL     OW24445   5.587   4.347   5.263
 7849SOL    HW124446   5.606   4.314   5.171
 7849SOL    HW224447   5.672   4.377   5.306
 7850SOL     OW24448   0.918   0.820   4.429
 7850SOL    HW124449   0.931   0.909   4.385
 7850SOL    HW224450   0.820   0.802   4.439
 7851SOL     OW24451   5.032   6.835   0.243
 7851SOL    HW124452   5.018   6.894   0.322
 7851SOL    HW224453   5.004   6.742   0.264
 7852SOL     OW24454   2.508   6.181   6.304
 7852SOL    HW124455   2.595   6.133   6.294
 7852SOL    HW224456   2.480   6.180   6.400
 7853SOL     OW24457   2.478   2.860   0.673
 7853SOL    HW124458   2.511   2.813   0.754
 7853SOL    HW224459   2.413   2.932   0.700
 7854SOL     OW24460   3.683   4.059   2.718
 7854SOL    HW124461   3.778   4.055   2.689
 7854SOL    HW224462   3.677   4.105   2.806
 7855SOL     OW24463   3.527   6.915   5.649
 7855SOL    HW124464   3.488   7.002   5.619
 7855SOL    HW224465   3.484   6.887   5.735
 7856SOL     OW24466   4.964   3.203   6.151
 7856SOL    HW124467   4.871   3.233   6.172
 7856SOL    HW224468   5.019   3.207   6.235
 7857SOL     OW24469   0.249   1.780   4.804
 7857SOL    HW124470   0.151   1.795   4.789
 7857SOL    HW224471   0.298   1.792   4.718
 7858SOL     OW24472   6.356   4.300   3.652
 7858SOL    HW124473   6.309   4.217   3.682
 7858SOL    HW224474   6.435   4.276   3.596
 7859SOL     OW24475   0.779   5.732   6.558
 7859SOL    HW124476   0.850   5.669   6.590
 7859SOL    HW224477   0.773   5.728   6.458
 7860SOL     OW24478   3.384   0.361   2.186
 7860SOL    HW124479   3.355   0.269   2.159
 7860SOL    HW224480   3.303   0.417   2.204
 7861SOL     OW24481   5.486   4.027   0.617
 7861SOL    HW124482   5.564   3.972   0.646
 7861SOL    HW224483   5.419   3.969   0.572
 7862SOL     OW24484   3.094   4.555   1.689
 7862SOL    HW124485   3.176   4.597   1.727
 7862SOL    HW224486   3.035   4.522   1.763
 7863SOL     OW24487   6.877   6.213   1.969
 7863SOL    HW124488   6.797   6.225   2.027
 7863SOL    HW224489   6.931   6.297   1.968
 7864SOL     OW24490   0.753   5.122   4.421
 7864SOL    HW124491   0.803   5.037   4.436
 7864SOL    HW224492   0.685   5.134   4.495
 7865SOL     OW24493   2.761   0.575   2.416
 7865SOL    HW124494   2.826   0.634   2.369
 7865SOL    HW224495   2.765   0.592   2.514
 7866SOL     OW24496   2.459   2.688   4.326
 7866SOL    HW124497   2.400   2.725   4.397
 7866SOL    HW224498   2.554   2.699   4.353
 7867SOL     OW24499   5.528   5.049   2.664
 7867SOL    HW124500   5.524   5.096   2.576
 7867SOL    HW224501   5.623   5.040   2.693
 7868SOL     OW24502   5.610   0.331   0.882
 7868SOL    HW124503   5.632   0.385   0.963
 7868SOL    HW224504   5.635   0.235   0.898
 7869SOL     OW24505   0.512   2.818   2.444
 7869SOL    HW124506   0.507   2.890   2.513
 7869SOL    HW224507   0.560   2.852   2.364
 7870SOL     OW24508   0.012   6.461   3.326
 7870SOL    HW124509   0.084   6.523   3.294
 7870SOL    HW224510   0.030   6.436   3.421
 7871SOL     OW24511   5.071   3.384   3.775
 7871SOL    HW124512   5.156   3.413   3.729
 7871SOL    HW224513   5.093   3.316   3.845
 7872SOL     OW24514   6.456   3.019   3.785
 7872SOL    HW124515   6.524   3.013   3.859
 7872SOL    HW224516   6.478   2.952   3.714
 7873SOL     OW24517   6.969   5.183   5.286
 7873SOL    HW124518   6.960   5.188   5.385
 7873SOL    HW224519   6.881   5.158   5.246
 7874SOL     OW24520   6.040   0.578   0.288
 7874SOL    HW124521   5.998   0.632   0.216
 7874SOL    HW224522   6.095   0.638   0.348
 7875SOL     OW24523   4.482   3.464   6.821
 7875SOL    HW124524   4.397   3.517   6.827
 7875SOL    HW224525   4.559   3.521   6.850
 7876SOL     OW24526   6.832   0.028   4.197
 7876SOL    HW124527   6.751   6.997   4.176
 7876SOL    HW224528   6.908   6.990   4.221
 7877SOL     OW24529   6.813   2.303   1.793
 7877SOL    HW124530   6.876   2.263   1.859
 7877SOL    HW224531   6.761   2.229   1.748
 7878SOL     OW24532   4.626   4.095   1.701
 7878SOL    HW124533   4.540   4.131   1.736
 7878SOL    HW224534   4.702   4.147   1.740
 7879SOL     OW24535   5.471   0.536   4.871
 7879SOL    HW124536   5.506   0.485   4.950
 7879SOL    HW224537   5.371   0.531   4.871
 7880SOL     OW24538   1.023   6.566   6.327
 7880SOL    HW124539   0.931   6.573   6.288
 7880SOL    HW224540   1.043   6.471   6.350
 7881SOL     OW24541   0.516   5.010   3.912
 7881SOL    HW124542   0.442   4.964   3.962
 7881SOL    HW224543   0.590   5.033   3.976
 7882SOL     OW24544   0.391   4.015   2.465
 7882SOL    HW124545   0.445   3.946   2.417
 7882SOL    HW224546   0.370   4.091   2.403
 7883SOL     OW24547   3.460   1.272   4.377
 7883SOL    HW124548   3.468   1.350   4.438
 7883SOL    HW224549   3.368   1.269   4.337
 7884SOL     OW24550   0.734   3.524   4.499
 7884SOL    HW124551   0.775   3.509   4.409
 7884SOL    HW224552   0.789   3.590   4.550
 7885SOL     OW24553   5.910   5.302   3.793
 7885SOL    HW124554   5.984   5.367   3.806
 7885SOL    HW224555   5.948   5.210   3.784
 7886SOL     OW24556   4.867   3.433   3.605
 7886SOL    HW124557   4.891   3.522   3.568
 7886SOL    HW224558   4.932   3.407   3.676
 7887SOL     OW24559   2.309   3.071   0.673
 7887SOL    HW124560   2.271   3.077   0.581
 7887SOL    HW224561   2.235   3.056   0.739
 7888SOL     OW24562   6.247   2.170   4.514
 7888SOL    HW124563   6.303   2.087   4.504
 7888SOL    HW224564   6.300   2.240   4.561
 7889SOL     OW24565   5.672   5.114   0.328
 7889SOL    HW124566   5.754   5.160   0.362
 7889SOL    HW224567   5.598   5.124   0.393
 7890SOL     OW24568   1.576   3.555   4.232
 7890SOL    HW124569   1.572   3.597   4.141
 7890SOL    HW224570   1.582   3.627   4.301
 7891SOL     OW24571   7.013   1.886   4.085
 7891SOL    HW124572   0.055   1.931   4.024
 7891SOL    HW224573   0.034   1.866   4.172
 7892SOL     OW24574   0.241   1.667   5.771
 7892SOL    HW124575   0.269   1.714   5.686
 7892SOL    HW224576   0.150   1.698   5.798
 7893SOL     OW24577   6.233   0.011   0.615
 7893SOL    HW124578   6.154   0.017   0.676
 7893SOL    HW224579   6.316   0.031   0.667
 7894SOL     OW24580   3.506   1.511   6.228
 7894SOL    HW124581   3.420   1.476   6.192
 7894SOL    HW224582   3.504   1.611   6.227
 7895SOL     OW24583   5.022   6.520   3.345
 7895SOL    HW124584   4.969   6.551   3.266
 7895SOL    HW224585   4.984   6.433   3.379
 7896SOL     OW24586   2.719   2.819   1.144
 7896SOL    HW124587   2.746   2.826   1.048
 7896SOL    HW224588   2.630   2.863   1.156
 7897SOL     OW24589   3.331   3.396   0.391
 7897SOL    HW124590   3.406   3.385   0.325
 7897SOL    HW224591   3.349   3.339   0.471
 7898SOL     OW24592   6.049   6.884   3.427
 7898SOL    HW124593   6.071   6.786   3.418
 7898SOL    HW224594   5.966   6.903   3.376
 7899SOL     OW24595   5.956   5.082   3.508
 7899SOL    HW124596   5.907   5.021   3.447
 7899SOL    HW224597   5.917   5.174   3.502
 7900SOL     OW24598   0.655   4.478   1.547
 7900SOL    HW124599   0.741   4.529   1.541
 7900SOL    HW224600   0.612   4.496   1.635
 7901SOL     OW24601   6.632   1.062   6.487
 7901SOL    HW124602   6.667   0.969   6.497
 7901SOL    HW224603   6.532   1.059   6.477
 7902SOL     OW24604   1.003   6.570   2.391
 7902SOL    HW124605   1.094   6.612   2.388
 7902SOL    HW224606   0.935   6.640   2.415
 7903SOL     OW24607   3.021   2.202   4.811
 7903SOL    HW124608   3.081   2.232   4.885
 7903SOL    HW224609   2.934   2.250   4.816
 7904SOL     OW24610   5.164   0.942   1.978
 7904SOL    HW124611   5.076   0.902   1.951
 7904SOL    HW224612   5.149   1.035   2.012
 7905SOL     OW24613   5.736   0.894   1.415
 7905SOL    HW124614   5.685   0.878   1.500
 7905SOL    HW224615   5.688   0.851   1.339
 7906SOL     OW24616   1.762   5.417   0.726
 7906SOL    HW124617   1.669   5.395   0.695
 7906SOL    HW224618   1.827   5.358   0.679
 7907SOL     OW24619   6.512   0.041   3.044
 7907SOL    HW124620   6.435   0.103   3.062
 7907SOL    HW224621   6.488   7.001   2.971
 7908SOL     OW24622   0.804   0.320   6.567
 7908SOL    HW124623   0.846   0.280   6.486
 7908SOL    HW224624   0.789   0.248   6.635
 7909SOL     OW24625   6.150   4.612   2.160
 7909SOL    HW124626   6.170   4.521   2.126
 7909SOL    HW224627   6.210   4.678   2.116
 7910SOL     OW24628   1.150   3.622   0.177
 7910SOL    HW124629   1.205   3.663   0.249
 7910SOL    HW224630   1.209   3.595   0.100
 7911SOL     OW24631   0.464   4.173   7.012
 7911SOL    HW124632   0.424   4.214   0.071
 7911SOL    HW224633   0.449   4.075   7.012
 7912SOL     OW24634   5.879   5.445   0.552
 7912SOL    HW124635   5.783   5.461   0.529
 7912SOL    HW224636   5.886   5.409   0.645
 7913SOL     OW24637   0.872   4.590   1.100
 7913SOL    HW124638   0.909   4.639   1.178
 7913SOL    HW224639   0.776   4.616   1.087
 7914SOL     OW24640   6.809   6.010   4.877
 7914SOL    HW124641   6.883   6.042   4.818
 7914SOL    HW224642   6.821   5.913   4.897
 7915SOL     OW24643   3.931   6.133   2.517
 7915SOL    HW124644   3.977   6.046   2.533
 7915SOL    HW224645   3.928   6.152   2.419
 7916SOL     OW24646   1.626   0.249   4.690
 7916SOL    HW124647   1.558   0.296   4.746
 7916SOL    HW224648   1.581   0.176   4.639
 7917SOL     OW24649   4.151   3.766   0.904
 7917SOL    HW124650   4.124   3.672   0.928
 7917SOL    HW224651   4.228   3.764   0.840
 7918SOL     OW24652   1.849   1.807   4.454
 7918SOL    HW124653   1.880   1.901   4.466
 7918SOL    HW224654   1.916   1.744   4.495
 7919SOL     OW24655   2.102   6.103   4.093
 7919SOL    HW124656   2.068   6.077   4.183
 7919SOL    HW224657   2.200   6.123   4.099
 7920SOL     OW24658   5.153   0.482   0.994
 7920SOL    HW124659   5.230   0.430   0.957
 7920SOL    HW224660   5.074   0.473   0.933
 7921SOL     OW24661   5.319   2.165   1.268
 7921SOL    HW124662   5.314   2.133   1.174
 7921SOL    HW224663   5.239   2.222   1.288
 7922SOL     OW24664   1.451   5.709   1.160
 7922SOL    HW124665   1.482   5.665   1.244
 7922SOL    HW224666   1.351   5.710   1.159
 7923SOL     OW24667   5.091   1.278   0.438
 7923SOL    HW124668   5.080   1.290   0.537
 7923SOL    HW224669   5.040   1.197   0.409
 7924SOL     OW24670   6.167   6.226   0.896
 7924SOL    HW124671   6.201   6.161   0.828
 7924SOL    HW224672   6.068   6.214   0.907
 7925SOL     OW24673   1.528   6.204   6.732
 7925SOL    HW124674   1.474   6.267   6.789
 7925SOL    HW224675   1.488   6.200   6.640
 7926SOL     OW24676   4.519   5.426   0.086
 7926SOL    HW124677   4.549   5.388   7.021
 7926SOL    HW224678   4.598   5.468   0.132
 7927SOL     OW24679   4.422   0.183   3.227
 7927SOL    HW124680   4.497   0.133   3.269
 7927SOL    HW224681   4.335   0.150   3.264
 7928SOL     OW24682   6.969   2.070   3.376
 7928SOL    HW124683   0.006   2.079   3.297
 7928SOL    HW224684   6.955   2.159   3.418
 7929SOL     OW24685   4.061   4.215   6.150
 7929SOL    HW124686   4.102   4.127   6.175
 7929SOL    HW224687   4.132   4.276   6.117
 7930SOL     OW24688   4.446   6.210   5.670
 7930SOL    HW124689   4.515   6.261   5.620
 7930SOL    HW224690   4.382   6.168   5.606
 7931SOL     OW24691   3.732   2.419   0.785
 7931SOL    HW124692   3.790   2.369   0.721
 7931SOL    HW224693   3.731   2.371   0.873
 7932SOL     OW24694   1.577   4.518   2.545
 7932SOL    HW124695   1.560   4.429   2.586
 7932SOL    HW224696   1.676   4.536   2.544
 7933SOL     OW24697   0.421   1.134   6.593
 7933SOL    HW124698   0.465   1.141   6.503
 7933SOL    HW224699   0.456   1.055   6.642
 7934SOL     OW24700   0.883   4.927   1.571
 7934SOL    HW124701   0.836   4.934   1.660
 7934SOL    HW224702   0.944   5.005   1.560
 7935SOL     OW24703   5.090   3.108   3.912
 7935SOL    HW124704   5.021   3.083   3.979
 7935SOL    HW224705   5.113   3.028   3.857
 7936SOL     OW24706   3.565   5.994   3.643
 7936SOL    HW124707   3.648   6.050   3.641
 7936SOL    HW224708   3.553   5.955   3.734
 7937SOL     OW24709   3.810   0.902   6.892
 7937SOL    HW124710   3.869   0.822   6.882
 7937SOL    HW224711   3.812   0.957   6.808
 7938SOL     OW24712   3.323   6.928   4.342
 7938SOL    HW124713   3.306   6.872   4.262
 7938SOL    HW224714   3.322   0.002   4.317
 7939SOL     OW24715   0.557   1.614   4.201
 7939SOL    HW124716   0.605   1.648   4.282
 7939SOL    HW224717   0.596   1.526   4.174
 7940SOL     OW24718   5.239   1.290   3.094
 7940SOL    HW124719   5.147   1.325   3.077
 7940SOL    HW224720   5.306   1.362   3.075
 7941SOL     OW24721   3.525   6.958   1.472
 7941SOL    HW124722   3.613   6.917   1.499
 7941SOL    HW224723   3.459   6.885   1.455
 7942SOL     OW24724   1.080   4.846   0.976
 7942SOL    HW124725   1.046   4.861   1.069
 7942SOL    HW224726   1.011   4.795   0.924
 7943SOL     OW24727   1.547   5.884   6.391
 7943SOL    HW124728   1.580   5.837   6.309
 7943SOL    HW224729   1.596   5.850   6.471
 7944SOL     OW24730   1.462   2.330   1.031
 7944SOL    HW124731   1.407   2.414   1.035
 7944SOL    HW224732   1.510   2.319   1.118
 7945SOL     OW24733   6.053   4.412   2.886
 7945SOL    HW124734   6.126   4.442   2.948
 7945SOL    HW224735   5.964   4.429   2.928
 7946SOL     OW24736   3.376   1.496   5.891
 7946SOL    HW124737   3.364   1.595   5.890
 7946SOL    HW224738   3.445   1.470   5.823
 7947SOL     OW24739   0.633   3.708   6.018
 7947SOL    HW124740   0.624   3.714   6.117
 7947SOL    HW224741   0.725   3.739   5.992
 7948SOL     OW24742   1.379   4.677   2.480
 7948SOL    HW124743   1.300   4.621   2.505
 7948SOL    HW224744   1.463   4.625   2.495
 7949SOL     OW24745   3.938   6.658   5.902
 7949SOL    HW124746   3.859   6.657   5.964
 7949SOL    HW224747   3.945   6.569   5.856
 7950SOL     OW24748   5.799   4.452   5.385
 7950SOL    HW124749   5.789   4.542   5.427
 7950SOL    HW224750   5.851   4.392   5.446
 7951SOL     OW24751   3.042   6.281   2.738
 7951SOL    HW124752   3.086   6.194   2.716
 7951SOL    HW224753   3.077   6.353   2.678
 7952SOL     OW24754   5.794   3.730   6.759
 7952SOL    HW124755   5.719   3.790   6.730
 7952SOL    HW224756   5.879   3.783   6.764
 7953SOL     OW24757   3.198   0.979   1.130
 7953SOL    HW124758   3.279   0.976   1.189
 7953SOL    HW224759   3.194   1.067   1.084
 7954SOL     OW24760   3.753   3.526   6.386
 7954SOL    HW124761   3.819   3.563   6.451
 7954SOL    HW224762   3.696   3.600   6.349
 7955SOL     OW24763   1.560   1.426   6.951
 7955SOL    HW124764   1.614   1.401   0.008
 7955SOL    HW224765   1.472   1.463   6.980
 7956SOL     OW24766   6.507   6.167   0.128
 7956SOL    HW124767   6.571   6.123   0.192
 7956SOL    HW224768   6.414   6.160   0.164
 7957SOL     OW24769   4.580   1.093   5.698
 7957SOL    HW124770   4.505   1.109   5.761
 7957SOL    HW224771   4.592   0.995   5.683
 7958SOL     OW24772   5.983   2.740   6.944
 7958SOL    HW124773   5.888   2.715   6.927
 7958SOL    HW224774   6.039   2.658   6.948
 7959SOL     OW24775   5.494   1.451   6.075
 7959SOL    HW124776   5.578   1.405   6.048
 7959SOL    HW224777   5.514   1.547   6.095
 7960SOL     OW24778   0.341   0.929   5.909
 7960SOL    HW124779   0.251   0.918   5.867
 7960SOL    HW224780   0.348   1.020   5.950
 7961SOL     OW24781   6.759   6.546   0.441
 7961SOL    HW124782   6.680   6.532   0.501
 7961SOL    HW224783   6.823   6.610   0.484
 7962SOL     OW24784   5.709   0.006   5.871
 7962SOL    HW124785   5.662   0.045   5.793
 7962SOL    HW224786   5.655   6.954   5.908
 7963SOL     OW24787   0.117   6.319   4.223
 7963SOL    HW124788   0.101   6.256   4.299
 7963SOL    HW224789   0.173   6.395   4.254
 7964SOL     OW24790   6.681   4.452   1.892
 7964SOL    HW124791   6.650   4.524   1.830
 7964SOL    HW224792   6.779   4.463   1.909
 7965SOL     OW24793   3.169   2.637   6.492
 7965SOL    HW124794   3.251   2.680   6.453
 7965SOL    HW224795   3.139   2.563   6.431
 7966SOL     OW24796   4.995   3.669   4.932
 7966SOL    HW124797   5.008   3.591   4.870
 7966SOL    HW224798   4.909   3.657   4.982
 7967SOL     OW24799   1.436   4.663   1.741
 7967SOL    HW124800   1.456   4.579   1.690
 7967SOL    HW224801   1.342   4.691   1.723
 7968SOL     OW24802   0.192   2.663   5.006
 7968SOL    HW124803   0.249   2.689   4.928
 7968SOL    HW224804   0.227   2.580   5.048
 7969SOL     OW24805   4.600   4.901   0.213
 7969SOL    HW124806   4.541   4.970   0.170
 7969SOL    HW224807   4.550   4.859   0.289
 7970SOL     OW24808   5.983   2.984   2.410
 7970SOL    HW124809   5.908   2.949   2.467
 7970SOL    HW224810   5.961   2.971   2.314
 7971SOL     OW24811   3.195   1.049   0.384
 7971SOL    HW124812   3.185   0.952   0.403
 7971SOL    HW224813   3.106   1.088   0.359
 7972SOL     OW24814   3.903   3.837   3.501
 7972SOL    HW124815   3.875   3.746   3.472
 7972SOL    HW224816   3.881   3.903   3.429
 7973SOL     OW24817   6.310   3.632   2.278
 7973SOL    HW124818   6.292   3.545   2.325
 7973SOL    HW224819   6.407   3.636   2.252
 7974SOL     OW24820   6.664   2.216   6.394
 7974SOL    HW124821   6.566   2.231   6.409
 7974SOL    HW224822   6.692   2.260   6.309
 7975SOL     OW24823   5.528   0.520   1.475
 7975SOL    HW124824   5.528   0.444   1.540
 7975SOL    HW224825   5.448   0.513   1.415
 7976SOL     OW24826   0.967   0.261   0.568
 7976SOL    HW124827   0.915   0.302   0.644
 7976SOL    HW224828   1.055   0.308   0.560
 7977SOL     OW24829   5.570   5.467   3.363
 7977SOL    HW124830   5.471   5.469   3.344
 7977SOL    HW224831   5.585   5.467   3.462
 7978SOL     OW24832   0.035   4.372   1.787
 7978SOL    HW124833   0.008   4.347   1.694
 7978SOL    HW224834   0.134   4.381   1.792
 7979SOL     OW24835   1.685   2.359   4.370
 7979SOL    HW124836   1.684   2.267   4.410
 7979SOL    HW224837   1.595   2.379   4.332
 7980SOL     OW24838   4.059   5.434   0.094
 7980SOL    HW124839   4.122   5.481   0.155
 7980SOL    HW224840   4.106   5.411   0.009
 7981SOL     OW24841   1.617   4.996   2.865
 7981SOL    HW124842   1.711   4.964   2.878
 7981SOL    HW224843   1.585   5.039   2.949
 7982SOL     OW24844   6.354   1.948   5.631
 7982SOL    HW124845   6.321   1.940   5.537
 7982SOL    HW224846   6.280   1.927   5.695
 7983SOL     OW24847   5.043   1.201   1.647
 7983SOL    HW124848   5.034   1.106   1.676
 7983SOL    HW224849   5.131   1.237   1.679
 7984SOL     OW24850   0.889   1.883   3.118
 7984SOL    HW124851   0.884   1.786   3.140
 7984SOL    HW224852   0.797   1.922   3.121
 7985SOL     OW24853   2.768   2.756   5.476
 7985SOL    HW124854   2.682   2.799   5.448
 7985SOL    HW224855   2.751   2.696   5.554
 7986SOL     OW24856   2.951   1.300   3.926
 7986SOL    HW124857   2.881   1.283   3.856
 7986SOL    HW224858   2.911   1.355   4.000
 7987SOL     OW24859   1.426   3.439   0.116
 7987SOL    HW124860   1.436   3.351   0.069
 7987SOL    HW224861   1.358   3.431   0.189
 7988SOL     OW24862   6.809   1.776   1.187
 7988SOL    HW124863   6.784   1.680   1.199
 7988SOL    HW224864   6.908   1.787   1.199
 7989SOL     OW24865   0.205   4.559   0.565
 7989SOL    HW124866   0.238   4.635   0.620
 7989SOL    HW224867   0.113   4.579   0.533
 7990SOL     OW24868   3.900   5.482   5.684
 7990SOL    HW124869   3.972   5.541   5.647
 7990SOL    HW224870   3.941   5.397   5.716
 7991SOL     OW24871   6.078   1.322   4.853
 7991SOL    HW124872   6.162   1.375   4.867
 7991SOL    HW224873   6.094   1.227   4.884
 7992SOL     OW24874   2.715   6.865   6.959
 7992SOL    HW124875   2.654   6.926   6.909
 7992SOL    HW224876   2.662   6.813   0.003
 7993SOL     OW24877   6.758   5.775   1.288
 7993SOL    HW124878   6.778   5.839   1.362
 7993SOL    HW224879   6.660   5.760   1.283
 7994SOL     OW24880   5.478   0.384   3.804
 7994SOL    HW124881   5.471   0.286   3.786
 7994SOL    HW224882   5.435   0.405   3.892
 7995SOL     OW24883   0.288   4.694   1.496
 7995SOL    HW124884   0.200   4.738   1.477
 7995SOL    HW224885   0.313   4.709   1.591
 7996SOL     OW24886   2.873   0.892   3.083
 7996SOL    HW124887   2.942   0.825   3.056
 7996SOL    HW224888   2.817   0.916   3.004
 7997SOL     OW24889   1.266   1.598   6.611
 7997SOL    HW124890   1.287   1.695   6.611
 7997SOL    HW224891   1.292   1.557   6.524
 7998SOL     OW24892   2.660   1.347   0.625
 7998SOL    HW124893   2.632   1.289   0.548
 7998SOL    HW224894   2.606   1.323   0.705
 7999SOL     OW24895   0.676   0.293   4.491
 7999SOL    HW124896   0.677   0.250   4.581
 7999SOL    HW224897   0.729   0.378   4.495
 8000SOL     OW24898   4.474   5.266   6.698
 8000SOL    HW124899   4.531   5.309   6.767
 8000SOL    HW224900   4.472   5.167   6.714
 8001SOL     OW24901   4.532   6.630   1.492
 8001SOL    HW124902   4.559   6.535   1.509
 8001SOL    HW224903   4.442   6.631   1.447
 8002SOL     OW24904   0.908   0.459   5.170
 8002SOL    HW124905   0.900   0.406   5.086
 8002SOL    HW224906   0.825   0.449   5.225
 8003SOL     OW24907   1.885   5.456   2.394
 8003SOL    HW124908   1.944   5.486   2.319
 8003SOL    HW224909   1.906   5.362   2.418
 8004SOL     OW24910   1.471   3.109   3.626
 8004SOL    HW124911   1.497   3.174   3.554
 8004SOL    HW224912   1.409   3.040   3.588
 8005SOL     OW24913   2.467   0.270   3.253
 8005SOL    HW124914   2.505   0.280   3.345
 8005SOL    HW224915   2.414   0.185   3.248
 8006SOL     OW24916   3.736   4.901   5.259
 8006SOL    HW124917   3.745   4.801   5.261
 8006SOL    HW224918   3.746   4.934   5.165
 8007SOL     OW24919   6.245   0.400   6.469
 8007SOL    HW124920   6.336   0.436   6.487
 8007SOL    HW224921   6.208   0.361   6.554
 8008SOL     OW24922   5.700   6.561   6.967
 8008SOL    HW124923   5.721   6.630   0.012
 8008SOL    HW224924   5.638   6.601   6.898
 8009SOL     OW24925   5.079   1.883   6.398
 8009SOL    HW124926   4.983   1.896   6.372
 8009SOL    HW224927   5.091   1.903   6.495
 8010SOL     OW24928   2.658   1.917   5.453
 8010SOL    HW124929   2.714   1.971   5.517
 8010SOL    HW224930   2.649   1.967   5.367
 8011SOL     OW24931   4.385   1.667   2.223
 8011SOL    HW124932   4.334   1.582   2.214
 8011SOL    HW224933   4.479   1.646   2.251
 8012SOL     OW24934   6.866   1.340   5.217
 8012SOL    HW124935   6.851   1.374   5.309
 8012SOL    HW224936   6.816   1.255   5.204
 8013SOL     OW24937   3.277   2.169   2.510
 8013SOL    HW124938   3.347   2.200   2.445
 8013SOL    HW224939   3.190   2.158   2.462
 8014SOL     OW24940   2.175   1.534   2.430
 8014SOL    HW124941   2.143   1.557   2.522
 8014SOL    HW224942   2.225   1.611   2.391
 8015SOL     OW24943   3.383   0.204   5.767
 8015SOL    HW124944   3.312   0.142   5.802
 8015SOL    HW224945   3.372   0.213   5.668
 8016SOL     OW24946   3.515   1.783   4.769
 8016SOL    HW124947   3.549   1.706   4.714
 8016SOL    HW224948   3.531   1.764   4.865
 8017SOL     OW24949   6.105   6.105   1.218
 8017SOL    HW124950   6.094   6.114   1.317
 8017SOL    HW224951   6.195   6.065   1.197
 8018SOL     OW24952   4.275   1.866   6.710
 8018SOL    HW124953   4.184   1.873   6.752
 8018SOL    HW224954   4.322   1.953   6.717
 8019SOL     OW24955   2.436   3.707   1.203
 8019SOL    HW124956   2.464   3.747   1.116
 8019SOL    HW224957   2.437   3.607   1.196
 8020SOL     OW24958   6.969   0.937   5.312
 8020SOL    HW124959   0.043   0.944   5.288
 8020SOL    HW224960   6.928   0.861   5.263
 8021SOL     OW24961   1.692   2.198   1.459
 8021SOL    HW124962   1.736   2.286   1.438
 8021SOL    HW224963   1.749   2.147   1.524
 8022SOL     OW24964   4.986   1.636   2.389
 8022SOL    HW124965   4.975   1.735   2.399
 8022SOL    HW224966   5.034   1.615   2.304
 8023SOL     OW24967   4.968   5.926   2.446
 8023SOL    HW124968   5.040   5.980   2.401
 8023SOL    HW224969   4.887   5.983   2.459
 8024SOL     OW24970   2.108   1.116   6.807
 8024SOL    HW124971   2.103   1.016   6.811
 8024SOL    HW224972   2.061   1.155   6.886
 8025SOL     OW24973   1.385   5.794   1.714
 8025SOL    HW124974   1.440   5.863   1.666
 8025SOL    HW224975   1.375   5.820   1.810
 8026SOL     OW24976   0.989   5.330   6.529
 8026SOL    HW124977   0.905   5.278   6.541
 8026SOL    HW224978   1.047   5.320   6.610
 8027SOL     OW24979   3.356   0.239   6.581
 8027SOL    HW124980   3.449   0.241   6.618
 8027SOL    HW224981   3.313   0.152   6.602
 8028SOL     OW24982   3.064   5.480   5.403
 8028SOL    HW124983   3.117   5.546   5.349
 8028SOL    HW224984   3.116   5.395   5.412
 8029SOL     OW24985   6.992   6.807   0.264
 8029SOL    HW124986   6.928   6.861   0.318
 8029SOL    HW224987   6.967   6.812   0.167
 8030SOL     OW24988   0.912   3.871   0.904
 8030SOL    HW124989   0.920   3.825   0.815
 8030SOL    HW224990   0.845   3.824   0.961
 8031SOL     OW24991   0.264   0.735   3.436
 8031SOL    HW124992   0.311   0.683   3.507
 8031SOL    HW224993   0.319   0.814   3.411
 8032SOL     OW24994   6.108   3.004   1.040
 8032SOL    HW124995   6.171   3.030   1.113
 8032SOL    HW224996   6.151   3.020   0.952
 8033SOL     OW24997   5.134   3.518   0.674
 8033SOL    HW124998   5.125   3.514   0.574
 8033SOL    HW224999   5.053   3.562   0.712
 8034SOL     OW25000   6.401   0.152   5.764
 8034SOL    HW125001   6.364   0.198   5.684
 8034SOL    HW225002   6.469   0.084   5.735
 8035SOL     OW25003   5.707   1.950   2.446
 8035SOL    HW125004   5.739   1.978   2.537
 8035SOL    HW225005   5.759   1.999   2.376
 8036SOL     OW25006   5.678   2.414   3.351
 8036SOL    HW125007   5.757   2.354   3.344
 8036SOL    HW225008   5.658   2.431   3.448
 8037SOL     OW25009   1.250   2.069   5.670
 8037SOL    HW125010   1.285   2.162   5.673
 8037SOL    HW225011   1.169   2.065   5.612
 8038SOL     OW25012   6.912   4.824   2.488
 8038SOL    HW125013   6.980   4.878   2.537
 8038SOL    HW225014   6.902   4.734   2.531
 8039SOL     OW25015   1.261   2.487   5.498
 8039SOL    HW125016   1.349   2.478   5.452
 8039SOL    HW225017   1.243   2.582   5.520
 8040SOL     OW25018   2.320   5.117   6.306
 8040SOL    HW125019   2.314   5.130   6.405
 8040SOL    HW225020   2.249   5.171   6.261
 8041SOL     OW25021   3.885   1.450   3.525
 8041SOL    HW125022   3.791   1.433   3.554
 8041SOL    HW225023   3.935   1.494   3.599
 8042SOL     OW25024   4.257   4.267   5.634
 8042SOL    HW125025   4.159   4.286   5.644
 8042SOL    HW225026   4.272   4.215   5.550
 8043SOL     OW25027   5.258   5.859   6.713
 8043SOL    HW125028   5.172   5.812   6.731
 8043SOL    HW225029   5.303   5.816   6.635
 8044SOL     OW25030   2.786   3.621   1.786
 8044SOL    HW125031   2.715   3.560   1.751
 8044SOL    HW225032   2.854   3.568   1.837
 8045SOL     OW25033   0.346   2.221   3.056
 8045SOL    HW125034   0.289   2.284   3.003
 8045SOL    HW225035   0.442   2.239   3.037
 8046SOL     OW25036   6.975   4.775   2.238
 8046SOL    HW125037   6.948   4.794   2.332
 8046SOL    HW225038   7.017   4.684   2.233
 8047SOL     OW25039   3.652   6.346   6.656
 8047SOL    HW125040   3.580   6.392   6.605
 8047SOL    HW225041   3.658   6.383   6.749
 8048SOL     OW25042   3.596   2.624   6.283
 8048SOL    HW125043   3.633   2.534   6.257
 8048SOL    HW225044   3.622   2.692   6.214
 8049SOL     OW25045   1.327   1.527   0.064
 8049SOL    HW125046   1.282   1.616   0.056
 8049SOL    HW225047   1.261   1.458   0.093
 8050SOL     OW25048   0.210   4.784   5.618
 8050SOL    HW125049   0.240   4.722   5.691
 8050SOL    HW225050   0.206   4.735   5.531
 8051SOL     OW25051   3.995   6.229   3.561
 8051SOL    HW125052   4.068   6.189   3.505
 8051SOL    HW225053   4.026   6.237   3.655
 8052SOL     OW25054   2.528   2.477   2.447
 8052SOL    HW125055   2.608   2.424   2.418
 8052SOL    HW225056   2.544   2.516   2.537
 8053SOL     OW25057   1.788   2.961   6.762
 8053SOL    HW125058   1.787   3.049   6.714
 8053SOL    HW225059   1.700   2.915   6.749
 8054SOL     OW25060   4.786   3.357   5.343
 8054SOL    HW125061   4.759   3.405   5.260
 8054SOL    HW225062   4.770   3.415   5.423
 8055SOL     OW25063   6.094   0.304   6.679
 8055SOL    HW125064   6.148   0.234   6.726
 8055SOL    HW225065   6.083   0.384   6.738
 8056SOL     OW25066   2.297   1.459   4.931
 8056SOL    HW125067   2.209   1.413   4.928
 8056SOL    HW225068   2.283   1.557   4.943
 8057SOL     OW25069   2.790   2.059   1.995
 8057SOL    HW125070   2.857   2.020   1.932
 8057SOL    HW225071   2.824   2.147   2.030
 8058SOL     OW25072   3.554   6.506   2.639
 8058SOL    HW125073   3.514   6.589   2.601
 8058SOL    HW225074   3.585   6.524   2.732
 8059SOL     OW25075   2.488   2.774   6.197
 8059SOL    HW125076   2.471   2.810   6.288
 8059SOL    HW225077   2.574   2.722   6.197
 8060SOL     OW25078   6.036   0.401   5.478
 8060SOL    HW125079   5.999   0.318   5.519
 8060SOL    HW225080   5.994   0.481   5.521
 8061SOL     OW25081   0.311   0.547   2.615
 8061SOL    HW125082   0.372   0.510   2.545
 8061SOL    HW225083   0.302   0.480   2.689
 8062SOL     OW25084   4.375   5.620   5.709
 8062SOL    HW125085   4.375   5.586   5.615
 8062SOL    HW225086   4.396   5.545   5.772
 8063SOL     OW25087   3.550   5.075   3.019
 8063SOL    HW125088   3.520   4.994   3.068
 8063SOL    HW225089   3.481   5.147   3.027
 8064SOL     OW25090   6.167   1.683   0.999
 8064SOL    HW125091   6.092   1.628   0.963
 8064SOL    HW225092   6.221   1.627   1.063
 8065SOL     OW25093   3.955   5.814   6.338
 8065SOL    HW125094   3.910   5.743   6.392
 8065SOL    HW225095   3.941   5.796   6.241
 8066SOL     OW25096   0.288   0.084   5.493
 8066SOL    HW125097   0.331   7.017   5.499
 8066SOL    HW225098   0.197   0.080   5.535
 8067SOL     OW25099   5.321   2.756   4.025
 8067SOL    HW125100   5.379   2.703   3.963
 8067SOL    HW225101   5.311   2.706   4.111
 8068SOL     OW25102   6.142   4.310   1.312
 8068SOL    HW125103   6.152   4.230   1.254
 8068SOL    HW225104   6.110   4.283   1.402
 8069SOL     OW25105   2.567   5.423   2.922
 8069SOL    HW125106   2.621   5.380   2.994
 8069SOL    HW225107   2.489   5.366   2.900
 8070SOL     OW25108   4.465   4.764   0.409
 8070SOL    HW125109   4.414   4.710   0.342
 8070SOL    HW225110   4.467   4.715   0.497
 8071SOL     OW25111   2.599   6.712   5.622
 8071SOL    HW125112   2.696   6.731   5.635
 8071SOL    HW225113   2.544   6.781   5.669
 8072SOL     OW25114   1.014   2.365   5.533
 8072SOL    HW125115   0.990   2.304   5.457
 8072SOL    HW225116   1.105   2.404   5.517
 8073SOL     OW25117   3.840   0.249   7.003
 8073SOL    HW125118   3.907   0.269   0.051
 8073SOL    HW225119   3.865   0.298   6.920
 8074SOL     OW25120   1.303   0.962   6.347
 8074SOL    HW125121   1.263   1.033   6.405
 8074SOL    HW225122   1.388   0.930   6.389
 8075SOL     OW25123   0.220   6.951   0.698
 8075SOL    HW125124   0.204   0.018   0.739
 8075SOL    HW225125   0.263   6.892   0.766
 8076SOL     OW25126   6.678   5.800   0.462
 8076SOL    HW125127   6.770   5.771   0.435
 8076SOL    HW225128   6.683   5.851   0.548
 8077SOL     OW25129   4.679   4.903   0.666
 8077SOL    HW125130   4.770   4.944   0.674
 8077SOL    HW225131   4.632   4.943   0.587
 8078SOL     OW25132   0.719   0.426   2.574
 8078SOL    HW125133   0.757   0.510   2.535
 8078SOL    HW225134   0.788   0.382   2.632
 8079SOL     OW25135   1.015   2.048   5.503
 8079SOL    HW125136   0.936   2.105   5.481
 8079SOL    HW225137   0.985   1.964   5.548
 8080SOL     OW25138   1.638   2.952   3.440
 8080SOL    HW125139   1.691   2.870   3.463
 8080SOL    HW225140   1.541   2.929   3.434
 8081SOL     OW25141   6.395   6.222   4.628
 8081SOL    HW125142   6.307   6.207   4.583
 8081SOL    HW225143   6.434   6.134   4.656
 8082SOL     OW25144   3.899   1.686   2.279
 8082SOL    HW125145   3.953   1.603   2.295
 8082SOL    HW225146   3.804   1.668   2.304
 8083SOL     OW25147   5.657   2.748   4.858
 8083SOL    HW125148   5.744   2.720   4.899
 8083SOL    HW225149   5.589   2.761   4.930
 8084SOL     OW25150   3.650   1.757   5.823
 8084SOL    HW125151   3.587   1.722   5.754
 8084SOL    HW225152   3.607   1.831   5.874
 8085SOL     OW25153   1.569   6.157   4.328
 8085SOL    HW125154   1.613   6.214   4.259
 8085SOL    HW225155   1.486   6.116   4.289
 8086SOL     OW25156   0.073   0.956   2.415
 8086SOL    HW125157   0.098   0.902   2.495
 8086SOL    HW225158   7.011   1.005   2.433
 8087SOL     OW25159   1.416   0.954   0.906
 8087SOL    HW125160   1.325   0.995   0.910
 8087SOL    HW225161   1.458   0.958   0.996
 8088SOL     OW25162   6.509   0.246   4.465
 8088SOL    HW125163   6.503   0.314   4.538
 8088SOL    HW225164   6.492   0.155   4.502
 8089SOL     OW25165   5.682   2.737   6.360
 8089SOL    HW125166   5.670   2.655   6.304
 8089SOL    HW225167   5.629   2.812   6.321
 8090SOL     OW25168   4.189   2.000   5.268
 8090SOL    HW125169   4.141   1.946   5.199
 8090SOL    HW225170   4.128   2.073   5.300
 8091SOL     OW25171   1.789   4.719   4.232
 8091SOL    HW125172   1.801   4.718   4.331
 8091SOL    HW225173   1.821   4.806   4.195
 8092SOL     OW25174   4.838   2.139   5.766
 8092SOL    HW125175   4.852   2.072   5.693
 8092SOL    HW225176   4.911   2.130   5.833
 8093SOL     OW25177   3.939   6.500   2.433
 8093SOL    HW125178   3.952   6.483   2.336
 8093SOL    HW225179   4.009   6.452   2.485
 8094SOL     OW25180   1.753   4.238   3.749
 8094SOL    HW125181   1.743   4.314   3.813
 8094SOL    HW225182   1.802   4.163   3.794
 8095SOL     OW25183   1.306   4.758   5.568
 8095SOL    HW125184   1.297   4.827   5.640
 8095SOL    HW225185   1.241   4.684   5.585
 8096SOL     OW25186   0.785   5.842   1.785
 8096SOL    HW125187   0.729   5.778   1.838
 8096SOL    HW225188   0.738   5.930   1.780
 8097SOL     OW25189   3.741   5.831   5.269
 8097SOL    HW125190   3.774   5.755   5.325
 8097SOL    HW225191   3.698   5.794   5.186
 8098SOL     OW25192   1.452   5.545   5.168
 8098SOL    HW125193   1.395   5.540   5.249
 8098SOL    HW225194   1.394   5.547   5.086
 8099SOL     OW25195   2.395   5.771   3.215
 8099SOL    HW125196   2.388   5.815   3.126
 8099SOL    HW225197   2.471   5.705   3.214
 8100SOL     OW25198   0.056   0.168   0.025
 8100SOL    HW125199   7.023   0.248   0.046
 8100SOL    HW225200   0.067   0.161   6.949
 8101SOL     OW25201   2.009   6.442   1.838
 8101SOL    HW125202   2.030   6.477   1.929
 8101SOL    HW225203   2.080   6.471   1.774
 8102SOL     OW25204   1.761   3.182   5.273
 8102SOL    HW125205   1.719   3.101   5.314
 8102SOL    HW225206   1.809   3.156   5.190
 8103SOL     OW25207   3.296   1.366   1.857
 8103SOL    HW125208   3.326   1.351   1.952
 8103SOL    HW225209   3.364   1.422   1.810
 8104SOL     OW25210   1.958   6.525   0.328
 8104SOL    HW125211   1.914   6.611   0.302
 8104SOL    HW225212   1.919   6.493   0.414
 8105SOL     OW25213   0.218   0.653   3.071
 8105SOL    HW125214   0.171   0.612   3.150
 8105SOL    HW225215   0.316   0.659   3.090
 8106SOL     OW25216   2.617   6.440   5.703
 8106SOL    HW125217   2.603   6.375   5.629
 8106SOL    HW225218   2.599   6.533   5.671
 8107SOL     OW25219   1.828   6.213   6.011
 8107SOL    HW125220   1.776   6.134   6.043
 8107SOL    HW225221   1.864   6.263   6.090
 8108SOL     OW25222   0.434   1.612   6.500
 8108SOL    HW125223   0.358   1.572   6.550
 8108SOL    HW225224   0.460   1.552   6.424
 8109SOL     OW25225   6.482   2.764   0.515
 8109SOL    HW125226   6.471   2.748   0.613
 8109SOL    HW225227   6.413   2.711   0.465
 8110SOL     OW25228   4.015   5.200   1.013
 8110SOL    HW125229   4.075   5.249   0.950
 8110SOL    HW225230   3.942   5.155   0.961
 8111SOL     OW25231   6.141   1.677   2.899
 8111SOL    HW125232   6.061   1.672   2.958
 8111SOL    HW225233   6.200   1.752   2.929
 8112SOL     OW25234   1.204   3.404   5.618
 8112SOL    HW125235   1.301   3.390   5.595
 8112SOL    HW225236   1.195   3.415   5.717
 8113SOL     OW25237   5.590   3.348   6.880
 8113SOL    HW125238   5.640   3.266   6.909
 8113SOL    HW225239   5.649   3.405   6.823
 8114SOL     OW25240   2.024   4.215   1.065
 8114SOL    HW125241   2.116   4.238   1.098
 8114SOL    HW225242   2.025   4.209   0.965
 8115SOL     OW25243   2.219   1.272   6.480
 8115SOL    HW125244   2.198   1.176   6.464
 8115SOL    HW225245   2.142   1.316   6.526
 8116SOL     OW25246   3.174   4.005   1.151
 8116SOL    HW125247   3.232   3.924   1.146
 8116SOL    HW225248   3.135   4.014   1.242
 8117SOL     OW25249   3.015   6.893   2.748
 8117SOL    HW125250   2.998   6.989   2.726
 8117SOL    HW225251   2.966   6.834   2.684
 8118SOL     OW25252   6.609   2.498   0.323
 8118SOL    HW125253   6.698   2.542   0.307
 8118SOL    HW225254   6.578   2.519   0.415
 8119SOL     OW25255   5.960   6.089   6.540
 8119SOL    HW125256   6.050   6.104   6.581
 8119SOL    HW225257   5.969   6.078   6.441
 8120SOL     OW25258   2.660   6.171   1.297
 8120SOL    HW125259   2.624   6.152   1.207
 8120SOL    HW225260   2.590   6.154   1.366
 8121SOL     OW25261   1.295   3.014   2.972
 8121SOL    HW125262   1.358   3.000   3.048
 8121SOL    HW225263   1.267   3.110   2.969
 8122SOL     OW25264   0.537   4.307   2.299
 8122SOL    HW125265   0.450   4.310   2.348
 8122SOL    HW225266   0.592   4.231   2.333
 8123SOL     OW25267   7.021   1.817   5.872
 8123SOL    HW125268   0.008   1.881   5.796
 8123SOL    HW225269   6.953   1.853   5.936
 8124SOL     OW25270   5.306   4.729   4.599
 8124SOL    HW125271   5.314   4.630   4.596
 8124SOL    HW225272   5.319   4.767   4.507
 8125SOL     OW25273   1.368   6.009   2.731
 8125SOL    HW125274   1.278   6.051   2.720
 8125SOL    HW225275   1.377   5.975   2.825
 8126SOL     OW25276   3.889   4.833   3.987
 8126SOL    HW125277   3.843   4.836   4.076
 8126SOL    HW225278   3.988   4.833   4.001
 8127SOL     OW25279   3.635   3.022   6.966
 8127SOL    HW125280   3.676   3.057   6.882
 8127SOL    HW225281   3.642   3.090   0.015
 8128SOL     OW25282   3.625   2.767   2.042
 8128SOL    HW125283   3.606   2.704   2.117
 8128SOL    HW225284   3.620   2.718   1.955
 8129SOL     OW25285   1.243   2.898   1.043
 8129SOL    HW125286   1.172   2.834   1.012
 8129SOL    HW225287   1.244   2.978   0.983
 8130SOL     OW25288   1.399   4.887   6.971
 8130SOL    HW125289   1.453   4.936   6.902
 8130SOL    HW225290   1.456   4.867   0.027
 8131SOL     OW25291   1.975   3.589   0.409
 8131SOL    HW125292   1.992   3.687   0.425
 8131SOL    HW225293   1.879   3.570   0.428
 8132SOL     OW25294   0.005   6.803   5.074
 8132SOL    HW125295   6.938   6.773   5.045
 8132SOL    HW225296   0.054   6.842   4.996
 8133SOL     OW25297   3.440   5.023   0.879
 8133SOL    HW125298   3.420   4.939   0.829
 8133SOL    HW225299   3.376   5.033   0.955
 8134SOL     OW25300   6.002   1.044   5.117
 8134SOL    HW125301   5.987   0.954   5.158
 8134SOL    HW225302   6.041   1.033   5.025
 8135SOL     OW25303   2.160   0.102   1.549
 8135SOL    HW125304   2.249   0.078   1.588
 8135SOL    HW225305   2.171   0.121   1.451
 8136SOL     OW25306   4.593   4.846   2.358
 8136SOL    HW125307   4.540   4.765   2.331
 8136SOL    HW225308   4.690   4.821   2.367
 8137SOL     OW25309   4.032   1.793   4.509
 8137SOL    HW125310   4.105   1.730   4.536
 8137SOL    HW225311   3.961   1.795   4.579
 8138SOL     OW25312   4.532   1.179   1.270
 8138SOL    HW125313   4.438   1.160   1.296
 8138SOL    HW225314   4.563   1.263   1.314
 8139SOL     OW25315   1.126   2.202   3.297
 8139SOL    HW125316   1.083   2.261   3.366
 8139SOL    HW225317   1.103   2.236   3.206
 8140SOL     OW25318   3.744   0.684   3.566
 8140SOL    HW125319   3.757   0.622   3.644
 8140SOL    HW225320   3.741   0.779   3.599
 8141SOL     OW25321   4.311   5.025   4.847
 8141SOL    HW125322   4.380   5.047   4.778
 8141SOL    HW225323   4.319   4.928   4.872
 8142SOL     OW25324   5.953   5.707   0.365
 8142SOL    HW125325   5.874   5.767   0.349
 8142SOL    HW225326   5.997   5.731   0.451
 8143SOL     OW25327   6.543   3.986   4.900
 8143SOL    HW125328   6.502   3.992   4.809
 8143SOL    HW225329   6.483   3.933   4.960
 8144SOL     OW25330   5.978   6.374   6.601
 8144SOL    HW125331   5.961   6.324   6.517
 8144SOL    HW225332   6.045   6.324   6.656
 8145SOL     OW25333   5.995   6.142   2.222
 8145SOL    HW125334   5.947   6.223   2.188
 8145SOL    HW225335   6.081   6.131   2.173
 8146SOL     OW25336   3.017   1.287   4.897
 8146SOL    HW125337   3.074   1.280   4.980
 8146SOL    HW225338   2.950   1.212   4.896
 8147SOL     OW25339   4.672   1.615   3.703
 8147SOL    HW125340   4.714   1.676   3.636
 8147SOL    HW225341   4.590   1.659   3.741
 8148SOL     OW25342   5.551   3.805   3.539
 8148SOL    HW125343   5.621   3.758   3.593
 8148SOL    HW225344   5.481   3.740   3.511
 8149SOL     OW25345   4.038   5.084   3.460
 8149SOL    HW125346   4.002   4.995   3.490
 8149SOL    HW225347   3.993   5.157   3.510
 8150SOL     OW25348   0.670   5.536   6.940
 8150SOL    HW125349   0.650   5.626   6.901
 8150SOL    HW225350   0.593   5.506   6.996
 8151SOL     OW25351   1.211   1.798   5.469
 8151SOL    HW125352   1.172   1.815   5.378
 8151SOL    HW225353   1.139   1.767   5.531
 8152SOL     OW25354   1.536   0.876   2.943
 8152SOL    HW125355   1.501   0.970   2.937
 8152SOL    HW225356   1.635   0.879   2.961
 8153SOL     OW25357   1.937   6.322   0.816
 8153SOL    HW125358   1.939   6.240   0.873
 8153SOL    HW225359   2.021   6.375   0.829
 8154SOL     OW25360   2.360   6.586   3.660
 8154SOL    HW125361   2.340   6.517   3.729
 8154SOL    HW225362   2.307   6.668   3.678
 8155SOL     OW25363   2.935   3.592   3.480
 8155SOL    HW125364   3.009   3.659   3.482
 8155SOL    HW225365   2.881   3.605   3.397
 8156SOL     OW25366   6.441   0.184   6.019
 8156SOL    HW125367   6.411   0.181   5.924
 8156SOL    HW225368   6.397   0.261   6.066
 8157SOL     OW25369   6.337   3.784   6.641
 8157SOL    HW125370   6.339   3.870   6.692
 8157SOL    HW225371   6.430   3.762   6.609
 8158SOL     OW25372   1.506   4.980   2.154
 8158SOL    HW125373   1.472   4.888   2.177
 8158SOL    HW225374   1.529   5.029   2.238
 8159SOL     OW25375   1.811   6.082   2.180
 8159SOL    HW125376   1.861   6.112   2.262
 8159SOL    HW225377   1.742   6.014   2.207
 8160SOL     OW25378   4.465   2.178   1.604
 8160SOL    HW125379   4.525   2.246   1.646
 8160SOL    HW225380   4.374   2.183   1.646
 8161SOL     OW25381   5.350   1.440   0.905
 8161SOL    HW125382   5.363   1.355   0.855
 8161SOL    HW225383   5.291   1.424   0.985
 8162SOL     OW25384   6.164   0.580   1.891
 8162SOL    HW125385   6.086   0.540   1.938
 8162SOL    HW225386   6.220   0.508   1.851
 8163SOL     OW25387   2.075   4.120   5.159
 8163SOL    HW125388   2.122   4.074   5.083
 8163SOL    HW225389   2.129   4.112   5.242
 8164SOL     OW25390   4.212   2.278   2.036
 8164SOL    HW125391   4.269   2.236   1.965
 8164SOL    HW225392   4.271   2.318   2.106
 8165SOL     OW25393   2.251   5.077   1.441
 8165SOL    HW125394   2.185   5.002   1.428
 8165SOL    HW225395   2.319   5.049   1.509
 8166SOL     OW25396   2.777   6.825   1.820
 8166SOL    HW125397   2.726   6.891   1.765
 8166SOL    HW225398   2.820   6.871   1.897
 8167SOL     OW25399   6.224   2.580   3.633
 8167SOL    HW125400   6.137   2.541   3.663
 8167SOL    HW225401   6.298   2.544   3.689
 8168SOL     OW25402   3.178   1.305   2.901
 8168SOL    HW125403   3.116   1.359   2.958
 8168SOL    HW225404   3.267   1.350   2.897
 8169SOL     OW25405   4.529   3.459   6.230
 8169SOL    HW125406   4.552   3.485   6.323
 8169SOL    HW225407   4.439   3.416   6.229
 8170SOL     OW25408   0.585   5.407   3.686
 8170SOL    HW125409   0.555   5.343   3.758
 8170SOL    HW225410   0.640   5.358   3.619
 8171SOL     OW25411   0.479   1.919   5.789
 8171SOL    HW125412   0.402   1.919   5.853
 8171SOL    HW225413   0.550   1.858   5.824
 8172SOL     OW25414   6.943   6.336   1.030
 8172SOL    HW125415   6.953   6.377   0.939
 8172SOL    HW225416   7.016   6.269   1.044
 8173SOL     OW25417   4.378   2.689   6.706
 8173SOL    HW125418   4.370   2.683   6.806
 8173SOL    HW225419   4.287   2.687   6.665
 8174SOL     OW25420   5.825   0.332   2.259
 8174SOL    HW125421   5.739   0.292   2.291
 8174SOL    HW225422   5.896   0.262   2.258
 8175SOL     OW25423   0.789   3.270   6.347
 8175SOL    HW125424   0.728   3.255   6.270
 8175SOL    HW225425   0.881   3.240   6.323
 8176SOL     OW25426   2.712   5.686   2.194
 8176SOL    HW125427   2.746   5.592   2.186
 8176SOL    HW225428   2.731   5.736   2.109
 8177SOL     OW25429   0.408   6.720   5.422
 8177SOL    HW125430   0.331   6.656   5.424
 8177SOL    HW225431   0.478   6.691   5.487
 8178SOL     OW25432   2.185   6.759   6.511
 8178SOL    HW125433   2.179   6.843   6.565
 8178SOL    HW225434   2.265   6.764   6.451
 8179SOL     OW25435   3.291   1.311   0.329
 8179SOL    HW125436   3.368   1.305   0.267
 8179SOL    HW225437   3.254   1.219   0.346
 8180SOL     OW25438   5.994   5.882   5.412
 8180SOL    HW125439   6.040   5.830   5.484
 8180SOL    HW225440   6.003   5.980   5.431
 8181SOL     OW25441   2.500   2.593   2.701
 8181SOL    HW125442   2.570   2.536   2.743
 8181SOL    HW225443   2.472   2.664   2.766
 8182SOL     OW25444   3.886   3.038   5.424
 8182SOL    HW125445   3.886   2.962   5.359
 8182SOL    HW225446   3.809   3.098   5.405
 8183SOL     OW25447   1.220   3.505   4.944
 8183SOL    HW125448   1.255   3.501   5.038
 8183SOL    HW225449   1.296   3.512   4.880
 8184SOL     OW25450   5.984   6.161   5.787
 8184SOL    HW125451   5.979   6.204   5.877
 8184SOL    HW225452   5.953   6.066   5.793
 8185SOL     OW25453   2.073   1.622   2.665
 8185SOL    HW125454   2.001   1.576   2.718
 8185SOL    HW225455   2.118   1.690   2.722
 8186SOL     OW25456   3.924   5.150   6.066
 8186SOL    HW125457   3.828   5.165   6.040
 8186SOL    HW225458   3.934   5.162   6.165
 8187SOL     OW25459   1.147   1.976   5.267
 8187SOL    HW125460   1.139   2.022   5.356
 8187SOL    HW225461   1.244   1.972   5.242
 8188SOL     OW25462   5.580   3.700   2.718
 8188SOL    HW125463   5.493   3.701   2.670
 8188SOL    HW225464   5.582   3.772   2.788
 8189SOL     OW25465   5.895   4.397   2.270
 8189SOL    HW125466   5.816   4.382   2.212
 8189SOL    HW225467   5.977   4.406   2.214
 8190SOL     OW25468   4.927   3.703   3.044
 8190SOL    HW125469   4.894   3.625   2.990
 8190SOL    HW225470   4.887   3.787   3.007
 8191SOL     OW25471   0.638   5.166   3.195
 8191SOL    HW125472   0.550   5.200   3.163
 8191SOL    HW225473   0.703   5.166   3.119
 8192SOL     OW25474   1.696   4.314   1.423
 8192SOL    HW125475   1.754   4.295   1.502
 8192SOL    HW225476   1.723   4.257   1.346
 8193SOL     OW25477   3.938   0.662   5.806
 8193SOL    HW125478   3.912   0.582   5.751
 8193SOL    HW225479   4.000   0.719   5.752
 8194SOL     OW25480   1.184   0.289   0.785
 8194SOL    HW125481   1.168   0.191   0.800
 8194SOL    HW225482   1.096   0.336   0.776
 8195SOL     OW25483   6.528   7.014   0.661
 8195SOL    HW125484   6.621   6.996   0.695
 8195SOL    HW225485   6.520   0.087   0.636
 8196SOL     OW25486   2.314   0.380   6.242
 8196SOL    HW125487   2.351   0.454   6.298
 8196SOL    HW225488   2.279   0.418   6.157
 8197SOL     OW25489   0.753   6.840   6.763
 8197SOL    HW125490   0.831   6.865   6.705
 8197SOL    HW225491   0.746   6.905   6.838
 8198SOL     OW25492   3.660   6.237   2.651
 8198SOL    HW125493   3.615   6.320   2.618
 8198SOL    HW225494   3.749   6.228   2.607
 8199SOL     OW25495   6.086   3.509   0.388
 8199SOL    HW125496   6.131   3.522   0.477
 8199SOL    HW225497   6.022   3.433   0.394
 8200SOL     OW25498   5.061   3.506   1.277
 8200SOL    HW125499   5.066   3.546   1.185
 8200SOL    HW225500   4.966   3.480   1.296
 8201SOL     OW25501   6.163   0.690   4.090
 8201SOL    HW125502   6.230   0.758   4.120
 8201SOL    HW225503   6.156   0.692   3.990
 8202SOL     OW25504   1.595   4.383   3.301
 8202SOL    HW125505   1.510   4.334   3.280
 8202SOL    HW225506   1.595   4.472   3.256
 8203SOL     OW25507   5.814   3.419   0.881
 8203SOL    HW125508   5.845   3.337   0.833
 8203SOL    HW225509   5.820   3.404   0.979
 8204SOL     OW25510   3.462   0.082   0.895
 8204SOL    HW125511   3.517   0.055   0.974
 8204SOL    HW225512   3.395   0.151   0.924
 8205SOL     OW25513   5.971   5.144   3.173
 8205SOL    HW125514   5.994   5.153   3.270
 8205SOL    HW225515   5.928   5.229   3.141
 8206SOL     OW25516   4.631   1.849   4.115
 8206SOL    HW125517   4.707   1.906   4.085
 8206SOL    HW225518   4.649   1.815   4.207
 8207SOL     OW25519   2.859   6.446   6.877
 8207SOL    HW125520   2.842   6.395   6.792
 8207SOL    HW225521   2.891   6.538   6.855
 8208SOL     OW25522   1.271   4.744   6.147
 8208SOL    HW125523   1.178   4.725   6.115
 8208SOL    HW225524   1.280   4.842   6.166
 8209SOL     OW25525   0.300   6.429   5.579
 8209SOL    HW125526   0.261   6.373   5.652
 8209SOL    HW225527   0.348   6.371   5.514
 8210SOL     OW25528   2.477   2.084   6.997
 8210SOL    HW125529   2.455   2.169   6.948
 8210SOL    HW225530   2.496   2.105   0.069
 8211SOL     OW25531   3.017   3.204   4.647
 8211SOL    HW125532   3.101   3.154   4.626
 8211SOL    HW225533   3.001   3.204   4.745
 8212SOL     OW25534   3.647   6.724   0.698
 8212SOL    HW125535   3.604   6.636   0.677
 8212SOL    HW225536   3.577   6.794   0.709
 8213SOL     OW25537   4.259   4.092   1.636
 8213SOL    HW125538   4.200   4.171   1.621
 8213SOL    HW225539   4.325   4.112   1.709
 8214SOL     OW25540   3.799   5.171   4.282
 8214SOL    HW125541   3.743   5.254   4.280
 8214SOL    HW225542   3.884   5.189   4.333
 8215SOL     OW25543   3.419   6.226   6.840
 8215SOL    HW125544   3.416   6.275   6.753
 8215SOL    HW225545   3.487   6.154   6.836
 8216SOL     OW25546   5.981   4.708   1.927
 8216SOL    HW125547   5.960   4.763   2.008
 8216SOL    HW225548   6.015   4.619   1.956
 8217SOL     OW25549   2.771   6.094   4.241
 8217SOL    HW125550   2.820   6.169   4.285
 8217SOL    HW225551   2.742   6.122   4.150
 8218SOL     OW25552   2.955   6.799   4.862
 8218SOL    HW125553   2.905   6.766   4.942
 8218SOL    HW225554   2.919   6.888   4.835
 8219SOL     OW25555   4.140   2.832   1.394
 8219SOL    HW125556   4.100   2.921   1.414
 8219SOL    HW225557   4.097   2.763   1.452
 8220SOL     OW25558   3.798   3.968   4.203
 8220SOL    HW125559   3.751   4.054   4.224
 8220SOL    HW225560   3.860   3.945   4.279
 8221SOL     OW25561   5.440   3.895   3.184
 8221SOL    HW125562   5.467   3.990   3.168
 8221SOL    HW225563   5.440   3.877   3.283
 8222SOL     OW25564   6.879   3.013   0.483
 8222SOL    HW125565   6.958   2.952   0.475
 8222SOL    HW225566   6.804   2.965   0.528
 8223SOL     OW25567   1.966   6.066   5.643
 8223SOL    HW125568   1.980   6.052   5.545
 8223SOL    HW225569   1.949   6.163   5.661
 8224SOL     OW25570   5.269   1.548   0.477
 8224SOL    HW125571   5.363   1.563   0.446
 8224SOL    HW225572   5.246   1.451   0.466
 8225SOL     OW25573   5.501   1.913   0.271
 8225SOL    HW125574   5.419   1.871   0.311
 8225SOL    HW225575   5.570   1.924   0.341
 8226SOL     OW25576   4.032   0.515   0.513
 8226SOL    HW125577   4.047   0.543   0.607
 8226SOL    HW225578   3.989   0.589   0.462
 8227SOL     OW25579   4.458   2.341   2.981
 8227SOL    HW125580   4.432   2.368   3.073
 8227SOL    HW225581   4.377   2.309   2.932
 8228SOL     OW25582   2.220   6.803   4.816
 8228SOL    HW125583   2.319   6.820   4.816
 8228SOL    HW225584   2.175   6.869   4.756
 8229SOL     OW25585   4.692   4.413   0.533
 8229SOL    HW125586   4.727   4.506   0.541
 8229SOL    HW225587   4.769   4.349   0.525
 8230SOL     OW25588   5.471   0.623   6.366
 8230SOL    HW125589   5.402   0.605   6.436
 8230SOL    HW225590   5.544   0.555   6.372
 8231SOL     OW25591   2.617   1.926   2.786
 8231SOL    HW125592   2.710   1.918   2.821
 8231SOL    HW225593   2.579   2.015   2.813
 8232SOL     OW25594   3.533   5.640   3.153
 8232SOL    HW125595   3.561   5.550   3.186
 8232SOL    HW225596   3.605   5.678   3.094
 8233SOL     OW25597   0.737   1.315   5.992
 8233SOL    HW125598   0.763   1.219   5.986
 8233SOL    HW225599   0.810   1.366   6.039
 8234SOL     OW25600   0.777   2.091   0.721
 8234SOL    HW125601   0.874   2.098   0.699
 8234SOL    HW225602   0.764   2.102   0.819
 8235SOL     OW25603   0.884   6.832   1.387
 8235SOL    HW125604   0.848   6.762   1.449
 8235SOL    HW225605   0.887   6.920   1.434
 8236SOL     OW25606   1.013   6.698   1.723
 8236SOL    HW125607   1.005   6.695   1.823
 8236SOL    HW225608   0.924   6.717   1.683
 8237SOL     OW25609   4.143   5.170   6.383
 8237SOL    HW125610   4.057   5.220   6.370
 8237SOL    HW225611   4.218   5.223   6.344
 8238SOL     OW25612   0.448   4.683   0.461
 8238SOL    HW125613   0.372   4.618   0.454
 8238SOL    HW225614   0.534   4.633   0.457
 8239SOL     OW25615   1.628   1.722   5.348
 8239SOL    HW125616   1.722   1.694   5.367
 8239SOL    HW225617   1.568   1.642   5.347
 8240SOL     OW25618   3.247   3.720   4.883
 8240SOL    HW125619   3.306   3.772   4.822
 8240SOL    HW225620   3.241   3.625   4.851
 8241SOL     OW25621   2.059   4.439   5.140
 8241SOL    HW125622   2.135   4.405   5.085
 8241SOL    HW225623   2.031   4.369   5.205
 8242SOL     OW25624   0.772   3.346   3.141
 8242SOL    HW125625   0.831   3.423   3.118
 8242SOL    HW225626   0.822   3.261   3.131
 8243SOL     OW25627   2.044   5.387   4.118
 8243SOL    HW125628   2.053   5.440   4.033
 8243SOL    HW225629   2.024   5.448   4.194
 8244SOL     OW25630   6.847   1.408   4.035
 8244SOL    HW125631   6.920   1.469   4.065
 8244SOL    HW225632   6.886   1.328   3.989
 8245SOL     OW25633   5.468   2.228   2.905
 8245SOL    HW125634   5.384   2.270   2.872
 8245SOL    HW225635   5.494   2.268   2.992
 8246SOL     OW25636   1.473   4.866   6.590
 8246SOL    HW125637   1.516   4.807   6.522
 8246SOL    HW225638   1.426   4.810   6.658
 8247SOL     OW25639   3.141   5.992   2.741
 8247SOL    HW125640   3.085   5.956   2.817
 8247SOL    HW225641   3.086   5.993   2.657
 8248SOL     OW25642   6.724   5.496   3.101
 8248SOL    HW125643   6.770   5.409   3.116
 8248SOL    HW225644   6.625   5.481   3.093
 8249SOL     OW25645   3.180   1.466   6.703
 8249SOL    HW125646   3.198   1.533   6.775
 8249SOL    HW225647   3.239   1.484   6.624
 8250SOL     OW25648   1.001   1.754   0.136
 8250SOL    HW125649   1.004   1.733   0.038
 8250SOL    HW225650   0.908   1.744   0.169
 8251SOL     OW25651   1.052   2.768   5.361
 8251SOL    HW125652   1.069   2.814   5.274
 8251SOL    HW225653   1.125   2.788   5.425
 8252SOL     OW25654   1.036   2.477   6.610
 8252SOL    HW125655   1.107   2.411   6.585
 8252SOL    HW225656   0.946   2.433   6.605
 8253SOL     OW25657   4.226   5.871   0.308
 8253SOL    HW125658   4.309   5.881   0.253
 8253SOL    HW225659   4.251   5.841   0.400
 8254SOL     OW25660   5.328   5.479   6.834
 8254SOL    HW125661   5.258   5.508   6.899
 8254SOL    HW225662   5.295   5.494   6.741
 8255SOL     OW25663   2.405   0.971   5.605
 8255SOL    HW125664   2.328   0.976   5.542
 8255SOL    HW225665   2.419   0.876   5.633
 8256SOL     OW25666   1.571   4.891   5.187
 8256SOL    HW125667   1.501   4.824   5.208
 8256SOL    HW225668   1.536   4.983   5.206
 8257SOL     OW25669   5.340   4.256   2.734
 8257SOL    HW125670   5.379   4.319   2.801
 8257SOL    HW225671   5.412   4.197   2.698
 8258SOL     OW25672   0.373   3.139   2.346
 8258SOL    HW125673   0.292   3.092   2.309
 8258SOL    HW225674   0.351   3.178   2.436
 8259SOL     OW25675   5.440   1.565   3.777
 8259SOL    HW125676   5.458   1.574   3.679
 8259SOL    HW225677   5.426   1.656   3.816
 8260SOL     OW25678   4.021   2.408   1.010
 8260SOL    HW125679   4.101   2.369   0.964
 8260SOL    HW225680   3.976   2.337   1.065
 8261SOL     OW25681   5.580   1.238   2.536
 8261SOL    HW125682   5.530   1.324   2.532
 8261SOL    HW225683   5.515   1.163   2.554
 8262SOL     OW25684   5.350   3.482   1.713
 8262SOL    HW125685   5.372   3.396   1.668
 8262SOL    HW225686   5.278   3.529   1.661
 8263SOL     OW25687   6.135   1.919   5.776
 8263SOL    HW125688   6.060   1.876   5.726
 8263SOL    HW225689   6.101   1.956   5.862
 8264SOL     OW25690   3.174   0.170   2.783
 8264SOL    HW125691   3.080   0.146   2.808
 8264SOL    HW225692   3.233   0.162   2.864
 8265SOL     OW25693   4.470   6.391   0.801
 8265SOL    HW125694   4.564   6.413   0.829
 8265SOL    HW225695   4.473   6.321   0.729
 8266SOL     OW25696   3.303   1.003   3.743
 8266SOL    HW125697   3.208   1.032   3.757
 8266SOL    HW225698   3.328   1.017   3.647
 8267SOL     OW25699   2.066   3.334   2.506
 8267SOL    HW125700   1.974   3.328   2.543
 8267SOL    HW225701   2.070   3.406   2.437
 8268SOL     OW25702   3.227   4.819   6.526
 8268SOL    HW125703   3.207   4.851   6.433
 8268SOL    HW225704   3.178   4.733   6.543
 8269SOL     OW25705   6.116   2.944   4.540
 8269SOL    HW125706   6.068   2.946   4.628
 8269SOL    HW225707   6.213   2.926   4.555
 8270SOL     OW25708   3.878   6.666   6.630
 8270SOL    HW125709   3.903   6.573   6.602
 8270SOL    HW225710   3.960   6.723   6.632
 8271SOL     OW25711   3.756   6.442   6.204
 8271SOL    HW125712   3.802   6.377   6.264
 8271SOL    HW225713   3.808   6.527   6.200
 8272SOL     OW25714   1.253   0.599   2.008
 8272SOL    HW125715   1.184   0.661   2.044
 8272SOL    HW225716   1.258   0.517   2.066
 8273SOL     OW25717   4.203   0.861   0.344
 8273SOL    HW125718   4.176   0.771   0.310
 8273SOL    HW225719   4.137   0.929   0.312
 8274SOL     OW25720   5.318   6.363   5.310
 8274SOL    HW125721   5.303   6.375   5.408
 8274SOL    HW225722   5.412   6.387   5.287
 8275SOL     OW25723   5.335   0.450   4.024
 8275SOL    HW125724   5.327   0.549   4.039
 8275SOL    HW225725   5.263   0.403   4.075
 8276SOL     OW25726   6.566   2.044   6.894
 8276SOL    HW125727   6.644   2.018   6.837
 8276SOL    HW225728   6.588   2.128   6.944
 8277SOL     OW25729   1.204   0.140   6.963
 8277SOL    HW125730   1.164   0.141   6.871
 8277SOL    HW225731   1.298   0.106   6.958
 8278SOL     OW25732   2.702   1.707   0.816
 8278SOL    HW125733   2.694   1.615   0.855
 8278SOL    HW225734   2.726   1.772   0.888
 8279SOL     OW25735   3.611   6.068   5.310
 8279SOL    HW125736   3.663   5.983   5.308
 8279SOL    HW225737   3.522   6.053   5.352
 8280SOL     OW25738   5.530   4.134   0.250
 8280SOL    HW125739   5.545   4.089   0.162
 8280SOL    HW225740   5.616   4.136   0.302
 8281SOL     OW25741   2.745   5.437   0.125
 8281SOL    HW125742   2.751   5.391   0.037
 8281SOL    HW225743   2.656   5.420   0.167
 8282SOL     OW25744   2.845   2.945   1.677
 8282SOL    HW125745   2.797   2.858   1.666
 8282SOL    HW225746   2.942   2.928   1.694
 8283SOL     OW25747   0.541   6.735   3.987
 8283SOL    HW125748   0.509   6.807   3.926
 8283SOL    HW225749   0.630   6.701   3.956
 8284SOL     OW25750   3.455   1.637   2.108
 8284SOL    HW125751   3.395   1.557   2.103
 8284SOL    HW225752   3.423   1.708   2.046
 8285SOL     OW25753   2.142   4.505   6.933
 8285SOL    HW125754   2.241   4.520   6.934
 8285SOL    HW225755   2.109   4.510   6.839
 8286SOL     OW25756   5.340   2.617   5.273
 8286SOL    HW125757   5.275   2.643   5.202
 8286SOL    HW225758   5.295   2.561   5.342
 8287SOL     OW25759   1.760   6.806   3.973
 8287SOL    HW125760   1.727   6.874   3.907
 8287SOL    HW225761   1.792   6.853   4.056
 8288SOL     OW25762   2.128   0.290   2.597
 8288SOL    HW125763   2.038   0.247   2.590
 8288SOL    HW225764   2.123   0.364   2.665
 8289SOL     OW25765   5.922   1.258   6.169
 8289SOL    HW125766   5.922   1.263   6.268
 8289SOL    HW225767   6.015   1.243   6.135
 8290SOL     OW25768   4.581   2.810   1.734
 8290SOL    HW125769   4.603   2.740   1.802
 8290SOL    HW225770   4.586   2.900   1.775
 8291SOL     OW25771   4.180   5.802   6.585
 8291SOL    HW125772   4.241   5.881   6.578
 8291SOL    HW225773   4.085   5.834   6.587
 8292SOL     OW25774   0.591   3.422   4.868
 8292SOL    HW125775   0.537   3.399   4.786
 8292SOL    HW225776   0.678   3.374   4.866
 8293SOL     OW25777   2.956   5.412   3.609
 8293SOL    HW125778   2.860   5.384   3.608
 8293SOL    HW225779   3.010   5.349   3.554
 8294SOL     OW25780   4.674   3.638   5.790
 8294SOL    HW125781   4.618   3.622   5.871
 8294SOL    HW225782   4.636   3.714   5.737
 8295SOL     OW25783   5.193   5.109   2.230
 8295SOL    HW125784   5.183   5.118   2.329
 8295SOL    HW225785   5.152   5.022   2.201
 8296SOL     OW25786   4.042   6.947   2.035
 8296SOL    HW125787   3.969   6.964   1.969
 8296SOL    HW225788   4.128   6.984   2.000
 8297SOL     OW25789   5.167   4.445   3.585
 8297SOL    HW125790   5.193   4.508   3.658
 8297SOL    HW225791   5.130   4.496   3.508
 8298SOL     OW25792   0.188   6.774   0.024
 8298SOL    HW125793   0.208   6.740   6.956
 8298SOL    HW225794   0.179   6.697   0.087
 8299SOL     OW25795   0.943   3.501   0.906
 8299SOL    HW125796   0.867   3.469   0.850
 8299SOL    HW225797   0.909   3.561   0.978
 8300SOL     OW25798   6.032   5.047   3.777
 8300SOL    HW125799   5.997   5.064   3.684
 8300SOL    HW225800   6.131   5.059   3.777
 8301SOL     OW25801   5.504   6.871   0.624
 8301SOL    HW125802   5.535   6.848   0.531
 8301SOL    HW225803   5.479   6.788   0.673
 8302SOL     OW25804   3.675   0.177   5.531
 8302SOL    HW125805   3.726   0.263   5.524
 8302SOL    HW225806   3.581   0.196   5.558
 8303SOL     OW25807   0.308   5.237   2.637
 8303SOL    HW125808   0.400   5.256   2.672
 8303SOL    HW225809   0.248   5.314   2.657
 8304SOL     OW25810   5.729   4.714   3.462
 8304SOL    HW125811   5.815   4.674   3.495
 8304SOL    HW225812   5.750   4.780   3.389
 8305SOL     OW25813   5.519   6.735   5.091
 8305SOL    HW125814   5.565   6.751   5.004
 8305SOL    HW225815   5.534   6.641   5.120
 8306SOL     OW25816   0.081   1.741   2.806
 8306SOL    HW125817   0.021   1.814   2.837
 8306SOL    HW225818   0.027   1.673   2.756
 8307SOL     OW25819   1.602   3.092   2.654
 8307SOL    HW125820   1.544   3.065   2.577
 8307SOL    HW225821   1.548   3.146   2.718
 8308SOL     OW25822   0.815   5.046   0.955
 8308SOL    HW125823   0.822   5.145   0.940
 8308SOL    HW225824   0.843   4.998   0.873
 8309SOL     OW25825   6.788   4.807   4.454
 8309SOL    HW125826   6.771   4.821   4.552
 8309SOL    HW225827   6.849   4.728   4.442
 8310SOL     OW25828   1.750   0.183   0.972
 8310SOL    HW125829   1.657   0.194   0.937
 8310SOL    HW225830   1.747   0.150   1.066
 8311SOL     OW25831   5.308   5.499   3.236
 8311SOL    HW125832   5.364   5.504   3.153
 8311SOL    HW225833   5.262   5.587   3.250
 8312SOL     OW25834   5.718   1.579   0.526
 8312SOL    HW125835   5.749   1.510   0.461
 8312SOL    HW225836   5.785   1.588   0.600
 8313SOL     OW25837   5.702   2.716   5.945
 8313SOL    HW125838   5.695   2.808   5.985
 8313SOL    HW225839   5.752   2.722   5.858
 8314SOL     OW25840   4.730   6.055   4.057
 8314SOL    HW125841   4.635   6.038   4.030
 8314SOL    HW225842   4.769   5.971   4.094
 8315SOL     OW25843   3.201   3.446   4.725
 8315SOL    HW125844   3.150   3.486   4.650
 8315SOL    HW225845   3.138   3.399   4.787
 8316SOL     OW25846   2.323   2.175   5.850
 8316SOL    HW125847   2.290   2.269   5.853
 8316SOL    HW225848   2.368   2.158   5.762
 8317SOL     OW25849   0.959   2.162   3.858
 8317SOL    HW125850   0.965   2.137   3.762
 8317SOL    HW225851   0.990   2.085   3.914
 8318SOL     OW25852   4.555   0.203   6.137
 8318SOL    HW125853   4.576   0.290   6.093
 8318SOL    HW225854   4.460   0.178   6.120
 8319SOL     OW25855   2.317   5.573   6.311
 8319SOL    HW125856   2.316   5.633   6.230
 8319SOL    HW225857   2.263   5.491   6.293
 8320SOL     OW25858   3.281   3.302   5.096
 8320SOL    HW125859   3.324   3.331   5.010
 8320SOL    HW225860   3.186   3.332   5.098
 8321SOL     OW25861   0.060   0.009   0.461
 8321SOL    HW125862   0.106   7.004   0.545
 8321SOL    HW225863   0.056   6.955   0.398
 8322SOL     OW25864   0.596   6.400   0.179
 8322SOL    HW125865   0.614   6.413   0.082
 8322SOL    HW225866   0.518   6.338   0.190
 8323SOL     OW25867   5.620   4.416   0.385
 8323SOL    HW125868   5.552   4.364   0.436
 8323SOL    HW225869   5.622   4.511   0.418
 8324SOL     OW25870   4.835   5.997   0.003
 8324SOL    HW125871   4.863   6.069   0.067
 8324SOL    HW225872   4.781   6.036   6.952
 8325SOL     OW25873   1.347   6.325   5.973
 8325SOL    HW125874   1.339   6.406   6.031
 8325SOL    HW225875   1.378   6.353   5.882
 8326SOL     OW25876   1.367   2.988   6.228
 8326SOL    HW125877   1.352   2.891   6.211
 8326SOL    HW225878   1.315   3.016   6.309
 8327SOL     OW25879   1.423   5.896   4.944
 8327SOL    HW125880   1.466   5.860   5.027
 8327SOL    HW225881   1.441   5.834   4.868
 8328SOL     OW25882   0.824   6.179   0.096
 8328SOL    HW125883   0.801   6.231   0.013
 8328SOL    HW225884   0.895   6.112   0.074
 8329SOL     OW25885   1.590   3.208   4.750
 8329SOL    HW125886   1.679   3.187   4.710
 8329SOL    HW225887   1.575   3.307   4.749
 8330SOL     OW25888   3.352   1.233   6.758
 8330SOL    HW125889   3.285   1.165   6.784
 8330SOL    HW225890   3.305   1.317   6.730
 8331SOL     OW25891   1.568   2.763   6.085
 8331SOL    HW125892   1.559   2.767   5.986
 8331SOL    HW225893   1.484   2.726   6.125
 8332SOL     OW25894   6.377   4.321   1.829
 8332SOL    HW125895   6.389   4.231   1.871
 8332SOL    HW225896   6.437   4.387   1.873
 8333SOL     OW25897   1.847   4.167   0.221
 8333SOL    HW125898   1.791   4.205   0.147
 8333SOL    HW225899   1.943   4.165   0.192
 8334SOL     OW25900   2.814   2.172   5.948
 8334SOL    HW125901   2.903   2.166   5.902
 8334SOL    HW225902   2.820   2.127   6.037
 8335SOL     OW25903   5.435   4.697   6.219
 8335SOL    HW125904   5.492   4.730   6.295
 8335SOL    HW225905   5.348   4.745   6.219
 8336SOL     OW25906   0.885   4.088   3.481
 8336SOL    HW125907   0.865   4.143   3.562
 8336SOL    HW225908   0.807   4.028   3.461
 8337SOL     OW25909   0.368   1.432   4.371
 8337SOL    HW125910   0.397   1.390   4.458
 8337SOL    HW225911   0.439   1.496   4.340
 8338SOL     OW25912   3.378   5.328   1.265
 8338SOL    HW125913   3.424   5.417   1.260
 8338SOL    HW225914   3.283   5.337   1.237
 8339SOL     OW25915   5.999   0.508   1.550
 8339SOL    HW125916   5.919   0.552   1.590
 8339SOL    HW225917   6.081   0.557   1.578
 8340SOL     OW25918   5.722   2.033   6.784
 8340SOL    HW125919   5.815   2.014   6.815
 8340SOL    HW225920   5.726   2.073   6.692
 8341SOL     OW25921   3.820   1.536   1.074
 8341SOL    HW125922   3.847   1.500   1.163
 8341SOL    HW225923   3.741   1.486   1.039
 8342SOL     OW25924   4.560   0.717   0.437
 8342SOL    HW125925   4.530   0.729   0.531
 8342SOL    HW225926   4.515   0.636   0.398
 8343SOL     OW25927   5.450   4.213   3.202
 8343SOL    HW125928   5.543   4.246   3.219
 8343SOL    HW225929   5.419   4.159   3.280
 8344SOL     OW25930   0.812   5.253   6.088
 8344SOL    HW125931   0.895   5.296   6.123
 8344SOL    HW225932   0.800   5.278   5.992
 8345SOL     OW25933   5.011   0.247   3.659
 8345SOL    HW125934   4.973   0.175   3.601
 8345SOL    HW225935   5.103   0.220   3.688
 8346SOL     OW25936   5.797   3.446   4.646
 8346SOL    HW125937   5.846   3.497   4.576
 8346SOL    HW225938   5.771   3.508   4.720
 8347SOL     OW25939   2.238   1.418   6.919
 8347SOL    HW125940   2.319   1.446   6.970
 8347SOL    HW225941   2.201   1.334   6.960
 8348SOL     OW25942   3.140   6.284   2.346
 8348SOL    HW125943   3.152   6.282   2.247
 8348SOL    HW225944   3.224   6.253   2.391
 8349SOL     OW25945   6.220   6.088   2.069
 8349SOL    HW125946   6.260   6.016   2.125
 8349SOL    HW225947   6.292   6.145   2.031
 8350SOL     OW25948   2.071   0.846   6.871
 8350SOL    HW125949   1.984   0.845   6.822
 8350SOL    HW225950   2.054   0.861   6.969
 8351SOL     OW25951   0.294   3.291   3.077
 8351SOL    HW125952   0.227   3.228   3.038
 8351SOL    HW225953   0.253   3.342   3.152
 8352SOL     OW25954   3.011   5.515   0.994
 8352SOL    HW125955   2.989   5.526   1.091
 8352SOL    HW225956   2.927   5.517   0.940
 8353SOL     OW25957   1.179   4.801   1.574
 8353SOL    HW125958   1.107   4.850   1.623
 8353SOL    HW225959   1.261   4.858   1.569
 8354SOL     OW25960   3.133   0.020   3.158
 8354SOL    HW125961   3.057   7.002   3.107
 8354SOL    HW225962   3.205   0.046   3.094
 8355SOL     OW25963   3.061   6.803   6.377
 8355SOL    HW125964   2.984   6.759   6.422
 8355SOL    HW225965   3.143   6.746   6.386
 8356SOL     OW25966   1.908   5.211   0.612
 8356SOL    HW125967   1.936   5.126   0.657
 8356SOL    HW225968   1.931   5.206   0.515
 8357SOL     OW25969   4.605   6.751   5.660
 8357SOL    HW125970   4.549   6.669   5.671
 8357SOL    HW225971   4.550   6.833   5.676
 8358SOL     OW25972   1.113   1.085   5.043
 8358SOL    HW125973   1.211   1.101   5.044
 8358SOL    HW225974   1.071   1.128   5.123
 8359SOL     OW25975   3.764   2.105   5.989
 8359SOL    HW125976   3.704   2.026   6.001
 8359SOL    HW225977   3.799   2.106   5.896
 8360SOL     OW25978   4.810   0.340   1.188
 8360SOL    HW125979   4.789   0.272   1.258
 8360SOL    HW225980   4.909   0.343   1.173
 8361SOL     OW25981   3.855   1.077   6.669
 8361SOL    HW125982   3.918   1.031   6.606
 8361SOL    HW225983   3.813   1.156   6.624
 8362SOL     OW25984   0.159   4.307   1.122
 8362SOL    HW125985   0.139   4.377   1.054
 8362SOL    HW225986   0.173   4.349   1.211
 8363SOL     OW25987   1.517   2.873   0.969
 8363SOL    HW125988   1.553   2.966   0.965
 8363SOL    HW225989   1.432   2.872   1.022
 8364SOL     OW25990   7.015   3.457   4.632
 8364SOL    HW125991   0.025   3.451   4.725
 8364SOL    HW225992   6.972   3.546   4.617
 8365SOL     OW25993   1.524   2.185   2.090
 8365SOL    HW125994   1.440   2.190   2.144
 8365SOL    HW225995   1.602   2.211   2.147
 8366SOL     OW25996   5.508   5.191   2.430
 8366SOL    HW125997   5.561   5.223   2.351
 8366SOL    HW225998   5.455   5.267   2.468
 8367SOL     OW25999   2.686   5.488   4.054
 8367SOL    HW126000   2.713   5.462   4.147
 8367SOL    HW226001   2.620   5.421   4.019
 8368SOL     OW26002   5.910   6.355   6.334
 8368SOL    HW126003   5.933   6.452   6.331
 8368SOL    HW226004   5.811   6.344   6.326
 8369SOL     OW26005   2.361   6.550   0.987
 8369SOL    HW126006   2.443   6.523   0.937
 8369SOL    HW226007   2.378   6.635   1.037
 8370SOL     OW26008   2.692   4.179   6.965
 8370SOL    HW126009   2.758   4.195   6.891
 8370SOL    HW226010   2.735   4.125   0.014
 8371SOL     OW26011   1.940   4.611   4.945
 8371SOL    HW126012   1.964   4.530   4.998
 8371SOL    HW226013   1.902   4.680   5.007
 8372SOL     OW26014   1.755   6.434   1.716
 8372SOL    HW126015   1.820   6.427   1.791
 8372SOL    HW226016   1.694   6.511   1.731
 8373SOL     OW26017   6.751   1.820   4.117
 8373SOL    HW126018   6.823   1.888   4.124
 8373SOL    HW226019   6.750   1.782   4.024
 8374SOL     OW26020   6.828   1.632   4.317
 8374SOL    HW126021   6.916   1.594   4.287
 8374SOL    HW226022   6.795   1.697   4.248
 8375SOL     OW26023   3.340   0.691   4.791
 8375SOL    HW126024   3.242   0.672   4.793
 8375SOL    HW226025   3.355   0.781   4.749
 8376SOL     OW26026   1.608   1.191   3.427
 8376SOL    HW126027   1.642   1.260   3.362
 8376SOL    HW226028   1.620   1.100   3.388
 8377SOL     OW26029   5.120   5.203   0.467
 8377SOL    HW126030   5.050   5.267   0.499
 8377SOL    HW226031   5.127   5.207   0.368
 8378SOL     OW26032   5.289   5.613   4.324
 8378SOL    HW126033   5.204   5.665   4.330
 8378SOL    HW226034   5.289   5.541   4.392
 8379SOL     OW26035   5.393   1.301   1.225
 8379SOL    HW126036   5.309   1.319   1.278
 8379SOL    HW226037   5.469   1.353   1.265
 8380SOL     OW26038   6.673   5.763   0.828
 8380SOL    HW126039   6.728   5.701   0.884
 8380SOL    HW226040   6.710   5.856   0.835
 8381SOL     OW26041   0.483   1.585   2.716
 8381SOL    HW126042   0.431   1.660   2.675
 8381SOL    HW226043   0.553   1.623   2.777
 8382SOL     OW26044   1.900   0.762   0.792
 8382SOL    HW126045   1.982   0.810   0.760
 8382SOL    HW226046   1.897   0.764   0.892
 8383SOL     OW26047   3.129   6.904   6.830
 8383SOL    HW126048   3.169   6.934   6.916
 8383SOL    HW226049   3.196   6.915   6.756
 8384SOL     OW26050   0.760   2.909   2.653
 8384SOL    HW126051   0.857   2.892   2.671
 8384SOL    HW226052   0.712   2.821   2.646
 8385SOL     OW26053   4.417   3.041   1.385
 8385SOL    HW126054   4.454   3.131   1.364
 8385SOL    HW226055   4.331   3.028   1.336
 8386SOL     OW26056   2.411   5.564   1.935
 8386SOL    HW126057   2.328   5.594   1.983
 8386SOL    HW226058   2.455   5.491   1.987
 8387SOL     OW26059   1.404   1.115   2.953
 8387SOL    HW126060   1.338   1.164   3.009
 8387SOL    HW226061   1.449   1.179   2.891
 8388SOL     OW26062   4.668   6.346   1.341
 8388SOL    HW126063   4.735   6.321   1.411
 8388SOL    HW226064   4.660   6.272   1.274
 8389SOL     OW26065   0.162   2.676   3.728
 8389SOL    HW126066   0.234   2.629   3.677
 8389SOL    HW226067   0.202   2.748   3.786
 8390SOL     OW26068   2.813   6.945   5.454
 8390SOL    HW126069   2.830   6.888   5.534
 8390SOL    HW226070   2.765   6.891   5.384
 8391SOL     OW26071   5.417   6.079   1.202
 8391SOL    HW126072   5.463   6.022   1.270
 8391SOL    HW226073   5.425   6.035   1.112
 8392SOL     OW26074   6.233   6.425   5.725
 8392SOL    HW126075   6.222   6.453   5.820
 8392SOL    HW226076   6.258   6.328   5.722
 8393SOL     OW26077   6.817   5.916   2.988
 8393SOL    HW126078   6.732   5.867   2.967
 8393SOL    HW226079   6.869   5.866   3.056
 8394SOL     OW26080   0.937   1.744   2.738
 8394SOL    HW126081   1.010   1.726   2.803
 8394SOL    HW226082   0.862   1.679   2.753
 8395SOL     OW26083   0.756   6.207   5.715
 8395SOL    HW126084   0.847   6.237   5.689
 8395SOL    HW226085   0.694   6.285   5.716
 8396SOL     OW26086   4.793   3.511   1.340
 8396SOL    HW126087   4.723   3.456   1.386
 8396SOL    HW226088   4.749   3.584   1.287
 8397SOL     OW26089   1.834   5.530   3.413
 8397SOL    HW126090   1.864   5.588   3.338
 8397SOL    HW226091   1.758   5.473   3.383
 8398SOL     OW26092   4.805   1.995   0.628
 8398SOL    HW126093   4.759   1.980   0.540
 8398SOL    HW226094   4.748   1.958   0.701
 8399SOL     OW26095   5.687   5.806   0.290
 8399SOL    HW126096   5.604   5.847   0.326
 8399SOL    HW226097   5.729   5.868   0.223
 8400SOL     OW26098   6.279   0.459   3.863
 8400SOL    HW126099   6.258   0.555   3.841
 8400SOL    HW226100   6.194   0.407   3.872
 8401SOL     OW26101   3.215   4.876   6.246
 8401SOL    HW126102   3.231   4.940   6.171
 8401SOL    HW226103   3.155   4.802   6.216
 8402SOL     OW26104   4.240   2.064   0.223
 8402SOL    HW126105   4.229   2.107   0.133
 8402SOL    HW226106   4.291   1.979   0.213
 8403SOL     OW26107   1.353   1.742   4.698
 8403SOL    HW126108   1.328   1.781   4.787
 8403SOL    HW226109   1.270   1.727   4.644
 8404SOL     OW26110   4.390   4.792   5.572
 8404SOL    HW126111   4.315   4.822   5.631
 8404SOL    HW226112   4.476   4.829   5.607
 8405SOL     OW26113   0.592   3.062   4.992
 8405SOL    HW126114   0.556   3.111   4.913
 8405SOL    HW226115   0.658   3.121   5.040
 8406SOL     OW26116   5.180   3.265   1.814
 8406SOL    HW126117   5.202   3.360   1.838
 8406SOL    HW226118   5.113   3.229   1.879
 8407SOL     OW26119   5.195   4.049   2.465
 8407SOL    HW126120   5.131   4.114   2.425
 8407SOL    HW226121   5.164   4.022   2.556
 8408SOL     OW26122   4.626   2.606   3.981
 8408SOL    HW126123   4.533   2.569   3.988
 8408SOL    HW226124   4.688   2.551   4.037
 8409SOL     OW26125   0.879   2.586   4.092
 8409SOL    HW126126   0.953   2.521   4.077
 8409SOL    HW226127   0.874   2.611   4.188
 8410SOL     OW26128   3.700   6.886   2.289
 8410SOL    HW126129   3.777   6.946   2.314
 8410SOL    HW226130   3.693   6.812   2.355
 8411SOL     OW26131   1.981   3.010   3.682
 8411SOL    HW126132   1.973   2.912   3.701
 8411SOL    HW226133   2.058   3.048   3.733
 8412SOL     OW26134   6.308   2.904   2.790
 8412SOL    HW126135   6.285   2.814   2.753
 8412SOL    HW226136   6.395   2.899   2.841
 8413SOL     OW26137   2.657   4.203   0.835
 8413SOL    HW126138   2.684   4.147   0.757
 8413SOL    HW226139   2.592   4.153   0.892
 8414SOL     OW26140   4.748   6.647   2.634
 8414SOL    HW126141   4.723   6.554   2.605
 8414SOL    HW226142   4.702   6.713   2.576
 8415SOL     OW26143   6.314   3.453   2.501
 8415SOL    HW126144   6.403   3.416   2.528
 8415SOL    HW226145   6.291   3.531   2.560
 8416SOL     OW26146   5.135   3.904   2.243
 8416SOL    HW126147   5.040   3.926   2.225
 8416SOL    HW226148   5.163   3.947   2.329
 8417SOL     OW26149   2.712   6.191   5.913
 8417SOL    HW126150   2.694   6.093   5.902
 8417SOL    HW226151   2.632   6.243   5.883
 8418SOL     OW26152   5.841   5.851   2.758
 8418SOL    HW126153   5.848   5.930   2.820
 8418SOL    HW226154   5.827   5.883   2.665
 8419SOL     OW26155   4.234   0.292   3.732
 8419SOL    HW126156   4.300   0.363   3.710
 8419SOL    HW226157   4.168   0.327   3.798
 8420SOL     OW26158   3.923   1.807   5.907
 8420SOL    HW126159   3.839   1.790   5.855
 8420SOL    HW226160   3.982   1.727   5.904
 8421SOL     OW26161   2.458   6.802   1.848
 8421SOL    HW126162   2.538   6.860   1.863
 8421SOL    HW226163   2.482   6.728   1.785
 8422SOL     OW26164   3.928   0.126   1.666
 8422SOL    HW126165   3.897   0.204   1.721
 8422SOL    HW226166   4.006   0.082   1.711
 8423SOL     OW26167   2.852   4.207   1.431
 8423SOL    HW126168   2.775   4.183   1.489
 8423SOL    HW226169   2.928   4.240   1.488
 8424SOL     OW26170   3.063   2.184   2.744
 8424SOL    HW126171   2.999   2.261   2.747
 8424SOL    HW226172   3.155   2.218   2.724
 8425SOL     OW26173   5.464   5.333   0.204
 8425SOL    HW126174   5.486   5.325   0.107
 8425SOL    HW226175   5.527   5.276   0.257
 8426SOL     OW26176   3.760   3.482   2.635
 8426SOL    HW126177   3.819   3.548   2.681
 8426SOL    HW226178   3.738   3.515   2.543
 8427SOL     OW26179   2.001   3.726   6.317
 8427SOL    HW126180   2.054   3.722   6.402
 8427SOL    HW226181   1.905   3.706   6.337
 8428SOL     OW26182   6.002   4.729   2.391
 8428SOL    HW126183   6.004   4.646   2.447
 8428SOL    HW226184   6.050   4.712   2.304
 8429SOL     OW26185   1.649   6.228   2.543
 8429SOL    HW126186   1.633   6.149   2.602
 8429SOL    HW226187   1.741   6.221   2.504
 8430SOL     OW26188   4.606   4.437   3.066
 8430SOL    HW126189   4.654   4.519   3.097
 8430SOL    HW226190   4.559   4.458   2.980
 8431SOL     OW26191   3.074   4.202   0.928
 8431SOL    HW126192   3.133   4.213   0.848
 8431SOL    HW226193   3.113   4.135   0.990
 8432SOL     OW26194   4.329   6.216   6.506
 8432SOL    HW126195   4.334   6.202   6.604
 8432SOL    HW226196   4.359   6.309   6.484
 8433SOL     OW26197   0.678   1.329   5.370
 8433SOL    HW126198   0.628   1.316   5.285
 8433SOL    HW226199   0.665   1.248   5.428
 8434SOL     OW26200   5.473   6.493   5.829
 8434SOL    HW126201   5.399   6.471   5.891
 8434SOL    HW226202   5.441   6.557   5.759
 8435SOL     OW26203   4.639   2.140   1.390
 8435SOL    HW126204   4.565   2.158   1.455
 8435SOL    HW226205   4.711   2.208   1.402
 8436SOL     OW26206   3.698   4.583   1.362
 8436SOL    HW126207   3.660   4.491   1.353
 8436SOL    HW226208   3.794   4.583   1.336
 8437SOL     OW26209   0.161   0.953   1.298
 8437SOL    HW126210   0.208   0.956   1.210
 8437SOL    HW226211   0.147   0.858   1.326
 8438SOL     OW26212   2.009   6.765   1.887
 8438SOL    HW126213   1.938   6.734   1.949
 8438SOL    HW226214   2.066   6.833   1.932
 8439SOL     OW26215   6.717   6.234   1.692
 8439SOL    HW126216   6.792   6.195   1.744
 8439SOL    HW226217   6.751   6.309   1.635
 8440SOL     OW26218   0.584   1.572   3.672
 8440SOL    HW126219   0.539   1.506   3.612
 8440SOL    HW226220   0.538   1.573   3.761
 8441SOL     OW26221   4.213   5.295   0.794
 8441SOL    HW126222   4.175   5.262   0.708
 8441SOL    HW226223   4.268   5.223   0.836
 8442SOL     OW26224   2.215   4.079   0.312
 8442SOL    HW126225   2.182   4.143   0.242
 8442SOL    HW226226   2.279   4.127   0.372
 8443SOL     OW26227   2.010   1.186   2.413
 8443SOL    HW126228   1.912   1.180   2.394
 8443SOL    HW226229   2.060   1.121   2.356
 8444SOL     OW26230   4.049   6.938   3.133
 8444SOL    HW126231   3.972   6.951   3.070
 8444SOL    HW226232   4.098   6.855   3.108
 8445SOL     OW26233   3.926   4.826   1.940
 8445SOL    HW126234   3.829   4.804   1.942
 8445SOL    HW226235   3.956   4.851   2.032
 8446SOL     OW26236   6.580   4.574   3.430
 8446SOL    HW126237   6.615   4.596   3.521
 8446SOL    HW226238   6.543   4.657   3.387
 8447SOL     OW26239   4.889   3.082   1.132
 8447SOL    HW126240   4.901   3.060   1.229
 8447SOL    HW226241   4.978   3.081   1.087
 8448SOL     OW26242   0.721   2.963   6.528
 8448SOL    HW126243   0.649   3.031   6.542
 8448SOL    HW226244   0.740   2.954   6.431
 8449SOL     OW26245   1.799   2.389   5.458
 8449SOL    HW126246   1.774   2.314   5.396
 8449SOL    HW226247   1.758   2.374   5.548
 8450SOL     OW26248   2.034   5.220   2.459
 8450SOL    HW126249   2.119   5.255   2.420
 8450SOL    HW226250   1.990   5.159   2.392
 8451SOL     OW26251   3.606   3.157   0.705
 8451SOL    HW126252   3.628   3.062   0.684
 8451SOL    HW226253   3.680   3.216   0.674
 8452SOL     OW26254   6.863   5.887   1.082
 8452SOL    HW126255   6.837   5.835   1.164
 8452SOL    HW226256   6.783   5.936   1.047
 8453SOL     OW26257   0.075   4.808   5.958
 8453SOL    HW126258   0.154   4.774   5.907
 8453SOL    HW226259   0.005   4.737   5.962
 8454SOL     OW26260   1.785   6.813   4.836
 8454SOL    HW126261   1.848   6.885   4.808
 8454SOL    HW226262   1.713   6.803   4.768
 8455SOL     OW26263   5.711   1.931   1.533
 8455SOL    HW126264   5.797   1.974   1.561
 8455SOL    HW226265   5.647   1.935   1.610
 8456SOL     OW26266   5.333   5.619   2.729
 8456SOL    HW126267   5.335   5.538   2.787
 8456SOL    HW226268   5.249   5.617   2.674
 8457SOL     OW26269   0.062   6.330   6.716
 8457SOL    HW126270   0.061   6.426   6.744
 8457SOL    HW226271   0.061   6.325   6.616
 8458SOL     OW26272   1.065   1.391   1.463
 8458SOL    HW126273   1.108   1.307   1.428
 8458SOL    HW226274   0.966   1.385   1.450
 8459SOL     OW26275   2.613   5.124   2.519
 8459SOL    HW126276   2.642   5.108   2.425
 8459SOL    HW226277   2.553   5.050   2.549
 8460SOL     OW26278   4.591   1.019   0.582
 8460SOL    HW126279   4.540   1.013   0.495
 8460SOL    HW226280   4.663   1.088   0.574
 8461SOL     OW26281   5.462   4.062   2.383
 8461SOL    HW126282   5.363   4.055   2.397
 8461SOL    HW226283   5.506   4.086   2.469
 8462SOL     OW26284   2.758   5.166   7.018
 8462SOL    HW126285   2.854   5.173   0.024
 8462SOL    HW226286   2.751   5.099   6.944
 8463SOL     OW26287   6.432   0.882   0.466
 8463SOL    HW126288   6.387   0.970   0.451
 8463SOL    HW226289   6.399   0.842   0.552
 8464SOL     OW26290   0.377   3.352   6.248
 8464SOL    HW126291   0.364   3.444   6.210
 8464SOL    HW226292   0.451   3.306   6.199
 8465SOL     OW26293   4.452   3.138   1.054
 8465SOL    HW126294   4.379   3.175   1.111
 8465SOL    HW226295   4.538   3.183   1.078
 8466SOL     OW26296   6.111   1.327   5.625
 8466SOL    HW126297   6.205   1.294   5.630
 8466SOL    HW226298   6.076   1.315   5.532
 8467SOL     OW26299   3.473   0.777   1.091
 8467SOL    HW126300   3.550   0.808   1.034
 8467SOL    HW226301   3.393   0.762   1.033
 8468SOL     OW26302   6.123   2.965   0.516
 8468SOL    HW126303   6.095   2.871   0.537
 8468SOL    HW226304   6.047   3.015   0.475
 8469SOL     OW26305   4.705   3.229   6.224
 8469SOL    HW126306   4.663   3.166   6.289
 8469SOL    HW226307   4.658   3.317   6.228
 8470SOL     OW26308   1.696   4.808   1.432
 8470SOL    HW126309   1.757   4.872   1.386
 8470SOL    HW226310   1.680   4.729   1.373
 8471SOL     OW26311   3.441   2.044   4.482
 8471SOL    HW126312   3.482   2.057   4.572
 8471SOL    HW226313   3.458   1.951   4.450
 8472SOL     OW26314   5.717   1.268   5.543
 8472SOL    HW126315   5.738   1.231   5.452
 8472SOL    HW226316   5.621   1.249   5.565
 8473SOL     OW26317   4.617   4.492   6.963
 8473SOL    HW126318   4.652   4.554   0.010
 8473SOL    HW226319   4.654   4.400   6.978
 8474SOL     OW26320   3.728   4.147   2.986
 8474SOL    HW126321   3.702   4.166   3.080
 8474SOL    HW226322   3.790   4.068   2.983
 8475SOL     OW26323   0.312   2.813   2.051
 8475SOL    HW126324   0.380   2.885   2.069
 8475SOL    HW226325   0.358   2.732   2.016
 8476SOL     OW26326   6.302   0.237   2.238
 8476SOL    HW126327   6.391   0.260   2.277
 8476SOL    HW226328   6.310   0.229   2.139
 8477SOL     OW26329   5.507   6.934   1.932
 8477SOL    HW126330   5.600   6.972   1.936
 8477SOL    HW226331   5.472   6.943   1.838
 8478SOL     OW26332   6.367   0.521   5.890
 8478SOL    HW126333   6.319   0.454   5.947
 8478SOL    HW226334   6.416   0.585   5.949
 8479SOL     OW26335   1.006   2.397   0.919
 8479SOL    HW126336   0.916   2.403   0.963
 8479SOL    HW226337   1.062   2.330   0.968
 8480SOL     OW26338   4.284   3.775   6.978
 8480SOL    HW126339   4.272   3.682   7.013
 8480SOL    HW226340   4.255   3.840   0.024
 8481SOL     OW26341   4.281   1.442   3.305
 8481SOL    HW126342   4.187   1.411   3.296
 8481SOL    HW226343   4.327   1.390   3.378
 8482SOL     OW26344   4.637   1.002   0.861
 8482SOL    HW126345   4.563   1.046   0.911
 8482SOL    HW226346   4.626   1.019   0.763
 8483SOL     OW26347   3.279   5.591   2.908
 8483SOL    HW126348   3.313   5.677   2.947
 8483SOL    HW226349   3.231   5.539   2.979
 8484SOL     OW26350   5.374   5.486   4.772
 8484SOL    HW126351   5.391   5.555   4.843
 8484SOL    HW226352   5.456   5.430   4.761
 8485SOL     OW26353   3.178   2.745   0.278
 8485SOL    HW126354   3.214   2.818   0.220
 8485SOL    HW226355   3.208   2.761   0.373
 8486SOL     OW26356   0.637   1.977   3.101
 8486SOL    HW126357   0.551   1.953   3.147
 8486SOL    HW226358   0.636   1.942   3.008
 8487SOL     OW26359   6.107   1.552   5.808
 8487SOL    HW126360   6.103   1.475   5.744
 8487SOL    HW226361   6.022   1.556   5.861
 8488SOL     OW26362   4.454   4.746   1.239
 8488SOL    HW126363   4.422   4.841   1.242
 8488SOL    HW226364   4.454   4.709   1.332
 8489SOL     OW26365   5.188   1.936   1.833
 8489SOL    HW126366   5.247   1.929   1.913
 8489SOL    HW226367   5.123   1.860   1.832
 8490SOL     OW26368   3.019   0.213   6.432
 8490SOL    HW126369   3.078   0.291   6.452
 8490SOL    HW226370   2.968   0.188   6.514
 8491SOL     OW26371   3.125   5.606   1.868
 8491SOL    HW126372   3.218   5.642   1.873
 8491SOL    HW226373   3.111   5.561   1.780
 8492SOL     OW26374   6.882   6.243   4.086
 8492SOL    HW126375   6.946   6.199   4.149
 8492SOL    HW226376   6.898   6.342   4.086
 8493SOL     OW26377   4.563   1.025   6.889
 8493SOL    HW126378   4.566   1.066   6.980
 8493SOL    HW226379   4.554   1.096   6.820
 8494SOL     OW26380   6.549   4.732   2.405
 8494SOL    HW126381   6.630   4.676   2.386
 8494SOL    HW226382   6.469   4.689   2.362
 8495SOL     OW26383   6.445   5.541   6.988
 8495SOL    HW126384   6.539   5.509   6.976
 8495SOL    HW226385   6.382   5.479   6.942
 8496SOL     OW26386   5.434   3.028   2.022
 8496SOL    HW126387   5.482   3.101   1.974
 8496SOL    HW226388   5.493   2.988   2.091
 8497SOL     OW26389   6.847   0.883   3.706
 8497SOL    HW126390   6.940   0.905   3.675
 8497SOL    HW226391   6.842   0.786   3.729
 8498SOL     OW26392   4.651   0.248   4.111
 8498SOL    HW126393   4.711   0.273   4.034
 8498SOL    HW226394   4.665   0.314   4.185
 8499SOL     OW26395   6.155   6.717   6.413
 8499SOL    HW126396   6.215   6.789   6.378
 8499SOL    HW226397   6.087   6.757   6.474
 8500SOL     OW26398   0.704   0.699   4.829
 8500SOL    HW126399   0.695   0.773   4.763
 8500SOL    HW226400   0.789   0.649   4.813
 8501SOL     OW26401   0.829   2.400   6.297
 8501SOL    HW126402   0.928   2.398   6.293
 8501SOL    HW226403   0.791   2.329   6.238
 8502SOL     OW26404   0.786   3.762   6.971
 8502SOL    HW126405   0.749   3.681   7.016
 8502SOL    HW226406   0.871   3.738   6.925
 8503SOL     OW26407   5.964   1.302   4.601
 8503SOL    HW126408   5.955   1.204   4.584
 8503SOL    HW226409   6.006   1.317   4.691
 8504SOL     OW26410   1.258   6.176   1.823
 8504SOL    HW126411   1.165   6.157   1.854
 8504SOL    HW226412   1.317   6.097   1.843
 8505SOL     OW26413   4.888   3.400   2.887
 8505SOL    HW126414   4.917   3.319   2.837
 8505SOL    HW226415   4.919   3.482   2.839
 8506SOL     OW26416   1.928   0.671   6.259
 8506SOL    HW126417   1.884   0.590   6.297
 8506SOL    HW226418   1.999   0.703   6.322
 8507SOL     OW26419   3.723   6.275   5.165
 8507SOL    HW126420   3.687   6.196   5.216
 8507SOL    HW226421   3.799   6.316   5.216
 8508SOL     OW26422   3.440   1.782   6.484
 8508SOL    HW126423   3.430   1.841   6.564
 8508SOL    HW226424   3.408   1.831   6.403
 8509SOL     OW26425   5.617   1.952   2.985
 8509SOL    HW126426   5.660   1.938   3.074
 8509SOL    HW226427   5.578   2.044   2.981
 8510SOL     OW26428   6.423   2.359   4.626
 8510SOL    HW126429   6.428   2.459   4.615
 8510SOL    HW226430   6.477   2.316   4.554
 8511SOL     OW26431   5.808   2.550   2.226
 8511SOL    HW126432   5.804   2.612   2.148
 8511SOL    HW226433   5.800   2.602   2.311
 8512SOL     OW26434   2.451   6.908   5.742
 8512SOL    HW126435   2.395   6.951   5.671
 8512SOL    HW226436   2.406   6.919   5.831
 8513SOL     OW26437   5.173   6.722   6.289
 8513SOL    HW126438   5.089   6.692   6.244
 8513SOL    HW226439   5.161   6.814   6.324
 8514SOL     OW26440   2.931   6.233   3.805
 8514SOL    HW126441   2.908   6.280   3.890
 8514SOL    HW226442   3.017   6.267   3.769
 8515SOL     OW26443   5.966   1.286   0.903
 8515SOL    HW126444   5.890   1.222   0.896
 8515SOL    HW226445   6.044   1.241   0.946
 8516SOL     OW26446   7.023   2.228   2.638
 8516SOL    HW126447   0.010   2.321   2.673
 8516SOL    HW226448   0.053   2.219   2.554
 8517SOL     OW26449   1.421   4.078   0.433
 8517SOL    HW126450   1.336   4.040   0.470
 8517SOL    HW226451   1.439   4.039   0.343
 8518SOL     OW26452   3.244   5.671   1.006
 8518SOL    HW126453   3.150   5.635   1.013
 8518SOL    HW226454   3.301   5.605   0.957
 8519SOL     OW26455   1.498   4.760   2.720
 8519SOL    HW126456   1.510   4.857   2.743
 8519SOL    HW226457   1.484   4.751   2.622
 8520SOL     OW26458   2.632   0.461   0.073
 8520SOL    HW126459   2.574   0.442   0.153
 8520SOL    HW226460   2.641   0.560   0.062
 8521SOL     OW26461   1.306   6.804   6.730
 8521SOL    HW126462   1.256   6.717   6.729
 8521SOL    HW226463   1.383   6.799   6.666
 8522SOL     OW26464   1.755   5.917   4.913
 8522SOL    HW126465   1.735   6.013   4.890
 8522SOL    HW226466   1.704   5.892   4.996
 8523SOL     OW26467   1.469   0.119   6.881
 8523SOL    HW126468   1.544   0.174   6.919
 8523SOL    HW226469   1.475   0.119   6.781
 8524SOL     OW26470   1.499   2.180   5.851
 8524SOL    HW126471   1.425   2.124   5.886
 8524SOL    HW226472   1.535   2.140   5.767
 8525SOL     OW26473   5.108   2.951   3.028
 8525SOL    HW126474   5.025   2.987   3.071
 8525SOL    HW226475   5.110   2.851   3.039
 8526SOL     OW26476   2.184   2.943   2.028
 8526SOL    HW126477   2.244   2.915   1.954
 8526SOL    HW226478   2.115   3.007   1.993
 8527SOL     OW26479   4.216   0.031   4.343
 8527SOL    HW126480   4.250   6.966   4.376
 8527SOL    HW226481   4.285   0.073   4.284
 8528SOL     OW26482   5.068   2.583   6.970
 8528SOL    HW126483   5.049   2.679   6.953
 8528SOL    HW226484   5.058   2.531   6.885
 8529SOL     OW26485   0.134   4.427   0.047
 8529SOL    HW126486   0.224   4.398   0.081
 8529SOL    HW226487   0.068   4.424   0.122
 8530SOL     OW26488   1.495   3.074   5.783
 8530SOL    HW126489   1.422   3.067   5.851
 8530SOL    HW226490   1.554   3.152   5.805
 8531SOL     OW26491   4.449   4.866   2.796
 8531SOL    HW126492   4.505   4.888   2.876
 8531SOL    HW226493   4.352   4.872   2.820
 8532SOL     OW26494   1.337   4.423   5.838
 8532SOL    HW126495   1.406   4.398   5.906
 8532SOL    HW226496   1.299   4.340   5.797
 8533SOL     OW26497   3.496   0.581   5.894
 8533SOL    HW126498   3.439   0.592   5.975
 8533SOL    HW226499   3.574   0.644   5.900
 8534SOL     OW26500   1.955   2.853   2.954
 8534SOL    HW126501   2.022   2.798   3.005
 8534SOL    HW226502   2.001   2.902   2.881
 8535SOL     OW26503   6.773   2.850   4.027
 8535SOL    HW126504   6.814   2.807   3.947
 8535SOL    HW226505   6.754   2.946   4.007
 8536SOL     OW26506   6.953   1.428   4.582
 8536SOL    HW126507   7.015   1.409   4.657
 8536SOL    HW226508   6.920   1.342   4.543
 8537SOL     OW26509   6.471   0.481   2.176
 8537SOL    HW126510   6.373   0.497   2.179
 8537SOL    HW226511   6.491   0.409   2.109
 8538SOL     OW26512   5.829   1.469   4.923
 8538SOL    HW126513   5.810   1.561   4.890
 8538SOL    HW226514   5.920   1.441   4.893
 8539SOL     OW26515   0.057   2.928   2.679
 8539SOL    HW126516   0.016   2.871   2.750
 8539SOL    HW226517   0.038   3.024   2.698
 8540SOL     OW26518   3.892   0.346   0.350
 8540SOL    HW126519   3.945   0.389   0.423
 8540SOL    HW226520   3.799   0.383   0.350
 8541SOL     OW26521   3.676   6.675   5.177
 8541SOL    HW126522   3.595   6.620   5.197
 8541SOL    HW226523   3.657   6.734   5.098
 8542SOL     OW26524   1.180   5.015   6.219
 8542SOL    HW126525   1.088   5.053   6.233
 8542SOL    HW226526   1.232   5.023   6.305
 8543SOL     OW26527   2.080   2.557   6.138
 8543SOL    HW126528   2.098   2.605   6.224
 8543SOL    HW226529   2.024   2.614   6.079
 8544SOL     OW26530   5.749   4.466   5.752
 8544SOL    HW126531   5.714   4.527   5.682
 8544SOL    HW226532   5.844   4.442   5.731
 8545SOL     OW26533   2.605   0.131   6.451
 8545SOL    HW126534   2.616   0.142   6.352
 8545SOL    HW226535   2.689   0.092   6.489
 8546SOL     OW26536   5.082   0.986   2.308
 8546SOL    HW126537   5.072   0.887   2.312
 8546SOL    HW226538   4.994   1.030   2.327
 8547SOL     OW26539   5.810   5.941   5.852
 8547SOL    HW126540   5.775   5.878   5.783
 8547SOL    HW226541   5.757   6.026   5.851
 8548SOL     OW26542   0.653   3.478   5.825
 8548SOL    HW126543   0.595   3.517   5.754
 8548SOL    HW226544   0.672   3.547   5.895
 8549SOL     OW26545   2.063   0.047   4.190
 8549SOL    HW126546   2.049   0.109   4.266
 8549SOL    HW226547   2.068   0.098   4.104
 8550SOL     OW26548   6.866   4.338   6.256
 8550SOL    HW126549   6.884   4.245   6.226
 8550SOL    HW226550   6.900   4.403   6.188
 8551SOL     OW26551   2.176   0.732   5.832
 8551SOL    HW126552   2.183   0.647   5.779
 8551SOL    HW226553   2.097   0.726   5.893
 8552SOL     OW26554   3.246   1.717   2.810
 8552SOL    HW126555   3.336   1.751   2.781
 8552SOL    HW226556   3.187   1.706   2.730
 8553SOL     OW26557   4.979   4.015   0.264
 8553SOL    HW126558   5.066   4.064   0.268
 8553SOL    HW226559   4.910   4.073   0.221
 8554SOL     OW26560   2.317   1.263   0.690
 8554SOL    HW126561   2.264   1.229   0.767
 8554SOL    HW226562   2.347   1.356   0.708
 8555SOL     OW26563   3.761   1.307   4.103
 8555SOL    HW126564   3.781   1.275   4.195
 8555SOL    HW226565   3.847   1.329   4.056
 8556SOL     OW26566   1.834   5.661   0.636
 8556SOL    HW126567   1.771   5.666   0.558
 8556SOL    HW226568   1.805   5.587   0.697
 8557SOL     OW26569   6.610   0.717   6.297
 8557SOL    HW126570   6.510   0.713   6.297
 8557SOL    HW226571   6.644   0.701   6.205
 8558SOL     OW26572   3.149   6.192   4.372
 8558SOL    HW126573   3.129   6.224   4.279
 8558SOL    HW226574   3.067   6.150   4.411
 8559SOL     OW26575   2.037   4.727   2.704
 8559SOL    HW126576   1.991   4.660   2.762
 8559SOL    HW226577   2.128   4.694   2.680
 8560SOL     OW26578   2.210   4.670   0.715
 8560SOL    HW126579   2.194   4.597   0.782
 8560SOL    HW226580   2.291   4.649   0.661
 8561SOL     OW26581   4.743   0.753   2.609
 8561SOL    HW126582   4.687   0.770   2.528
 8561SOL    HW226583   4.839   0.765   2.586
 8562SOL     OW26584   5.147   1.911   6.908
 8562SOL    HW126585   5.244   1.936   6.902
 8562SOL    HW226586   5.118   1.913   7.003
 8563SOL     OW26587   2.595   5.118   2.220
 8563SOL    HW126588   2.672   5.149   2.165
 8563SOL    HW226589   2.552   5.039   2.177
 8564SOL     OW26590   3.981   0.111   0.273
 8564SOL    HW126591   4.076   0.096   0.298
 8564SOL    HW226592   3.953   0.203   0.299
 8565SOL     OW26593   1.373   4.818   0.883
 8565SOL    HW126594   1.273   4.824   0.888
 8565SOL    HW226595   1.406   4.757   0.955
 8566SOL     OW26596   3.334   1.371   2.123
 8566SOL    HW126597   3.336   1.366   2.223
 8566SOL    HW226598   3.258   1.317   2.088
 8567SOL     OW26599   1.557   3.168   1.893
 8567SOL    HW126600   1.578   3.175   1.991
 8567SOL    HW226601   1.639   3.190   1.840
 8568SOL     OW26602   6.146   0.526   6.824
 8568SOL    HW126603   6.053   0.550   6.852
 8568SOL    HW226604   6.209   0.598   6.851
 8569SOL     OW26605   3.957   2.076   6.608
 8569SOL    HW126606   3.903   2.128   6.675
 8569SOL    HW226607   4.044   2.123   6.592
 8570SOL     OW26608   2.137   2.650   2.013
 8570SOL    HW126609   2.065   2.682   1.951
 8570SOL    HW226610   2.096   2.594   2.085
 8571SOL     OW26611   1.894   0.905   2.921
 8571SOL    HW126612   1.836   0.981   2.951
 8571SOL    HW226613   1.974   0.941   2.872
 8572SOL     OW26614   2.199   4.300   5.801
 8572SOL    HW126615   2.298   4.296   5.786
 8572SOL    HW226616   2.175   4.389   5.838
 8573SOL     OW26617   3.386   6.439   0.380
 8573SOL    HW126618   3.300   6.411   0.337
 8573SOL    HW226619   3.408   6.532   0.352
 8574SOL     OW26620   5.175   0.542   4.839
 8574SOL    HW126621   5.111   0.474   4.801
 8574SOL    HW226622   5.123   0.612   4.887
 8575SOL     OW26623   3.266   6.099   3.632
 8575SOL    HW126624   3.174   6.059   3.640
 8575SOL    HW226625   3.335   6.028   3.642
 8576SOL     OW26626   1.443   4.579   3.576
 8576SOL    HW126627   1.417   4.556   3.482
 8576SOL    HW226628   1.496   4.663   3.576
 8577SOL     OW26629   1.600   1.769   0.391
 8577SOL    HW126630   1.559   1.805   0.308
 8577SOL    HW226631   1.698   1.752   0.375
 8578SOL     OW26632   0.101   6.633   6.546
 8578SOL    HW126633   0.102   6.538   6.515
 8578SOL    HW226634   0.068   6.692   6.472
 8579SOL     OW26635   2.657   6.709   2.131
 8579SOL    HW126636   2.631   6.651   2.053
 8579SOL    HW226637   2.675   6.651   2.211
 8580SOL     OW26638   1.846   0.819   1.089
 8580SOL    HW126639   1.847   0.834   1.188
 8580SOL    HW226640   1.880   0.902   1.043
 8581SOL     OW26641   3.427   4.641   1.539
 8581SOL    HW126642   3.414   4.542   1.549
 8581SOL    HW226643   3.363   4.688   1.599
 8582SOL     OW26644   3.396   4.889   5.761
 8582SOL    HW126645   3.404   4.791   5.745
 8582SOL    HW226646   3.321   4.926   5.705
 8583SOL     OW26647   4.002   0.576   2.695
 8583SOL    HW126648   3.903   0.566   2.698
 8583SOL    HW226649   4.026   0.672   2.680
 8584SOL     OW26650   6.805   1.676   5.309
 8584SOL    HW126651   6.818   1.600   5.245
 8584SOL    HW226652   6.722   1.661   5.363
 8585SOL     OW26653   5.571   2.676   2.371
 8585SOL    HW126654   5.520   2.591   2.355
 8585SOL    HW226655   5.605   2.676   2.465
 8586SOL     OW26656   6.687   6.035   0.284
 8586SOL    HW126657   6.777   6.075   0.301
 8586SOL    HW226658   6.668   5.965   0.352
 8587SOL     OW26659   0.752   1.512   6.870
 8587SOL    HW126660   0.828   1.577   6.873
 8587SOL    HW226661   0.708   1.515   6.780
 8588SOL     OW26662   3.114   1.780   6.187
 8588SOL    HW126663   3.093   1.794   6.091
 8588SOL    HW226664   3.030   1.789   6.241
 8589SOL     OW26665   6.458   2.926   6.933
 8589SOL    HW126666   6.367   2.928   6.973
 8589SOL    HW226667   6.499   3.017   6.939
 8590SOL     OW26668   0.962   0.257   4.408
 8590SOL    HW126669   0.941   0.194   4.483
 8590SOL    HW226670   1.056   0.243   4.379
 8591SOL     OW26671   6.815   4.588   6.524
 8591SOL    HW126672   6.815   4.644   6.441
 8591SOL    HW226673   6.861   4.501   6.505
 8592SOL     OW26674   0.355   1.790   5.075
 8592SOL    HW126675   0.349   1.786   4.975
 8592SOL    HW226676   0.264   1.810   5.112
 8593SOL     OW26677   4.457   1.521   6.949
 8593SOL    HW126678   4.360   1.546   6.947
 8593SOL    HW226679   4.491   1.528   0.020
 8594SOL     OW26680   6.477   2.995   6.158
 8594SOL    HW126681   6.441   3.017   6.248
 8594SOL    HW226682   6.455   2.899   6.136
 8595SOL     OW26683   6.057   6.619   3.325
 8595SOL    HW126684   6.083   6.523   3.326
 8595SOL    HW226685   5.966   6.628   3.285
 8596SOL     OW26686   1.063   1.348   4.358
 8596SOL    HW126687   1.049   1.389   4.268
 8596SOL    HW226688   1.154   1.371   4.392
 8597SOL     OW26689   5.638   3.743   6.995
 8597SOL    HW126690   5.689   3.728   6.911
 8597SOL    HW226691   5.544   3.712   6.983
 8598SOL     OW26692   5.990   6.456   4.823
 8598SOL    HW126693   5.967   6.364   4.854
 8598SOL    HW226694   5.999   6.457   4.724
 8599SOL     OW26695   6.807   3.401   4.291
 8599SOL    HW126696   6.806   3.492   4.250
 8599SOL    HW226697   6.774   3.407   4.385
 8600SOL     OW26698   4.782   1.924   0.991
 8600SOL    HW126699   4.726   1.895   0.914
 8600SOL    HW226700   4.873   1.883   0.983
 8601SOL     OW26701   0.550   6.276   4.047
 8601SOL    HW126702   0.473   6.219   4.017
 8601SOL    HW226703   0.607   6.299   3.968
 8602SOL     OW26704   2.004   6.050   4.811
 8602SOL    HW126705   1.905   6.044   4.800
 8602SOL    HW226706   2.037   6.134   4.769
 8603SOL     OW26707   0.189   0.244   0.383
 8603SOL    HW126708   0.143   0.158   0.405
 8603SOL    HW226709   0.127   0.321   0.402
 8604SOL     OW26710   0.090   4.381   6.442
 8604SOL    HW126711   0.050   4.446   6.378
 8604SOL    HW226712   0.135   4.431   6.517
 8605SOL     OW26713   6.725   4.925   4.939
 8605SOL    HW126714   6.737   4.975   4.853
 8605SOL    HW226715   6.779   4.841   4.936
 8606SOL     OW26716   1.709   2.241   0.511
 8606SOL    HW126717   1.701   2.166   0.577
 8606SOL    HW226718   1.645   2.228   0.436
 8607SOL     OW26719   2.610   4.083   1.520
 8607SOL    HW126720   2.557   4.096   1.604
 8607SOL    HW226721   2.586   3.995   1.478
 8608SOL     OW26722   1.679   5.005   2.591
 8608SOL    HW126723   1.775   4.986   2.571
 8608SOL    HW226724   1.666   5.011   2.690
 8609SOL     OW26725   4.240   1.660   4.002
 8609SOL    HW126726   4.339   1.658   3.992
 8609SOL    HW226727   4.214   1.734   4.063
 8610SOL     OW26728   6.723   6.249   3.530
 8610SOL    HW126729   6.754   6.251   3.625
 8610SOL    HW226730   6.777   6.183   3.479
 8611SOL     OW26731   3.242   1.526   4.916
 8611SOL    HW126732   3.174   1.593   4.948
 8611SOL    HW226733   3.231   1.441   4.968
 8612SOL     OW26734   3.507   3.650   3.996
 8612SOL    HW126735   3.550   3.655   3.906
 8612SOL    HW226736   3.466   3.560   4.009
 8613SOL     OW26737   3.785   2.989   2.067
 8613SOL    HW126738   3.717   2.916   2.079
 8613SOL    HW226739   3.831   2.977   1.979
 8614SOL     OW26740   1.797   1.573   3.011
 8614SOL    HW126741   1.783   1.584   2.913
 8614SOL    HW226742   1.775   1.659   3.057
 8615SOL     OW26743   4.001   1.479   4.313
 8615SOL    HW126744   4.067   1.494   4.239
 8615SOL    HW226745   4.037   1.409   4.375
 8616SOL     OW26746   5.840   4.424   3.293
 8616SOL    HW126747   5.752   4.457   3.326
 8616SOL    HW226748   5.838   4.325   3.286
 8617SOL     OW26749   2.942   0.453   3.655
 8617SOL    HW126750   2.919   0.525   3.720
 8617SOL    HW226751   2.899   0.367   3.684
 8618SOL     OW26752   5.118   4.181   1.101
 8618SOL    HW126753   5.216   4.167   1.089
 8618SOL    HW226754   5.101   4.236   1.183
 8619SOL     OW26755   4.894   5.191   0.827
 8619SOL    HW126756   4.941   5.106   0.804
 8619SOL    HW226757   4.909   5.259   0.756
 8620SOL     OW26758   2.649   0.768   4.252
 8620SOL    HW126759   2.738   0.748   4.209
 8620SOL    HW226760   2.663   0.832   4.327
 8621SOL     OW26761   5.917   3.158   1.770
 8621SOL    HW126762   5.822   3.163   1.739
 8621SOL    HW226763   5.956   3.069   1.745
 8622SOL     OW26764   6.556   5.105   2.956
 8622SOL    HW126765   6.599   5.068   3.039
 8622SOL    HW226766   6.474   5.053   2.935
 8623SOL     OW26767   1.216   3.626   4.295
 8623SOL    HW126768   1.164   3.712   4.290
 8623SOL    HW226769   1.241   3.597   4.203
 8624SOL     OW26770   3.088   3.921   4.654
 8624SOL    HW126771   3.077   3.892   4.559
 8624SOL    HW226772   3.054   3.849   4.715
 8625SOL     OW26773   4.151   2.916   5.766
 8625SOL    HW126774   4.054   2.913   5.743
 8625SOL    HW226775   4.163   2.940   5.863
 8626SOL     OW26776   3.654   3.734   0.673
 8626SOL    HW126777   3.660   3.659   0.739
 8626SOL    HW226778   3.680   3.700   0.582
 8627SOL     OW26779   2.095   1.003   1.837
 8627SOL    HW126780   2.131   0.942   1.767
 8627SOL    HW226781   2.010   1.045   1.804
 8628SOL     OW26782   0.505   6.606   1.038
 8628SOL    HW126783   0.528   6.523   0.987
 8628SOL    HW226784   0.589   6.653   1.065
 8629SOL     OW26785   0.117   6.340   5.792
 8629SOL    HW126786   0.108   6.304   5.884
 8629SOL    HW226787   0.056   6.418   5.780
 8630SOL     OW26788   4.876   3.225   2.294
 8630SOL    HW126789   4.824   3.148   2.258
 8630SOL    HW226790   4.969   3.195   2.315
 8631SOL     OW26791   2.811   6.771   6.576
 8631SOL    HW126792   2.711   6.771   6.578
 8631SOL    HW226793   2.846   6.756   6.669
 8632SOL     OW26794   5.572   5.366   5.368
 8632SOL    HW126795   5.494   5.304   5.363
 8632SOL    HW226796   5.632   5.339   5.444
 8633SOL     OW26797   5.854   4.379   6.001
 8633SOL    HW126798   5.781   4.387   5.932
 8633SOL    HW226799   5.831   4.305   6.064
 8634SOL     OW26800   4.347   2.783   0.561
 8634SOL    HW126801   4.388   2.871   0.583
 8634SOL    HW226802   4.400   2.709   0.602
 8635SOL     OW26803   5.294   2.589   6.083
 8635SOL    HW126804   5.225   2.629   6.023
 8635SOL    HW226805   5.296   2.639   6.169
 8636SOL     OW26806   4.590   6.739   2.048
 8636SOL    HW126807   4.583   6.747   1.949
 8636SOL    HW226808   4.685   6.756   2.076
 8637SOL     OW26809   1.463   2.221   6.885
 8637SOL    HW126810   1.399   2.188   6.954
 8637SOL    HW226811   1.435   2.187   6.795
 8638SOL     OW26812   5.004   2.345   4.158
 8638SOL    HW126813   4.907   2.369   4.163
 8638SOL    HW226814   5.033   2.343   4.062
 8639SOL     OW26815   3.387   4.021   0.001
 8639SOL    HW126816   3.288   4.009   0.004
 8639SOL    HW226817   3.421   4.045   0.092
 8640SOL     OW26818   2.894   3.323   0.777
 8640SOL    HW126819   2.837   3.271   0.840
 8640SOL    HW226820   2.970   3.364   0.827
 8641SOL     OW26821   4.757   5.729   2.000
 8641SOL    HW126822   4.799   5.727   1.910
 8641SOL    HW226823   4.690   5.655   2.008
 8642SOL     OW26824   0.823   5.718   3.582
 8642SOL    HW126825   0.763   5.673   3.516
 8642SOL    HW226826   0.851   5.652   3.652
 8643SOL     OW26827   3.803   6.350   1.394
 8643SOL    HW126828   3.767   6.261   1.366
 8643SOL    HW226829   3.732   6.401   1.444
 8644SOL     OW26830   6.380   2.170   6.340
 8644SOL    HW126831   6.422   2.117   6.414
 8644SOL    HW226832   6.423   2.147   6.253
 8645SOL     OW26833   5.827   4.418   3.029
 8645SOL    HW126834   5.754   4.485   3.012
 8645SOL    HW226835   5.857   4.424   3.124
 8646SOL     OW26836   6.206   2.184   5.019
 8646SOL    HW126837   6.259   2.207   5.100
 8646SOL    HW226838   6.119   2.234   5.021
 8647SOL     OW26839   2.358   5.355   1.760
 8647SOL    HW126840   2.260   5.368   1.748
 8647SOL    HW226841   2.394   5.428   1.818
 8648SOL     OW26842   5.037   4.953   0.813
 8648SOL    HW126843   5.137   4.951   0.803
 8648SOL    HW226844   5.007   4.870   0.859
 8649SOL     OW26845   5.348   0.375   0.829
 8649SOL    HW126846   5.349   0.453   0.766
 8649SOL    HW226847   5.442   0.349   0.851
 8650SOL     OW26848   2.402   6.466   4.939
 8650SOL    HW126849   2.382   6.497   5.032
 8650SOL    HW226850   2.316   6.453   4.889
 8651SOL     OW26851   3.195   2.042   1.168
 8651SOL    HW126852   3.238   2.081   1.249
 8651SOL    HW226853   3.177   2.114   1.101
 8652SOL     OW26854   1.126   2.809   3.586
 8652SOL    HW126855   1.113   2.749   3.665
 8652SOL    HW226856   1.058   2.882   3.588
 8653SOL     OW26857   6.528   1.324   6.585
 8653SOL    HW126858   6.599   1.374   6.635
 8653SOL    HW226859   6.571   1.262   6.520
 8654SOL     OW26860   6.940   4.527   1.963
 8654SOL    HW126861   6.990   4.474   1.894
 8654SOL    HW226862   6.994   4.530   2.048
 8655SOL     OW26863   0.218   0.876   4.631
 8655SOL    HW126864   0.235   0.885   4.729
 8655SOL    HW226865   0.212   0.780   4.607
 8656SOL     OW26866   5.084   0.346   1.252
 8656SOL    HW126867   5.109   0.393   1.167
 8656SOL    HW226868   5.132   0.389   1.328
 8657SOL     OW26869   4.270   1.083   3.406
 8657SOL    HW126870   4.296   1.159   3.467
 8657SOL    HW226871   4.301   1.103   3.313
 8658SOL     OW26872   6.198   4.274   0.857
 8658SOL    HW126873   6.113   4.221   0.858
 8658SOL    HW226874   6.178   4.368   0.885
 8659SOL     OW26875   3.485   0.958   3.009
 8659SOL    HW126876   3.410   0.968   2.943
 8659SOL    HW226877   3.555   1.027   2.990
 8660SOL     OW26878   6.942   3.886   1.882
 8660SOL    HW126879   6.958   3.950   1.958
 8660SOL    HW226880   0.002   3.879   1.827
 8661SOL     OW26881   6.446   3.749   2.507
 8661SOL    HW126882   6.544   3.763   2.495
 8661SOL    HW226883   6.404   3.724   2.420
 8662SOL     OW26884   2.194   4.196   2.938
 8662SOL    HW126885   2.202   4.295   2.945
 8662SOL    HW226886   2.197   4.169   2.842
 8663SOL     OW26887   4.345   5.937   2.527
 8663SOL    HW126888   4.420   5.985   2.573
 8663SOL    HW226889   4.258   5.982   2.550
 8664SOL     OW26890   3.769   5.952   3.321
 8664SOL    HW126891   3.777   6.042   3.363
 8664SOL    HW226892   3.677   5.915   3.337
 8665SOL     OW26893   5.314   3.668   0.017
 8665SOL    HW126894   5.259   3.658   6.957
 8665SOL    HW226895   5.370   3.587   0.030
 8666SOL     OW26896   4.580   6.813   2.516
 8666SOL    HW126897   4.493   6.794   2.563
 8666SOL    HW226898   4.572   6.899   2.465
 8667SOL     OW26899   5.331   2.003   3.146
 8667SOL    HW126900   5.293   2.096   3.145
 8667SOL    HW226901   5.363   1.979   3.054
 8668SOL     OW26902   5.138   2.426   4.691
 8668SOL    HW126903   5.132   2.415   4.592
 8668SOL    HW226904   5.060   2.379   4.734
 8669SOL     OW26905   6.322   6.107   6.258
 8669SOL    HW126906   6.304   6.062   6.171
 8669SOL    HW226907   6.397   6.172   6.247
 8670SOL     OW26908   6.629   4.341   6.390
 8670SOL    HW126909   6.539   4.353   6.348
 8670SOL    HW226910   6.701   4.355   6.322
 8671SOL     OW26911   0.556   2.735   3.071
 8671SOL    HW126912   0.508   2.648   3.077
 8671SOL    HW226913   0.517   2.790   2.997
 8672SOL     OW26914   0.640   0.905   3.010
 8672SOL    HW126915   0.737   0.925   2.992
 8672SOL    HW226916   0.588   0.916   2.925
 8673SOL     OW26917   0.288   1.685   1.721
 8673SOL    HW126918   0.291   1.588   1.742
 8673SOL    HW226919   0.193   1.715   1.713
 8674SOL     OW26920   0.047   3.694   3.564
 8674SOL    HW126921   0.143   3.682   3.537
 8674SOL    HW226922   0.018   3.787   3.541
 8675SOL     OW26923   3.474   2.221   5.242
 8675SOL    HW126924   3.474   2.132   5.196
 8675SOL    HW226925   3.388   2.268   5.223
 8676SOL     OW26926   5.294   1.216   0.758
 8676SOL    HW126927   5.334   1.124   0.761
 8676SOL    HW226928   5.199   1.212   0.790
 8677SOL     OW26929   2.449   6.683   6.337
 8677SOL    HW126930   2.512   6.622   6.289
 8677SOL    HW226931   2.462   6.776   6.304
 8678SOL     OW26932   1.115   1.656   0.631
 8678SOL    HW126933   1.159   1.626   0.546
 8678SOL    HW226934   1.078   1.748   0.619
 8679SOL     OW26935   1.575   2.183   5.549
 8679SOL    HW126936   1.568   2.084   5.558
 8679SOL    HW226937   1.533   2.212   5.463
 8680SOL     OW26938   6.872   1.007   0.179
 8680SOL    HW126939   6.912   0.933   0.124
 8680SOL    HW226940   6.780   1.026   0.146
 8681SOL     OW26941   5.577   6.248   1.906
 8681SOL    HW126942   5.633   6.331   1.896
 8681SOL    HW226943   5.539   6.244   1.998
 8682SOL     OW26944   1.873   0.616   1.358
 8682SOL    HW126945   1.804   0.685   1.378
 8682SOL    HW226946   1.848   0.530   1.404
 8683SOL     OW26947   1.685   4.290   4.186
 8683SOL    HW126948   1.611   4.350   4.215
 8683SOL    HW226949   1.720   4.321   4.097
 8684SOL     OW26950   1.725   4.018   4.239
 8684SOL    HW126951   1.730   4.118   4.243
 8684SOL    HW226952   1.659   3.991   4.169
 8685SOL     OW26953   4.930   2.294   4.834
 8685SOL    HW126954   4.831   2.284   4.846
 8685SOL    HW226955   4.977   2.215   4.873
 8686SOL     OW26956   1.072   5.605   3.067
 8686SOL    HW126957   1.047   5.678   3.130
 8686SOL    HW226958   1.139   5.639   3.001
 8687SOL     OW26959   4.806   4.526   6.058
 8687SOL    HW126960   4.847   4.582   5.986
 8687SOL    HW226961   4.711   4.555   6.073
 8688SOL     OW26962   0.470   3.826   5.369
 8688SOL    HW126963   0.440   3.868   5.455
 8688SOL    HW226964   0.423   3.870   5.293
 8689SOL     OW26965   3.817   3.499   6.946
 8689SOL    HW126966   3.861   3.583   6.916
 8689SOL    HW226967   3.720   3.516   6.965
 8690SOL     OW26968   1.919   2.409   2.633
 8690SOL    HW126969   1.887   2.501   2.610
 8690SOL    HW226970   1.958   2.366   2.551
 8691SOL     OW26971   3.403   2.550   5.305
 8691SOL    HW126972   3.330   2.492   5.267
 8691SOL    HW226973   3.489   2.500   5.301
 8692SOL     OW26974   4.249   1.678   5.157
 8692SOL    HW126975   4.336   1.633   5.136
 8692SOL    HW226976   4.251   1.773   5.126
 8693SOL     OW26977   6.298   6.981   6.052
 8693SOL    HW126978   6.299   6.964   6.150
 8693SOL    HW226979   6.343   0.044   6.032
 8694SOL     OW26980   5.793   3.436   5.173
 8694SOL    HW126981   5.747   3.362   5.223
 8694SOL    HW226982   5.733   3.469   5.101
 8695SOL     OW26983   3.587   4.504   6.215
 8695SOL    HW126984   3.616   4.487   6.121
 8695SOL    HW226985   3.553   4.419   6.255
 8696SOL     OW26986   3.018   5.121   5.782
 8696SOL    HW126987   3.027   5.209   5.828
 8696SOL    HW226988   2.931   5.118   5.733
 8697SOL     OW26989   2.045   3.557   5.422
 8697SOL    HW126990   1.960   3.507   5.405
 8697SOL    HW226991   2.104   3.503   5.481
 8698SOL     OW26992   5.409   5.816   5.714
 8698SOL    HW126993   5.477   5.851   5.651
 8698SOL    HW226994   5.439   5.832   5.808
 8699SOL     OW26995   0.978   2.956   6.600
 8699SOL    HW126996   1.019   2.872   6.564
 8699SOL    HW226997   0.884   2.964   6.567
 8700SOL     OW26998   1.441   0.246   3.769
 8700SOL    HW126999   1.378   0.171   3.787
 8700SOL    HW227000   1.398   0.332   3.796
 8701SOL     OW27001   0.533   2.525   0.492
 8701SOL    HW127002   0.520   2.517   0.591
 8701SOL    HW227003   0.630   2.538   0.471
 8702SOL     OW27004   5.088   5.112   1.931
 8702SOL    HW127005   5.023   5.180   1.966
 8702SOL    HW227006   5.158   5.158   1.876
 8703SOL     OW27007   2.324   5.966   0.974
 8703SOL    HW127008   2.309   5.867   0.977
 8703SOL    HW227009   2.238   6.013   0.956
 8704SOL     OW27010   0.836   0.332   4.956
 8704SOL    HW127011   0.749   0.301   4.918
 8704SOL    HW227012   0.876   0.400   4.894
 8705SOL     OW27013   4.036   2.464   6.784
 8705SOL    HW127014   3.958   2.433   6.729
 8705SOL    HW227015   4.015   2.453   6.881
 8706SOL     OW27016   4.933   3.592   6.137
 8706SOL    HW127017   4.925   3.692   6.131
 8706SOL    HW227018   5.026   3.568   6.166
 8707SOL     OW27019   1.694   1.928   5.172
 8707SOL    HW127020   1.668   1.912   5.077
 8707SOL    HW227021   1.663   1.850   5.228
 8708SOL     OW27022   5.983   2.813   0.201
 8708SOL    HW127023   5.967   2.799   0.103
 8708SOL    HW227024   6.078   2.791   0.222
 8709SOL     OW27025   6.139   6.967   5.592
 8709SOL    HW127026   6.200   6.890   5.612
 8709SOL    HW227027   6.079   6.982   5.670
 8710SOL     OW27028   2.433   1.291   3.355
 8710SOL    HW127029   2.387   1.272   3.442
 8710SOL    HW227030   2.413   1.217   3.291
 8711SOL     OW27031   1.564   1.301   1.342
 8711SOL    HW127032   1.559   1.372   1.272
 8711SOL    HW227033   1.479   1.247   1.341
 8712SOL     OW27034   1.909   4.170   5.581
 8712SOL    HW127035   1.916   4.093   5.519
 8712SOL    HW227036   1.969   4.244   5.550
 8713SOL     OW27037   0.305   3.901   1.756
 8713SOL    HW127038   0.332   3.815   1.798
 8713SOL    HW227039   0.224   3.887   1.699
 8714SOL     OW27040   0.064   5.802   6.495
 8714SOL    HW127041   0.066   5.899   6.517
 8714SOL    HW227042   0.145   5.758   6.534
 8715SOL     OW27043   2.117   3.415   1.576
 8715SOL    HW127044   2.167   3.350   1.633
 8715SOL    HW227045   2.059   3.365   1.512
 8716SOL     OW27046   6.704   0.004   2.048
 8716SOL    HW127047   6.614   7.010   2.008
 8716SOL    HW227048   6.749   6.940   2.068
 8717SOL     OW27049   2.537   3.752   0.717
 8717SOL    HW127050   2.496   3.668   0.680
 8717SOL    HW227051   2.614   3.779   0.660
 8718SOL     OW27052   2.214   4.797   6.051
 8718SOL    HW127053   2.205   4.875   5.990
 8718SOL    HW227054   2.299   4.803   6.102
 8719SOL     OW27055   3.456   0.479   5.368
 8719SOL    HW127056   3.410   0.558   5.329
 8719SOL    HW227057   3.466   0.491   5.467
 8720SOL     OW27058   6.748   5.452   4.934
 8720SOL    HW127059   6.781   5.468   5.027
 8720SOL    HW227060   6.701   5.364   4.929
 8721SOL     OW27061   0.158   0.150   6.798
 8721SOL    HW127062   0.242   0.193   6.830
 8721SOL    HW227063   0.176   0.056   6.771
 8722SOL     OW27064   3.414   0.978   1.288
 8722SOL    HW127065   3.427   0.917   1.366
 8722SOL    HW227066   3.442   0.932   1.204
 8723SOL     OW27067   4.172   0.366   2.729
 8723SOL    HW127068   4.151   0.463   2.716
 8723SOL    HW227069   4.247   0.356   2.794
 8724SOL     OW27070   4.043   1.049   4.291
 8724SOL    HW127071   4.062   1.134   4.340
 8724SOL    HW227072   4.028   1.069   4.194
 8725SOL     OW27073   0.435   6.722   3.603
 8725SOL    HW127074   0.365   6.655   3.624
 8725SOL    HW227075   0.515   6.676   3.564
 8726SOL     OW27076   0.266   0.875   1.064
 8726SOL    HW127077   0.323   0.818   1.123
 8726SOL    HW227078   0.250   0.826   0.978
 8727SOL     OW27079   4.799   6.609   6.059
 8727SOL    HW127080   4.758   6.591   5.969
 8727SOL    HW227081   4.729   6.607   6.129
 8728SOL     OW27082   6.572   6.935   4.210
 8728SOL    HW127083   6.490   6.884   4.184
 8728SOL    HW227084   6.552   0.010   4.204
 8729SOL     OW27085   4.537   6.165   6.184
 8729SOL    HW127086   4.444   6.190   6.213
 8729SOL    HW227087   4.603   6.228   6.223
 8730SOL     OW27088   4.647   5.154   1.339
 8730SOL    HW127089   4.562   5.195   1.307
 8730SOL    HW227090   4.688   5.100   1.265
 8731SOL     OW27091   6.983   1.560   3.670
 8731SOL    HW127092   0.036   1.553   3.606
 8731SOL    HW227093   6.901   1.589   3.621
 8732SOL     OW27094   6.519   6.752   0.498
 8732SOL    HW127095   6.501   6.832   0.556
 8732SOL    HW227096   6.449   6.683   0.515
 8733SOL     OW27097   6.087   5.432   2.571
 8733SOL    HW127098   6.175   5.421   2.617
 8733SOL    HW227099   6.019   5.465   2.637
 8734SOL     OW27100   6.892   3.453   2.588
 8734SOL    HW127101   6.869   3.417   2.678
 8734SOL    HW227102   6.985   3.427   2.563
 8735SOL     OW27103   6.909   3.489   5.277
 8735SOL    HW127104   6.902   3.575   5.225
 8735SOL    HW227105   6.937   3.415   5.216
 8736SOL     OW27106   1.235   5.933   4.030
 8736SOL    HW127107   1.151   5.909   3.982
 8736SOL    HW227108   1.291   5.851   4.041
 8737SOL     OW27109   1.766   6.325   6.905
 8737SOL    HW127110   1.743   6.350   6.998
 8737SOL    HW227111   1.689   6.277   6.863
 8738SOL     OW27112   1.340   2.926   3.453
 8738SOL    HW127113   1.282   2.939   3.372
 8738SOL    HW227114   1.283   2.899   3.531
 8739SOL     OW27115   5.072   4.398   6.058
 8739SOL    HW127116   4.990   4.388   6.114
 8739SOL    HW227117   5.104   4.308   6.029
 8740SOL     OW27118   2.895   0.284   4.990
 8740SOL    HW127119   2.855   0.248   4.905
 8740SOL    HW227120   2.912   0.209   5.053
 8741SOL     OW27121   1.125   0.519   2.646
 8741SOL    HW127122   1.205   0.500   2.702
 8741SOL    HW227123   1.109   0.618   2.643
 8742SOL     OW27124   2.813   1.786   2.430
 8742SOL    HW127125   2.812   1.696   2.385
 8742SOL    HW227126   2.799   1.857   2.362
 8743SOL     OW27127   0.521   2.090   1.707
 8743SOL    HW127128   0.437   2.133   1.674
 8743SOL    HW227129   0.593   2.159   1.715
 8744SOL     OW27130   3.234   4.375   5.666
 8744SOL    HW127131   3.174   4.328   5.732
 8744SOL    HW227132   3.271   4.308   5.601
 8745SOL     OW27133   5.678   0.904   6.105
 8745SOL    HW127134   5.696   0.950   6.192
 8745SOL    HW227135   5.752   0.838   6.086
 8746SOL     OW27136   4.971   5.493   5.411
 8746SOL    HW127137   5.007   5.405   5.382
 8746SOL    HW227138   4.909   5.480   5.489
 8747SOL     OW27139   0.477   0.435   2.433
 8747SOL    HW127140   0.497   0.354   2.378
 8747SOL    HW227141   0.561   0.465   2.480
 8748SOL     OW27142   6.494   1.803   3.874
 8748SOL    HW127143   6.581   1.756   3.890
 8748SOL    HW227144   6.448   1.817   3.962
 8749SOL     OW27145   2.529   1.360   3.819
 8749SOL    HW127146   2.506   1.310   3.903
 8749SOL    HW227147   2.474   1.323   3.743
 8750SOL     OW27148   3.709   3.890   0.122
 8750SOL    HW127149   3.762   3.942   0.189
 8750SOL    HW227150   3.688   3.947   0.043
 8751SOL     OW27151   2.042   6.237   1.057
 8751SOL    HW127152   2.131   6.273   1.082
 8751SOL    HW227153   2.052   6.162   0.991
 8752SOL     OW27154   6.056   2.905   5.898
 8752SOL    HW127155   6.118   2.942   5.829
 8752SOL    HW227156   6.108   2.859   5.970
 8753SOL     OW27157   2.503   2.578   1.005
 8753SOL    HW127158   2.481   2.498   0.949
 8753SOL    HW227159   2.596   2.569   1.042
 8754SOL     OW27160   1.766   4.871   6.808
 8754SOL    HW127161   1.702   4.946   6.794
 8754SOL    HW227162   1.839   4.899   6.870
 8755SOL     OW27163   0.143   3.006   1.454
 8755SOL    HW127164   0.053   2.986   1.417
 8755SOL    HW227165   0.184   3.083   1.403
 8756SOL     OW27166   1.986   2.053   1.871
 8756SOL    HW127167   2.047   2.005   1.809
 8756SOL    HW227168   2.028   2.059   1.962
 8757SOL     OW27169   5.444   6.027   5.305
 8757SOL    HW127170   5.494   6.094   5.250
 8757SOL    HW227171   5.476   6.031   5.400
 8758SOL     OW27172   3.556   5.608   5.172
 8758SOL    HW127173   3.542   5.674   5.098
 8758SOL    HW227174   3.542   5.516   5.137
 8759SOL     OW27175   5.847   0.547   0.845
 8759SOL    HW127176   5.827   0.455   0.881
 8759SOL    HW227177   5.910   0.539   0.769
 8760SOL     OW27178   2.693   2.478   4.334
 8760SOL    HW127179   2.627   2.405   4.315
 8760SOL    HW227180   2.753   2.490   4.255
 8761SOL     OW27181   5.347   1.657   2.381
 8761SOL    HW127182   5.443   1.667   2.408
 8761SOL    HW227183   5.319   1.737   2.328
 8762SOL     OW27184   2.883   5.244   3.215
 8762SOL    HW127185   2.885   5.244   3.115
 8762SOL    HW227186   2.853   5.154   3.248
 8763SOL     OW27187   0.602   0.404   6.863
 8763SOL    HW127188   0.638   0.485   6.816
 8763SOL    HW227189   0.635   0.321   6.817
 8764SOL     OW27190   2.813   5.171   5.069
 8764SOL    HW127191   2.770   5.219   5.145
 8764SOL    HW227192   2.789   5.074   5.072
 8765SOL     OW27193   4.360   6.962   4.608
 8765SOL    HW127194   4.292   6.923   4.547
 8765SOL    HW227195   4.399   6.889   4.665
 8766SOL     OW27196   4.657   6.439   5.885
 8766SOL    HW127197   4.567   6.455   5.845
 8766SOL    HW227198   4.664   6.343   5.914
 8767SOL     OW27199   2.088   1.131   4.234
 8767SOL    HW127200   2.180   1.110   4.200
 8767SOL    HW227201   2.077   1.230   4.241
 8768SOL     OW27202   6.468   1.602   6.868
 8768SOL    HW127203   6.466   1.619   6.769
 8768SOL    HW227204   6.499   1.509   6.885
 8769SOL     OW27205   6.253   6.813   0.231
 8769SOL    HW127206   6.179   6.864   0.274
 8769SOL    HW227207   6.339   6.863   0.243
 8770SOL     OW27208   5.394   3.157   0.441
 8770SOL    HW127209   5.313   3.162   0.500
 8770SOL    HW227210   5.391   3.232   0.375
 8771SOL     OW27211   0.392   3.157   0.268
 8771SOL    HW127212   0.391   3.213   0.185
 8771SOL    HW227213   0.418   3.214   0.346
 8772SOL     OW27214   0.042   6.850   4.235
 8772SOL    HW127215   0.132   6.840   4.193
 8772SOL    HW227216   0.053   6.876   4.331
 8773SOL     OW27217   0.267   0.900   4.258
 8773SOL    HW127218   0.202   0.862   4.193
 8773SOL    HW227219   0.289   0.832   4.327
 8774SOL     OW27220   1.204   1.654   0.337
 8774SOL    HW127221   1.130   1.689   0.280
 8774SOL    HW227222   1.292   1.679   0.296
 8775SOL     OW27223   5.586   2.574   4.086
 8775SOL    HW127224   5.540   2.488   4.063
 8775SOL    HW227225   5.566   2.642   4.016
 8776SOL     OW27226   4.451   3.011   0.621
 8776SOL    HW127227   4.406   3.098   0.639
 8776SOL    HW227228   4.535   3.028   0.570
 8777SOL     OW27229   6.859   2.138   3.048
 8777SOL    HW127230   6.796   2.065   3.073
 8777SOL    HW227231   6.811   2.226   3.050
 8778SOL     OW27232   3.396   4.752   6.888
 8778SOL    HW127233   3.409   4.717   6.795
 8778SOL    HW227234   3.477   4.805   6.915
 8779SOL     OW27235   4.273   4.854   3.367
 8779SOL    HW127236   4.251   4.771   3.416
 8779SOL    HW227237   4.263   4.933   3.427
 8780SOL     OW27238   6.827   4.433   4.139
 8780SOL    HW127239   6.841   4.394   4.230
 8780SOL    HW227240   6.772   4.517   4.147
 8781SOL     OW27241   3.182   0.665   2.005
 8781SOL    HW127242   3.265   0.609   2.014
 8781SOL    HW227243   3.182   0.709   1.915
 8782SOL     OW27244   4.952   2.128   0.839
 8782SOL    HW127245   5.028   2.182   0.803
 8782SOL    HW227246   4.936   2.049   0.780
 8783SOL     OW27247   5.281   3.275   4.694
 8783SOL    HW127248   5.309   3.347   4.757
 8783SOL    HW227249   5.301   3.186   4.733
 8784SOL     OW27250   5.163   1.065   1.362
 8784SOL    HW127251   5.098   1.001   1.404
 8784SOL    HW227252   5.253   1.024   1.359
 8785SOL     OW27253   0.179   5.839   5.255
 8785SOL    HW127254   0.231   5.919   5.285
 8785SOL    HW227255   0.083   5.864   5.243
 8786SOL     OW27256   4.627   1.689   3.013
 8786SOL    HW127257   4.702   1.710   3.075
 8786SOL    HW227258   4.573   1.771   2.996
 8787SOL     OW27259   3.672   6.114   1.302
 8787SOL    HW127260   3.625   6.052   1.366
 8787SOL    HW227261   3.653   6.085   1.209
 8788SOL     OW27262   1.192   6.577   3.978
 8788SOL    HW127263   1.278   6.530   3.958
 8788SOL    HW227264   1.124   6.553   3.908
 8789SOL     OW27265   7.012   2.565   6.563
 8789SOL    HW127266   0.038   2.506   6.627
 8789SOL    HW227267   0.044   2.579   6.481
 8790SOL     OW27268   4.805   3.770   5.504
 8790SOL    HW127269   4.855   3.835   5.560
 8790SOL    HW227270   4.866   3.729   5.437
 8791SOL     OW27271   3.486   5.929   4.739
 8791SOL    HW127272   3.429   5.998   4.694
 8791SOL    HW227273   3.577   5.966   4.755
 8792SOL     OW27274   4.977   5.029   1.663
 8792SOL    HW127275   5.045   5.012   1.735
 8792SOL    HW227276   4.886   5.026   1.703
 8793SOL     OW27277   0.144   5.879   4.457
 8793SOL    HW127278   0.209   5.848   4.387
 8793SOL    HW227279   0.053   5.887   4.417
 8794SOL     OW27280   0.034   1.258   2.625
 8794SOL    HW127281   0.067   1.345   2.588
 8794SOL    HW227282   6.985   1.223   2.566
 8795SOL     OW27283   1.306   5.813   0.057
 8795SOL    HW127284   1.341   5.906   0.042
 8795SOL    HW227285   1.351   5.750   7.018
 8796SOL     OW27286   6.277   3.219   3.740
 8796SOL    HW127287   6.352   3.153   3.741
 8796SOL    HW227288   6.288   3.283   3.816
 8797SOL     OW27289   4.794   6.909   3.914
 8797SOL    HW127290   4.748   6.958   3.988
 8797SOL    HW227291   4.823   6.975   3.844
 8798SOL     OW27292   3.135   0.094   5.714
 8798SOL    HW127293   3.110   0.007   5.672
 8798SOL    HW227294   3.078   0.110   5.794
 8799SOL     OW27295   0.502   4.844   1.847
 8799SOL    HW127296   0.516   4.897   1.763
 8799SOL    HW227297   0.591   4.827   1.890
 8800SOL     OW27298   6.909   5.822   5.228
 8800SOL    HW127299   6.843   5.897   5.225
 8800SOL    HW227300   6.912   5.776   5.140
 8801SOL     OW27301   5.477   3.085   5.581
 8801SOL    HW127302   5.429   3.171   5.565
 8801SOL    HW227303   5.571   3.104   5.610
 8802SOL     OW27304   1.236   6.501   6.706
 8802SOL    HW127305   1.186   6.418   6.733
 8802SOL    HW227306   1.254   6.498   6.608
 8803SOL     OW27307   6.423   6.630   6.406
 8803SOL    HW127308   6.469   6.549   6.371
 8803SOL    HW227309   6.324   6.619   6.399
 8804SOL     OW27310   1.664   5.986   2.648
 8804SOL    HW127311   1.578   5.957   2.689
 8804SOL    HW227312   1.740   5.936   2.689
 8805SOL     OW27313   5.514   5.106   3.732
 8805SOL    HW127314   5.508   5.013   3.696
 8805SOL    HW227315   5.574   5.106   3.813
 8806SOL     OW27316   2.022   0.451   1.166
 8806SOL    HW127317   1.969   0.496   1.238
 8806SOL    HW227318   1.970   0.451   1.081
 8807SOL     OW27319   4.981   2.667   1.239
 8807SOL    HW127320   4.996   2.751   1.290
 8807SOL    HW227321   4.901   2.677   1.179
 8808SOL     OW27322   1.663   2.399   0.154
 8808SOL    HW127323   1.645   2.303   0.135
 8808SOL    HW227324   1.735   2.406   0.223
 8809SOL     OW27325   0.501   3.770   3.361
 8809SOL    HW127326   0.540   3.685   3.326
 8809SOL    HW227327   0.494   3.837   3.287
 8810SOL     OW27328   0.702   1.118   4.970
 8810SOL    HW127329   0.754   1.075   5.044
 8810SOL    HW227330   0.609   1.084   4.970
 8811SOL     OW27331   4.116   5.499   2.366
 8811SOL    HW127332   4.155   5.409   2.350
 8811SOL    HW227333   4.020   5.489   2.395
 8812SOL     OW27334   4.768   1.260   6.654
 8812SOL    HW127335   4.725   1.350   6.667
 8812SOL    HW227336   4.826   1.263   6.573
 8813SOL     OW27337   2.127   4.021   3.643
 8813SOL    HW127338   2.057   3.966   3.688
 8813SOL    HW227339   2.127   4.002   3.545
 8814SOL     OW27340   5.305   0.707   5.640
 8814SOL    HW127341   5.372   0.776   5.614
 8814SOL    HW227342   5.318   0.681   5.736
 8815SOL     OW27343   5.431   0.909   0.010
 8815SOL    HW127344   5.491   0.845   0.058
 8815SOL    HW227345   5.340   0.907   0.052
 8816SOL     OW27346   0.937   5.760   4.674
 8816SOL    HW127347   0.920   5.765   4.773
 8816SOL    HW227348   1.028   5.720   4.659
 8817SOL     OW27349   1.522   2.539   3.322
 8817SOL    HW127350   1.451   2.584   3.375
 8817SOL    HW227351   1.596   2.604   3.303
 8818SOL     OW27352   0.984   0.475   5.601
 8818SOL    HW127353   0.920   0.413   5.646
 8818SOL    HW227354   1.036   0.524   5.671
 8819SOL     OW27355   5.210   4.916   6.586
 8819SOL    HW127356   5.285   4.968   6.627
 8819SOL    HW227357   5.130   4.975   6.577
 8820SOL     OW27358   3.052   0.527   5.382
 8820SOL    HW127359   3.103   0.479   5.453
 8820SOL    HW227360   3.056   0.475   5.297
 8821SOL     OW27361   6.517   4.641   6.539
 8821SOL    HW127362   6.437   4.605   6.492
 8821SOL    HW227363   6.600   4.617   6.489
 8822SOL     OW27364   6.458   0.182   4.208
 8822SOL    HW127365   6.445   0.261   4.149
 8822SOL    HW227366   6.475   0.213   4.302
 8823SOL     OW27367   4.000   1.105   2.829
 8823SOL    HW127368   4.001   1.185   2.890
 8823SOL    HW227369   3.988   1.022   2.882
 8824SOL     OW27370   1.533   0.670   1.990
 8824SOL    HW127371   1.448   0.715   2.020
 8824SOL    HW227372   1.556   0.596   2.053
 8825SOL     OW27373   0.232   5.961   0.132
 8825SOL    HW127374   0.256   6.058   0.132
 8825SOL    HW227375   0.132   5.951   0.132
 8826SOL     OW27376   1.418   3.838   1.067
 8826SOL    HW127377   1.478   3.895   1.011
 8826SOL    HW227378   1.428   3.863   1.163
 8827SOL     OW27379   4.902   0.332   2.991
 8827SOL    HW127380   4.809   0.358   2.966
 8827SOL    HW227381   4.921   0.361   3.085
 8828SOL     OW27382   4.028   2.299   6.029
 8828SOL    HW127383   4.002   2.210   5.993
 8828SOL    HW227384   4.116   2.327   5.991
 8829SOL     OW27385   6.754   1.047   1.887
 8829SOL    HW127386   6.761   1.142   1.917
 8829SOL    HW227387   6.697   0.995   1.951
 8830SOL     OW27388   2.574   0.703   3.022
 8830SOL    HW127389   2.638   0.652   2.965
 8830SOL    HW227390   2.593   0.686   3.119
 8831SOL     OW27391   0.502   2.619   1.918
 8831SOL    HW127392   0.575   2.685   1.936
 8831SOL    HW227393   0.499   2.598   1.821
 8832SOL     OW27394   5.696   0.896   4.579
 8832SOL    HW127395   5.763   0.901   4.654
 8832SOL    HW227396   5.604   0.884   4.617
 8833SOL     OW27397   4.792   2.355   1.273
 8833SOL    HW127398   4.843   2.284   1.321
 8833SOL    HW227399   4.842   2.384   1.192
 8834SOL     OW27400   5.528   4.140   5.692
 8834SOL    HW127401   5.495   4.052   5.726
 8834SOL    HW227402   5.544   4.134   5.594
 8835SOL     OW27403   0.097   0.362   6.168
 8835SOL    HW127404   0.007   0.319   6.162
 8835SOL    HW227405   0.103   0.417   6.252
 8836SOL     OW27406   4.838   1.987   1.610
 8836SOL    HW127407   4.741   2.006   1.597
 8836SOL    HW227408   4.855   1.889   1.602
 8837SOL     OW27409   3.925   6.728   0.081
 8837SOL    HW127410   3.969   6.691   0.163
 8837SOL    HW227411   3.972   6.811   0.053
 8838SOL     OW27412   1.573   3.979   3.676
 8838SOL    HW127413   1.590   3.880   3.672
 8838SOL    HW227414   1.658   4.026   3.700
 8839SOL     OW27415   5.033   5.605   2.648
 8839SOL    HW127416   5.006   5.509   2.651
 8839SOL    HW227417   5.005   5.645   2.560
 8840SOL     OW27418   0.252   0.414   1.587
 8840SOL    HW127419   0.267   0.466   1.504
 8840SOL    HW227420   0.185   0.460   1.644
 8841SOL     OW27421   3.727   0.415   0.997
 8841SOL    HW127422   3.646   0.446   1.046
 8841SOL    HW227423   3.734   0.316   1.005
 8842SOL     OW27424   4.079   3.646   4.637
 8842SOL    HW127425   4.147   3.644   4.710
 8842SOL    HW227426   4.004   3.706   4.663
 8843SOL     OW27427   2.860   6.270   6.656
 8843SOL    HW127428   2.920   6.199   6.692
 8843SOL    HW227429   2.854   6.261   6.556
 8844SOL     OW27430   3.445   2.333   6.482
 8844SOL    HW127431   3.352   2.302   6.462
 8844SOL    HW227432   3.442   2.420   6.531
 8845SOL     OW27433   5.940   4.067   2.066
 8845SOL    HW127434   5.878   4.046   1.991
 8845SOL    HW227435   5.889   4.066   2.152
 8846SOL     OW27436   5.747   4.747   5.205
 8846SOL    HW127437   5.699   4.664   5.235
 8846SOL    HW227438   5.702   4.783   5.123
 8847SOL     OW27439   2.211   1.495   3.726
 8847SOL    HW127440   2.248   1.523   3.815
 8847SOL    HW227441   2.259   1.543   3.653
 8848SOL     OW27442   4.586   1.700   0.441
 8848SOL    HW127443   4.623   1.793   0.442
 8848SOL    HW227444   4.617   1.652   0.523
 8849SOL     OW27445   2.973   5.009   4.510
 8849SOL    HW127446   3.011   5.004   4.602
 8849SOL    HW227447   3.049   5.015   4.444
 8850SOL     OW27448   3.216   0.809   1.447
 8850SOL    HW127449   3.312   0.785   1.457
 8850SOL    HW227450   3.182   0.776   1.359
 8851SOL     OW27451   6.726   4.959   2.253
 8851SOL    HW127452   6.724   4.880   2.191
 8851SOL    HW227453   6.801   4.948   2.319
 8852SOL     OW27454   4.804   2.724   4.600
 8852SOL    HW127455   4.748   2.654   4.645
 8852SOL    HW227456   4.898   2.718   4.633
 8853SOL     OW27457   4.357   1.537   5.589
 8853SOL    HW127458   4.300   1.608   5.549
 8853SOL    HW227459   4.393   1.568   5.677
 8854SOL     OW27460   1.032   2.095   6.741
 8854SOL    HW127461   0.967   2.051   6.678
 8854SOL    HW227462   0.982   2.134   6.818
 8855SOL     OW27463   6.150   5.432   0.090
 8855SOL    HW127464   6.237   5.473   0.118
 8855SOL    HW227465   6.098   5.406   0.171
 8856SOL     OW27466   5.707   1.365   4.298
 8856SOL    HW127467   5.768   1.294   4.263
 8856SOL    HW227468   5.760   1.430   4.354
 8857SOL     OW27469   0.215   2.616   5.387
 8857SOL    HW127470   0.240   2.633   5.483
 8857SOL    HW227471   0.214   2.702   5.337
 8858SOL     OW27472   6.859   4.039   6.545
 8858SOL    HW127473   6.822   4.096   6.618
 8858SOL    HW227474   6.849   3.942   6.571
 8859SOL     OW27475   3.026   5.083   5.352
 8859SOL    HW127476   3.056   5.176   5.373
 8859SOL    HW227477   3.059   5.057   5.262
 8860SOL     OW27478   1.194   2.335   1.626
 8860SOL    HW127479   1.163   2.254   1.575
 8860SOL    HW227480   1.175   2.417   1.574
 8861SOL     OW27481   3.049   3.269   0.040
 8861SOL    HW127482   3.052   3.366   0.015
 8861SOL    HW227483   3.068   3.260   0.138
 8862SOL     OW27484   6.867   2.517   4.761
 8862SOL    HW127485   6.833   2.429   4.729
 8862SOL    HW227486   6.899   2.509   4.855
 8863SOL     OW27487   2.102   5.428   4.930
 8863SOL    HW127488   2.036   5.415   5.004
 8863SOL    HW227489   2.193   5.444   4.969
 8864SOL     OW27490   0.814   2.654   6.207
 8864SOL    HW127491   0.826   2.562   6.244
 8864SOL    HW227492   0.735   2.656   6.146
 8865SOL     OW27493   2.392   2.356   6.521
 8865SOL    HW127494   2.424   2.274   6.475
 8865SOL    HW227495   2.458   2.383   6.591
 8866SOL     OW27496   3.729   0.008   4.459
 8866SOL    HW127497   3.713   6.990   4.370
 8866SOL    HW227498   3.818   0.052   4.461
 8867SOL     OW27499   0.298   3.198   3.989
 8867SOL    HW127500   0.228   3.270   3.984
 8867SOL    HW227501   0.255   3.108   3.984
 8868SOL     OW27502   4.054   3.520   0.946
 8868SOL    HW127503   4.038   3.437   0.893
 8868SOL    HW227504   4.023   3.506   1.040
 8869SOL     OW27505   5.590   2.779   3.903
 8869SOL    HW127506   5.647   2.855   3.935
 8869SOL    HW227507   5.603   2.766   3.805
 8870SOL     OW27508   4.348   1.715   1.196
 8870SOL    HW127509   4.296   1.630   1.199
 8870SOL    HW227510   4.356   1.752   1.288
 8871SOL     OW27511   2.117   1.910   4.786
 8871SOL    HW127512   2.133   1.967   4.705
 8871SOL    HW227513   2.165   1.823   4.775
 8872SOL     OW27514   1.651   3.172   4.060
 8872SOL    HW127515   1.658   3.120   3.975
 8872SOL    HW227516   1.583   3.244   4.050
 8873SOL     OW27517   0.393   6.073   4.798
 8873SOL    HW127518   0.488   6.059   4.827
 8873SOL    HW227519   0.353   5.985   4.774
 8874SOL     OW27520   2.300   1.112   0.468
 8874SOL    HW127521   2.327   1.178   0.538
 8874SOL    HW227522   2.376   1.050   0.449
 8875SOL     OW27523   1.656   2.101   4.466
 8875SOL    HW127524   1.597   2.033   4.422
 8875SOL    HW227525   1.660   2.083   4.565
 8876SOL     OW27526   1.770   6.960   4.243
 8876SOL    HW127527   1.826   6.927   4.319
 8876SOL    HW227528   1.685   6.908   4.239
 8877SOL     OW27529   2.726   6.714   5.045
 8877SOL    HW127530   2.701   6.703   5.141
 8877SOL    HW227531   2.752   6.625   5.006
 8878SOL     OW27532   5.903   4.552   6.700
 8878SOL    HW127533   5.920   4.620   6.771
 8878SOL    HW227534   5.833   4.488   6.730
 8879SOL     OW27535   4.379   5.634   4.409
 8879SOL    HW127536   4.468   5.593   4.390
 8879SOL    HW227537   4.311   5.562   4.422
 8880SOL     OW27538   0.314   5.637   5.793
 8880SOL    HW127539   0.316   5.538   5.806
 8880SOL    HW227540   0.375   5.662   5.718
 8881SOL     OW27541   6.615   0.546   1.847
 8881SOL    HW127542   6.666   0.560   1.762
 8881SOL    HW227543   6.573   0.632   1.876
 8882SOL     OW27544   5.684   1.739   6.587
 8882SOL    HW127545   5.658   1.701   6.676
 8882SOL    HW227546   5.782   1.755   6.584
 8883SOL     OW27547   6.905   1.271   5.686
 8883SOL    HW127548   6.961   1.314   5.756
 8883SOL    HW227549   6.902   1.329   5.605
 8884SOL     OW27550   6.531   0.389   5.678
 8884SOL    HW127551   6.468   0.366   5.603
 8884SOL    HW227552   6.478   0.416   5.758
 8885SOL     OW27553   4.971   3.864   1.460
 8885SOL    HW127554   4.940   3.777   1.498
 8885SOL    HW227555   4.907   3.893   1.389
 8886SOL     OW27556   3.465   6.831   7.004
 8886SOL    HW127557   3.539   6.785   6.956
 8886SOL    HW227558   3.433   6.909   6.949
 8887SOL     OW27559   2.652   0.609   1.108
 8887SOL    HW127560   2.673   0.707   1.100
 8887SOL    HW227561   2.592   0.594   1.186
 8888SOL     OW27562   3.041   1.755   2.581
 8888SOL    HW127563   2.993   1.761   2.494
 8888SOL    HW227564   3.012   1.673   2.630
 8889SOL     OW27565   4.148   0.272   5.373
 8889SOL    HW127566   4.176   0.367   5.355
 8889SOL    HW227567   4.072   0.248   5.312
 8890SOL     OW27568   0.882   4.884   4.452
 8890SOL    HW127569   0.847   4.793   4.472
 8890SOL    HW227570   0.982   4.884   4.457
 8891SOL     OW27571   3.537   2.086   6.524
 8891SOL    HW127572   3.493   2.042   6.602
 8891SOL    HW227573   3.485   2.167   6.497
 8892SOL     OW27574   0.769   6.048   2.540
 8892SOL    HW127575   0.690   6.102   2.510
 8892SOL    HW227576   0.810   6.003   2.461
 8893SOL     OW27577   0.773   1.099   1.131
 8893SOL    HW127578   0.725   1.047   1.060
 8893SOL    HW227579   0.868   1.068   1.137
 8894SOL     OW27580   4.006   3.329   6.360
 8894SOL    HW127581   4.043   3.248   6.314
 8894SOL    HW227582   3.938   3.372   6.301
 8895SOL     OW27583   0.485   6.535   2.435
 8895SOL    HW127584   0.565   6.549   2.494
 8895SOL    HW227585   0.514   6.535   2.339
 8896SOL     OW27586   1.913   3.789   4.918
 8896SOL    HW127587   2.008   3.769   4.941
 8896SOL    HW227588   1.901   3.786   4.819
 8897SOL     OW27589   1.461   2.303   1.325
 8897SOL    HW127590   1.551   2.284   1.364
 8897SOL    HW227591   1.398   2.230   1.352
 8898SOL     OW27592   5.946   4.024   4.869
 8898SOL    HW127593   5.847   4.010   4.869
 8898SOL    HW227594   5.966   4.115   4.906
 8899SOL     OW27595   2.127   4.289   0.080
 8899SOL    HW127596   2.157   4.356   0.012
 8899SOL    HW227597   2.092   4.208   0.034
 8900SOL     OW27598   5.639   2.375   3.090
 8900SOL    HW127599   5.711   2.444   3.090
 8900SOL    HW227600   5.613   2.353   3.184
 8901SOL     OW27601   2.000   7.005   3.012
 8901SOL    HW127602   2.017   6.913   3.047
 8901SOL    HW227603   2.087   0.029   2.996
 8902SOL     OW27604   1.761   5.372   5.882
 8902SOL    HW127605   1.855   5.357   5.853
 8902SOL    HW227606   1.703   5.388   5.802
 8903SOL     OW27607   1.724   1.397   3.292
 8903SOL    HW127608   1.777   1.379   3.209
 8903SOL    HW227609   1.707   1.495   3.301
 8904SOL     OW27610   1.397   5.849   3.007
 8904SOL    HW127611   1.315   5.824   2.957
 8904SOL    HW227612   1.373   5.908   3.084
 8905SOL     OW27613   2.270   4.044   5.345
 8905SOL    HW127614   2.251   3.981   5.420
 8905SOL    HW227615   2.325   3.998   5.275
 8906SOL     OW27616   0.898   5.920   5.679
 8906SOL    HW127617   0.853   5.966   5.603
 8906SOL    HW227618   0.983   5.877   5.647
 8907SOL     OW27619   3.508   2.805   5.148
 8907SOL    HW127620   3.479   2.755   5.229
 8907SOL    HW227621   3.463   2.895   5.146
 8908SOL     OW27622   0.433   2.526   1.008
 8908SOL    HW127623   0.409   2.571   0.922
 8908SOL    HW227624   0.393   2.435   1.010
 8909SOL     OW27625   2.696   0.129   6.183
 8909SOL    HW127626   2.670   0.079   6.100
 8909SOL    HW227627   2.786   0.171   6.169
 8910SOL     OW27628   3.503   4.001   6.787
 8910SOL    HW127629   3.585   3.945   6.799
 8910SOL    HW227630   3.459   4.014   6.876
 8911SOL     OW27631   3.246   2.113   4.023
 8911SOL    HW127632   3.242   2.136   4.120
 8911SOL    HW227633   3.341   2.110   3.993
 8912SOL     OW27634   4.968   3.020   5.866
 8912SOL    HW127635   4.995   3.030   5.962
 8912SOL    HW227636   4.932   3.107   5.832
 8913SOL     OW27637   4.821   3.814   0.605
 8913SOL    HW127638   4.911   3.854   0.587
 8913SOL    HW227639   4.754   3.854   0.543
 8914SOL     OW27640   4.134   2.178   4.694
 8914SOL    HW127641   4.156   2.219   4.605
 8914SOL    HW227642   4.040   2.143   4.691
 8915SOL     OW27643   1.061   4.991   1.871
 8915SOL    HW127644   1.139   5.037   1.831
 8915SOL    HW227645   1.065   4.999   1.971
 8916SOL     OW27646   6.559   3.679   2.243
 8916SOL    HW127647   6.614   3.717   2.169
 8916SOL    HW227648   6.612   3.608   2.290
 8917SOL     OW27649   6.088   5.605   6.176
 8917SOL    HW127650   6.006   5.594   6.232
 8917SOL    HW227651   6.076   5.556   6.089
 8918SOL     OW27652   4.698   5.234   6.523
 8918SOL    HW127653   4.628   5.281   6.577
 8918SOL    HW227654   4.660   5.152   6.482
 8919SOL     OW27655   1.978   4.498   0.902
 8919SOL    HW127656   2.062   4.453   0.873
 8919SOL    HW227657   1.993   4.544   0.989
 8920SOL     OW27658   6.344   5.741   5.860
 8920SOL    HW127659   6.412   5.669   5.848
 8920SOL    HW227660   6.269   5.728   5.796
 8921SOL     OW27661   1.789   6.927   3.609
 8921SOL    HW127662   1.724   6.853   3.627
 8921SOL    HW227663   1.775   6.961   3.516
 8922SOL     OW27664   6.579   4.251   0.042
 8922SOL    HW127665   6.499   4.285   0.090
 8922SOL    HW227666   6.661   4.298   0.075
 8923SOL     OW27667   2.132   4.292   5.522
 8923SOL    HW127668   2.213   4.286   5.463
 8923SOL    HW227669   2.161   4.313   5.616
 8924SOL     OW27670   2.966   5.597   5.627
 8924SOL    HW127671   2.867   5.601   5.637
 8924SOL    HW227672   2.990   5.527   5.559
 8925SOL     OW27673   6.456   6.551   1.612
 8925SOL    HW127674   6.543   6.601   1.618
 8925SOL    HW227675   6.474   6.456   1.587
 8926SOL     OW27676   5.930   1.539   0.982
 8926SOL    HW127677   5.841   1.548   1.028
 8926SOL    HW227678   5.942   1.445   0.951
 8927SOL     OW27679   2.340   1.958   5.322
 8927SOL    HW127680   2.440   1.962   5.326
 8927SOL    HW227681   2.310   1.981   5.230
 8928SOL     OW27682   0.117   0.211   5.071
 8928SOL    HW127683   0.217   0.221   5.062
 8928SOL    HW227684   0.074   0.228   4.983
 8929SOL     OW27685   5.970   3.777   3.999
 8929SOL    HW127686   5.989   3.748   3.905
 8929SOL    HW227687   5.889   3.836   3.999
 8930SOL     OW27688   0.516   5.066   4.911
 8930SOL    HW127689   0.601   5.038   4.867
 8930SOL    HW227690   0.516   5.036   5.007
 8931SOL     OW27691   5.391   0.952   0.628
 8931SOL    HW127692   5.309   0.910   0.668
 8931SOL    HW227693   5.448   0.881   0.587
 8932SOL     OW27694   6.870   0.548   6.686
 8932SOL    HW127695   6.914   0.468   6.644
 8932SOL    HW227696   6.771   0.540   6.676
 8933SOL     OW27697   1.648   6.407   5.418
 8933SOL    HW127698   1.649   6.503   5.390
 8933SOL    HW227699   1.715   6.355   5.365
 8934SOL     OW27700   4.295   6.387   2.734
 8934SOL    HW127701   4.327   6.387   2.829
 8934SOL    HW227702   4.307   6.478   2.694
 8935SOL     OW27703   5.685   2.804   3.100
 8935SOL    HW127704   5.683   2.768   3.006
 8935SOL    HW227705   5.621   2.880   3.108
 8936SOL     OW27706   1.390   4.733   2.209
 8936SOL    HW127707   1.403   4.712   2.306
 8936SOL    HW227708   1.299   4.703   2.181
 8937SOL     OW27709   4.983   6.787   5.024
 8937SOL    HW127710   5.060   6.770   5.086
 8937SOL    HW227711   4.898   6.785   5.076
 8938SOL     OW27712   5.995   0.235   1.529
 8938SOL    HW127713   5.983   0.334   1.533
 8938SOL    HW227714   6.004   0.206   1.433
 8939SOL     OW27715   6.885   3.273   4.013
 8939SOL    HW127716   6.963   3.248   3.956
 8939SOL    HW227717   6.894   3.368   4.042
 8940SOL     OW27718   6.024   2.202   0.589
 8940SOL    HW127719   5.926   2.198   0.569
 8940SOL    HW227720   6.044   2.144   0.669
 8941SOL     OW27721   4.358   2.534   1.719
 8941SOL    HW127722   4.371   2.572   1.627
 8941SOL    HW227723   4.270   2.487   1.724
 8942SOL     OW27724   5.991   4.073   4.594
 8942SOL    HW127725   5.917   4.045   4.533
 8942SOL    HW227726   5.963   4.060   4.689
 8943SOL     OW27727   4.505   4.176   0.236
 8943SOL    HW127728   4.464   4.179   0.328
 8943SOL    HW227729   4.562   4.256   0.222
 8944SOL     OW27730   5.584   5.442   4.984
 8944SOL    HW127731   5.542   5.529   5.006
 8944SOL    HW227732   5.515   5.370   4.986
 8945SOL     OW27733   5.303   4.202   3.625
 8945SOL    HW127734   5.268   4.295   3.612
 8945SOL    HW227735   5.333   4.191   3.720
 8946SOL     OW27736   4.778   0.778   5.507
 8946SOL    HW127737   4.764   0.730   5.421
 8946SOL    HW227738   4.875   0.776   5.531
 8947SOL     OW27739   2.041   5.159   6.691
 8947SOL    HW127740   2.136   5.182   6.714
 8947SOL    HW227741   2.032   5.060   6.682
 8948SOL     OW27742   5.834   1.220   2.597
 8948SOL    HW127743   5.831   1.241   2.695
 8948SOL    HW227744   5.741   1.222   2.560
 8949SOL     OW27745   3.785   6.300   0.932
 8949SOL    HW127746   3.712   6.252   0.981
 8949SOL    HW227747   3.803   6.388   0.976
 8950SOL     OW27748   3.745   3.531   0.861
 8950SOL    HW127749   3.803   3.579   0.926
 8950SOL    HW227750   3.699   3.455   0.907
 8951SOL     OW27751   1.797   0.982   4.531
 8951SOL    HW127752   1.718   1.043   4.526
 8951SOL    HW227753   1.772   0.893   4.492
 8952SOL     OW27754   2.234   4.035   4.264
 8952SOL    HW127755   2.198   3.947   4.234
 8952SOL    HW227756   2.245   4.034   4.364
 8953SOL     OW27757   1.207   4.508   0.971
 8953SOL    HW127758   1.150   4.582   0.936
 8953SOL    HW227759   1.150   4.440   1.017
 8954SOL     OW27760   2.596   4.638   5.717
 8954SOL    HW127761   2.681   4.682   5.687
 8954SOL    HW227762   2.543   4.611   5.637
 8955SOL     OW27763   5.867   2.364   4.446
 8955SOL    HW127764   5.876   2.354   4.545
 8955SOL    HW227765   5.958   2.379   4.406
 8956SOL     OW27766   0.877   5.690   0.024
 8956SOL    HW127767   0.805   5.648   6.993
 8956SOL    HW227768   0.928   5.619   0.073
 8957SOL     OW27769   6.795   6.198   2.971
 8957SOL    HW127770   6.831   6.105   2.970
 8957SOL    HW227771   6.852   6.254   3.031
 8958SOL     OW27772   1.902   2.814   4.982
 8958SOL    HW127773   1.998   2.826   5.006
 8958SOL    HW227774   1.891   2.818   4.883
 8959SOL     OW27775   6.647   2.452   2.480
 8959SOL    HW127776   6.657   2.353   2.470
 8959SOL    HW227777   6.553   2.473   2.508
 8960SOL     OW27778   5.413   4.372   2.969
 8960SOL    HW127779   5.433   4.301   3.037
 8960SOL    HW227780   5.340   4.431   3.003
 8961SOL     OW27781   2.030   1.335   4.947
 8961SOL    HW127782   2.002   1.294   5.034
 8961SOL    HW227783   1.989   1.283   4.872
 8962SOL     OW27784   6.951   5.620   2.159
 8962SOL    HW127785   7.019   5.571   2.103
 8962SOL    HW227786   6.894   5.677   2.099
 8963SOL     OW27787   4.991   6.839   5.371
 8963SOL    HW127788   4.990   6.855   5.470
 8963SOL    HW227789   5.043   6.912   5.327
 8964SOL     OW27790   1.181   2.817   4.846
 8964SOL    HW127791   1.257   2.841   4.906
 8964SOL    HW227792   1.160   2.894   4.786
 8965SOL     OW27793   3.891   5.890   6.069
 8965SOL    HW127794   3.983   5.925   6.054
 8965SOL    HW227795   3.868   5.824   5.998
 8966SOL     OW27796   4.294   5.811   5.118
 8966SOL    HW127797   4.214   5.751   5.125
 8966SOL    HW227798   4.376   5.755   5.108
 8967SOL     OW27799   2.988   0.020   4.095
 8967SOL    HW127800   2.982   0.111   4.053
 8967SOL    HW227801   3.024   6.979   4.028
 8968SOL     OW27802   3.873   5.438   2.418
 8968SOL    HW127803   3.898   5.353   2.464
 8968SOL    HW227804   3.773   5.449   2.421
 8969SOL     OW27805   1.119   0.829   2.678
 8969SOL    HW127806   1.085   0.874   2.594
 8969SOL    HW227807   1.210   0.863   2.699
 8970SOL     OW27808   1.894   0.324   3.988
 8970SOL    HW127809   1.857   0.267   4.061
 8970SOL    HW227810   1.975   0.280   3.949
 8971SOL     OW27811   3.818   4.786   6.951
 8971SOL    HW127812   3.807   4.815   6.856
 8971SOL    HW227813   3.845   4.689   6.953
 8972SOL     OW27814   6.094   3.756   6.763
 8972SOL    HW127815   6.189   3.774   6.737
 8972SOL    HW227816   6.093   3.697   6.844
 8973SOL     OW27817   1.411   2.244   3.293
 8973SOL    HW127818   1.312   2.238   3.301
 8973SOL    HW227819   1.442   2.330   3.333
 8974SOL     OW27820   2.232   4.365   4.673
 8974SOL    HW127821   2.229   4.463   4.691
 8974SOL    HW227822   2.183   4.315   4.744
 8975SOL     OW27823   0.322   5.556   6.196
 8975SOL    HW127824   0.293   5.461   6.207
 8975SOL    HW227825   0.349   5.593   6.285
 8976SOL     OW27826   6.312   6.999   2.057
 8976SOL    HW127827   6.312   6.913   2.005
 8976SOL    HW227828   6.268   6.985   2.145
 8977SOL     OW27829   6.636   4.871   5.865
 8977SOL    HW127830   6.641   4.826   5.775
 8977SOL    HW227831   6.623   4.970   5.852
 8978SOL     OW27832   5.888   5.743   6.524
 8978SOL    HW127833   5.901   5.710   6.618
 8978SOL    HW227834   5.823   5.820   6.525
 8979SOL     OW27835   1.528   4.963   4.753
 8979SOL    HW127836   1.621   4.985   4.724
 8979SOL    HW227837   1.465   5.032   4.718
 8980SOL     OW27838   3.544   0.231   0.087
 8980SOL    HW127839   3.532   0.168   0.164
 8980SOL    HW227840   3.641   0.237   0.064
 8981SOL     OW27841   4.809   3.501   6.387
 8981SOL    HW127842   4.769   3.578   6.436
 8981SOL    HW227843   4.820   3.525   6.290
 8982SOL     OW27844   0.314   1.489   2.075
 8982SOL    HW127845   0.361   1.556   2.017
 8982SOL    HW227846   0.228   1.463   2.032
 8983SOL     OW27847   1.595   6.684   2.412
 8983SOL    HW127848   1.601   6.776   2.451
 8983SOL    HW227849   1.643   6.682   2.324
 8984SOL     OW27850   0.186   0.666   3.869
 8984SOL    HW127851   0.138   0.608   3.802
 8984SOL    HW227852   0.276   0.628   3.887
 8985SOL     OW27853   4.997   1.987   1.352
 8985SOL    HW127854   4.933   1.985   1.428
 8985SOL    HW227855   4.985   2.073   1.302
 8986SOL     OW27856   7.021   4.546   0.367
 8986SOL    HW127857   6.926   4.572   0.384
 8986SOL    HW227858   0.034   4.602   0.292
 8987SOL     OW27859   2.225   6.932   1.931
 8987SOL    HW127860   2.253   0.003   1.946
 8987SOL    HW227861   2.277   6.893   1.855
 8988SOL     OW27862   1.986   6.173   1.717
 8988SOL    HW127863   1.969   6.096   1.778
 8988SOL    HW227864   1.954   6.258   1.759
 8989SOL     OW27865   5.215   2.254   3.158
 8989SOL    HW127866   5.238   2.351   3.162
 8989SOL    HW227867   5.140   2.240   3.093
 8990SOL     OW27868   3.310   1.069   2.265
 8990SOL    HW127869   3.258   1.152   2.247
 8990SOL    HW227870   3.365   1.081   2.348
 8991SOL     OW27871   1.201   1.328   0.810
 8991SOL    HW127872   1.246   1.341   0.722
 8991SOL    HW227873   1.256   1.371   0.882
 8992SOL     OW27874   1.072   4.004   6.399
 8992SOL    HW127875   1.090   4.103   6.402
 8992SOL    HW227876   1.021   3.983   6.316
 8993SOL     OW27877   6.201   3.620   4.287
 8993SOL    HW127878   6.212   3.681   4.366
 8993SOL    HW227879   6.111   3.634   4.246
 8994SOL     OW27880   0.730   5.589   2.772
 8994SOL    HW127881   0.786   5.545   2.842
 8994SOL    HW227882   0.747   5.688   2.773
 8995SOL     OW27883   2.192   3.787   4.914
 8995SOL    HW127884   2.249   3.858   4.956
 8995SOL    HW227885   2.190   3.799   4.815
 8996SOL     OW27886   0.970   3.645   2.127
 8996SOL    HW127887   1.035   3.715   2.097
 8996SOL    HW227888   0.981   3.630   2.225
 8997SOL     OW27889   4.390   1.949   5.469
 8997SOL    HW127890   4.444   1.864   5.470
 8997SOL    HW227891   4.316   1.940   5.403
 8998SOL     OW27892   0.703   1.564   6.235
 8998SOL    HW127893   0.620   1.510   6.250
 8998SOL    HW227894   0.782   1.502   6.229
 8999SOL     OW27895   5.870   0.913   4.793
 8999SOL    HW127896   5.835   0.991   4.845
 8999SOL    HW227897   5.852   0.829   4.843
 9000SOL     OW27898   2.474   4.373   0.728
 9000SOL    HW127899   2.537   4.450   0.715
 9000SOL    HW227900   2.524   4.296   0.768
 9001SOL     OW27901   1.722   4.729   3.324
 9001SOL    HW127902   1.639   4.691   3.283
 9001SOL    HW227903   1.697   4.781   3.406
 9002SOL     OW27904   5.026   4.622   6.242
 9002SOL    HW127905   5.105   4.565   6.264
 9002SOL    HW227906   4.986   4.591   6.156
 9003SOL     OW27907   5.498   3.078   5.904
 9003SOL    HW127908   5.502   3.036   5.813
 9003SOL    HW227909   5.418   3.138   5.910
 9004SOL     OW27910   4.362   5.456   0.428
 9004SOL    HW127911   4.352   5.505   0.342
 9004SOL    HW227912   4.457   5.461   0.459
 9005SOL     OW27913   4.826   2.450   3.221
 9005SOL    HW127914   4.791   2.358   3.203
 9005SOL    HW227915   4.901   2.470   3.158
 9006SOL     OW27916   1.545   6.806   0.908
 9006SOL    HW127917   1.498   6.838   0.826
 9006SOL    HW227918   1.491   6.734   0.951
 9007SOL     OW27919   2.946   6.041   4.513
 9007SOL    HW127920   2.851   6.026   4.483
 9007SOL    HW227921   2.948   6.054   4.612
 9008SOL     OW27922   6.388   4.371   2.809
 9008SOL    HW127923   6.340   4.379   2.896
 9008SOL    HW227924   6.421   4.277   2.798
 9009SOL     OW27925   3.999   6.293   1.534
 9009SOL    HW127926   4.079   6.352   1.520
 9009SOL    HW227927   3.925   6.323   1.474
 9010SOL     OW27928   1.135   5.995   5.334
 9010SOL    HW127929   1.130   5.933   5.256
 9010SOL    HW227930   1.165   6.085   5.303
 9011SOL     OW27931   4.204   1.853   1.745
 9011SOL    HW127932   4.250   1.796   1.677
 9011SOL    HW227933   4.251   1.845   1.833
 9012SOL     OW27934   6.458   5.593   1.524
 9012SOL    HW127935   6.378   5.653   1.533
 9012SOL    HW227936   6.509   5.592   1.609
 9013SOL     OW27937   4.905   6.289   3.417
 9013SOL    HW127938   4.826   6.288   3.356
 9013SOL    HW227939   4.898   6.214   3.483
 9014SOL     OW27940   3.591   1.269   0.663
 9014SOL    HW127941   3.524   1.229   0.601
 9014SOL    HW227942   3.560   1.257   0.757
 9015SOL     OW27943   6.772   1.400   5.460
 9015SOL    HW127944   6.737   1.434   5.548
 9015SOL    HW227945   6.695   1.379   5.400
 9016SOL     OW27946   6.711   6.167   5.719
 9016SOL    HW127947   6.793   6.111   5.714
 9016SOL    HW227948   6.630   6.108   5.719
 9017SOL     OW27949   0.088   3.812   4.061
 9017SOL    HW127950   0.100   3.769   3.971
 9017SOL    HW227951   7.015   3.832   4.076
 9018SOL     OW27952   3.627   2.429   5.628
 9018SOL    HW127953   3.697   2.495   5.650
 9018SOL    HW227954   3.546   2.446   5.684
 9019SOL     OW27955   1.817   6.700   0.174
 9019SOL    HW127956   1.863   6.758   0.107
 9019SOL    HW227957   1.730   6.668   0.137
 9020SOL     OW27958   0.290   5.094   2.890
 9020SOL    HW127959   0.276   5.155   2.812
 9020SOL    HW227960   0.204   5.048   2.912
 9021SOL     OW27961   6.854   6.113   5.155
 9021SOL    HW127962   6.830   6.072   5.067
 9021SOL    HW227963   6.771   6.123   5.210
 9022SOL     OW27964   3.314   0.926   6.467
 9022SOL    HW127965   3.310   0.858   6.541
 9022SOL    HW227966   3.348   0.882   6.384
 9023SOL     OW27967   3.311   2.871   2.997
 9023SOL    HW127968   3.332   2.775   2.976
 9023SOL    HW227969   3.268   2.914   2.918
 9024SOL     OW27970   1.883   6.981   6.588
 9024SOL    HW127971   1.896   6.975   6.687
 9024SOL    HW227972   1.792   6.947   6.564
 9025SOL     OW27973   6.590   4.290   1.223
 9025SOL    HW127974   6.516   4.332   1.276
 9025SOL    HW227975   6.559   4.270   1.131
 9026SOL     OW27976   3.160   3.377   5.426
 9026SOL    HW127977   3.125   3.286   5.406
 9026SOL    HW227978   3.090   3.430   5.474
 9027SOL     OW27979   2.293   2.680   3.119
 9027SOL    HW127980   2.321   2.767   3.160
 9027SOL    HW227981   2.200   2.658   3.147
 9028SOL     OW27982   2.571   4.588   4.930
 9028SOL    HW127983   2.584   4.609   4.833
 9028SOL    HW227984   2.660   4.582   4.975
 9029SOL     OW27985   4.887   5.230   3.367
 9029SOL    HW127986   4.802   5.280   3.378
 9029SOL    HW227987   4.869   5.132   3.371
 9030SOL     OW27988   3.246   1.700   1.635
 9030SOL    HW127989   3.280   1.731   1.547
 9030SOL    HW227990   3.147   1.715   1.640
 9031SOL     OW27991   2.071   0.789   0.425
 9031SOL    HW127992   2.069   0.740   0.512
 9031SOL    HW227993   2.066   0.724   0.350
 9032SOL     OW27994   1.710   1.356   2.270
 9032SOL    HW127995   1.636   1.424   2.269
 9032SOL    HW227996   1.708   1.303   2.186
 9033SOL     OW27997   1.191   3.235   2.703
 9033SOL    HW127998   1.206   3.319   2.652
 9033SOL    HW227999   1.108   3.244   2.759
 9034SOL     OW28000   2.428   0.652   6.004
 9034SOL    HW128001   2.411   0.668   5.906
 9034SOL    HW228002   2.451   0.738   6.048
 9035SOL     OW28003   6.936   1.135   4.519
 9035SOL    HW128004   7.022   1.098   4.485
 9035SOL    HW228005   6.886   1.177   4.443
 9036SOL     OW28006   1.280   1.862   4.922
 9036SOL    HW128007   1.321   1.879   5.011
 9036SOL    HW228008   1.217   1.937   4.899
 9037SOL     OW28009   2.160   4.047   5.826
 9037SOL    HW128010   2.180   4.144   5.817
 9037SOL    HW228011   2.219   3.994   5.765
 9038SOL     OW28012   5.757   6.713   5.348
 9038SOL    HW128013   5.855   6.697   5.359
 9038SOL    HW228014   5.741   6.767   5.264
 9039SOL     OW28015   2.483   5.486   5.953
 9039SOL    HW128016   2.515   5.550   5.883
 9039SOL    HW228017   2.482   5.532   6.041
 9040SOL     OW28018   2.035   0.975   1.482
 9040SOL    HW128019   1.936   0.964   1.491
 9040SOL    HW228020   2.067   0.929   1.399
 9041SOL     OW28021   1.496   3.195   7.004
 9041SOL    HW128022   1.461   3.121   6.946
 9041SOL    HW228023   1.555   3.157   0.052
 9042SOL     OW28024   2.668   5.196   3.869
 9042SOL    HW128025   2.739   5.220   3.935
 9042SOL    HW228026   2.593   5.262   3.876
 9043SOL     OW28027   6.586   2.372   6.698
 9043SOL    HW128028   6.545   2.389   6.788
 9043SOL    HW228029   6.536   2.425   6.629
 9044SOL     OW28030   6.374   4.840   0.133
 9044SOL    HW128031   6.452   4.833   0.071
 9044SOL    HW228032   6.405   4.880   0.220
 9045SOL     OW28033   3.322   6.183   3.953
 9045SOL    HW128034   3.262   6.111   3.918
 9045SOL    HW228035   3.400   6.141   4.000
 9046SOL     OW28036   3.226   3.873   5.574
 9046SOL    HW128037   3.251   3.935   5.500
 9046SOL    HW228038   3.126   3.863   5.578
 9047SOL     OW28039   1.084   4.502   4.955
 9047SOL    HW128040   0.994   4.486   4.913
 9047SOL    HW228041   1.127   4.581   4.912
 9048SOL     OW28042   1.406   3.147   4.554
 9048SOL    HW128043   1.447   3.162   4.644
 9048SOL    HW228044   1.314   3.112   4.564
 9049SOL     OW28045   4.899   5.832   6.569
 9049SOL    HW128046   4.935   5.925   6.579
 9049SOL    HW228047   4.811   5.835   6.523
 9050SOL     OW28048   0.517   6.293   5.455
 9050SOL    HW128049   0.534   6.308   5.357
 9050SOL    HW228050   0.577   6.220   5.488
 9051SOL     OW28051   5.270   6.427   6.027
 9051SOL    HW128052   5.347   6.400   6.085
 9051SOL    HW228053   5.194   6.458   6.085
 9052SOL     OW28054   2.282   5.600   4.358
 9052SOL    HW128055   2.346   5.537   4.402
 9052SOL    HW228056   2.325   5.640   4.277
 9053SOL     OW28057   2.937   1.711   3.441
 9053SOL    HW128058   2.866   1.641   3.452
 9053SOL    HW228059   2.966   1.744   3.531
 9054SOL     OW28060   3.563   0.440   1.450
 9054SOL    HW128061   3.500   0.365   1.430
 9054SOL    HW228062   3.573   0.449   1.549
 9055SOL     OW28063   1.481   1.219   4.269
 9055SOL    HW128064   1.427   1.137   4.252
 9055SOL    HW228065   1.497   1.228   4.368
 9056SOL     OW28066   5.797   1.287   2.877
 9056SOL    HW128067   5.826   1.296   2.972
 9056SOL    HW228068   5.775   1.378   2.840
 9057SOL     OW28069   4.506   6.724   6.893
 9057SOL    HW128070   4.452   6.741   6.976
 9057SOL    HW228071   4.487   6.796   6.826
 9058SOL     OW28072   1.813   2.622   5.146
 9058SOL    HW128073   1.851   2.694   5.088
 9058SOL    HW228074   1.887   2.574   5.192
 9059SOL     OW28075   6.861   0.692   3.335
 9059SOL    HW128076   6.945   0.644   3.359
 9059SOL    HW228077   6.843   0.683   3.237
 9060SOL     OW28078   0.461   5.326   1.688
 9060SOL    HW128079   0.433   5.389   1.616
 9060SOL    HW228080   0.561   5.322   1.691
 9061SOL     OW28081   5.773   4.515   2.657
 9061SOL    HW128082   5.746   4.594   2.712
 9061SOL    HW228083   5.861   4.534   2.613
 9062SOL     OW28084   0.456   5.677   3.147
 9062SOL    HW128085   0.411   5.628   3.072
 9062SOL    HW228086   0.546   5.637   3.163
 9063SOL     OW28087   4.470   1.558   1.867
 9063SOL    HW128088   4.378   1.534   1.899
 9063SOL    HW228089   4.501   1.641   1.914
 9064SOL     OW28090   1.010   5.296   3.217
 9064SOL    HW128091   1.031   5.385   3.178
 9064SOL    HW228092   0.956   5.307   3.300
 9065SOL     OW28093   2.603   4.303   5.414
 9065SOL    HW128094   2.525   4.288   5.354
 9065SOL    HW228095   2.683   4.255   5.377
 9066SOL     OW28096   4.925   4.763   4.853
 9066SOL    HW128097   4.936   4.839   4.789
 9066SOL    HW228098   4.851   4.704   4.822
 9067SOL     OW28099   1.336   6.080   4.226
 9067SOL    HW128100   1.283   6.078   4.310
 9067SOL    HW228101   1.281   6.045   4.151
 9068SOL     OW28102   4.887   6.901   5.647
 9068SOL    HW128103   4.799   6.858   5.625
 9068SOL    HW228104   4.876   7.001   5.643
 9069SOL     OW28105   5.610   2.162   1.378
 9069SOL    HW128106   5.536   2.168   1.311
 9069SOL    HW228107   5.632   2.066   1.395
 9070SOL     OW28108   1.346   1.963   5.899
 9070SOL    HW128109   1.418   1.894   5.892
 9070SOL    HW228110   1.319   1.993   5.808
 9071SOL     OW28111   4.959   2.408   6.118
 9071SOL    HW128112   4.982   2.422   6.021
 9071SOL    HW228113   4.959   2.496   6.165
 9072SOL     OW28114   5.026   0.760   2.619
 9072SOL    HW128115   5.048   0.729   2.526
 9072SOL    HW228116   5.046   0.857   2.627
 9073SOL     OW28117   4.638   1.803   5.408
 9073SOL    HW128118   4.643   1.843   5.316
 9073SOL    HW228119   4.663   1.707   5.404
 9074SOL     OW28120   1.704   0.879   1.881
 9074SOL    HW128121   1.633   0.829   1.931
 9074SOL    HW228122   1.793   0.835   1.896
 9075SOL     OW28123   5.907   6.222   0.954
 9075SOL    HW128124   5.880   6.316   0.934
 9075SOL    HW228125   5.889   6.202   1.050
 9076SOL     OW28126   6.704   0.533   2.498
 9076SOL    HW128127   6.708   0.452   2.439
 9076SOL    HW228128   6.751   0.609   2.453
 9077SOL     OW28129   6.160   1.539   6.447
 9077SOL    HW128130   6.064   1.564   6.461
 9077SOL    HW228131   6.204   1.606   6.388
 9078SOL     OW28132   5.161   6.369   0.066
 9078SOL    HW128133   5.256   6.376   0.037
 9078SOL    HW228134   5.105   6.432   0.014
 9079SOL     OW28135   1.671   1.159   6.695
 9079SOL    HW128136   1.731   1.237   6.713
 9079SOL    HW228137   1.597   1.187   6.634
 9080SOL     OW28138   5.993   3.549   1.532
 9080SOL    HW128139   6.052   3.469   1.546
 9080SOL    HW228140   5.943   3.568   1.616
 9081SOL     OW28141   4.769   1.921   6.903
 9081SOL    HW128142   4.684   1.869   6.901
 9081SOL    HW228143   4.846   1.858   6.889
 9082SOL     OW28144   3.669   5.746   6.108
 9082SOL    HW128145   3.691   5.843   6.093
 9082SOL    HW228146   3.745   5.690   6.075
 9083SOL     OW28147   4.176   5.537   6.477
 9083SOL    HW128148   4.165   5.630   6.512
 9083SOL    HW228149   4.155   5.471   6.549
 9084SOL     OW28150   6.607   2.336   6.130
 9084SOL    HW128151   6.699   2.316   6.097
 9084SOL    HW228152   6.542   2.332   6.054
 9085SOL     OW28153   2.021   4.910   6.940
 9085SOL    HW128154   2.042   4.905   6.843
 9085SOL    HW228155   2.104   4.893   6.993
 9086SOL     OW28156   0.105   4.536   0.964
 9086SOL    HW128157   0.119   4.552   0.866
 9086SOL    HW228158   0.148   4.609   1.016
 9087SOL     OW28159   5.929   0.887   1.675
 9087SOL    HW128160   5.863   0.881   1.600
 9087SOL    HW228161   5.882   0.909   1.760
 9088SOL     OW28162   6.568   6.483   0.706
 9088SOL    HW128163   6.619   6.526   0.781
 9088SOL    HW228164   6.497   6.546   0.674
 9089SOL     OW28165   5.230   5.384   3.973
 9089SOL    HW128166   5.267   5.468   4.013
 9089SOL    HW228167   5.234   5.389   3.874
 9090SOL     OW28168   5.616   6.056   5.096
 9090SOL    HW128169   5.691   6.020   5.151
 9090SOL    HW228170   5.645   6.141   5.052
 9091SOL     OW28171   2.430   1.882   1.130
 9091SOL    HW128172   2.333   1.866   1.149
 9091SOL    HW228173   2.440   1.969   1.080
 9092SOL     OW28174   1.449   0.606   6.085
 9092SOL    HW128175   1.412   0.544   6.015
 9092SOL    HW228176   1.401   0.694   6.080
 9093SOL     OW28177   1.849   4.085   0.820
 9093SOL    HW128178   1.843   4.031   0.736
 9093SOL    HW228179   1.924   4.151   0.813
 9094SOL     OW28180   6.606   4.658   1.754
 9094SOL    HW128181   6.627   4.755   1.741
 9094SOL    HW228182   6.509   4.643   1.736
 9095SOL     OW28183   3.356   3.214   6.735
 9095SOL    HW128184   3.305   3.299   6.735
 9095SOL    HW228185   3.347   3.169   6.646
 9096SOL     OW28186   5.283   2.511   3.169
 9096SOL    HW128187   5.350   2.578   3.202
 9096SOL    HW228188   5.214   2.558   3.115
 9097SOL     OW28189   0.847   5.001   6.196
 9097SOL    HW128190   0.858   4.931   6.125
 9097SOL    HW228191   0.828   5.089   6.153
 9098SOL     OW28192   4.160   3.633   2.743
 9098SOL    HW128193   4.195   3.541   2.764
 9098SOL    HW228194   4.110   3.630   2.656
 9099SOL     OW28195   2.303   3.550   0.833
 9099SOL    HW128196   2.348   3.496   0.761
 9099SOL    HW228197   2.205   3.556   0.814
 9100SOL     OW28198   0.396   2.763   1.145
 9100SOL    HW128199   0.319   2.800   1.094
 9100SOL    HW228200   0.412   2.668   1.119
 9101SOL     OW28201   1.704   2.685   1.538
 9101SOL    HW128202   1.722   2.780   1.512
 9101SOL    HW228203   1.607   2.664   1.525
 9102SOL     OW28204   3.573   5.380   2.597
 9102SOL    HW128205   3.591   5.410   2.504
 9102SOL    HW228206   3.543   5.458   2.653
 9103SOL     OW28207   0.472   4.099   0.543
 9103SOL    HW128208   0.568   4.119   0.526
 9103SOL    HW228209   0.434   4.050   0.465
 9104SOL     OW28210   4.686   6.913   1.142
 9104SOL    HW128211   4.637   6.856   1.076
 9104SOL    HW228212   4.784   6.912   1.121
 9105SOL     OW28213   1.686   1.914   5.727
 9105SOL    HW128214   1.766   1.956   5.686
 9105SOL    HW228215   1.618   1.895   5.655
 9106SOL     OW28216   5.867   4.936   0.932
 9106SOL    HW128217   5.853   4.850   0.884
 9106SOL    HW228218   5.849   5.012   0.870
 9107SOL     OW28219   4.442   0.112   1.623
 9107SOL    HW128220   4.389   0.188   1.586
 9107SOL    HW228221   4.507   0.145   1.692
 9108SOL     OW28222   4.776   5.481   5.604
 9108SOL    HW128223   4.692   5.450   5.650
 9108SOL    HW228224   4.851   5.483   5.669
 9109SOL     OW28225   3.361   1.748   3.818
 9109SOL    HW128226   3.330   1.653   3.823
 9109SOL    HW228227   3.293   1.802   3.768
 9110SOL     OW28228   1.816   4.290   3.496
 9110SOL    HW128229   1.793   4.290   3.594
 9110SOL    HW228230   1.776   4.371   3.453
 9111SOL     OW28231   3.481   4.160   1.667
 9111SOL    HW128232   3.409   4.112   1.719
 9111SOL    HW228233   3.484   4.123   1.574
 9112SOL     OW28234   6.973   4.406   2.422
 9112SOL    HW128235   6.943   4.330   2.364
 9112SOL    HW228236   0.040   4.385   2.460
 9113SOL     OW28237   4.367   6.858   0.649
 9113SOL    HW128238   4.448   6.832   0.596
 9113SOL    HW228239   4.285   6.829   0.599
 9114SOL     OW28240   3.113   5.198   1.526
 9114SOL    HW128241   3.063   5.122   1.568
 9114SOL    HW228242   3.097   5.199   1.427
 9115SOL     OW28243   1.240   4.762   4.975
 9115SOL    HW128244   1.212   4.806   5.060
 9115SOL    HW228245   1.331   4.722   4.987
 9116SOL     OW28246   0.167   1.541   6.218
 9116SOL    HW128247   0.112   1.545   6.302
 9116SOL    HW228248   0.166   1.448   6.182
 9117SOL     OW28249   7.008   2.417   6.941
 9117SOL    HW128250   6.923   2.426   6.992
 9117SOL    HW228251   0.063   2.422   7.004
 9118SOL     OW28252   6.707   6.716   1.592
 9118SOL    HW128253   6.798   6.755   1.606
 9118SOL    HW228254   6.684   6.717   1.495
 9119SOL     OW28255   6.536   0.312   1.955
 9119SOL    HW128256   6.578   0.225   1.927
 9119SOL    HW228257   6.570   0.385   1.896
 9120SOL     OW28258   5.277   1.228   6.080
 9120SOL    HW128259   5.365   1.273   6.062
 9120SOL    HW228260   5.214   1.294   6.120
 9121SOL     OW28261   0.581   1.790   6.162
 9121SOL    HW128262   0.523   1.749   6.091
 9121SOL    HW228263   0.641   1.720   6.201
 9122SOL     OW28264   1.987   3.171   2.817
 9122SOL    HW128265   2.061   3.108   2.793
 9122SOL    HW228266   1.922   3.177   2.741
 9123SOL     OW28267   2.393   5.894   6.615
 9123SOL    HW128268   2.432   5.853   6.698
 9123SOL    HW228269   2.397   5.993   6.622
 9124SOL     OW28270   6.639   5.637   5.286
 9124SOL    HW128271   6.728   5.596   5.266
 9124SOL    HW228272   6.635   5.729   5.247
 9125SOL     OW28273   4.811   4.111   3.789
 9125SOL    HW128274   4.911   4.107   3.785
 9125SOL    HW228275   4.775   4.020   3.804
 9126SOL     OW28276   6.187   0.510   2.181
 9126SOL    HW128277   6.208   0.421   2.223
 9126SOL    HW228278   6.097   0.506   2.138
 9127SOL     OW28279   5.372   0.075   6.843
 9127SOL    HW128280   5.460   0.073   6.890
 9127SOL    HW228281   5.370   0.152   6.779
 9128SOL     OW28282   3.791   2.145   5.187
 9128SOL    HW128283   3.861   2.167   5.255
 9128SOL    HW228284   3.828   2.156   5.095
 9129SOL     OW28285   1.555   1.546   6.069
 9129SOL    HW128286   1.620   1.477   6.039
 9129SOL    HW228287   1.570   1.565   6.166
 9130SOL     OW28288   5.648   4.557   0.749
 9130SOL    HW128289   5.663   4.458   0.747
 9130SOL    HW228290   5.735   4.604   0.735
 9131SOL     OW28291   0.747   4.114   4.509
 9131SOL    HW128292   0.726   4.095   4.605
 9131SOL    HW228293   0.686   4.061   4.450
 9132SOL     OW28294   6.709   3.432   4.564
 9132SOL    HW128295   6.613   3.407   4.576
 9132SOL    HW228296   6.756   3.429   4.653
 9133SOL     OW28297   2.440   4.118   1.005
 9133SOL    HW128298   2.352   4.106   0.960
 9133SOL    HW228299   2.426   4.158   1.096
 9134SOL     OW28300   3.158   6.528   6.795
 9134SOL    HW128301   3.093   6.475   6.848
 9134SOL    HW228302   3.156   6.499   6.699
 9135SOL     OW28303   6.306   6.234   3.471
 9135SOL    HW128304   6.351   6.293   3.539
 9135SOL    HW228305   6.245   6.289   3.414
 9136SOL     OW28306   5.325   5.351   5.604
 9136SOL    HW128307   5.304   5.270   5.549
 9136SOL    HW228308   5.389   5.410   5.554
 9137SOL     OW28309   4.232   0.860   1.718
 9137SOL    HW128310   4.217   0.945   1.768
 9137SOL    HW228311   4.184   0.785   1.764
 9138SOL     OW28312   5.686   5.215   6.210
 9138SOL    HW128313   5.687   5.237   6.307
 9138SOL    HW228314   5.719   5.122   6.196
 9139SOL     OW28315   3.587   1.330   5.300
 9139SOL    HW128316   3.614   1.265   5.371
 9139SOL    HW228317   3.598   1.423   5.335
 9140SOL     OW28318   6.422   2.605   2.592
 9140SOL    HW128319   6.360   2.601   2.514
 9140SOL    HW228320   6.473   2.691   2.590
 9141SOL     OW28321   5.396   0.173   6.002
 9141SOL    HW128322   5.375   0.109   5.928
 9141SOL    HW228323   5.421   0.261   5.963
 9142SOL     OW28324   0.566   2.864   6.045
 9142SOL    HW128325   0.469   2.837   6.046
 9142SOL    HW228326   0.591   2.897   5.954
 9143SOL     OW28327   4.374   3.398   0.418
 9143SOL    HW128328   4.386   3.388   0.319
 9143SOL    HW228329   4.454   3.361   0.465
 9144SOL     OW28330   2.466   5.371   5.423
 9144SOL    HW128331   2.416   5.366   5.336
 9144SOL    HW228332   2.490   5.466   5.442
 9145SOL     OW28333   0.345   4.367   0.202
 9145SOL    HW128334   0.437   4.405   0.210
 9145SOL    HW228335   0.314   4.335   0.291
 9146SOL     OW28336   5.909   2.678   1.117
 9146SOL    HW128337   6.007   2.671   1.134
 9146SOL    HW228338   5.862   2.698   1.203
 9147SOL     OW28339   4.045   5.096   4.057
 9147SOL    HW128340   4.054   5.194   4.044
 9147SOL    HW228341   3.949   5.074   4.075
 9148SOL     OW28342   4.968   5.883   3.376
 9148SOL    HW128343   4.987   5.814   3.446
 9148SOL    HW228344   4.914   5.842   3.303
 9149SOL     OW28345   5.157   2.812   4.454
 9149SOL    HW128346   5.136   2.811   4.356
 9149SOL    HW228347   5.102   2.882   4.499
 9150SOL     OW28348   5.146   0.311   3.256
 9150SOL    HW128349   5.196   0.366   3.189
 9150SOL    HW228350   5.204   0.295   3.336
 9151SOL     OW28351   1.415   4.198   2.120
 9151SOL    HW128352   1.408   4.218   2.022
 9151SOL    HW228353   1.409   4.283   2.172
 9152SOL     OW28354   2.601   6.317   3.755
 9152SOL    HW128355   2.568   6.235   3.708
 9152SOL    HW228356   2.663   6.367   3.694
 9153SOL     OW28357   1.549   2.257   6.328
 9153SOL    HW128358   1.647   2.277   6.325
 9153SOL    HW228359   1.524   2.203   6.247
 9154SOL     OW28360   2.440   5.739   0.209
 9154SOL    HW128361   2.456   5.721   0.112
 9154SOL    HW228362   2.526   5.725   0.259
 9155SOL     OW28363   1.871   4.004   6.202
 9155SOL    HW128364   1.935   4.049   6.263
 9155SOL    HW228365   1.919   3.971   6.120
 9156SOL     OW28366   3.649   2.306   1.057
 9156SOL    HW128367   3.620   2.400   1.038
 9156SOL    HW228368   3.680   2.299   1.152
 9157SOL     OW28369   5.439   4.567   5.155
 9157SOL    HW128370   5.411   4.509   5.079
 9157SOL    HW228371   5.416   4.523   5.242
 9158SOL     OW28372   6.829   3.665   4.774
 9158SOL    HW128373   6.782   3.592   4.823
 9158SOL    HW228374   6.763   3.735   4.747
 9159SOL     OW28375   0.097   5.428   2.657
 9159SOL    HW128376   0.048   5.482   2.724
 9159SOL    HW228377   0.056   5.440   2.567
 9160SOL     OW28378   0.763   6.640   6.273
 9160SOL    HW128379   0.756   6.666   6.369
 9160SOL    HW228380   0.698   6.693   6.219
 9161SOL     OW28381   4.988   3.917   4.851
 9161SOL    HW128382   4.989   3.825   4.891
 9161SOL    HW228383   5.072   3.965   4.878
 9162SOL     OW28384   4.973   3.155   2.761
 9162SOL    HW128385   4.919   3.112   2.688
 9162SOL    HW228386   5.040   3.089   2.796
 9163SOL     OW28387   2.862   2.320   3.820
 9163SOL    HW128388   2.774   2.320   3.869
 9163SOL    HW228389   2.853   2.376   3.738
 9164SOL     OW28390   2.616   0.618   6.713
 9164SOL    HW128391   2.538   0.558   6.732
 9164SOL    HW228392   2.689   0.565   6.670
 9165SOL     OW28393   5.805   0.628   6.261
 9165SOL    HW128394   5.775   0.687   6.336
 9165SOL    HW228395   5.757   0.541   6.266
 9166SOL     OW28396   4.112   5.690   0.865
 9166SOL    HW128397   4.115   5.790   0.860
 9166SOL    HW228398   4.121   5.652   0.772
 9167SOL     OW28399   1.560   3.628   5.785
 9167SOL    HW128400   1.523   3.541   5.816
 9167SOL    HW228401   1.649   3.644   5.829
 9168SOL     OW28402   2.187   0.163   5.595
 9168SOL    HW128403   2.245   0.109   5.534
 9168SOL    HW228404   2.234   0.179   5.682
 9169SOL     OW28405   0.459   1.368   4.636
 9169SOL    HW128406   0.367   1.349   4.669
 9169SOL    HW228407   0.501   1.439   4.693
 9170SOL     OW28408   0.052   4.919   0.451
 9170SOL    HW128409   0.115   4.991   0.482
 9170SOL    HW228410   7.000   4.960   0.400
 9171SOL     OW28411   2.731   6.223   7.011
 9171SOL    HW128412   2.814   6.276   6.994
 9171SOL    HW228413   2.692   6.195   6.923
 9172SOL     OW28414   3.680   0.889   4.314
 9172SOL    HW128415   3.696   0.957   4.244
 9172SOL    HW228416   3.583   0.862   4.313
 9173SOL     OW28417   6.430   4.914   4.834
 9173SOL    HW128418   6.512   4.861   4.815
 9173SOL    HW228419   6.428   4.939   4.931
 9174SOL     OW28420   6.382   4.399   0.176
 9174SOL    HW128421   6.374   4.494   0.145
 9174SOL    HW228422   6.295   4.370   0.215
 9175SOL     OW28423   2.460   6.310   5.875
 9175SOL    HW128424   2.524   6.356   5.813
 9175SOL    HW228425   2.416   6.378   5.934
 9176SOL     OW28426   1.893   1.198   5.377
 9176SOL    HW128427   1.837   1.257   5.435
 9176SOL    HW228428   1.987   1.234   5.373
 9177SOL     OW28429   1.356   4.025   4.358
 9177SOL    HW128430   1.267   4.050   4.395
 9177SOL    HW228431   1.352   4.023   4.258
 9178SOL     OW28432   2.194   5.728   0.882
 9178SOL    HW128433   2.109   5.740   0.931
 9178SOL    HW228434   2.208   5.630   0.863
 9179SOL     OW28435   2.888   5.362   4.291
 9179SOL    HW128436   2.926   5.434   4.233
 9179SOL    HW228437   2.867   5.281   4.236
 9180SOL     OW28438   6.432   2.438   3.785
 9180SOL    HW128439   6.347   2.388   3.798
 9180SOL    HW228440   6.492   2.387   3.723
 9181SOL     OW28441   4.623   2.316   2.699
 9181SOL    HW128442   4.723   2.313   2.704
 9181SOL    HW228443   4.588   2.377   2.769
 9182SOL     OW28444   1.657   5.694   2.303
 9182SOL    HW128445   1.669   5.788   2.335
 9182SOL    HW228446   1.565   5.663   2.326
 9183SOL     OW28447   5.189   6.294   0.673
 9183SOL    HW128448   5.184   6.204   0.630
 9183SOL    HW228449   5.224   6.361   0.607
 9184SOL     OW28450   5.234   0.141   0.672
 9184SOL    HW128451   5.210   0.085   0.751
 9184SOL    HW228452   5.267   0.230   0.703
 9185SOL     OW28453   3.950   0.708   5.224
 9185SOL    HW128454   4.010   0.629   5.235
 9185SOL    HW228455   3.890   0.694   5.145
 9186SOL     OW28456   6.689   0.698   4.716
 9186SOL    HW128457   6.764   0.762   4.701
 9186SOL    HW228458   6.682   0.636   4.638
 9187SOL     OW28459   2.063   6.718   2.348
 9187SOL    HW128460   2.071   6.655   2.271
 9187SOL    HW228461   1.995   6.788   2.328
 9188SOL     OW28462   2.709   6.981   1.154
 9188SOL    HW128463   2.780   6.971   1.223
 9188SOL    HW228464   2.621   6.953   1.193
 9189SOL     OW28465   5.390   5.506   2.410
 9189SOL    HW128466   5.344   5.478   2.494
 9189SOL    HW228467   5.345   5.463   2.332
 9190SOL     OW28468   1.928   5.784   0.160
 9190SOL    HW128469   1.977   5.856   0.110
 9190SOL    HW228470   1.861   5.827   0.221
 9191SOL     OW28471   6.578   0.319   5.302
 9191SOL    HW128472   6.650   0.347   5.365
 9191SOL    HW228473   6.576   0.382   5.224
 9192SOL     OW28474   0.321   4.164   4.742
 9192SOL    HW128475   0.294   4.080   4.789
 9192SOL    HW228476   0.275   4.242   4.785
 9193SOL     OW28477   3.542   3.680   0.241
 9193SOL    HW128478   3.597   3.753   0.201
 9193SOL    HW228479   3.454   3.718   0.272
 9194SOL     OW28480   3.538   0.590   4.138
 9194SOL    HW128481   3.616   0.645   4.108
 9194SOL    HW228482   3.534   0.591   4.238
 9195SOL     OW28483   1.693   2.387   4.752
 9195SOL    HW128484   1.647   2.464   4.707
 9195SOL    HW228485   1.792   2.401   4.750
 9196SOL     OW28486   4.657   1.242   4.974
 9196SOL    HW128487   4.749   1.256   4.938
 9196SOL    HW228488   4.648   1.148   5.007
 9197SOL     OW28489   2.243   3.903   1.233
 9197SOL    HW128490   2.188   3.940   1.158
 9197SOL    HW228491   2.252   3.804   1.222
 9198SOL     OW28492   6.734   5.370   5.455
 9198SOL    HW128493   6.649   5.323   5.477
 9198SOL    HW228494   6.811   5.308   5.468
 9199SOL     OW28495   0.390   4.108   6.083
 9199SOL    HW128496   0.346   4.059   6.158
 9199SOL    HW228497   0.368   4.062   5.997
 9200SOL     OW28498   2.458   0.524   0.856
 9200SOL    HW128499   2.517   0.559   0.929
 9200SOL    HW228500   2.373   0.577   0.854
 9201SOL     OW28501   1.384   3.139   6.595
 9201SOL    HW128502   1.408   3.085   6.676
 9201SOL    HW228503   1.437   3.224   6.595
 9202SOL     OW28504   2.106   6.760   3.145
 9202SOL    HW128505   2.187   6.794   3.193
 9202SOL    HW228506   2.131   6.738   3.050
 9203SOL     OW28507   0.113   5.194   0.545
 9203SOL    HW128508   0.093   5.292   0.547
 9203SOL    HW228509   0.182   5.172   0.613
 9204SOL     OW28510   5.106   1.404   6.667
 9204SOL    HW128511   5.092   1.333   6.598
 9204SOL    HW228512   5.022   1.414   6.721
 9205SOL     OW28513   6.458   4.086   2.857
 9205SOL    HW128514   6.547   4.040   2.854
 9205SOL    HW228515   6.398   4.039   2.922
 9206SOL     OW28516   3.402   5.825   0.531
 9206SOL    HW128517   3.469   5.873   0.587
 9206SOL    HW228518   3.424   5.837   0.434
 9207SOL     OW28519   4.767   5.526   0.192
 9207SOL    HW128520   4.780   5.566   0.102
 9207SOL    HW228521   4.801   5.588   0.262
 9208SOL     OW28522   6.410   3.921   4.386
 9208SOL    HW128523   6.443   3.827   4.389
 9208SOL    HW228524   6.323   3.924   4.337
 9209SOL     OW28525   2.992   1.330   6.572
 9209SOL    HW128526   3.060   1.362   6.637
 9209SOL    HW228527   2.978   1.400   6.502
 9210SOL     OW28528   6.417   1.684   2.715
 9210SOL    HW128529   6.329   1.661   2.756
 9210SOL    HW228530   6.472   1.601   2.705
 9211SOL     OW28531   0.189   2.941   3.946
 9211SOL    HW128532   0.263   2.889   3.903
 9211SOL    HW228533   0.167   2.901   4.035
 9212SOL     OW28534   3.513   5.294   4.361
 9212SOL    HW128535   3.418   5.313   4.335
 9212SOL    HW228536   3.557   5.378   4.392
 9213SOL     OW28537   5.706   3.047   5.714
 9213SOL    HW128538   5.754   3.134   5.728
 9213SOL    HW228539   5.769   2.980   5.675
 9214SOL     OW28540   0.345   5.507   6.944
 9214SOL    HW128541   0.357   5.596   6.989
 9214SOL    HW228542   0.250   5.478   6.951
 9215SOL     OW28543   1.085   0.926   0.448
 9215SOL    HW128544   1.026   0.901   0.371
 9215SOL    HW228545   1.045   1.004   0.496
 9216SOL     OW28546   2.757   0.269   3.082
 9216SOL    HW128547   2.854   0.291   3.090
 9216SOL    HW228548   2.747   0.170   3.073
 9217SOL     OW28549   7.004   1.564   6.715
 9217SOL    HW128550   6.975   1.629   6.785
 9217SOL    HW228551   0.057   1.509   6.750
 9218SOL     OW28552   3.525   6.663   0.289
 9218SOL    HW128553   3.602   6.718   0.323
 9218SOL    HW228554   3.516   6.677   0.191
 9219SOL     OW28555   1.084   2.662   1.015
 9219SOL    HW128556   1.079   2.567   0.985
 9219SOL    HW228557   1.006   2.683   1.074
 9220SOL     OW28558   3.470   6.697   1.857
 9220SOL    HW128559   3.410   6.618   1.866
 9220SOL    HW228560   3.549   6.686   1.917
 9221SOL     OW28561   3.309   0.025   4.057
 9221SOL    HW128562   3.402   0.025   4.021
 9221SOL    HW228563   3.250   6.997   3.995
 9222SOL     OW28564   2.376   1.011   6.728
 9222SOL    HW128565   2.348   0.915   6.728
 9222SOL    HW228566   2.302   1.068   6.765
 9223SOL     OW28567   1.670   2.914   5.327
 9223SOL    HW128568   1.625   2.834   5.288
 9223SOL    HW228569   1.758   2.928   5.282
 9224SOL     OW28570   2.376   5.151   4.102
 9224SOL    HW128571   2.294   5.115   4.146
 9224SOL    HW228572   2.437   5.188   4.172
 9225SOL     OW28573   3.086   6.464   6.538
 9225SOL    HW128574   2.999   6.485   6.494
 9225SOL    HW228575   3.158   6.522   6.499
 9226SOL     OW28576   4.885   6.275   1.492
 9226SOL    HW128577   4.869   6.287   1.590
 9226SOL    HW228578   4.842   6.190   1.462
 9227SOL     OW28579   0.833   5.151   2.996
 9227SOL    HW128580   0.888   5.231   3.019
 9227SOL    HW228581   0.874   5.103   2.918
 9228SOL     OW28582   1.486   1.224   5.767
 9228SOL    HW128583   1.539   1.259   5.843
 9228SOL    HW228584   1.538   1.154   5.718
 9229SOL     OW28585   1.324   5.232   3.699
 9229SOL    HW128586   1.326   5.299   3.624
 9229SOL    HW228587   1.347   5.142   3.663
 9230SOL     OW28588   5.462   0.425   3.533
 9230SOL    HW128589   5.465   0.411   3.632
 9230SOL    HW228590   5.495   0.517   3.512
 9231SOL     OW28591   1.367   2.983   4.322
 9231SOL    HW128592   1.419   3.018   4.399
 9231SOL    HW228593   1.429   2.952   4.250
 9232SOL     OW28594   3.462   5.128   0.466
 9232SOL    HW128595   3.389   5.061   0.478
 9232SOL    HW228596   3.507   5.112   0.378
 9233SOL     OW28597   5.409   5.033   1.449
 9233SOL    HW128598   5.383   4.940   1.422
 9233SOL    HW228599   5.464   5.075   1.377
 9234SOL     OW28600   3.019   5.672   3.249
 9234SOL    HW128601   2.944   5.632   3.197
 9234SOL    HW228602   3.020   5.771   3.235
 9235SOL     OW28603   1.808   1.903   3.277
 9235SOL    HW128604   1.800   1.983   3.336
 9235SOL    HW228605   1.820   1.933   3.182
 9236SOL     OW28606   3.287   3.999   5.316
 9236SOL    HW128607   3.332   4.061   5.252
 9236SOL    HW228608   3.247   3.922   5.266
 9237SOL     OW28609   1.406   4.029   4.069
 9237SOL    HW128610   1.343   3.960   4.034
 9237SOL    HW228611   1.399   4.112   4.013
 9238SOL     OW28612   5.033   2.848   6.529
 9238SOL    HW128613   5.073   2.760   6.555
 9238SOL    HW228614   5.039   2.859   6.430
 9239SOL     OW28615   0.507   3.734   1.290
 9239SOL    HW128616   0.518   3.822   1.245
 9239SOL    HW228617   0.509   3.747   1.390
 9240SOL     OW28618   5.420   1.743   1.529
 9240SOL    HW128619   5.486   1.725   1.456
 9240SOL    HW228620   5.360   1.818   1.501
 9241SOL     OW28621   6.836   5.497   6.564
 9241SOL    HW128622   6.826   5.585   6.610
 9241SOL    HW228623   6.912   5.501   6.499
 9242SOL     OW28624   0.111   6.079   1.280
 9242SOL    HW128625   0.022   6.048   1.315
 9242SOL    HW228626   0.120   6.177   1.296
 9243SOL     OW28627   6.898   5.947   4.392
 9243SOL    HW128628   6.875   5.884   4.318
 9243SOL    HW228629   6.816   5.964   4.447
 9244SOL     OW28630   4.609   5.755   6.564
 9244SOL    HW128631   4.578   5.821   6.496
 9244SOL    HW228632   4.558   5.669   6.553
 9245SOL     OW28633   0.910   5.352   2.223
 9245SOL    HW128634   0.971   5.274   2.213
 9245SOL    HW228635   0.846   5.335   2.298
 9246SOL     OW28636   6.875   5.242   3.452
 9246SOL    HW128637   6.961   5.252   3.502
 9246SOL    HW228638   6.882   5.289   3.364
 9247SOL     OW28639   1.475   6.933   3.207
 9247SOL    HW128640   1.483   6.999   3.282
 9247SOL    HW228641   1.565   6.917   3.166
 9248SOL     OW28642   2.719   2.524   6.293
 9248SOL    HW128643   2.658   2.448   6.269
 9248SOL    HW228644   2.808   2.510   6.249
 9249SOL     OW28645   5.460   1.683   4.719
 9249SOL    HW128646   5.517   1.755   4.678
 9249SOL    HW228647   5.378   1.724   4.757
 9250SOL     OW28648   4.946   3.815   4.132
 9250SOL    HW128649   4.902   3.836   4.220
 9250SOL    HW228650   4.996   3.728   4.140
 9251SOL     OW28651   3.365   1.438   3.080
 9251SOL    HW128652   3.411   1.394   3.158
 9251SOL    HW228653   3.280   1.480   3.112
 9252SOL     OW28654   0.119   6.915   4.868
 9252SOL    HW128655   0.058   6.993   4.854
 9252SOL    HW228656   0.176   6.902   4.787
 9253SOL     OW28657   2.774   6.688   6.113
 9253SOL    HW128658   2.778   6.776   6.067
 9253SOL    HW228659   2.759   6.616   6.045
 9254SOL     OW28660   5.728   3.832   1.515
 9254SOL    HW128661   5.693   3.769   1.584
 9254SOL    HW228662   5.710   3.794   1.424
 9255SOL     OW28663   5.124   3.142   0.263
 9255SOL    HW128664   5.063   3.221   0.260
 9255SOL    HW228665   5.215   3.169   0.231
 9256SOL     OW28666   4.225   4.743   2.401
 9256SOL    HW128667   4.306   4.709   2.354
 9256SOL    HW228668   4.146   4.688   2.376
 9257SOL     OW28669   0.712   4.055   2.406
 9257SOL    HW128670   0.795   4.082   2.357
 9257SOL    HW228671   0.685   3.963   2.377
 9258SOL     OW28672   3.522   2.873   3.582
 9258SOL    HW128673   3.446   2.870   3.646
 9258SOL    HW228674   3.488   2.899   3.491
 9259SOL     OW28675   1.022   2.012   1.092
 9259SOL    HW128676   0.926   1.996   1.069
 9259SOL    HW228677   1.037   2.110   1.109
 9260SOL     OW28678   4.857   2.779   5.925
 9260SOL    HW128679   4.757   2.771   5.930
 9260SOL    HW228680   4.881   2.872   5.899
 9261SOL     OW28681   3.672   0.078   6.766
 9261SOL    HW128682   3.745   0.012   6.785
 9261SOL    HW228683   3.596   0.063   6.829
 9262SOL     OW28684   5.839   1.688   5.300
 9262SOL    HW128685   5.776   1.698   5.223
 9262SOL    HW228686   5.842   1.774   5.351
 9263SOL     OW28687   5.062   3.666   1.028
 9263SOL    HW128688   5.085   3.761   1.010
 9263SOL    HW228689   5.095   3.608   0.954
 9264SOL     OW28690   6.685   3.738   0.081
 9264SOL    HW128691   6.695   3.798   0.001
 9264SOL    HW228692   6.707   3.644   0.054
 9265SOL     OW28693   2.493   1.659   0.284
 9265SOL    HW128694   2.534   1.748   0.263
 9265SOL    HW228695   2.492   1.646   0.383
 9266SOL     OW28696   2.323   6.311   2.441
 9266SOL    HW128697   2.399   6.300   2.505
 9266SOL    HW228698   2.359   6.332   2.350
 9267SOL     OW28699   0.307   3.714   4.565
 9267SOL    HW128700   0.323   3.771   4.645
 9267SOL    HW228701   0.217   3.735   4.526
 9268SOL     OW28702   0.134   6.632   2.845
 9268SOL    HW128703   0.066   6.571   2.886
 9268SOL    HW228704   0.186   6.581   2.776
 9269SOL     OW28705   2.907   1.963   6.991
 9269SOL    HW128706   2.892   1.864   6.999
 9269SOL    HW228707   2.877   1.994   6.900
 9270SOL     OW28708   6.950   6.794   5.634
 9270SOL    HW128709   6.961   6.829   5.541
 9270SOL    HW228710   6.959   6.869   5.699
 9271SOL     OW28711   1.343   6.680   1.029
 9271SOL    HW128712   1.295   6.675   0.942
 9271SOL    HW228713   1.319   6.600   1.085
 9272SOL     OW28714   2.384   4.420   6.370
 9272SOL    HW128715   2.318   4.395   6.299
 9272SOL    HW228716   2.398   4.519   6.369
 9273SOL     OW28717   4.549   5.304   3.820
 9273SOL    HW128718   4.452   5.316   3.799
 9273SOL    HW228719   4.605   5.351   3.752
 9274SOL     OW28720   5.016   2.425   6.733
 9274SOL    HW128721   5.103   2.375   6.735
 9274SOL    HW228722   4.941   2.360   6.720
 9275SOL     OW28723   1.151   1.170   6.787
 9275SOL    HW128724   1.093   1.095   6.756
 9275SOL    HW228725   1.197   1.143   6.872
 9276SOL     OW28726   3.541   5.790   4.976
 9276SOL    HW128727   3.514   5.837   4.892
 9276SOL    HW228728   3.572   5.698   4.954
 9277SOL     OW28729   3.572   3.498   0.038
 9277SOL    HW128730   3.544   3.407   0.067
 9277SOL    HW228731   3.568   3.561   0.115
 9278SOL     OW28732   1.270   1.827   4.024
 9278SOL    HW128733   1.252   1.817   3.926
 9278SOL    HW228734   1.339   1.760   4.052
 9279SOL     OW28735   3.824   0.477   2.186
 9279SOL    HW128736   3.896   0.531   2.142
 9279SOL    HW228737   3.774   0.535   2.251
 9280SOL     OW28738   1.596   6.741   3.609
 9280SOL    HW128739   1.624   6.652   3.647
 9280SOL    HW228740   1.512   6.771   3.653
 9281SOL     OW28741   2.654   2.738   0.846
 9281SOL    HW128742   2.587   2.691   0.904
 9281SOL    HW228743   2.700   2.672   0.787
 9282SOL     OW28744   4.633   1.612   4.599
 9282SOL    HW128745   4.718   1.564   4.620
 9282SOL    HW228746   4.555   1.551   4.620
 9283SOL     OW28747   6.334   2.070   2.833
 9283SOL    HW128748   6.420   2.108   2.797
 9283SOL    HW228749   6.352   2.027   2.921
 9284SOL     OW28750   3.730   3.948   0.838
 9284SOL    HW128751   3.681   3.891   0.772
 9284SOL    HW228752   3.777   3.889   0.904
 9285SOL     OW28753   6.685   2.816   7.018
 9285SOL    HW128754   6.751   2.777   6.954
 9285SOL    HW228755   6.612   2.860   6.967
 9286SOL     OW28756   5.752   6.957   5.180
 9286SOL    HW128757   5.840   6.970   5.226
 9286SOL    HW228758   5.767   6.941   5.082
 9287SOL     OW28759   3.007   5.541   1.287
 9287SOL    HW128760   2.928   5.600   1.301
 9287SOL    HW228761   3.075   5.559   1.358
 9288SOL     OW28762   3.908   1.762   5.546
 9288SOL    HW128763   3.884   1.763   5.448
 9288SOL    HW228764   3.900   1.669   5.581
 9289SOL     OW28765   4.950   2.532   2.471
 9289SOL    HW128766   4.898   2.497   2.392
 9289SOL    HW228767   4.928   2.628   2.485
 9290SOL     OW28768   4.201   2.125   4.973
 9290SOL    HW128769   4.175   2.220   4.992
 9290SOL    HW228770   4.259   2.122   4.891
 9291SOL     OW28771   1.813   0.280   5.201
 9291SOL    HW128772   1.759   0.353   5.242
 9291SOL    HW228773   1.758   0.231   5.134
 9292SOL     OW28774   0.083   3.098   5.819
 9292SOL    HW128775   0.121   3.140   5.737
 9292SOL    HW228776   0.157   3.085   5.886
 9293SOL     OW28777   5.457   4.285   0.543
 9293SOL    HW128778   5.403   4.312   0.623
 9293SOL    HW228779   5.476   4.187   0.547
 9294SOL     OW28780   3.926   5.825   0.159
 9294SOL    HW128781   4.018   5.865   0.167
 9294SOL    HW228782   3.928   5.731   0.193
 9295SOL     OW28783   4.426   2.073   2.713
 9295SOL    HW128784   4.449   1.979   2.688
 9295SOL    HW228785   4.509   2.129   2.713
 9296SOL     OW28786   6.537   6.521   5.932
 9296SOL    HW128787   6.613   6.469   5.895
 9296SOL    HW228788   6.458   6.461   5.946
 9297SOL     OW28789   0.402   0.533   1.342
 9297SOL    HW128790   0.487   0.584   1.360
 9297SOL    HW228791   0.421   0.435   1.346
 9298SOL     OW28792   2.384   6.065   5.452
 9298SOL    HW128793   2.437   5.986   5.422
 9298SOL    HW228794   2.312   6.035   5.514
 9299SOL     OW28795   1.548   2.827   4.196
 9299SOL    HW128796   1.541   2.727   4.192
 9299SOL    HW228797   1.624   2.852   4.256
 9300SOL     OW28798   6.285   4.868   5.368
 9300SOL    HW128799   6.293   4.774   5.333
 9300SOL    HW228800   6.295   4.867   5.467
 9301SOL     OW28801   4.891   4.711   2.940
 9301SOL    HW128802   4.978   4.733   2.895
 9301SOL    HW228803   4.855   4.625   2.903
 9302SOL     OW28804   2.581   2.528   3.385
 9302SOL    HW128805   2.533   2.596   3.440
 9302SOL    HW228806   2.546   2.532   3.291
 9303SOL     OW28807   3.798   6.444   0.417
 9303SOL    HW128808   3.764   6.454   0.511
 9303SOL    HW228809   3.878   6.502   0.404
 9304SOL     OW28810   3.549   4.261   0.710
 9304SOL    HW128811   3.593   4.350   0.704
 9304SOL    HW228812   3.571   4.219   0.798
 9305SOL     OW28813   5.430   2.352   1.509
 9305SOL    HW128814   5.475   2.313   1.589
 9305SOL    HW228815   5.409   2.278   1.444
 9306SOL     OW28816   0.045   4.798   3.927
 9306SOL    HW128817   0.029   4.819   4.024
 9306SOL    HW228818   0.110   4.722   3.921
 9307SOL     OW28819   1.574   1.969   1.096
 9307SOL    HW128820   1.492   1.922   1.128
 9307SOL    HW228821   1.581   1.961   0.997
 9308SOL     OW28822   0.260   3.277   1.044
 9308SOL    HW128823   0.161   3.263   1.045
 9308SOL    HW228824   0.306   3.191   1.066
 9309SOL     OW28825   4.185   3.931   6.010
 9309SOL    HW128826   4.151   3.998   5.944
 9309SOL    HW228827   4.254   3.873   5.966
 9310SOL     OW28828   4.139   6.804   6.016
 9310SOL    HW128829   4.065   6.749   5.981
 9310SOL    HW228830   4.185   6.852   5.941
 9311SOL     OW28831   5.267   3.863   0.531
 9311SOL    HW128832   5.244   3.787   0.470
 9311SOL    HW228833   5.194   3.875   0.598
 9312SOL     OW28834   1.257   4.237   6.696
 9312SOL    HW128835   1.320   4.164   6.724
 9312SOL    HW228836   1.215   4.277   6.777
 9313SOL     OW28837   6.901   0.697   2.433
 9313SOL    HW128838   6.965   0.708   2.509
 9313SOL    HW228839   6.934   0.751   2.355
 9314SOL     OW28840   4.140   5.581   6.837
 9314SOL    HW128841   4.066   5.610   6.776
 9314SOL    HW228842   4.196   5.512   6.790
 9315SOL     OW28843   0.099   0.670   5.763
 9315SOL    HW128844   0.091   0.769   5.775
 9315SOL    HW228845   0.091   0.624   5.851
 9316SOL     OW28846   3.793   5.718   3.972
 9316SOL    HW128847   3.854   5.689   4.045
 9316SOL    HW228848   3.783   5.817   3.974
 9317SOL     OW28849   5.887   4.893   3.317
 9317SOL    HW128850   5.977   4.854   3.299
 9317SOL    HW228851   5.855   4.941   3.236
 9318SOL     OW28852   0.169   1.019   6.583
 9318SOL    HW128853   0.178   0.934   6.530
 9318SOL    HW228854   0.260   1.057   6.599
 9319SOL     OW28855   0.562   3.166   6.467
 9319SOL    HW128856   0.632   3.165   6.395
 9319SOL    HW228857   0.551   3.259   6.501
 9320SOL     OW28858   3.935   2.462   5.792
 9320SOL    HW128859   3.905   2.531   5.858
 9320SOL    HW228860   3.914   2.371   5.827
 9321SOL     OW28861   6.252   6.701   2.894
 9321SOL    HW128862   6.272   6.672   2.987
 9321SOL    HW228863   6.307   6.647   2.830
 9322SOL     OW28864   0.435   6.213   6.082
 9322SOL    HW128865   0.534   6.227   6.088
 9322SOL    HW228866   0.408   6.206   5.986
 9323SOL     OW28867   0.561   1.175   6.374
 9323SOL    HW128868   0.563   1.078   6.349
 9323SOL    HW228869   0.646   1.199   6.420
 9324SOL     OW28870   1.037   5.078   0.395
 9324SOL    HW128871   0.979   5.085   0.476
 9324SOL    HW228872   1.030   4.985   0.357
 9325SOL     OW28873   5.454   1.675   1.000
 9325SOL    HW128874   5.450   1.601   0.933
 9325SOL    HW228875   5.403   1.649   1.082
 9326SOL     OW28876   2.388   6.987   0.465
 9326SOL    HW128877   2.340   0.042   0.424
 9326SOL    HW228878   2.473   7.019   0.507
 9327SOL     OW28879   4.816   6.973   3.037
 9327SOL    HW128880   4.751   0.014   2.996
 9327SOL    HW228881   4.805   6.884   2.994
 9328SOL     OW28882   3.806   1.320   0.032
 9328SOL    HW128883   3.737   1.274   6.998
 9328SOL    HW228884   3.767   1.337   0.123
 9329SOL     OW28885   6.835   3.340   3.303
 9329SOL    HW128886   6.916   3.381   3.345
 9329SOL    HW228887   6.753   3.374   3.349
 9330SOL     OW28888   6.789   6.970   0.745
 9330SOL    HW128889   6.845   0.021   0.708
 9330SOL    HW228890   6.830   6.936   0.830
 9331SOL     OW28891   0.226   0.783   0.077
 9331SOL    HW128892   0.303   0.737   0.122
 9331SOL    HW228893   0.254   0.814   7.010
 9332SOL     OW28894   2.892   3.567   4.422
 9332SOL    HW128895   2.926   3.525   4.507
 9332SOL    HW228896   2.797   3.595   4.434
 9333SOL     OW28897   6.225   3.760   1.023
 9333SOL    HW128898   6.284   3.794   0.950
 9333SOL    HW228899   6.270   3.774   1.111
 9334SOL     OW28900   3.168   0.196   3.608
 9334SOL    HW128901   3.172   0.263   3.683
 9334SOL    HW228902   3.149   0.244   3.522
 9335SOL     OW28903   1.507   1.313   6.545
 9335SOL    HW128904   1.544   1.300   6.453
 9335SOL    HW228905   1.501   1.410   6.566
 9336SOL     OW28906   3.240   6.285   6.266
 9336SOL    HW128907   3.156   6.251   6.309
 9336SOL    HW228908   3.303   6.209   6.249
 9337SOL     OW28909   5.281   0.501   2.162
 9337SOL    HW128910   5.336   0.421   2.136
 9337SOL    HW228911   5.310   0.580   2.108
 9338SOL     OW28912   3.964   0.343   2.528
 9338SOL    HW128913   4.021   0.342   2.611
 9338SOL    HW228914   3.879   0.391   2.547
 9339SOL     OW28915   5.046   6.677   1.252
 9339SOL    HW128916   4.953   6.644   1.234
 9339SOL    HW228917   5.111   6.604   1.232
 9340SOL     OW28918   5.375   3.524   5.943
 9340SOL    HW128919   5.349   3.604   5.996
 9340SOL    HW228920   5.335   3.442   5.985
 9341SOL     OW28921   1.422   5.662   6.878
 9341SOL    HW128922   1.471   5.588   6.923
 9341SOL    HW228923   1.484   5.709   6.813
 9342SOL     OW28924   1.703   0.172   5.435
 9342SOL    HW128925   1.756   0.209   5.358
 9342SOL    HW228926   1.738   0.210   5.521
 9343SOL     OW28927   6.474   5.466   5.154
 9343SOL    HW128928   6.514   5.534   5.216
 9343SOL    HW228929   6.485   5.496   5.060
 9344SOL     OW28930   5.117   6.419   1.500
 9344SOL    HW128931   5.191   6.410   1.433
 9344SOL    HW228932   5.033   6.380   1.461
 9345SOL     OW28933   6.843   2.672   1.448
 9345SOL    HW128934   6.892   2.589   1.473
 9345SOL    HW228935   6.750   2.668   1.484
 9346SOL     OW28936   6.297   0.425   1.274
 9346SOL    HW128937   6.302   0.390   1.368
 9346SOL    HW228938   6.390   0.440   1.240
 9347SOL     OW28939   1.564   5.982   1.616
 9347SOL    HW128940   1.559   6.057   1.681
 9347SOL    HW228941   1.636   5.919   1.643
 9348SOL     OW28942   3.138   5.746   0.623
 9348SOL    HW128943   3.132   5.772   0.719
 9348SOL    HW228944   3.228   5.771   0.587
 9349SOL     OW28945   1.257   6.722   2.402
 9349SOL    HW128946   1.217   6.778   2.475
 9349SOL    HW228947   1.344   6.684   2.434
 9350SOL     OW28948   0.216   2.234   6.150
 9350SOL    HW128949   0.160   2.277   6.221
 9350SOL    HW228950   0.166   2.232   6.064
 9351SOL     OW28951   3.324   2.598   0.083
 9351SOL    HW128952   3.305   2.624   0.178
 9351SOL    HW228953   3.296   2.672   0.022
 9352SOL     OW28954   2.804   4.699   6.785
 9352SOL    HW128955   2.777   4.627   6.849
 9352SOL    HW228956   2.889   4.741   6.815
 9353SOL     OW28957   0.581   6.037   1.796
 9353SOL    HW128958   0.493   6.005   1.831
 9353SOL    HW228959   0.582   6.137   1.793
 9354SOL     OW28960   5.917   2.379   0.002
 9354SOL    HW128961   5.878   2.302   0.054
 9354SOL    HW228962   5.996   2.347   6.973
 9355SOL     OW28963   0.563   1.647   5.151
 9355SOL    HW128964   0.474   1.683   5.126
 9355SOL    HW228965   0.586   1.569   5.093
 9356SOL     OW28966   4.827   6.855   2.171
 9356SOL    HW128967   4.887   6.884   2.096
 9356SOL    HW228968   4.853   6.904   2.254
 9357SOL     OW28969   0.567   1.911   6.945
 9357SOL    HW128970   0.554   1.981   7.014
 9357SOL    HW228971   0.499   1.923   6.872
 9358SOL     OW28972   1.276   3.441   2.332
 9358SOL    HW128973   1.239   3.348   2.340
 9358SOL    HW228974   1.375   3.438   2.347
 9359SOL     OW28975   2.097   6.605   6.253
 9359SOL    HW128976   2.063   6.697   6.267
 9359SOL    HW228977   2.160   6.605   6.175
 9360SOL     OW28978   1.153   0.384   6.193
 9360SOL    HW128979   1.140   0.459   6.128
 9360SOL    HW228980   1.066   0.362   6.237
 9361SOL     OW28981   2.364   6.149   4.164
 9361SOL    HW128982   2.378   6.203   4.247
 9361SOL    HW228983   2.443   6.160   4.104
 9362SOL     OW28984   2.235   0.493   2.064
 9362SOL    HW128985   2.253   0.456   2.156
 9362SOL    HW228986   2.211   0.590   2.072
 9363SOL     OW28987   2.952   5.155   2.231
 9363SOL    HW128988   3.024   5.146   2.162
 9363SOL    HW228989   2.980   5.223   2.299
 9364SOL     OW28990   1.768   2.141   1.169
 9364SOL    HW128991   1.699   2.103   1.108
 9364SOL    HW228992   1.734   2.139   1.263
 9365SOL     OW28993   3.136   1.913   4.409
 9365SOL    HW128994   3.214   1.851   4.406
 9365SOL    HW228995   3.150   1.982   4.480
 9366SOL     OW28996   3.368   5.575   0.246
 9366SOL    HW128997   3.418   5.569   0.332
 9366SOL    HW228998   3.383   5.664   0.204
 9367SOL     OW28999   6.359   0.786   1.456
 9367SOL    HW129000   6.293   0.744   1.519
 9367SOL    HW229001   6.444   0.803   1.505
 9368SOL     OW29002   3.719   0.789   2.701
 9368SOL    HW129003   3.722   0.816   2.604
 9368SOL    HW229004   3.625   0.772   2.728
 9369SOL     OW29005   2.272   5.317   6.520
 9369SOL    HW129006   2.194   5.379   6.516
 9369SOL    HW229007   2.281   5.282   6.613
 9370SOL     OW29008   4.860   2.042   4.079
 9370SOL    HW129009   4.908   2.099   4.012
 9370SOL    HW229010   4.922   2.015   4.152
 9371SOL     OW29011   4.016   5.996   1.564
 9371SOL    HW129012   4.019   6.094   1.540
 9371SOL    HW229013   4.034   5.986   1.662
 9372SOL     OW29014   5.130   6.573   1.738
 9372SOL    HW129015   5.162   6.514   1.665
 9372SOL    HW229016   5.203   6.636   1.766
 9373SOL     OW29017   6.680   1.184   0.629
 9373SOL    HW129018   6.647   1.141   0.545
 9373SOL    HW229019   6.780   1.181   0.631
 9374SOL     OW29020   0.633   5.257   5.672
 9374SOL    HW129021   0.548   5.311   5.672
 9374SOL    HW229022   0.697   5.295   5.605
 9375SOL     OW29023   0.447   1.462   6.870
 9375SOL    HW129024   0.405   1.447   6.780
 9375SOL    HW229025   0.527   1.521   6.860
 9376SOL     OW29026   2.095   3.731   2.102
 9376SOL    HW129027   2.126   3.815   2.058
 9376SOL    HW229028   2.147   3.654   2.065
 9377SOL     OW29029   2.525   6.415   2.854
 9377SOL    HW129030   2.561   6.444   2.943
 9377SOL    HW229031   2.471   6.488   2.814
 9378SOL     OW29032   3.011   0.674   3.470
 9378SOL    HW129033   3.108   0.670   3.491
 9378SOL    HW229034   2.963   0.603   3.521
 9379SOL     OW29035   4.075   6.478   4.730
 9379SOL    HW129036   4.106   6.414   4.800
 9379SOL    HW229037   4.058   6.568   4.771
 9380SOL     OW29038   4.875   5.789   0.323
 9380SOL    HW129039   4.815   5.819   0.248
 9380SOL    HW229040   4.970   5.802   0.297
 9381SOL     OW29041   5.342   1.972   4.339
 9381SOL    HW129042   5.304   1.993   4.429
 9381SOL    HW229043   5.433   1.933   4.350
 9382SOL     OW29044   3.150   0.138   4.837
 9382SOL    HW129045   3.226   0.074   4.826
 9382SOL    HW229046   3.162   0.216   4.776
 9383SOL     OW29047   4.856   4.085   3.147
 9383SOL    HW129048   4.827   4.107   3.054
 9383SOL    HW229049   4.933   4.021   3.144
 9384SOL     OW29050   2.170   0.735   2.116
 9384SOL    HW129051   2.245   0.758   2.178
 9384SOL    HW229052   2.082   0.752   2.162
 9385SOL     OW29053   3.810   1.683   3.272
 9385SOL    HW129054   3.728   1.628   3.281
 9385SOL    HW229055   3.882   1.644   3.330
 9386SOL     OW29056   4.301   6.533   6.168
 9386SOL    HW129057   4.253   6.461   6.117
 9386SOL    HW229058   4.247   6.617   6.167
 9387SOL     OW29059   2.785   2.679   0.050
 9387SOL    HW129060   2.822   2.764   0.013
 9387SOL    HW229061   2.716   2.700   0.119
 9388SOL     OW29062   2.339   6.053   4.639
 9388SOL    HW129063   2.256   6.105   4.660
 9388SOL    HW229064   2.341   6.031   4.541
 9389SOL     OW29065   2.620   4.447   1.751
 9389SOL    HW129066   2.583   4.539   1.758
 9389SOL    HW229067   2.717   4.447   1.778
 9390SOL     OW29068   5.307   5.027   5.144
 9390SOL    HW129069   5.227   5.020   5.085
 9390SOL    HW229070   5.359   4.941   5.139
 9391SOL     OW29071   1.836   5.644   4.570
 9391SOL    HW129072   1.920   5.699   4.576
 9391SOL    HW229073   1.788   5.666   4.486
 9392SOL     OW29074   5.998   4.475   2.512
 9392SOL    HW129075   5.953   4.438   2.431
 9392SOL    HW229076   6.057   4.406   2.552
 9393SOL     OW29077   2.768   6.923   5.949
 9393SOL    HW129078   2.864   6.946   5.939
 9393SOL    HW229079   2.712   6.983   5.892
 9394SOL     OW29080   4.276   0.527   0.889
 9394SOL    HW129081   4.313   0.555   0.978
 9394SOL    HW229082   4.244   0.432   0.894
 9395SOL     OW29083   1.778   2.039   0.775
 9395SOL    HW129084   1.860   1.991   0.807
 9395SOL    HW229085   1.737   2.089   0.851
 9396SOL     OW29086   0.782   6.452   6.642
 9396SOL    HW129087   0.744   6.423   6.554
 9396SOL    HW229088   0.856   6.390   6.668
 9397SOL     OW29089   3.885   1.504   5.605
 9397SOL    HW129090   3.843   1.496   5.695
 9397SOL    HW229091   3.836   1.444   5.541
 9398SOL     OW29092   0.140   1.369   6.845
 9398SOL    HW129093   0.104   1.305   6.914
 9398SOL    HW229094   0.202   1.320   6.784
 9399SOL     OW29095   1.735   2.790   3.808
 9399SOL    HW129096   1.834   2.798   3.819
 9399SOL    HW229097   1.691   2.872   3.845
 9400SOL     OW29098   5.774   1.112   0.796
 9400SOL    HW129099   5.698   1.150   0.744
 9400SOL    HW229100   5.752   1.018   0.823
 9401SOL     OW29101   0.380   1.916   3.159
 9401SOL    HW129102   0.322   1.835   3.163
 9401SOL    HW229103   0.324   1.997   3.142
 9402SOL     OW29104   1.562   6.129   3.833
 9402SOL    HW129105   1.467   6.149   3.812
 9402SOL    HW229106   1.619   6.149   3.753
 9403SOL     OW29107   6.473   2.146   1.884
 9403SOL    HW129108   6.377   2.162   1.862
 9403SOL    HW229109   6.511   2.226   1.930
 9404SOL     OW29110   1.889   3.337   0.725
 9404SOL    HW129111   1.923   3.285   0.803
 9404SOL    HW229112   1.820   3.283   0.677
 9405SOL     OW29113   0.406   5.709   5.293
 9405SOL    HW129114   0.321   5.758   5.279
 9405SOL    HW229115   0.483   5.767   5.264
 9406SOL     OW29116   0.098   2.881   0.533
 9406SOL    HW129117   0.088   2.805   0.596
 9406SOL    HW229118   0.169   2.860   0.466
 9407SOL     OW29119   1.102   5.361   5.505
 9407SOL    HW129120   1.072   5.270   5.533
 9407SOL    HW229121   1.200   5.372   5.524
 9408SOL     OW29122   0.019   3.828   4.833
 9408SOL    HW129123   6.994   3.749   4.796
 9408SOL    HW229124   0.112   3.800   4.860
 9409SOL     OW29125   6.764   5.443   2.325
 9409SOL    HW129126   6.756   5.357   2.275
 9409SOL    HW229127   6.818   5.508   2.271
 9410SOL     OW29128   3.890   0.788   0.951
 9410SOL    HW129129   3.795   0.817   0.949
 9410SOL    HW229130   3.933   0.819   1.035
 9411SOL     OW29131   3.061   3.300   3.141
 9411SOL    HW129132   3.062   3.386   3.192
 9411SOL    HW229133   3.056   3.223   3.205
 9412SOL     OW29134   5.955   6.545   1.310
 9412SOL    HW129135   6.019   6.484   1.264
 9412SOL    HW229136   5.962   6.636   1.269
 9413SOL     OW29137   4.661   4.267   2.669
 9413SOL    HW129138   4.715   4.197   2.622
 9413SOL    HW229139   4.637   4.339   2.604
 9414SOL     OW29140   1.585   2.006   3.947
 9414SOL    HW129141   1.589   2.055   3.860
 9414SOL    HW229142   1.624   1.915   3.936
 9415SOL     OW29143   4.150   1.164   2.514
 9415SOL    HW129144   4.141   1.241   2.451
 9415SOL    HW229145   4.061   1.119   2.523
 9416SOL     OW29146   5.941   4.884   5.925
 9416SOL    HW129147   5.863   4.822   5.930
 9416SOL    HW229148   6.015   4.849   5.982
 9417SOL     OW29149   3.726   5.971   1.850
 9417SOL    HW129150   3.815   6.012   1.872
 9417SOL    HW229151   3.653   6.031   1.881
 9418SOL     OW29152   3.177   2.125   4.595
 9418SOL    HW129153   3.150   2.145   4.689
 9418SOL    HW229154   3.271   2.155   4.579
 9419SOL     OW29155   1.863   3.091   6.310
 9419SOL    HW129156   1.763   3.086   6.308
 9419SOL    HW229157   1.894   3.166   6.252
 9420SOL     OW29158   6.417   4.079   6.711
 9420SOL    HW129159   6.395   4.036   6.624
 9420SOL    HW229160   6.485   4.151   6.697
 9421SOL     OW29161   3.772   6.508   5.532
 9421SOL    HW129162   3.809   6.469   5.448
 9421SOL    HW229163   3.672   6.506   5.530
 9422SOL     OW29164   2.671   6.056   4.626
 9422SOL    HW129165   2.580   6.018   4.613
 9422SOL    HW229166   2.737   5.982   4.637
 9423SOL     OW29167   4.730   4.650   3.284
 9423SOL    HW129168   4.788   4.708   3.227
 9423SOL    HW229169   4.772   4.640   3.374
 9424SOL     OW29170   6.154   0.003   4.617
 9424SOL    HW129171   6.253   0.003   4.612
 9424SOL    HW229172   6.119   6.940   4.580
 9425SOL     OW29173   6.856   4.787   1.251
 9425SOL    HW129174   6.808   4.858   1.304
 9425SOL    HW229175   6.795   4.710   1.236
 9426SOL     OW29176   6.995   1.984   6.948
 9426SOL    HW129177   7.008   2.005   6.851
 9426SOL    HW229178   0.021   2.051   7.004
 9427SOL     OW29179   4.667   4.899   2.984
 9427SOL    HW129180   4.743   4.862   2.931
 9427SOL    HW229181   4.669   4.861   3.077
 9428SOL     OW29182   0.052   6.266   5.391
 9428SOL    HW129183   6.976   6.270   5.378
 9428SOL    HW229184   0.096   6.242   5.305
 9429SOL     OW29185   2.667   2.330   4.082
 9429SOL    HW129186   2.654   2.231   4.089
 9429SOL    HW229187   2.580   2.376   4.098
 9430SOL     OW29188   1.149   2.138   4.602
 9430SOL    HW129189   1.119   2.107   4.692
 9430SOL    HW229190   1.247   2.160   4.605
 9431SOL     OW29191   0.662   4.514   5.251
 9431SOL    HW129192   0.726   4.551   5.319
 9431SOL    HW229193   0.640   4.585   5.184
 9432SOL     OW29194   6.539   1.236   3.767
 9432SOL    HW129195   6.638   1.224   3.754
 9432SOL    HW229196   6.520   1.332   3.788
 9433SOL     OW29197   4.587   5.518   2.033
 9433SOL    HW129198   4.594   5.461   1.951
 9433SOL    HW229199   4.492   5.548   2.044
 9434SOL     OW29200   4.922   5.108   4.440
 9434SOL    HW129201   4.825   5.130   4.434
 9434SOL    HW229202   4.976   5.189   4.414
 9435SOL     OW29203   0.653   2.855   1.963
 9435SOL    HW129204   0.746   2.873   1.931
 9435SOL    HW229205   0.637   2.905   2.048
 9436SOL     OW29206   1.843   0.660   2.817
 9436SOL    HW129207   1.871   0.745   2.861
 9436SOL    HW229208   1.786   0.607   2.879
 9437SOL     OW29209   6.059   6.199   5.167
 9437SOL    HW129210   6.135   6.261   5.186
 9437SOL    HW229211   6.035   6.205   5.070
 9438SOL     OW29212   4.638   6.437   2.522
 9438SOL    HW129213   4.618   6.358   2.581
 9438SOL    HW229214   4.626   6.410   2.426
 9439SOL     OW29215   1.362   2.934   0.646
 9439SOL    HW129216   1.432   2.987   0.597
 9439SOL    HW229217   1.379   2.940   0.744
 9440SOL     OW29218   2.599   5.383   3.259
 9440SOL    HW129219   2.524   5.345   3.313
 9440SOL    HW229220   2.658   5.309   3.227
 9441SOL     OW29221   0.701   5.918   4.595
 9441SOL    HW129222   0.782   5.860   4.604
 9441SOL    HW229223   0.652   5.892   4.511
 9442SOL     OW29224   4.758   3.124   0.769
 9442SOL    HW129225   4.733   3.055   0.836
 9442SOL    HW229226   4.728   3.095   0.678
 9443SOL     OW29227   2.217   4.813   3.071
 9443SOL    HW129228   2.186   4.872   2.996
 9443SOL    HW229229   2.166   4.726   3.068
 9444SOL     OW29230   0.840   4.459   6.243
 9444SOL    HW129231   0.891   4.501   6.318
 9444SOL    HW229232   0.771   4.523   6.209
 9445SOL     OW29233   0.748   1.207   3.803
 9445SOL    HW129234   0.666   1.219   3.860
 9445SOL    HW229235   0.797   1.294   3.797
 9446SOL     OW29236   6.401   4.949   3.359
 9446SOL    HW129237   6.371   4.909   3.445
 9446SOL    HW229238   6.481   4.899   3.325
 9447SOL     OW29239   4.805   4.666   1.410
 9447SOL    HW129240   4.809   4.570   1.380
 9447SOL    HW229241   4.741   4.675   1.486
 9448SOL     OW29242   6.076   0.559   5.065
 9448SOL    HW129243   5.996   0.503   5.043
 9448SOL    HW229244   6.124   0.519   5.144
 9449SOL     OW29245   5.453   6.934   1.661
 9449SOL    HW129246   5.391   6.923   1.583
 9449SOL    HW229247   5.518   7.007   1.643
 9450SOL     OW29248   0.903   5.448   2.917
 9450SOL    HW129249   0.979   5.497   2.962
 9450SOL    HW229250   0.939   5.369   2.868
 9451SOL     OW29251   3.548   5.768   6.366
 9451SOL    HW129252   3.453   5.797   6.361
 9451SOL    HW229253   3.581   5.744   6.275
 9452SOL     OW29254   6.276   4.008   0.307
 9452SOL    HW129255   6.221   4.027   0.226
 9452SOL    HW229256   6.309   3.913   0.303
 9453SOL     OW29257   4.459   5.166   1.800
 9453SOL    HW129258   4.372   5.169   1.752
 9453SOL    HW229259   4.446   5.127   1.891
 9454SOL     OW29260   5.924   4.267   0.261
 9454SOL    HW129261   6.006   4.228   0.303
 9454SOL    HW229262   5.844   4.213   0.288
 9455SOL     OW29263   3.670   1.677   1.756
 9455SOL    HW129264   3.708   1.700   1.845
 9455SOL    HW229265   3.743   1.671   1.688
 9456SOL     OW29266   0.409   3.277   1.852
 9456SOL    HW129267   0.443   3.188   1.824
 9456SOL    HW229268   0.315   3.289   1.820
 9457SOL     OW29269   0.006   6.186   4.440
 9457SOL    HW129270   7.003   6.090   4.436
 9457SOL    HW229271   6.948   6.244   4.437
 9458SOL     OW29272   6.817   3.290   6.995
 9458SOL    HW129273   6.881   3.252   0.038
 9458SOL    HW229274   6.857   3.285   6.903
 9459SOL     OW29275   4.655   5.059   5.636
 9459SOL    HW129276   4.614   5.029   5.721
 9459SOL    HW229277   4.755   5.049   5.641
 9460SOL     OW29278   1.810   2.139   2.969
 9460SOL    HW129279   1.909   2.132   2.954
 9460SOL    HW229280   1.767   2.179   2.889
 9461SOL     OW29281   1.787   2.265   2.236
 9461SOL    HW129282   1.834   2.327   2.173
 9461SOL    HW229283   1.818   2.283   2.330
 9462SOL     OW29284   0.985   1.069   4.327
 9462SOL    HW129285   0.982   1.169   4.321
 9462SOL    HW229286   1.053   1.034   4.263
 9463SOL     OW29287   5.539   5.439   1.555
 9463SOL    HW129288   5.616   5.503   1.555
 9463SOL    HW229289   5.574   5.346   1.562
 9464SOL     OW29290   1.081   1.057   2.019
 9464SOL    HW129291   1.022   1.063   1.940
 9464SOL    HW229292   1.124   1.146   2.036
 9465SOL     OW29293   6.737   4.068   1.106
 9465SOL    HW129294   6.832   4.090   1.083
 9465SOL    HW229295   6.699   4.141   1.163
 9466SOL     OW29296   3.917   4.847   6.054
 9466SOL    HW129297   3.859   4.909   6.108
 9466SOL    HW229298   3.869   4.823   5.970
 9467SOL     OW29299   1.801   3.850   0.642
 9467SOL    HW129300   1.708   3.866   0.675
 9467SOL    HW229301   1.803   3.860   0.543
 9468SOL     OW29302   6.173   1.587   0.455
 9468SOL    HW129303   6.111   1.656   0.418
 9468SOL    HW229304   6.128   1.540   0.531
 9469SOL     OW29305   0.992   6.275   1.463
 9469SOL    HW129306   1.071   6.300   1.406
 9469SOL    HW229307   1.014   6.194   1.516
 9470SOL     OW29308   3.830   3.789   1.024
 9470SOL    HW129309   3.746   3.765   1.073
 9470SOL    HW229310   3.907   3.790   1.088
 9471SOL     OW29311   6.153   3.441   5.276
 9471SOL    HW129312   6.230   3.502   5.258
 9471SOL    HW229313   6.125   3.397   5.191
 9472SOL     OW29314   1.605   3.043   6.376
 9472SOL    HW129315   1.595   2.944   6.385
 9472SOL    HW229316   1.529   3.079   6.322
 9473SOL     OW29317   2.501   4.499   1.191
 9473SOL    HW129318   2.528   4.506   1.287
 9473SOL    HW229319   2.525   4.583   1.143
 9474SOL     OW29320   5.702   3.207   0.534
 9474SOL    HW129321   5.606   3.236   0.528
 9474SOL    HW229322   5.709   3.128   0.593
 9475SOL     OW29323   4.919   3.869   6.238
 9475SOL    HW129324   4.871   3.922   6.169
 9475SOL    HW229325   4.975   3.930   6.294
 9476SOL     OW29326   3.825   4.115   6.345
 9476SOL    HW129327   3.900   4.058   6.312
 9476SOL    HW229328   3.839   4.209   6.315
 9477SOL     OW29329   2.024   4.295   0.521
 9477SOL    HW129330   2.015   4.300   0.422
 9477SOL    HW229331   1.985   4.377   0.562
 9478SOL     OW29332   5.705   3.135   0.231
 9478SOL    HW129333   5.804   3.138   0.241
 9478SOL    HW229334   5.662   3.172   0.314
 9479SOL     OW29335   4.239   0.701   2.115
 9479SOL    HW129336   4.249   0.603   2.134
 9479SOL    HW229337   4.321   0.749   2.147
 9480SOL     OW29338   6.699   0.876   0.818
 9480SOL    HW129339   6.685   0.868   0.917
 9480SOL    HW229340   6.689   0.972   0.791
 9481SOL     OW29341   3.915   0.457   3.469
 9481SOL    HW129342   3.877   0.405   3.546
 9481SOL    HW229343   3.979   0.525   3.503
 9482SOL     OW29344   6.512   6.413   7.018
 9482SOL    HW129345   6.491   6.326   0.039
 9482SOL    HW229346   6.426   6.460   6.997
 9483SOL     OW29347   6.762   6.943   0.359
 9483SOL    HW129348   6.689   6.878   0.378
 9483SOL    HW229349   6.779   7.000   0.439
 9484SOL     OW29350   4.264   5.580   4.901
 9484SOL    HW129351   4.341   5.615   4.848
 9484SOL    HW229352   4.188   5.558   4.840
 9485SOL     OW29353   0.129   0.854   0.321
 9485SOL    HW129354   0.033   0.853   0.349
 9485SOL    HW229355   0.136   0.831   0.224
 9486SOL     OW29356   5.172   6.026   0.532
 9486SOL    HW129357   5.157   6.072   0.444
 9486SOL    HW229358   5.156   5.928   0.521
 9487SOL     OW29359   3.246   3.009   3.241
 9487SOL    HW129360   3.229   2.941   3.170
 9487SOL    HW229361   3.289   3.089   3.200
 9488SOL     OW29362   1.675   0.978   0.763
 9488SOL    HW129363   1.582   0.961   0.795
 9488SOL    HW229364   1.727   0.893   0.762
 9489SOL     OW29365   5.610   3.482   0.358
 9489SOL    HW129366   5.568   3.573   0.359
 9489SOL    HW229367   5.659   3.467   0.445
 9490SOL     OW29368   5.715   3.732   4.434
 9490SOL    HW129369   5.800   3.682   4.415
 9490SOL    HW229370   5.643   3.699   4.373
 9491SOL     OW29371   5.363   6.217   2.700
 9491SOL    HW129372   5.461   6.228   2.714
 9491SOL    HW229373   5.324   6.163   2.775
 9492SOL     OW29374   5.023   2.859   4.214
 9492SOL    HW129375   4.934   2.887   4.251
 9492SOL    HW229376   5.024   2.875   4.116
 9493SOL     OW29377   4.313   6.618   1.904
 9493SOL    HW129378   4.234   6.563   1.933
 9493SOL    HW229379   4.327   6.692   1.970
 9494SOL     OW29380   5.340   2.154   2.101
 9494SOL    HW129381   5.245   2.167   2.073
 9494SOL    HW229382   5.383   2.243   2.117
 9495SOL     OW29383   0.256   1.825   2.430
 9495SOL    HW129384   0.262   1.737   2.385
 9495SOL    HW229385   0.264   1.898   2.362
 9496SOL     OW29386   5.439   2.390   2.315
 9496SOL    HW129387   5.387   2.434   2.242
 9496SOL    HW229388   5.516   2.339   2.276
 9497SOL     OW29389   4.870   4.459   4.668
 9497SOL    HW129390   4.791   4.516   4.690
 9497SOL    HW229391   4.840   4.367   4.642
 9498SOL     OW29392   1.010   5.432   3.540
 9498SOL    HW129393   0.937   5.471   3.596
 9498SOL    HW229394   1.070   5.505   3.508
 9499SOL     OW29395   6.618   5.896   5.194
 9499SOL    HW129396   6.597   5.906   5.097
 9499SOL    HW229397   6.541   5.930   5.248
 9500SOL     OW29398   3.812   2.152   0.425
 9500SOL    HW129399   3.836   2.227   0.486
 9500SOL    HW229400   3.890   2.090   0.416
 9501SOL     OW29401   2.041   3.158   5.315
 9501SOL    HW129402   1.959   3.215   5.311
 9501SOL    HW229403   2.104   3.186   5.242
 9502SOL     OW29404   5.154   4.616   4.880
 9502SOL    HW129405   5.214   4.695   4.892
 9502SOL    HW229406   5.062   4.648   4.856
 9503SOL     OW29407   0.148   2.136   0.057
 9503SOL    HW129408   0.208   2.084   0.116
 9503SOL    HW229409   0.191   2.224   0.034
 9504SOL     OW29410   5.828   5.230   2.465
 9504SOL    HW129411   5.804   5.133   2.463
 9504SOL    HW229412   5.927   5.240   2.455
 9505SOL     OW29413   4.352   5.538   5.438
 9505SOL    HW129414   4.298   5.468   5.392
 9505SOL    HW229415   4.449   5.520   5.424
 9506SOL     OW29416   3.228   1.272   1.081
 9506SOL    HW129417   3.231   1.294   1.179
 9506SOL    HW229418   3.162   1.332   1.036
 9507SOL     OW29419   5.040   0.195   2.521
 9507SOL    HW129420   5.011   0.168   2.430
 9507SOL    HW229421   5.140   0.195   2.526
 9508SOL     OW29422   5.279   2.038   2.781
 9508SOL    HW129423   5.351   2.094   2.820
 9508SOL    HW229424   5.317   1.951   2.750
 9509SOL     OW29425   5.535   0.674   3.445
 9509SOL    HW129426   5.537   0.663   3.345
 9509SOL    HW229427   5.629   0.681   3.479
 9510SOL     OW29428   1.226   2.565   3.833
 9510SOL    HW129429   1.265   2.497   3.771
 9510SOL    HW229430   1.298   2.625   3.868
 9511SOL     OW29431   1.308   1.360   0.566
 9511SOL    HW129432   1.219   1.366   0.522
 9511SOL    HW229433   1.377   1.403   0.507
 9512SOL     OW29434   6.208   1.695   1.509
 9512SOL    HW129435   6.126   1.665   1.461
 9512SOL    HW229436   6.242   1.780   1.469
 9513SOL     OW29437   4.173   4.971   6.041
 9513SOL    HW129438   4.082   4.935   6.060
 9513SOL    HW229439   4.165   5.066   6.009
 9514SOL     OW29440   3.742   3.069   6.729
 9514SOL    HW129441   3.713   3.134   6.659
 9514SOL    HW229442   3.841   3.064   6.732
 9515SOL     OW29443   0.728   5.251   3.487
 9515SOL    HW129444   0.804   5.199   3.526
 9515SOL    HW229445   0.698   5.209   3.402
 9516SOL     OW29446   6.828   3.956   0.639
 9516SOL    HW129447   6.876   3.892   0.579
 9516SOL    HW229448   6.765   3.905   0.698
 9517SOL     OW29449   0.772   5.009   0.241
 9517SOL    HW129450   0.845   5.073   0.221
 9517SOL    HW229451   0.764   4.942   0.168
 9518SOL     OW29452   0.853   1.100   0.150
 9518SOL    HW129453   0.834   1.183   0.099
 9518SOL    HW229454   0.945   1.068   0.128
 9519SOL     OW29455   1.168   3.206   5.231
 9519SOL    HW129456   1.156   3.130   5.167
 9519SOL    HW229457   1.085   3.262   5.234
 9520SOL     OW29458   3.408   0.189   1.444
 9520SOL    HW129459   3.326   0.173   1.498
 9520SOL    HW229460   3.465   0.107   1.445
 9521SOL     OW29461   5.566   5.446   3.955
 9521SOL    HW129462   5.484   5.492   3.989
 9521SOL    HW229463   5.639   5.513   3.941
 9522SOL     OW29464   3.358   6.069   0.862
 9522SOL    HW129465   3.322   6.091   0.771
 9522SOL    HW229466   3.310   5.989   0.898
 9523SOL     OW29467   3.707   6.094   4.722
 9523SOL    HW129468   3.692   6.092   4.821
 9523SOL    HW229469   3.713   6.189   4.691
 9524SOL     OW29470   4.732   2.665   1.108
 9524SOL    HW129471   4.725   2.762   1.086
 9524SOL    HW229472   4.680   2.646   1.191
 9525SOL     OW29473   3.585   0.423   6.380
 9525SOL    HW129474   3.680   0.455   6.380
 9525SOL    HW229475   3.562   0.390   6.472
 9526SOL     OW29476   5.433   5.382   2.023
 9526SOL    HW129477   5.474   5.291   2.020
 9526SOL    HW229478   5.362   5.385   2.093
 9527SOL     OW29479   6.192   2.193   1.902
 9527SOL    HW129480   6.141   2.224   1.821
 9527SOL    HW229481   6.140   2.122   1.948
 9528SOL     OW29482   6.381   1.072   2.631
 9528SOL    HW129483   6.295   1.057   2.679
 9528SOL    HW229484   6.386   1.012   2.551
 9529SOL     OW29485   0.478   3.423   5.121
 9529SOL    HW129486   0.547   3.424   5.048
 9529SOL    HW229487   0.424   3.339   5.114
 9530SOL     OW29488   1.409   2.230   4.387
 9530SOL    HW129489   1.415   2.192   4.479
 9530SOL    HW229490   1.392   2.155   4.322
 9531SOL     OW29491   3.037   6.362   3.152
 9531SOL    HW129492   3.118   6.327   3.198
 9531SOL    HW229493   2.975   6.286   3.130
 9532SOL     OW29494   2.358   1.168   1.927
 9532SOL    HW129495   2.360   1.091   1.863
 9532SOL    HW229496   2.263   1.192   1.947
 9533SOL     OW29497   2.228   0.284   5.279
 9533SOL    HW129498   2.295   0.296   5.353
 9533SOL    HW229499   2.151   0.347   5.294
 9534SOL     OW29500   4.607   2.001   4.853
 9534SOL    HW129501   4.635   2.092   4.885
 9534SOL    HW229502   4.688   1.948   4.829
 9535SOL     OW29503   2.192   1.918   5.945
 9535SOL    HW129504   2.240   2.005   5.946
 9535SOL    HW229505   2.094   1.934   5.954
 9536SOL     OW29506   2.493   6.918   6.189
 9536SOL    HW129507   2.442   6.962   6.115
 9536SOL    HW229508   2.591   6.936   6.178
 9537SOL     OW29509   2.748   6.855   0.909
 9537SOL    HW129510   2.814   6.912   0.861
 9537SOL    HW229511   2.731   6.894   1.000
 9538SOL     OW29512   5.870   3.285   3.879
 9538SOL    HW129513   5.966   3.303   3.903
 9538SOL    HW229514   5.843   3.196   3.914
 9539SOL     OW29515   0.031   4.783   1.425
 9539SOL    HW129516   6.998   4.786   1.343
 9539SOL    HW229517   0.006   4.859   1.485
 9540SOL     OW29518   5.450   3.737   4.842
 9540SOL    HW129519   5.459   3.781   4.753
 9540SOL    HW229520   5.486   3.798   4.913
 9541SOL     OW29521   1.417   1.789   3.661
 9541SOL    HW129522   1.445   1.879   3.629
 9541SOL    HW229523   1.497   1.740   3.698
 9542SOL     OW29524   4.964   3.745   4.622
 9542SOL    HW129525   5.030   3.788   4.684
 9542SOL    HW229526   4.950   3.650   4.647
 9543SOL     OW29527   4.986   2.504   2.043
 9543SOL    HW129528   4.992   2.590   1.992
 9543SOL    HW229529   4.898   2.499   2.090
 9544SOL     OW29530   3.081   1.726   1.911
 9544SOL    HW129531   3.072   1.639   1.862
 9544SOL    HW229532   3.178   1.747   1.924
 9545SOL     OW29533   0.560   6.741   4.341
 9545SOL    HW129534   0.617   6.670   4.299
 9545SOL    HW229535   0.482   6.699   4.386
 9546SOL     OW29536   2.687   4.881   0.758
 9546SOL    HW129537   2.769   4.918   0.714
 9546SOL    HW229538   2.607   4.935   0.729
 9547SOL     OW29539   6.174   6.135   3.178
 9547SOL    HW129540   6.121   6.057   3.145
 9547SOL    HW229541   6.267   6.129   3.142
 9548SOL     OW29542   4.742   6.412   2.984
 9548SOL    HW129543   4.830   6.456   2.994
 9548SOL    HW229544   4.710   6.381   3.074
 9549SOL     OW29545   2.760   5.944   0.808
 9549SOL    HW129546   2.703   5.866   0.783
 9549SOL    HW229547   2.820   5.967   0.731
 9550SOL     OW29548   0.859   1.636   0.400
 9550SOL    HW129549   0.826   1.696   0.328
 9550SOL    HW229550   0.826   1.669   0.489
 9551SOL     OW29551   2.195   5.950   4.995
 9551SOL    HW129552   2.136   6.002   4.932
 9551SOL    HW229553   2.149   5.867   5.023
 9552SOL     OW29554   1.161   5.664   3.466
 9552SOL    HW129555   1.109   5.750   3.473
 9552SOL    HW229556   1.242   5.679   3.409
 9553SOL     OW29557   5.540   4.832   5.383
 9553SOL    HW129558   5.583   4.828   5.293
 9553SOL    HW229559   5.442   4.814   5.374
 9554SOL     OW29560   2.368   1.421   1.789
 9554SOL    HW129561   2.302   1.360   1.833
 9554SOL    HW229562   2.381   1.393   1.694
 9555SOL     OW29563   6.156   2.268   6.885
 9555SOL    HW129564   6.234   2.331   6.880
 9555SOL    HW229565   6.189   2.174   6.887
 9556SOL     OW29566   0.725   1.582   1.361
 9556SOL    HW129567   0.740   1.630   1.448
 9556SOL    HW229568   0.691   1.646   1.293
 9557SOL     OW29569   5.215   2.551   1.464
 9557SOL    HW129570   5.175   2.543   1.555
 9557SOL    HW229571   5.296   2.493   1.459
 9558SOL     OW29572   6.144   5.146   2.331
 9558SOL    HW129573   6.081   5.163   2.255
 9558SOL    HW229574   6.211   5.220   2.336
 9559SOL     OW29575   6.393   2.725   2.268
 9559SOL    HW129576   6.316   2.789   2.270
 9559SOL    HW229577   6.458   2.753   2.197
 9560SOL     OW29578   3.197   1.470   4.075
 9560SOL    HW129579   3.198   1.483   3.976
 9560SOL    HW229580   3.232   1.552   4.120
 9561SOL     OW29581   4.378   0.054   1.018
 9561SOL    HW129582   4.304   0.068   0.953
 9561SOL    HW229583   4.445   7.014   0.979
 9562SOL     OW29584   5.689   5.669   3.133
 9562SOL    HW129585   5.617   5.602   3.147
 9562SOL    HW229586   5.674   5.717   3.046
 9563SOL     OW29587   0.046   5.713   6.782
 9563SOL    HW129588   6.973   5.732   6.761
 9563SOL    HW229589   0.094   5.800   6.796
 9564SOL     OW29590   2.278   0.003   6.695
 9564SOL    HW129591   2.310   7.021   6.601
 9564SOL    HW229592   2.194   0.057   6.698
 9565SOL     OW29593   4.427   6.087   4.377
 9565SOL    HW129594   4.380   6.168   4.342
 9565SOL    HW229595   4.378   6.052   4.457
 9566SOL     OW29596   3.336   5.019   5.186
 9566SOL    HW129597   3.383   5.017   5.275
 9566SOL    HW229598   3.261   4.954   5.186
 9567SOL     OW29599   6.032   5.695   5.824
 9567SOL    HW129600   6.046   5.609   5.872
 9567SOL    HW229601   5.971   5.754   5.878
 9568SOL     OW29602   5.467   3.628   6.541
 9568SOL    HW129603   5.475   3.532   6.569
 9568SOL    HW229604   5.424   3.634   6.451
 9569SOL     OW29605   6.051   0.149   1.241
 9569SOL    HW129606   5.961   0.165   1.201
 9569SOL    HW229607   6.117   0.130   1.169
 9570SOL     OW29608   0.682   0.140   6.745
 9570SOL    HW129609   0.726   0.099   6.825
 9570SOL    HW229610   0.596   0.092   6.726
 9571SOL     OW29611   2.102   3.650   0.109
 9571SOL    HW129612   2.135   3.675   0.200
 9571SOL    HW229613   2.086   3.551   0.105
 9572SOL     OW29614   0.729   4.168   0.495
 9572SOL    HW129615   0.734   4.176   0.395
 9572SOL    HW229616   0.822   4.160   0.532
 9573SOL     OW29617   6.607   2.059   1.652
 9573SOL    HW129618   6.568   2.116   1.580
 9573SOL    HW229619   6.540   2.049   1.726
 9574SOL     OW29620   2.441   2.229   4.807
 9574SOL    HW129621   2.470   2.296   4.739
 9574SOL    HW229622   2.344   2.243   4.828
 9575SOL     OW29623   4.840   0.980   1.682
 9575SOL    HW129624   4.865   0.959   1.777
 9575SOL    HW229625   4.763   1.044   1.681
 9576SOL     OW29626   3.587   1.392   5.030
 9576SOL    HW129627   3.573   1.373   5.128
 9576SOL    HW229628   3.655   1.465   5.020
 9577SOL     OW29629   0.242   6.378   3.072
 9577SOL    HW129630   0.295   6.309   3.121
 9577SOL    HW229631   0.247   6.466   3.120
 9578SOL     OW29632   5.581   3.713   1.744
 9578SOL    HW129633   5.526   3.796   1.753
 9578SOL    HW229634   5.521   3.634   1.737
 9579SOL     OW29635   1.104   6.510   2.847
 9579SOL    HW129636   1.191   6.462   2.859
 9579SOL    HW229637   1.070   6.493   2.754
 9580SOL     OW29638   4.298   3.823   6.246
 9580SOL    HW129639   4.247   3.740   6.269
 9580SOL    HW229640   4.276   3.851   6.152
 9581SOL     OW29641   1.447   5.246   6.394
 9581SOL    HW129642   1.499   5.196   6.324
 9581SOL    HW229643   1.383   5.184   6.439
 9582SOL     OW29644   4.371   4.710   4.623
 9582SOL    HW129645   4.441   4.640   4.607
 9582SOL    HW229646   4.314   4.720   4.542
 9583SOL     OW29647   2.307   4.482   1.901
 9583SOL    HW129648   2.220   4.436   1.921
 9583SOL    HW229649   2.293   4.550   1.830
 9584SOL     OW29650   5.333   5.750   6.473
 9584SOL    HW129651   5.306   5.835   6.428
 9584SOL    HW229652   5.279   5.674   6.434
 9585SOL     OW29653   0.408   6.521   4.113
 9585SOL    HW129654   0.449   6.446   4.063
 9585SOL    HW229655   0.473   6.597   4.118
 9586SOL     OW29656   5.141   3.494   2.522
 9586SOL    HW129657   5.061   3.433   2.524
 9586SOL    HW229658   5.160   3.521   2.427
 9587SOL     OW29659   4.888   6.765   2.853
 9587SOL    HW129660   4.981   6.738   2.879
 9587SOL    HW229661   4.846   6.693   2.798
 9588SOL     OW29662   0.091   0.549   3.306
 9588SOL    HW129663   0.153   0.618   3.344
 9588SOL    HW229664   0.124   0.458   3.330
 9589SOL     OW29665   2.213   1.631   6.005
 9589SOL    HW129666   2.237   1.727   5.994
 9589SOL    HW229667   2.286   1.584   6.056
 9590SOL     OW29668   0.226   4.618   4.511
 9590SOL    HW129669   0.266   4.540   4.464
 9590SOL    HW229670   0.298   4.670   4.557
 9591SOL     OW29671   1.447   4.445   2.233
 9591SOL    HW129672   1.437   4.520   2.168
 9591SOL    HW229673   1.387   4.461   2.311
 9592SOL     OW29674   5.008   5.531   2.178
 9592SOL    HW129675   4.943   5.549   2.252
 9592SOL    HW229676   4.983   5.585   2.098
 9593SOL     OW29677   1.736   2.576   3.983
 9593SOL    HW129678   1.800   2.615   4.050
 9593SOL    HW229679   1.738   2.630   3.900
 9594SOL     OW29680   6.047   6.448   1.829
 9594SOL    HW129681   6.059   6.522   1.896
 9594SOL    HW229682   6.036   6.487   1.738
 9595SOL     OW29683   1.007   4.025   4.437
 9595SOL    HW129684   1.064   4.107   4.430
 9595SOL    HW229685   0.932   4.043   4.501
 9596SOL     OW29686   4.569   5.693   3.091
 9596SOL    HW129687   4.631   5.625   3.052
 9596SOL    HW229688   4.495   5.712   3.026
 9597SOL     OW29689   1.893   4.152   1.311
 9597SOL    HW129690   1.960   4.187   1.376
 9597SOL    HW229691   1.927   4.164   1.218
 9598SOL     OW29692   1.174   5.724   5.739
 9598SOL    HW129693   1.271   5.748   5.748
 9598SOL    HW229694   1.130   5.788   5.676
 9599SOL     OW29695   4.918   1.473   4.230
 9599SOL    HW129696   4.849   1.493   4.161
 9599SOL    HW229697   4.997   1.430   4.187
 9600SOL     OW29698   1.389   6.341   0.185
 9600SOL    HW129699   1.294   6.328   0.211
 9600SOL    HW229700   1.448   6.315   0.261
 9601SOL     OW29701   0.506   5.941   6.158
 9601SOL    HW129702   0.553   5.859   6.124
 9601SOL    HW229703   0.527   6.018   6.099
 9602SOL     OW29704   1.141   5.676   0.714
 9602SOL    HW129705   1.171   5.613   0.785
 9602SOL    HW229706   1.088   5.751   0.756
 9603SOL     OW29707   1.072   4.306   3.941
 9603SOL    HW129708   1.016   4.389   3.931
 9603SOL    HW229709   1.066   4.272   4.034
 9604SOL     OW29710   6.874   0.166   0.557
 9604SOL    HW129711   6.968   0.145   0.530
 9604SOL    HW229712   6.839   0.242   0.502
 9605SOL     OW29713   2.501   5.905   6.894
 9605SOL    HW129714   2.569   5.941   6.830
 9605SOL    HW229715   2.518   5.942   6.985
 9606SOL     OW29716   6.580   6.823   4.884
 9606SOL    HW129717   6.520   6.901   4.903
 9606SOL    HW229718   6.526   6.746   4.850
 9607SOL     OW29719   0.531   3.060   2.149
 9607SOL    HW129720   0.477   3.096   2.225
 9607SOL    HW229721   0.510   3.111   2.065
 9608SOL     OW29722   7.022   0.290   2.789
 9608SOL    HW129723   6.981   0.227   2.723
 9608SOL    HW229724   6.991   0.267   2.881
 9609SOL     OW29725   1.853   2.144   3.402
 9609SOL    HW129726   1.946   2.166   3.432
 9609SOL    HW229727   1.816   2.219   3.347
 9610SOL     OW29728   3.324   2.461   6.261
 9610SOL    HW129729   3.387   2.419   6.327
 9610SOL    HW229730   3.377   2.504   6.187
 9611SOL     OW29731   5.707   5.838   0.966
 9611SOL    HW129732   5.707   5.877   1.058
 9611SOL    HW229733   5.801   5.813   0.941
 9612SOL     OW29734   4.886   3.925   2.895
 9612SOL    HW129735   4.844   4.012   2.869
 9612SOL    HW229736   4.898   3.869   2.813
 9613SOL     OW29737   5.863   6.629   5.797
 9613SOL    HW129738   5.837   6.555   5.735
 9613SOL    HW229739   5.812   6.712   5.773
 9614SOL     OW29740   3.345   2.907   2.285
 9614SOL    HW129741   3.273   2.959   2.238
 9614SOL    HW229742   3.387   2.844   2.221
 9615SOL     OW29743   0.803   6.197   3.765
 9615SOL    HW129744   0.822   6.192   3.667
 9615SOL    HW229745   0.793   6.105   3.802
 9616SOL     OW29746   2.154   3.244   1.272
 9616SOL    HW129747   2.202   3.159   1.293
 9616SOL    HW229748   2.170   3.268   1.176
 9617SOL     OW29749   0.949   3.822   2.456
 9617SOL    HW129750   0.996   3.733   2.457
 9617SOL    HW229751   0.933   3.852   2.550
 9618SOL     OW29752   3.943   4.785   0.377
 9618SOL    HW129753   3.954   4.868   0.432
 9618SOL    HW229754   3.854   4.787   0.331
 9619SOL     OW29755   2.078   6.899   1.268
 9619SOL    HW129756   2.031   6.896   1.180
 9619SOL    HW229757   2.173   6.928   1.254
 9620SOL     OW29758   3.701   1.713   6.988
 9620SOL    HW129759   3.655   1.797   7.016
 9620SOL    HW229760   3.723   1.718   6.891
 9621SOL     OW29761   1.066   2.071   1.969
 9621SOL    HW129762   1.069   2.043   2.065
 9621SOL    HW229763   1.155   2.056   1.927
 9622SOL     OW29764   0.162   6.138   5.633
 9622SOL    HW129765   0.136   6.222   5.681
 9622SOL    HW229766   0.147   6.150   5.535
 9623SOL     OW29767   4.916   6.859   6.071
 9623SOL    HW129768   4.860   6.923   6.122
 9623SOL    HW229769   4.870   6.770   6.065
 9624SOL     OW29770   4.686   5.037   5.153
 9624SOL    HW129771   4.656   5.119   5.104
 9624SOL    HW229772   4.728   4.973   5.089
 9625SOL     OW29773   4.679   3.423   5.616
 9625SOL    HW129774   4.673   3.506   5.671
 9625SOL    HW229775   4.712   3.347   5.673
 9626SOL     OW29776   1.856   2.311   6.341
 9626SOL    HW129777   1.819   2.377   6.275
 9626SOL    HW229778   1.956   2.310   6.334
 9627SOL     OW29779   0.633   5.289   0.099
 9627SOL    HW129780   0.543   5.273   0.058
 9627SOL    HW229781   0.625   5.357   0.173
 9628SOL     OW29782   5.721   1.330   5.997
 9628SOL    HW129783   5.766   1.304   5.912
 9628SOL    HW229784   5.775   1.297   6.075
 9629SOL     OW29785   0.392   5.448   4.432
 9629SOL    HW129786   0.412   5.437   4.335
 9629SOL    HW229787   0.294   5.437   4.447
 9630SOL     OW29788   5.982   0.009   5.378
 9630SOL    HW129789   6.023   0.050   5.296
 9630SOL    HW229790   6.053   6.988   5.432
 9631SOL     OW29791   3.201   0.389   0.547
 9631SOL    HW129792   3.277   0.324   0.539
 9631SOL    HW229793   3.238   0.480   0.564
 9632SOL     OW29794   3.609   5.446   2.338
 9632SOL    HW129795   3.603   5.546   2.339
 9632SOL    HW229796   3.555   5.410   2.262
 9633SOL     OW29797   3.871   3.276   2.837
 9633SOL    HW129798   3.810   3.311   2.766
 9633SOL    HW229799   3.862   3.176   2.842
 9634SOL     OW29800   5.704   4.778   3.723
 9634SOL    HW129801   5.615   4.742   3.750
 9634SOL    HW229802   5.710   4.783   3.624
 9635SOL     OW29803   1.214   5.179   3.952
 9635SOL    HW129804   1.203   5.082   3.934
 9635SOL    HW229805   1.257   5.223   3.873
 9636SOL     OW29806   5.290   3.823   4.344
 9636SOL    HW129807   5.259   3.843   4.436
 9636SOL    HW229808   5.222   3.767   4.297
 9637SOL     OW29809   1.774   3.095   7.020
 9637SOL    HW129810   1.746   3.015   0.049
 9637SOL    HW229811   1.787   3.069   6.924
 9638SOL     OW29812   5.616   5.672   5.374
 9638SOL    HW129813   5.611   5.580   5.414
 9638SOL    HW229814   5.551   5.678   5.298
 9639SOL     OW29815   4.299   1.815   2.013
 9639SOL    HW129816   4.223   1.865   2.056
 9639SOL    HW229817   4.362   1.784   2.085
 9640SOL     OW29818   4.682   0.387   3.257
 9640SOL    HW129819   4.667   0.290   3.236
 9640SOL    HW229820   4.778   0.401   3.282
 9641SOL     OW29821   6.451   3.565   3.358
 9641SOL    HW129822   6.519   3.619   3.407
 9641SOL    HW229823   6.365   3.617   3.352
 9642SOL     OW29824   1.526   7.000   4.483
 9642SOL    HW129825   1.457   6.927   4.485
 9642SOL    HW229826   1.519   0.027   4.397
 9643SOL     OW29827   4.892   4.995   4.690
 9643SOL    HW129828   4.913   5.038   4.602
 9643SOL    HW229829   4.797   4.967   4.692
 9644SOL     OW29830   1.712   5.468   3.954
 9644SOL    HW129831   1.811   5.485   3.948
 9644SOL    HW229832   1.686   5.461   4.050
 9645SOL     OW29833   0.645   4.756   5.954
 9645SOL    HW129834   0.583   4.782   6.028
 9645SOL    HW229835   0.650   4.656   5.949
 9646SOL     OW29836   4.462   5.526   6.527
 9646SOL    HW129837   4.453   5.448   6.588
 9646SOL    HW229838   4.375   5.542   6.480
 9647SOL     OW29839   6.584   6.761   3.094
 9647SOL    HW129840   6.600   6.826   3.169
 9647SOL    HW229841   6.512   6.697   3.120
 9648SOL     OW29842   3.923   2.250   1.187
 9648SOL    HW129843   3.950   2.265   1.283
 9648SOL    HW229844   3.866   2.168   1.181
 9649SOL     OW29845   1.184   5.517   6.865
 9649SOL    HW129846   1.145   5.545   6.777
 9649SOL    HW229847   1.276   5.555   6.874
 9650SOL     OW29848   6.981   4.598   4.413
 9650SOL    HW129849   0.047   4.608   4.456
 9650SOL    HW229850   6.948   4.505   4.427
 9651SOL     OW29851   4.227   1.808   7.004
 9651SOL    HW129852   4.218   1.759   0.067
 9651SOL    HW229853   4.147   1.867   6.991
 9652SOL     OW29854   0.260   4.067   0.212
 9652SOL    HW129855   0.223   4.159   0.201
 9652SOL    HW229856   0.253   4.018   0.125
 9653SOL     OW29857   4.288   4.352   5.957
 9653SOL    HW129858   4.328   4.277   5.903
 9653SOL    HW229859   4.258   4.425   5.895
 9654SOL     OW29860   3.418   3.707   3.110
 9654SOL    HW129861   3.369   3.785   3.070
 9654SOL    HW229862   3.506   3.739   3.146
 9655SOL     OW29863   4.056   1.323   1.291
 9655SOL    HW129864   3.956   1.330   1.288
 9655SOL    HW229865   4.097   1.394   1.234
 9656SOL     OW29866   5.986   3.754   0.327
 9656SOL    HW129867   6.010   3.659   0.348
 9656SOL    HW229868   5.899   3.756   0.278
 9657SOL     OW29869   5.730   3.929   3.986
 9657SOL    HW129870   5.773   4.011   4.024
 9657SOL    HW229871   5.666   3.956   3.914
 9658SOL     OW29872   4.764   2.235   2.300
 9658SOL    HW129873   4.748   2.213   2.203
 9658SOL    HW229874   4.821   2.164   2.341
 9659SOL     OW29875   2.650   3.039   6.629
 9659SOL    HW129876   2.744   3.071   6.635
 9659SOL    HW229877   2.591   3.115   6.603
 9660SOL     OW29878   1.391   6.208   2.111
 9660SOL    HW129879   1.482   6.248   2.104
 9660SOL    HW229880   1.379   6.138   2.040
 9661SOL     OW29881   4.372   3.759   0.714
 9661SOL    HW129882   4.372   3.758   0.614
 9661SOL    HW229883   4.461   3.791   0.748
 9662SOL     OW29884   5.501   5.414   5.991
 9662SOL    HW129885   5.500   5.320   5.956
 9662SOL    HW229886   5.408   5.451   5.993
 9663SOL     OW29887   0.796   5.219   2.438
 9663SOL    HW129888   0.726   5.157   2.475
 9663SOL    HW229889   0.876   5.165   2.410
 9664SOL     OW29890   4.888   4.624   2.362
 9664SOL    HW129891   4.923   4.531   2.378
 9664SOL    HW229892   4.836   4.626   2.276
 9665SOL     OW29893   6.573   5.862   6.227
 9665SOL    HW129894   6.613   5.877   6.317
 9665SOL    HW229895   6.486   5.815   6.236
 9666SOL     OW29896   6.032   3.980   0.166
 9666SOL    HW129897   6.003   3.962   0.072
 9666SOL    HW229898   6.017   3.897   0.221
 9667SOL     OW29899   5.674   5.822   6.279
 9667SOL    HW129900   5.679   5.903   6.339
 9667SOL    HW229901   5.596   5.766   6.306
 9668SOL     OW29902   0.783   0.579   6.671
 9668SOL    HW129903   0.876   0.610   6.688
 9668SOL    HW229904   0.785   0.495   6.617
 9669SOL     OW29905   3.651   0.518   0.387
 9669SOL    HW129906   3.658   0.583   0.312
 9669SOL    HW229907   3.658   0.567   0.474
 9670SOL     OW29908   6.965   6.942   0.009
 9670SOL    HW129909   0.022   6.882   7.021
 9670SOL    HW229910   6.996   0.012   0.027
 9671SOL     OW29911   1.544   5.040   6.761
 9671SOL    HW129912   1.553   5.138   6.745
 9671SOL    HW229913   1.539   4.993   6.673
 9672SOL     OW29914   1.039   3.376   3.799
 9672SOL    HW129915   1.081   3.291   3.767
 9672SOL    HW229916   0.975   3.410   3.730
 9673SOL     OW29917   2.066   3.377   0.196
 9673SOL    HW129918   2.103   3.287   0.170
 9673SOL    HW229919   2.134   3.427   0.249
 9674SOL     OW29920   2.347   6.289   4.415
 9674SOL    HW129921   2.367   6.371   4.363
 9674SOL    HW229922   2.268   6.305   4.475
 9675SOL     OW29923   5.785   3.454   6.702
 9675SOL    HW129924   5.791   3.554   6.706
 9675SOL    HW229925   5.757   3.426   6.610
 9676SOL     OW29926   0.773   2.850   0.127
 9676SOL    HW129927   0.711   2.926   0.111
 9676SOL    HW229928   0.817   2.861   0.216
 9677SOL     OW29929   6.961   4.911   1.635
 9677SOL    HW129930   6.996   4.835   1.690
 9677SOL    HW229931   7.010   4.994   1.658
 9678SOL     OW29932   3.526   3.532   5.366
 9678SOL    HW129933   3.456   3.594   5.402
 9678SOL    HW229934   3.491   3.439   5.365
 9679SOL     OW29935   1.576   1.469   4.377
 9679SOL    HW129936   1.588   1.486   4.279
 9679SOL    HW229937   1.602   1.551   4.428
 9680SOL     OW29938   4.851   5.980   2.050
 9680SOL    HW129939   4.933   5.966   2.105
 9680SOL    HW229940   4.818   5.891   2.016
 9681SOL     OW29941   1.553   1.585   1.914
 9681SOL    HW129942   1.537   1.630   2.001
 9681SOL    HW229943   1.615   1.641   1.858
 9682SOL     OW29944   4.608   6.157   5.893
 9682SOL    HW129945   4.570   6.133   5.804
 9682SOL    HW229946   4.538   6.147   5.963
 9683SOL     OW29947   3.100   6.479   2.566
 9683SOL    HW129948   3.151   6.475   2.480
 9683SOL    HW229949   3.122   6.564   2.613
 9684SOL     OW29950   0.199   3.227   5.592
 9684SOL    HW129951   0.153   3.297   5.537
 9684SOL    HW229952   0.183   3.137   5.552
 9685SOL     OW29953   3.744   4.151   1.302
 9685SOL    HW129954   3.750   4.058   1.339
 9685SOL    HW229955   3.755   4.148   1.203
 9686SOL     OW29956   6.542   1.693   5.511
 9686SOL    HW129957   6.459   1.706   5.458
 9686SOL    HW229958   6.572   1.781   5.549
 9687SOL     OW29959   5.699   1.593   3.038
 9687SOL    HW129960   5.772   1.527   3.022
 9687SOL    HW229961   5.727   1.683   3.006
 9688SOL     OW29962   0.327   4.614   1.110
 9688SOL    HW129963   0.341   4.538   1.048
 9688SOL    HW229964   0.374   4.596   1.197
 9689SOL     OW29965   2.541   6.161   1.038
 9689SOL    HW129966   2.465   6.101   1.016
 9689SOL    HW229967   2.561   6.220   0.960
 9690SOL     OW29968   6.531   5.305   4.748
 9690SOL    HW129969   6.579   5.359   4.678
 9690SOL    HW229970   6.461   5.249   4.704
 9691SOL     OW29971   3.036   3.791   1.990
 9691SOL    HW129972   3.105   3.758   1.926
 9691SOL    HW229973   2.967   3.720   2.005
 9692SOL     OW29974   4.869   4.169   1.007
 9692SOL    HW129975   4.836   4.264   1.007
 9692SOL    HW229976   4.964   4.167   1.037
 9693SOL     OW29977   5.098   3.443   5.238
 9693SOL    HW129978   5.035   3.412   5.308
 9693SOL    HW229979   5.172   3.377   5.227
 9694SOL     OW29980   2.746   0.319   2.290
 9694SOL    HW129981   2.760   0.412   2.323
 9694SOL    HW229982   2.826   0.290   2.237
 9695SOL     OW29983   1.120   2.561   2.565
 9695SOL    HW129984   1.153   2.533   2.475
 9695SOL    HW229985   1.158   2.502   2.636
 9696SOL     OW29986   5.047   2.507   3.570
 9696SOL    HW129987   5.108   2.443   3.522
 9696SOL    HW229988   4.952   2.478   3.557
 9697SOL     OW29989   0.352   6.768   0.858
 9697SOL    HW129990   0.412   6.728   0.789
 9697SOL    HW229991   0.362   6.717   0.944
 9698SOL     OW29992   6.297   3.681   1.861
 9698SOL    HW129993   6.245   3.722   1.786
 9698SOL    HW229994   6.236   3.627   1.918
 9699SOL     OW29995   1.451   6.164   1.014
 9699SOL    HW129996   1.485   6.078   1.053
 9699SOL    HW229997   1.496   6.241   1.059
 9700SOL     OW29998   5.557   0.130   5.257
 9700SOL    HW129999   5.572   0.032   5.243
 9700SOL    HW230000   5.642   0.172   5.291
 9701SOL     OW30001   3.976   3.663   6.480
 9701SOL    HW130002   4.044   3.608   6.430
 9701SOL    HW230003   3.940   3.610   6.556
 9702SOL     OW30004   3.694   3.658   2.132
 9702SOL    HW130005   3.722   3.577   2.080
 9702SOL    HW230006   3.595   3.667   2.127
 9703SOL     OW30007   6.849   4.302   4.862
 9703SOL    HW130008   6.771   4.347   4.819
 9703SOL    HW230009   6.823   4.209   4.888
 9704SOL     OW30010   1.733   3.792   2.946
 9704SOL    HW130011   1.808   3.779   2.881
 9704SOL    HW230012   1.647   3.803   2.895
 9705SOL     OW30013   6.162   3.648   5.497
 9705SOL    HW130014   6.116   3.581   5.439
 9705SOL    HW230015   6.160   3.617   5.592
 9706SOL     OW30016   0.982   1.425   2.640
 9706SOL    HW130017   0.918   1.370   2.586
 9706SOL    HW230018   0.935   1.460   2.721
 9707SOL     OW30019   1.007   4.679   2.397
 9707SOL    HW130020   0.962   4.681   2.487
 9707SOL    HW230021   1.099   4.643   2.407
 9708SOL     OW30022   2.323   0.394   1.588
 9708SOL    HW130023   2.336   0.383   1.489
 9708SOL    HW230024   2.232   0.362   1.613
 9709SOL     OW30025   5.363   2.051   1.668
 9709SOL    HW130026   5.305   1.992   1.724
 9709SOL    HW230027   5.376   2.010   1.578
 9710SOL     OW30028   6.849   5.521   3.496
 9710SOL    HW130029   6.760   5.555   3.464
 9710SOL    HW230030   6.842   5.424   3.516
 9711SOL     OW30031   3.627   0.908   0.919
 9711SOL    HW130032   3.569   0.924   0.839
 9711SOL    HW230033   3.656   0.996   0.956
 9712SOL     OW30034   5.634   1.706   6.208
 9712SOL    HW130035   5.718   1.672   6.250
 9712SOL    HW230036   5.573   1.740   6.280
 9713SOL     OW30037   1.089   6.639   3.090
 9713SOL    HW130038   1.108   6.589   3.005
 9713SOL    HW230039   1.172   6.686   3.119
 9714SOL     OW30040   2.519   4.465   4.198
 9714SOL    HW130041   2.489   4.476   4.293
 9714SOL    HW230042   2.518   4.368   4.174
 9715SOL     OW30043   6.820   3.490   6.643
 9715SOL    HW130044   6.907   3.470   6.689
 9715SOL    HW230045   6.804   3.422   6.571
 9716SOL     OW30046   2.333   4.931   0.030
 9716SOL    HW130047   2.276   4.992   0.085
 9716SOL    HW230048   2.427   4.966   0.029
 9717SOL     OW30049   4.022   2.191   5.343
 9717SOL    HW130050   4.067   2.270   5.385
 9717SOL    HW230051   3.976   2.138   5.414
 9718SOL     OW30052   3.748   2.886   6.207
 9718SOL    HW130053   3.820   2.871   6.274
 9718SOL    HW230054   3.691   2.963   6.236
 9719SOL     OW30055   4.986   0.080   5.939
 9719SOL    HW130056   5.039   0.144   5.993
 9719SOL    HW230057   4.990   7.013   5.980
 9720SOL     OW30058   2.052   3.119   3.321
 9720SOL    HW130059   2.066   3.153   3.228
 9720SOL    HW230060   1.961   3.145   3.353
 9721SOL     OW30061   0.714   1.173   0.365
 9721SOL    HW130062   0.741   1.125   0.282
 9721SOL    HW230063   0.757   1.131   0.445
 9722SOL     OW30064   4.246   2.777   5.328
 9722SOL    HW130065   4.198   2.711   5.270
 9722SOL    HW230066   4.190   2.860   5.337
 9723SOL     OW30067   6.402   0.042   4.914
 9723SOL    HW130068   6.426   0.133   4.881
 9723SOL    HW230069   6.350   0.049   4.999
 9724SOL     OW30070   1.550   5.508   0.044
 9724SOL    HW130071   1.648   5.515   0.062
 9724SOL    HW230072   1.510   5.439   0.105
 9725SOL     OW30073   4.086   5.645   5.151
 9725SOL    HW130074   4.030   5.579   5.202
 9725SOL    HW230075   4.091   5.617   5.055
 9726SOL     OW30076   0.055   1.205   4.099
 9726SOL    HW130077   0.049   1.173   4.005
 9726SOL    HW230078   0.126   1.276   4.106
 9727SOL     OW30079   0.415   1.253   0.869
 9727SOL    HW130080   0.471   1.299   0.938
 9727SOL    HW230081   0.456   1.165   0.845
 9728SOL     OW30082   4.725   1.537   4.982
 9728SOL    HW130083   4.682   1.492   4.903
 9728SOL    HW230084   4.794   1.476   5.022
 9729SOL     OW30085   0.569   5.050   2.783
 9729SOL    HW130086   0.624   5.047   2.867
 9729SOL    HW230087   0.526   4.962   2.767
 9730SOL     OW30088   0.476   3.996   3.207
 9730SOL    HW130089   0.438   3.993   3.115
 9730SOL    HW230090   0.572   4.024   3.202
 9731SOL     OW30091   5.184   3.627   1.509
 9731SOL    HW130092   5.102   3.649   1.562
 9731SOL    HW230093   5.159   3.605   1.415
 9732SOL     OW30094   1.769   3.161   3.063
 9732SOL    HW130095   1.817   3.125   2.982
 9732SOL    HW230096   1.771   3.261   3.061
 9733SOL     OW30097   6.307   4.596   2.371
 9733SOL    HW130098   6.279   4.609   2.467
 9733SOL    HW230099   6.228   4.610   2.311
 9734SOL     OW30100   5.237   5.920   6.256
 9734SOL    HW130101   5.142   5.888   6.259
 9734SOL    HW230102   5.246   5.993   6.188
 9735SOL     OW30103   0.657   2.707   0.727
 9735SOL    HW130104   0.659   2.798   0.685
 9735SOL    HW230105   0.741   2.658   0.706
 9736SOL     OW30106   5.193   1.540   4.564
 9736SOL    HW130107   5.167   1.599   4.487
 9736SOL    HW230108   5.279   1.573   4.604
 9737SOL     OW30109   5.839   3.170   2.778
 9737SOL    HW130110   5.782   3.119   2.713
 9737SOL    HW230111   5.929   3.127   2.783
 9738SOL     OW30112   2.442   6.252   1.868
 9738SOL    HW130113   2.465   6.345   1.839
 9738SOL    HW230114   2.360   6.221   1.819
 9739SOL     OW30115   5.775   6.928   6.870
 9739SOL    HW130116   5.848   6.899   6.932
 9739SOL    HW230117   5.732   6.847   6.828
 9740SOL     OW30118   5.905   0.673   3.011
 9740SOL    HW130119   5.914   0.685   3.109
 9740SOL    HW230120   5.981   0.717   2.964
 9741SOL     OW30121   2.478   1.942   4.768
 9741SOL    HW130122   2.538   1.897   4.833
 9741SOL    HW230123   2.479   2.041   4.784
 9742SOL     OW30124   4.037   1.912   6.115
 9742SOL    HW130125   3.979   1.985   6.148
 9742SOL    HW230126   3.996   1.871   6.033
 9743SOL     OW30127   5.118   3.624   4.245
 9743SOL    HW130128   5.026   3.605   4.279
 9743SOL    HW230129   5.158   3.540   4.210
 9744SOL     OW30130   1.589   0.975   3.259
 9744SOL    HW130131   1.493   0.989   3.235
 9744SOL    HW230132   1.602   0.879   3.287
 9745SOL     OW30133   0.080   0.574   6.003
 9745SOL    HW130134   0.002   0.626   6.038
 9745SOL    HW230135   0.090   0.489   6.056
 9746SOL     OW30136   4.404   5.278   6.241
 9746SOL    HW130137   4.429   5.373   6.226
 9746SOL    HW230138   4.453   5.220   6.176
 9747SOL     OW30139   2.457   1.681   3.054
 9747SOL    HW130140   2.398   1.668   3.134
 9747SOL    HW230141   2.552   1.689   3.084
 9748SOL     OW30142   1.374   0.611   3.615
 9748SOL    HW130143   1.448   0.678   3.625
 9748SOL    HW230144   1.377   0.547   3.692
 9749SOL     OW30145   6.694   0.869   2.111
 9749SOL    HW130146   6.644   0.813   2.177
 9749SOL    HW230147   6.792   0.862   2.128
 9750SOL     OW30148   6.292   2.943   4.028
 9750SOL    HW130149   6.338   2.962   3.941
 9750SOL    HW230150   6.198   2.915   4.010
 9751SOL     OW30151   3.156   0.349   1.797
 9751SOL    HW130152   3.241   0.401   1.802
 9751SOL    HW230153   3.090   0.400   1.741
 9752SOL     OW30154   3.251   3.472   6.755
 9752SOL    HW130155   3.186   3.513   6.691
 9752SOL    HW230156   3.274   3.540   6.826
 9753SOL     OW30157   0.058   6.532   5.143
 9753SOL    HW130158   0.023   6.625   5.130
 9753SOL    HW230159   7.009   6.466   5.124
 9754SOL     OW30160   3.176   1.074   1.535
 9754SOL    HW130161   3.194   0.981   1.502
 9754SOL    HW230162   3.199   1.080   1.632
 9755SOL     OW30163   3.069   4.485   0.387
 9755SOL    HW130164   2.983   4.439   0.408
 9755SOL    HW230165   3.075   4.503   0.289
 9756SOL     OW30166   5.727   0.342   5.801
 9756SOL    HW130167   5.800   0.332   5.868
 9756SOL    HW230168   5.755   0.406   5.729
 9757SOL     OW30169   5.051   4.348   3.871
 9757SOL    HW130170   5.069   4.444   3.890
 9757SOL    HW230171   4.952   4.331   3.874
 9758SOL     OW30172   2.037   0.290   1.989
 9758SOL    HW130173   2.106   0.340   2.041
 9758SOL    HW230174   1.950   0.292   2.039
 9759SOL     OW30175   6.805   0.834   1.690
 9759SOL    HW130176   6.869   0.866   1.620
 9759SOL    HW230177   6.780   0.910   1.750
 9760SOL     OW30178   4.843   1.311   0.065
 9760SOL    HW130179   4.765   1.359   0.104
 9760SOL    HW230180   4.823   1.213   0.061
 9761SOL     OW30181   1.199   2.194   0.957
 9761SOL    HW130182   1.192   2.099   0.927
 9761SOL    HW230183   1.292   2.212   0.989
 9762SOL     OW30184   2.579   1.867   5.959
 9762SOL    HW130185   2.526   1.854   5.875
 9762SOL    HW230186   2.676   1.857   5.939
 9763SOL     OW30187   6.272   0.848   1.057
 9763SOL    HW130188   6.352   0.858   1.117
 9763SOL    HW230189   6.245   0.752   1.053
 9764SOL     OW30190   6.890   2.713   2.227
 9764SOL    HW130191   6.949   2.704   2.146
 9764SOL    HW230192   6.944   2.747   2.304
 9765SOL     OW30193   6.762   0.530   2.077
 9765SOL    HW130194   6.768   0.622   2.115
 9765SOL    HW230195   6.686   0.527   2.011
 9766SOL     OW30196   2.191   2.073   4.611
 9766SOL    HW130197   2.255   2.053   4.537
 9766SOL    HW230198   2.117   2.131   4.577
 9767SOL     OW30199   2.346   2.898   5.562
 9767SOL    HW130200   2.325   2.988   5.523
 9767SOL    HW230201   2.396   2.909   5.648
 9768SOL     OW30202   5.977   3.165   0.781
 9768SOL    HW130203   5.913   3.115   0.724
 9768SOL    HW230204   6.070   3.132   0.764
 9769SOL     OW30205   3.009   2.090   5.281
 9769SOL    HW130206   2.969   2.167   5.331
 9769SOL    HW230207   3.034   2.119   5.189
 9770SOL     OW30208   2.509   2.821   6.496
 9770SOL    HW130209   2.413   2.824   6.522
 9770SOL    HW230210   2.558   2.899   6.537
 9771SOL     OW30211   2.788   6.948   2.503
 9771SOL    HW130212   2.819   6.857   2.528
 9771SOL    HW230213   2.733   6.944   2.420
 9772SOL     OW30214   1.493   0.543   1.220
 9772SOL    HW130215   1.446   0.481   1.156
 9772SOL    HW230216   1.499   0.499   1.310
 9773SOL     OW30217   4.932   4.929   2.016
 9773SOL    HW130218   4.987   5.003   1.976
 9773SOL    HW230219   4.896   4.959   2.104
 9774SOL     OW30220   1.150   5.004   5.161
 9774SOL    HW130221   1.078   5.069   5.187
 9774SOL    HW230222   1.240   5.047   5.174
 9775SOL     OW30223   2.555   1.534   3.295
 9775SOL    HW130224   2.627   1.565   3.233
 9775SOL    HW230225   2.542   1.435   3.283
 9776SOL     OW30226   2.552   5.049   0.123
 9776SOL    HW130227   2.627   5.096   0.076
 9776SOL    HW230228   2.487   5.117   0.157
 9777SOL     OW30229   4.410   0.798   5.541
 9777SOL    HW130230   4.389   0.860   5.465
 9777SOL    HW230231   4.430   0.707   5.505
 9778SOL     OW30232   0.246   3.525   4.210
 9778SOL    HW130233   0.191   3.597   4.253
 9778SOL    HW230234   0.313   3.566   4.148
 9779SOL     OW30235   2.431   1.171   4.004
 9779SOL    HW130236   2.339   1.144   3.977
 9779SOL    HW230237   2.497   1.113   3.956
 9780SOL     OW30238   0.984   2.258   1.800
 9780SOL    HW130239   1.064   2.258   1.739
 9780SOL    HW230240   0.999   2.194   1.875
 9781SOL     OW30241   2.164   2.365   3.620
 9781SOL    HW130242   2.236   2.339   3.684
 9781SOL    HW230243   2.159   2.296   3.547
 9782SOL     OW30244   6.794   2.346   1.328
 9782SOL    HW130245   6.835   2.396   1.404
 9782SOL    HW230246   6.859   2.277   1.295
 9783SOL     OW30247   3.605   1.049   3.352
 9783SOL    HW130248   3.680   1.018   3.410
 9783SOL    HW230249   3.629   1.033   3.256
 9784SOL     OW30250   1.307   1.182   6.096
 9784SOL    HW130251   1.317   1.117   6.172
 9784SOL    HW230252   1.253   1.140   6.024
 9785SOL     OW30253   0.121   3.441   4.852
 9785SOL    HW130254   0.103   3.349   4.887
 9785SOL    HW230255   0.211   3.443   4.808
 9786SOL     OW30256   2.108   4.177   0.749
 9786SOL    HW130257   2.140   4.084   0.730
 9786SOL    HW230258   2.086   4.223   0.663
 9787SOL     OW30259   3.087   3.802   3.312
 9787SOL    HW130260   3.119   3.876   3.253
 9787SOL    HW230261   3.154   3.786   3.385
 9788SOL     OW30262   5.034   0.164   2.017
 9788SOL    HW130263   5.101   0.091   2.003
 9788SOL    HW230264   4.942   0.129   2.000
 9789SOL     OW30265   3.903   1.476   6.385
 9789SOL    HW130266   3.902   1.573   6.358
 9789SOL    HW230267   3.820   1.455   6.436
 9790SOL     OW30268   0.077   4.527   4.020
 9790SOL    HW130269   7.008   4.527   4.056
 9790SOL    HW230270   0.090   4.448   3.960
 9791SOL     OW30271   1.240   6.312   0.935
 9791SOL    HW130272   1.308   6.238   0.944
 9791SOL    HW230273   1.254   6.379   1.008
 9792SOL     OW30274   4.155   6.386   0.514
 9792SOL    HW130275   4.113   6.455   0.573
 9792SOL    HW230276   4.150   6.297   0.558
 9793SOL     OW30277   5.504   0.942   3.216
 9793SOL    HW130278   5.526   0.952   3.313
 9793SOL    HW230279   5.546   0.858   3.181
 9794SOL     OW30280   4.651   4.676   4.771
 9794SOL    HW130281   4.638   4.775   4.767
 9794SOL    HW230282   4.604   4.632   4.695
 9795SOL     OW30283   1.997   3.817   3.457
 9795SOL    HW130284   1.960   3.789   3.546
 9795SOL    HW230285   1.968   3.911   3.438
 9796SOL     OW30286   4.144   3.424   3.502
 9796SOL    HW130287   4.188   3.359   3.565
 9796SOL    HW230288   4.053   3.446   3.536
 9797SOL     OW30289   3.005   5.743   6.705
 9797SOL    HW130290   3.031   5.715   6.797
 9797SOL    HW230291   3.050   5.829   6.682
 9798SOL     OW30292   0.707   3.808   0.299
 9798SOL    HW130293   0.754   3.894   0.280
 9798SOL    HW230294   0.738   3.738   0.235
 9799SOL     OW30295   2.861   0.543   6.625
 9799SOL    HW130296   2.941   0.580   6.672
 9799SOL    HW230297   2.864   0.443   6.628
 9800SOL     OW30298   6.583   3.758   5.171
 9800SOL    HW130299   6.503   3.729   5.222
 9800SOL    HW230300   6.572   3.733   5.075
 9801SOL     OW30301   6.156   6.182   6.721
 9801SOL    HW130302   6.200   6.177   6.811
 9801SOL    HW230303   6.226   6.195   6.651
 9802SOL     OW30304   4.098   4.614   0.230
 9802SOL    HW130305   4.045   4.538   0.191
 9802SOL    HW230306   4.044   4.660   0.299
 9803SOL     OW30307   0.929   3.879   6.580
 9803SOL    HW130308   0.844   3.929   6.566
 9803SOL    HW230309   1.000   3.915   6.520
 9804SOL     OW30310   0.229   5.918   2.594
 9804SOL    HW130311   0.146   5.901   2.648
 9804SOL    HW230312   0.204   5.950   2.503
 9805SOL     OW30313   0.811   6.157   3.481
 9805SOL    HW130314   0.822   6.063   3.512
 9805SOL    HW230315   0.719   6.170   3.445
 9806SOL     OW30316   3.730   1.767   6.717
 9806SOL    HW130317   3.749   1.834   6.645
 9806SOL    HW230318   3.694   1.683   6.676
 9807SOL     OW30319   3.184   3.475   2.108
 9807SOL    HW130320   3.247   3.402   2.084
 9807SOL    HW230321   3.103   3.470   2.050
 9808SOL     OW30322   4.599   6.304   2.765
 9808SOL    HW130323   4.629   6.360   2.842
 9808SOL    HW230324   4.500   6.310   2.755
 9809SOL     OW30325   6.926   3.235   1.390
 9809SOL    HW130326   7.015   3.278   1.402
 9809SOL    HW230327   6.937   3.135   1.389
 9810SOL     OW30328   2.430   1.421   0.123
 9810SOL    HW130329   2.510   1.364   0.106
 9810SOL    HW230330   2.459   1.510   0.159
 9811SOL     OW30331   6.310   3.356   4.341
 9811SOL    HW130332   6.228   3.298   4.346
 9811SOL    HW230333   6.282   3.451   4.327
 9812SOL     OW30334   3.456   6.481   5.519
 9812SOL    HW130335   3.473   6.465   5.616
 9812SOL    HW230336   3.390   6.414   5.486
 9813SOL     OW30337   4.938   1.699   1.567
 9813SOL    HW130338   4.897   1.641   1.638
 9813SOL    HW230339   5.035   1.676   1.557
 9814SOL     OW30340   5.486   1.046   0.379
 9814SOL    HW130341   5.418   1.087   0.317
 9814SOL    HW230342   5.447   1.039   0.471
 9815SOL     OW30343   4.374   2.352   4.823
 9815SOL    HW130344   4.309   2.305   4.762
 9815SOL    HW230345   4.327   2.380   4.907
 9816SOL     OW30346   1.703   6.860   6.928
 9816SOL    HW130347   1.727   6.950   6.964
 9816SOL    HW230348   1.616   6.830   6.968
 9817SOL     OW30349   6.907   6.744   3.063
 9817SOL    HW130350   6.952   6.683   2.998
 9817SOL    HW230351   6.832   6.696   3.107
 9818SOL     OW30352   6.854   2.654   4.336
 9818SOL    HW130353   6.791   2.682   4.409
 9818SOL    HW230354   6.876   2.733   4.279
 9819SOL     OW30355   3.709   0.907   3.704
 9819SOL    HW130356   3.617   0.902   3.743
 9819SOL    HW230357   3.747   0.998   3.721
 9820SOL     OW30358   4.154   3.734   5.593
 9820SOL    HW130359   4.134   3.786   5.509
 9820SOL    HW230360   4.228   3.670   5.574
 9821SOL     OW30361   6.083   5.705   0.124
 9821SOL    HW130362   6.025   5.714   0.205
 9821SOL    HW230363   6.064   5.618   0.079
 9822SOL     OW30364   0.561   6.925   2.816
 9822SOL    HW130365   0.478   6.901   2.866
 9822SOL    HW230366   0.623   6.976   2.876
 9823SOL     OW30367   3.101   1.232   2.089
 9823SOL    HW130368   3.038   1.160   2.060
 9823SOL    HW230369   3.056   1.321   2.080
 9824SOL     OW30370   1.298   4.253   5.481
 9824SOL    HW130371   1.258   4.240   5.391
 9824SOL    HW230372   1.368   4.183   5.497
 9825SOL     OW30373   4.361   5.098   5.388
 9825SOL    HW130374   4.448   5.147   5.383
 9825SOL    HW230375   4.374   5.004   5.356
 9826SOL     OW30376   4.342   0.347   5.838
 9826SOL    HW130377   4.309   0.413   5.770
 9826SOL    HW230378   4.441   0.353   5.845
 9827SOL     OW30379   0.901   3.644   4.700
 9827SOL    HW130380   0.945   3.560   4.729
 9827SOL    HW230381   0.970   3.711   4.673
 9828SOL     OW30382   3.662   2.615   6.571
 9828SOL    HW130383   3.642   2.633   6.475
 9828SOL    HW230384   3.582   2.574   6.615
 9829SOL     OW30385   2.189   5.701   0.413
 9829SOL    HW130386   2.154   5.654   0.332
 9829SOL    HW230387   2.236   5.785   0.385
 9830SOL     OW30388   6.080   1.300   1.621
 9830SOL    HW130389   5.990   1.310   1.663
 9830SOL    HW230390   6.091   1.207   1.587
 9831SOL     OW30391   6.854   0.196   1.665
 9831SOL    HW130392   6.855   0.215   1.763
 9831SOL    HW230393   6.936   0.144   1.640
 9832SOL     OW30394   4.190   5.186   1.649
 9832SOL    HW130395   4.167   5.266   1.594
 9832SOL    HW230396   4.116   5.168   1.714
 9833SOL     OW30397   3.543   3.826   5.404
 9833SOL    HW130398   3.578   3.838   5.497
 9833SOL    HW230399   3.468   3.890   5.388
 9834SOL     OW30400   1.051   3.708   5.000
 9834SOL    HW130401   1.131   3.664   4.960
 9834SOL    HW230402   0.978   3.640   5.009
 9835SOL     OW30403   5.116   1.681   4.263
 9835SOL    HW130404   5.051   1.615   4.227
 9835SOL    HW230405   5.196   1.685   4.203
 9836SOL     OW30406   5.086   4.611   3.378
 9836SOL    HW130407   5.153   4.680   3.351
 9836SOL    HW230408   5.047   4.568   3.296
 9837SOL     OW30409   2.641   6.714   4.775
 9837SOL    HW130410   2.722   6.668   4.738
 9837SOL    HW230411   2.643   6.711   4.875
 9838SOL     OW30412   0.840   5.948   6.296
 9838SOL    HW130413   0.785   5.865   6.284
 9838SOL    HW230414   0.779   6.026   6.311
 9839SOL     OW30415   0.129   1.424   1.315
 9839SOL    HW130416   0.219   1.414   1.271
 9839SOL    HW230417   0.119   1.354   1.386
 9840SOL     OW30418   6.552   0.170   1.061
 9840SOL    HW130419   6.517   0.082   1.092
 9840SOL    HW230420   6.491   0.208   0.991
 9841SOL     OW30421   1.927   3.884   4.406
 9841SOL    HW130422   1.851   3.923   4.355
 9841SOL    HW230423   1.971   3.955   4.461
 9842SOL     OW30424   2.973   3.209   2.602
 9842SOL    HW130425   3.029   3.146   2.548
 9842SOL    HW230426   2.991   3.195   2.699
 9843SOL     OW30427   0.099   2.213   1.533
 9843SOL    HW130428   0.187   2.207   1.487
 9843SOL    HW230429   0.102   2.162   1.619
 9844SOL     OW30430   5.302   0.188   2.529
 9844SOL    HW130431   5.374   0.144   2.476
 9844SOL    HW230432   5.304   0.286   2.512
 9845SOL     OW30433   1.744   1.847   3.561
 9845SOL    HW130434   1.694   1.933   3.569
 9845SOL    HW230435   1.842   1.864   3.572
 9846SOL     OW30436   3.211   3.548   3.197
 9846SOL    HW130437   3.286   3.594   3.149
 9846SOL    HW230438   3.239   3.530   3.291
 9847SOL     OW30439   1.498   3.753   6.773
 9847SOL    HW130440   1.576   3.794   6.725
 9847SOL    HW230441   1.431   3.721   6.706
 9848SOL     OW30442   4.579   2.721   0.133
 9848SOL    HW130443   4.677   2.704   0.134
 9848SOL    HW230444   4.556   2.782   0.057
 9849SOL     OW30445   6.669   0.043   6.065
 9849SOL    HW130446   6.640   6.977   6.098
 9849SOL    HW230447   6.589   0.099   6.046
 9850SOL     OW30448   4.076   6.937   2.302
 9850SOL    HW130449   4.079   6.956   2.204
 9850SOL    HW230450   4.004   6.991   2.345
 9851SOL     OW30451   5.336   1.859   5.183
 9851SOL    HW130452   5.307   1.921   5.110
 9851SOL    HW230453   5.274   1.867   5.261
 9852SOL     OW30454   4.794   1.779   3.496
 9852SOL    HW130455   4.803   1.876   3.522
 9852SOL    HW230456   4.726   1.770   3.424
 9853SOL     OW30457   5.489   3.906   2.866
 9853SOL    HW130458   5.515   3.971   2.795
 9853SOL    HW230459   5.392   3.914   2.886
 9854SOL     OW30460   5.842   5.260   4.557
 9854SOL    HW130461   5.809   5.167   4.540
 9854SOL    HW230462   5.900   5.289   4.480
 9855SOL     OW30463   0.984   4.191   1.720
 9855SOL    HW130464   1.080   4.164   1.709
 9855SOL    HW230465   0.930   4.151   1.646
 9856SOL     OW30466   3.265   3.615   0.527
 9856SOL    HW130467   3.188   3.595   0.587
 9856SOL    HW230468   3.281   3.538   0.465
 9857SOL     OW30469   5.265   3.389   3.157
 9857SOL    HW130470   5.320   3.339   3.224
 9857SOL    HW230471   5.307   3.477   3.138
 9858SOL     OW30472   5.338   1.098   2.245
 9858SOL    HW130473   5.387   1.073   2.329
 9858SOL    HW230474   5.244   1.067   2.252
 9859SOL     OW30475   6.383   0.947   2.399
 9859SOL    HW130476   6.301   0.889   2.393
 9859SOL    HW230477   6.464   0.892   2.380
 9860SOL     OW30478   0.634   0.814   2.551
 9860SOL    HW130479   0.712   0.758   2.522
 9860SOL    HW230480   0.578   0.762   2.615
 9861SOL     OW30481   4.455   5.864   4.226
 9861SOL    HW130482   4.402   5.802   4.282
 9861SOL    HW230483   4.459   5.954   4.269
 9862SOL     OW30484   1.955   2.846   0.424
 9862SOL    HW130485   1.914   2.771   0.476
 9862SOL    HW230486   2.039   2.875   0.469
 9863SOL     OW30487   3.017   0.320   3.129
 9863SOL    HW130488   3.087   0.309   3.059
 9863SOL    HW230489   3.003   0.417   3.147
 9864SOL     OW30490   4.241   5.728   3.295
 9864SOL    HW130491   4.153   5.742   3.340
 9864SOL    HW230492   4.257   5.631   3.280
 9865SOL     OW30493   0.989   0.179   3.673
 9865SOL    HW130494   0.962   0.231   3.755
 9865SOL    HW230495   0.953   0.086   3.679
 9866SOL     OW30496   4.865   3.894   4.397
 9866SOL    HW130497   4.916   3.839   4.463
 9866SOL    HW230498   4.793   3.944   4.445
 9867SOL     OW30499   4.647   1.634   0.751
 9867SOL    HW130500   4.688   1.582   0.825
 9867SOL    HW230501   4.646   1.731   0.774
 9868SOL     OW30502   6.548   4.594   6.811
 9868SOL    HW130503   6.529   4.593   6.712
 9868SOL    HW230504   6.641   4.562   6.827
 9869SOL     OW30505   2.122   4.044   3.234
 9869SOL    HW130506   2.191   4.114   3.256
 9869SOL    HW230507   2.128   4.022   3.137
 9870SOL     OW30508   4.572   4.507   2.497
 9870SOL    HW130509   4.562   4.463   2.408
 9870SOL    HW230510   4.488   4.554   2.521
 9871SOL     OW30511   2.201   0.489   5.695
 9871SOL    HW130512   2.250   0.517   5.612
 9871SOL    HW230513   2.178   0.392   5.689
 9872SOL     OW30514   2.939   4.791   3.419
 9872SOL    HW130515   2.917   4.768   3.324
 9872SOL    HW230516   2.862   4.767   3.477
 9873SOL     OW30517   1.732   2.945   0.265
 9873SOL    HW130518   1.716   2.880   0.191
 9873SOL    HW230519   1.802   2.909   0.327
 9874SOL     OW30520   0.542   2.716   3.525
 9874SOL    HW130521   0.520   2.756   3.436
 9874SOL    HW230522   0.641   2.718   3.540
 9875SOL     OW30523   0.475   0.715   2.739
 9875SOL    HW130524   0.420   0.786   2.782
 9875SOL    HW230525   0.416   0.653   2.688
 9876SOL     OW30526   6.620   0.099   2.764
 9876SOL    HW130527   6.643   0.078   2.859
 9876SOL    HW230528   6.626   0.198   2.749
 9877SOL     OW30529   3.239   0.090   2.521
 9877SOL    HW130530   3.164   0.076   2.457
 9877SOL    HW230531   3.203   0.121   2.609
 9878SOL     OW30532   1.482   5.581   5.821
 9878SOL    HW130533   1.466   5.680   5.829
 9878SOL    HW230534   1.539   5.563   5.740
 9879SOL     OW30535   4.806   5.538   4.705
 9879SOL    HW130536   4.752   5.594   4.768
 9879SOL    HW230537   4.877   5.594   4.662
 9880SOL     OW30538   0.785   2.327   5.881
 9880SOL    HW130539   0.864   2.387   5.894
 9880SOL    HW230540   0.780   2.261   5.956
 9881SOL     OW30541   0.725   2.344   5.268
 9881SOL    HW130542   0.754   2.422   5.324
 9881SOL    HW230543   0.767   2.351   5.177
 9882SOL     OW30544   1.273   2.463   4.462
 9882SOL    HW130545   1.347   2.402   4.435
 9882SOL    HW230546   1.299   2.558   4.446
 9883SOL     OW30547   1.550   0.550   1.752
 9883SOL    HW130548   1.576   0.585   1.842
 9883SOL    HW230549   1.597   0.464   1.735
 9884SOL     OW30550   4.129   0.598   3.597
 9884SOL    HW130551   4.123   0.636   3.689
 9884SOL    HW230552   4.219   0.557   3.584
 9885SOL     OW30553   6.449   4.255   4.953
 9885SOL    HW130554   6.350   4.260   4.966
 9885SOL    HW230555   6.481   4.164   4.978
 9886SOL     OW30556   1.194   4.833   2.744
 9886SOL    HW130557   1.289   4.813   2.717
 9886SOL    HW230558   1.157   4.756   2.795
 9887SOL     OW30559   3.499   1.535   7.002
 9887SOL    HW130560   3.501   1.446   6.956
 9887SOL    HW230561   3.580   1.587   6.976
 9888SOL     OW30562   0.408   3.540   0.661
 9888SOL    HW130563   0.491   3.586   0.693
 9888SOL    HW230564   0.376   3.583   0.577
 9889SOL     OW30565   6.166   5.244   0.579
 9889SOL    HW130566   6.216   5.320   0.538
 9889SOL    HW230567   6.225   5.196   0.644
 9890SOL     OW30568   1.804   2.496   0.897
 9890SOL    HW130569   1.741   2.569   0.920
 9890SOL    HW230570   1.834   2.506   0.802
 9891SOL     OW30571   5.791   2.782   0.396
 9891SOL    HW130572   5.879   2.780   0.348
 9891SOL    HW230573   5.786   2.863   0.454
 9892SOL     OW30574   6.864   4.825   6.999
 9892SOL    HW130575   6.906   4.786   0.058
 9892SOL    HW230576   6.913   4.908   6.974
 9893SOL     OW30577   2.321   0.783   0.887
 9893SOL    HW130578   2.245   0.748   0.831
 9893SOL    HW230579   2.386   0.832   0.829
 9894SOL     OW30580   1.224   1.643   0.878
 9894SOL    HW130581   1.285   1.574   0.917
 9894SOL    HW230582   1.214   1.626   0.780
 9895SOL     OW30583   5.942   3.579   4.438
 9895SOL    HW130584   5.967   3.568   4.342
 9895SOL    HW230585   6.001   3.648   4.480
 9896SOL     OW30586   6.618   6.803   0.086
 9896SOL    HW130587   6.616   6.704   0.099
 9896SOL    HW230588   6.703   6.840   0.123
 9897SOL     OW30589   5.998   5.376   3.477
 9897SOL    HW130590   6.017   5.422   3.390
 9897SOL    HW230591   5.943   5.436   3.535
 9898SOL     OW30592   3.256   6.456   6.040
 9898SOL    HW130593   3.248   6.385   5.970
 9898SOL    HW230594   3.245   6.415   6.130
 9899SOL     OW30595   0.749   5.379   0.745
 9899SOL    HW130596   0.739   5.452   0.812
 9899SOL    HW230597   0.845   5.375   0.715
 9900SOL     OW30598   1.526   4.158   3.475
 9900SOL    HW130599   1.592   4.232   3.459
 9900SOL    HW230600   1.560   4.099   3.548
 9901SOL     OW30601   2.544   2.324   5.647
 9901SOL    HW130602   2.563   2.328   5.745
 9901SOL    HW230603   2.532   2.417   5.612
 9902SOL     OW30604   2.339   4.698   6.378
 9902SOL    HW130605   2.242   4.722   6.383
 9902SOL    HW230606   2.379   4.737   6.294
 9903SOL     OW30607   5.031   1.600   3.421
 9903SOL    HW130608   5.022   1.501   3.414
 9903SOL    HW230609   4.941   1.640   3.439
 9904SOL     OW30610   0.302   3.598   6.089
 9904SOL    HW130611   0.324   3.658   6.012
 9904SOL    HW230612   0.236   3.528   6.060
 9905SOL     OW30613   4.003   1.384   0.907
 9905SOL    HW130614   3.994   1.345   0.816
 9905SOL    HW230615   3.937   1.458   0.918
 9906SOL     OW30616   3.726   2.890   2.623
 9906SOL    HW130617   3.754   2.909   2.529
 9906SOL    HW230618   3.629   2.864   2.623
 9907SOL     OW30619   0.045   0.522   1.735
 9907SOL    HW130620   0.082   0.601   1.783
 9907SOL    HW230621   0.031   0.447   1.799
 9908SOL     OW30622   5.082   2.685   3.075
 9908SOL    HW130623   5.041   2.633   2.999
 9908SOL    HW230624   5.032   2.666   3.159
 9909SOL     OW30625   3.487   6.416   3.958
 9909SOL    HW130626   3.427   6.342   3.989
 9909SOL    HW230627   3.431   6.493   3.926
 9910SOL     OW30628   1.011   4.346   2.320
 9910SOL    HW130629   1.005   4.413   2.245
 9910SOL    HW230630   0.969   4.260   2.292
 9911SOL     OW30631   4.133   0.219   2.313
 9911SOL    HW130632   4.201   0.176   2.372
 9911SOL    HW230633   4.055   0.249   2.368
 9912SOL     OW30634   4.005   1.940   1.163
 9912SOL    HW130635   3.966   2.016   1.112
 9912SOL    HW230636   3.932   1.890   1.209
 9913SOL     OW30637   5.993   3.640   7.018
 9913SOL    HW130638   6.026   3.690   0.075
 9913SOL    HW230639   5.945   3.704   6.957
 9914SOL     OW30640   0.592   2.731   4.288
 9914SOL    HW130641   0.689   2.706   4.288
 9914SOL    HW230642   0.568   2.773   4.375
 9915SOL     OW30643   4.503   1.137   3.186
 9915SOL    HW130644   4.538   1.089   3.105
 9915SOL    HW230645   4.405   1.157   3.173
 9916SOL     OW30646   2.342   2.708   2.398
 9916SOL    HW130647   2.384   2.617   2.397
 9916SOL    HW230648   2.285   2.717   2.480
 9917SOL     OW30649   6.646   4.237   6.656
 9917SOL    HW130650   6.680   4.277   6.571
 9917SOL    HW230651   6.710   4.256   6.730
 9918SOL     OW30652   4.042   1.744   2.862
 9918SOL    HW130653   4.141   1.737   2.876
 9918SOL    HW230654   4.024   1.778   2.770
 9919SOL     OW30655   6.104   6.379   1.169
 9919SOL    HW130656   6.081   6.282   1.161
 9919SOL    HW230657   6.144   6.411   1.083
 9920SOL     OW30658   4.863   1.113   2.391
 9920SOL    HW130659   4.856   1.205   2.430
 9920SOL    HW230660   4.774   1.068   2.394
 9921SOL     OW30661   4.734   5.485   6.060
 9921SOL    HW130662   4.696   5.567   6.017
 9921SOL    HW230663   4.718   5.488   6.159
 9922SOL     OW30664   1.065   5.395   0.050
 9922SOL    HW130665   0.997   5.335   0.007
 9922SOL    HW230666   1.117   5.442   7.002
 9923SOL     OW30667   4.805   4.958   6.862
 9923SOL    HW130668   4.879   4.898   6.894
 9923SOL    HW230669   4.816   5.049   6.903
 9924SOL     OW30670   0.121   2.930   5.015
 9924SOL    HW130671   0.117   2.978   5.103
 9924SOL    HW230672   0.136   2.832   5.031
 9925SOL     OW30673   6.327   3.389   3.934
 9925SOL    HW130674   6.242   3.350   3.968
 9925SOL    HW230675   6.349   3.472   3.985
 9926SOL     OW30676   2.704   3.966   0.158
 9926SOL    HW130677   2.776   3.899   0.176
 9926SOL    HW230678   2.631   3.924   0.106
 9927SOL     OW30679   6.641   6.935   2.543
 9927SOL    HW130680   6.654   6.837   2.554
 9927SOL    HW230681   6.594   6.972   2.623
 9928SOL     OW30682   5.031   4.930   1.169
 9928SOL    HW130683   5.068   4.838   1.156
 9928SOL    HW230684   4.986   4.935   1.258
 9929SOL     OW30685   2.140   5.656   4.768
 9929SOL    HW130686   2.108   5.716   4.841
 9929SOL    HW230687   2.119   5.561   4.790
 9930SOL     OW30688   6.774   0.343   4.339
 9930SOL    HW130689   6.711   0.400   4.286
 9930SOL    HW230690   6.763   0.247   4.312
 9931SOL     OW30691   0.475   4.745   5.283
 9931SOL    HW130692   0.500   4.811   5.354
 9931SOL    HW230693   0.390   4.698   5.308
 9932SOL     OW30694   1.491   6.785   6.313
 9932SOL    HW130695   1.418   6.745   6.257
 9932SOL    HW230696   1.460   6.872   6.351
 9933SOL     OW30697   2.104   5.179   2.718
 9933SOL    HW130698   2.074   5.210   2.628
 9933SOL    HW230699   2.061   5.236   2.788
 9934SOL     OW30700   5.549   2.358   5.515
 9934SOL    HW130701   5.504   2.325   5.432
 9934SOL    HW230702   5.554   2.284   5.582
 9935SOL     OW30703   2.591   1.006   0.557
 9935SOL    HW130704   2.678   0.993   0.604
 9935SOL    HW230705   2.608   1.048   0.467
 9936SOL     OW30706   0.021   5.341   4.946
 9936SOL    HW130707   0.020   5.395   5.031
 9936SOL    HW230708   7.016   5.247   4.966
 9937SOL     OW30709   6.181   2.253   6.071
 9937SOL    HW130710   6.204   2.158   6.092
 9937SOL    HW230711   6.085   2.260   6.046
 9938SOL     OW30712   7.022   5.974   3.555
 9938SOL    HW130713   7.005   5.989   3.458
 9938SOL    HW230714   0.089   5.934   3.568
 9939SOL     OW30715   3.045   2.841   1.047
 9939SOL    HW130716   3.096   2.926   1.063
 9939SOL    HW230717   3.022   2.834   0.950
 9940SOL     OW30718   0.408   0.620   1.086
 9940SOL    HW130719   0.468   0.555   1.040
 9940SOL    HW230720   0.393   0.591   1.180
 9941SOL     OW30721   2.802   3.749   5.228
 9941SOL    HW130722   2.746   3.747   5.310
 9941SOL    HW230723   2.776   3.826   5.170
 9942SOL     OW30724   2.044   5.979   2.521
 9942SOL    HW130725   2.103   5.920   2.465
 9942SOL    HW230726   2.101   6.037   2.579
 9943SOL     OW30727   0.435   5.744   6.389
 9943SOL    HW130728   0.434   5.822   6.326
 9943SOL    HW230729   0.394   5.771   6.476
 9944SOL     OW30730   2.006   4.707   6.190
 9944SOL    HW130731   2.074   4.736   6.123
 9944SOL    HW230732   1.969   4.617   6.165
 9945SOL     OW30733   6.743   5.434   6.973
 9945SOL    HW130734   6.688   5.363   6.929
 9945SOL    HW230735   6.837   5.428   6.940
 9946SOL     OW30736   5.201   1.179   4.808
 9946SOL    HW130737   5.296   1.209   4.802
 9946SOL    HW230738   5.194   1.082   4.784
 9947SOL     OW30739   6.493   4.290   5.972
 9947SOL    HW130740   6.575   4.341   5.947
 9947SOL    HW230741   6.500   4.196   5.937
 9948SOL     OW30742   4.668   4.288   4.865
 9948SOL    HW130743   4.657   4.379   4.907
 9948SOL    HW230744   4.663   4.297   4.766
 9949SOL     OW30745   5.310   4.715   3.586
 9949SOL    HW130746   5.241   4.786   3.599
 9949SOL    HW230747   5.330   4.706   3.488
 9950SOL     OW30748   5.560   6.477   5.329
 9950SOL    HW130749   5.596   6.449   5.240
 9950SOL    HW230750   5.594   6.568   5.352
 9951SOL     OW30751   6.011   2.324   3.527
 9951SOL    HW130752   5.945   2.335   3.601
 9951SOL    HW230753   5.967   2.279   3.449
 9952SOL     OW30754   6.427   3.891   0.896
 9952SOL    HW130755   6.467   3.934   0.977
 9952SOL    HW230756   6.498   3.840   0.847
 9953SOL     OW30757   6.610   2.043   3.647
 9953SOL    HW130758   6.566   1.953   3.647
 9953SOL    HW230759   6.689   2.042   3.708
 9954SOL     OW30760   6.009   6.634   5.401
 9954SOL    HW130761   6.060   6.656   5.484
 9954SOL    HW230762   6.055   6.675   5.322
 9955SOL     OW30763   6.791   5.077   4.702
 9955SOL    HW130764   6.853   5.144   4.661
 9955SOL    HW230765   6.707   5.072   4.647
 9956SOL     OW30766   1.662   0.007   2.056
 9956SOL    HW130767   1.568   0.039   2.044
 9956SOL    HW230768   1.712   0.016   1.969
 9957SOL     OW30769   6.246   5.584   3.558
 9957SOL    HW130770   6.212   5.631   3.477
 9957SOL    HW230771   6.243   5.485   3.543
 9958SOL     OW30772   3.154   4.742   0.865
 9958SOL    HW130773   3.075   4.770   0.919
 9958SOL    HW230774   3.123   4.700   0.780
 9959SOL     OW30775   4.090   3.634   5.888
 9959SOL    HW130776   4.166   3.686   5.927
 9959SOL    HW230777   4.069   3.669   5.796
 9960SOL     OW30778   0.083   1.309   2.994
 9960SOL    HW130779   0.115   1.358   2.913
 9960SOL    HW230780   0.039   1.223   2.966
 9961SOL     OW30781   2.250   5.551   3.899
 9961SOL    HW130782   2.231   5.611   3.977
 9961SOL    HW230783   2.338   5.505   3.912
 9962SOL     OW30784   5.616   6.130   4.695
 9962SOL    HW130785   5.626   6.138   4.596
 9962SOL    HW230786   5.578   6.040   4.717
 9963SOL     OW30787   3.634   2.026   0.597
 9963SOL    HW130788   3.544   2.056   0.566
 9963SOL    HW230789   3.704   2.065   0.537
 9964SOL     OW30790   4.652   5.667   4.224
 9964SOL    HW130791   4.681   5.640   4.132
 9964SOL    HW230792   4.582   5.738   4.217
 9965SOL     OW30793   3.845   6.927   6.865
 9965SOL    HW130794   3.905   6.949   6.941
 9965SOL    HW230795   3.812   6.833   6.875
 9966SOL     OW30796   1.494   5.182   1.960
 9966SOL    HW130797   1.486   5.115   2.034
 9966SOL    HW230798   1.404   5.220   1.940
 9967SOL     OW30799   1.409   5.517   1.763
 9967SOL    HW130800   1.385   5.614   1.755
 9967SOL    HW230801   1.401   5.488   1.858
 9968SOL     OW30802   3.830   3.896   2.138
 9968SOL    HW130803   3.784   3.809   2.121
 9968SOL    HW230804   3.770   3.957   2.189
 9969SOL     OW30805   1.468   3.822   2.712
 9969SOL    HW130806   1.442   3.881   2.788
 9969SOL    HW230807   1.392   3.817   2.647
 9970SOL     OW30808   5.657   5.009   1.846
 9970SOL    HW130809   5.665   4.909   1.848
 9970SOL    HW230810   5.565   5.036   1.876
 9971SOL     OW30811   1.903   4.519   0.602
 9971SOL    HW130812   1.929   4.561   0.689
 9971SOL    HW230813   1.806   4.494   0.605
 9972SOL     OW30814   6.158   4.920   3.247
 9972SOL    HW130815   6.248   4.931   3.290
 9972SOL    HW230816   6.136   5.003   3.195
 9973SOL     OW30817   6.020   0.901   4.229
 9973SOL    HW130818   6.094   0.893   4.297
 9973SOL    HW230819   6.051   0.865   4.141
 9974SOL     OW30820   1.721   0.544   3.949
 9974SOL    HW130821   1.633   0.521   3.990
 9974SOL    HW230822   1.789   0.477   3.977
 9975SOL     OW30823   0.009   2.685   0.264
 9975SOL    HW130824   6.956   2.740   0.231
 9975SOL    HW230825   0.093   2.739   0.262
 9976SOL     OW30826   1.135   0.183   5.380
 9976SOL    HW130827   1.067   0.253   5.357
 9976SOL    HW230828   1.224   0.227   5.396
 9977SOL     OW30829   6.601   4.411   5.151
 9977SOL    HW130830   6.614   4.379   5.245
 9977SOL    HW230831   6.557   4.339   5.097
 9978SOL     OW30832   0.634   2.449   4.243
 9978SOL    HW130833   0.596   2.539   4.225
 9978SOL    HW230834   0.642   2.399   4.156
 9979SOL     OW30835   6.009   3.960   5.145
 9979SOL    HW130836   6.008   3.892   5.071
 9979SOL    HW230837   5.994   3.914   5.233
 9980SOL     OW30838   3.608   0.333   6.706
 9980SOL    HW130839   3.522   0.339   6.756
 9980SOL    HW230840   3.660   0.253   6.736
 9981SOL     OW30841   3.229   1.498   3.818
 9981SOL    HW130842   3.190   1.521   3.729
 9981SOL    HW230843   3.284   1.415   3.810
 9982SOL     OW30844   6.658   6.084   4.024
 9982SOL    HW130845   6.699   5.995   4.004
 9982SOL    HW230846   6.730   6.151   4.043
 9983SOL     OW30847   6.889   1.570   2.637
 9983SOL    HW130848   6.810   1.517   2.607
 9983SOL    HW230849   6.955   1.575   2.562
 9984SOL     OW30850   3.033   1.763   6.587
 9984SOL    HW130851   3.113   1.717   6.550
 9984SOL    HW230852   2.950   1.722   6.549
 9985SOL     OW30853   1.850   1.066   1.743
 9985SOL    HW130854   1.881   1.007   1.668
 9985SOL    HW230855   1.785   1.016   1.800
 9986SOL     OW30856   5.705   4.066   4.767
 9986SOL    HW130857   5.628   4.033   4.821
 9986SOL    HW230858   5.685   4.158   4.733
 9987SOL     OW30859   6.256   3.864   6.263
 9987SOL    HW130860   6.171   3.917   6.261
 9987SOL    HW230861   6.317   3.899   6.334
 9988SOL     OW30862   6.677   6.804   5.388
 9988SOL    HW130863   6.743   6.878   5.399
 9988SOL    HW230864   6.667   6.755   5.475
 9989SOL     OW30865   6.985   3.267   5.070
 9989SOL    HW130866   0.025   3.220   5.132
 9989SOL    HW230867   6.932   3.199   5.020
 9990SOL     OW30868   1.085   4.610   2.876
 9990SOL    HW130869   1.114   4.534   2.934
 9990SOL    HW230870   1.000   4.649   2.911
 9991SOL     OW30871   2.933   2.260   4.158
 9991SOL    HW130872   2.950   2.178   4.103
 9991SOL    HW230873   2.854   2.309   4.121
 9992SOL     OW30874   5.893   5.546   6.337
 9992SOL    HW130875   5.800   5.536   6.301
 9992SOL    HW230876   5.893   5.618   6.407
 9993SOL     OW30877   1.666   1.714   1.479
 9993SOL    HW130878   1.568   1.694   1.476
 9993SOL    HW230879   1.699   1.703   1.573
 9994SOL     OW30880   5.985   4.557   3.912
 9994SOL    HW130881   5.914   4.530   3.847
 9994SOL    HW230882   5.987   4.657   3.919
 9995SOL     OW30883   5.861   0.775   3.836
 9995SOL    HW130884   5.817   0.863   3.850
 9995SOL    HW230885   5.792   0.704   3.823
 9996SOL     OW30886   3.590   4.479   6.606
 9996SOL    HW130887   3.647   4.454   6.529
 9996SOL    HW230888   3.618   4.427   6.687
 9997SOL     OW30889   2.489   0.299   5.390
 9997SOL    HW130890   2.547   0.232   5.436
 9997SOL    HW230891   2.528   0.323   5.302
 9998SOL     OW30892   5.737   5.522   5.874
 9998SOL    HW130893   5.764   5.577   5.953
 9998SOL    HW230894   5.648   5.480   5.891
 9999SOL     OW30895   6.400   2.398   5.925
 9999SOL    HW130896   6.348   2.481   5.903
 9999SOL    HW230897   6.345   2.339   5.985
10000SOL     OW30898   0.092   2.318   6.379
10000SOL    HW130899   0.038   2.278   6.453
10000SOL    HW230900   0.077   2.417   6.377
10001SOL     OW30901   5.125   0.478   2.871
10001SOL    HW130902   5.094   0.573   2.868
10001SOL    HW230903   5.049   0.419   2.900
10002SOL     OW30904   1.279   0.487   1.770
10002SOL    HW130905   1.255   0.520   1.862
10002SOL    HW230906   1.369   0.524   1.745
10003SOL     OW30907   3.713   2.043   3.617
10003SOL    HW130908   3.663   2.065   3.533
10003SOL    HW230909   3.678   2.098   3.692
10004SOL     OW30910   6.999   2.395   2.974
10004SOL    HW130911   7.000   2.445   3.060
10004SOL    HW230912   6.906   2.364   2.953
10005SOL     OW30913   4.689   7.012   4.130
10005SOL    HW130914   4.664   0.085   4.127
10005SOL    HW230915   4.785   7.003   4.156
10006SOL     OW30916   4.017   6.712   4.211
10006SOL    HW130917   3.944   6.778   4.226
10006SOL    HW230918   4.006   6.634   4.274
10007SOL     OW30919   0.123   3.336   4.370
10007SOL    HW130920   0.079   3.393   4.439
10007SOL    HW230921   0.175   3.394   4.307
10008SOL     OW30922   2.891   0.646   4.095
10008SOL    HW130923   2.929   0.730   4.055
10008SOL    HW230924   2.963   0.599   4.147
10009SOL     OW30925   1.852   3.998   1.967
10009SOL    HW130926   1.810   4.071   2.021
10009SOL    HW230927   1.821   3.909   2.000
10010SOL     OW30928   1.347   2.100   6.168
10010SOL    HW130929   1.248   2.113   6.173
10010SOL    HW230930   1.371   2.062   6.079
10011SOL     OW30931   6.520   6.788   5.953
10011SOL    HW130932   6.532   6.689   5.961
10011SOL    HW230933   6.424   6.811   5.965
10012SOL     OW30934   6.029   1.168   4.003
10012SOL    HW130935   5.955   1.148   3.939
10012SOL    HW230936   5.993   1.175   4.096
10013SOL     OW30937   0.480   0.716   3.141
10013SOL    HW130938   0.536   0.677   3.214
10013SOL    HW230939   0.539   0.761   3.075
10014SOL     OW30940   0.494   4.896   6.136
10014SOL    HW130941   0.538   4.933   6.218
10014SOL    HW230942   0.396   4.884   6.154
10015SOL     OW30943   1.865   4.147   6.745
10015SOL    HW130944   1.815   4.226   6.711
10015SOL    HW230945   1.961   4.154   6.719
10016SOL     OW30946   2.634   1.087   5.538
10016SOL    HW130947   2.626   1.185   5.520
10016SOL    HW230948   2.548   1.053   5.576
10017SOL     OW30949   1.996   2.364   4.498
10017SOL    HW130950   2.024   2.410   4.413
10017SOL    HW230951   1.896   2.359   4.500
10018SOL     OW30952   5.208   0.534   5.435
10018SOL    HW130953   5.287   0.573   5.482
10018SOL    HW230954   5.239   0.479   5.357
10019SOL     OW30955   1.305   1.028   3.244
10019SOL    HW130956   1.226   1.090   3.244
10019SOL    HW230957   1.328   1.004   3.338
10020SOL     OW30958   0.597   3.064   0.940
10020SOL    HW130959   0.664   2.989   0.932
10020SOL    HW230960   0.553   3.060   1.029
10021SOL     OW30961   0.165   3.512   1.206
10021SOL    HW130962   0.217   3.533   1.289
10021SOL    HW230963   0.220   3.454   1.146
10022SOL     OW30964   1.179   2.260   6.547
10022SOL    HW130965   1.276   2.253   6.566
10022SOL    HW230966   1.127   2.215   6.620
10023SOL     OW30967   0.017   3.409   0.699
10023SOL    HW130968   6.982   3.331   0.722
10023SOL    HW230969   0.070   3.437   0.779
10024SOL     OW30970   1.674   4.568   3.895
10024SOL    HW130971   1.709   4.660   3.878
10024SOL    HW230972   1.748   4.511   3.933
10025SOL     OW30973   1.564   1.321   0.707
10025SOL    HW130974   1.643   1.258   0.705
10025SOL    HW230975   1.523   1.326   0.616
10026SOL     OW30976   6.228   1.012   3.375
10026SOL    HW130977   6.266   1.075   3.442
10026SOL    HW230978   6.284   1.014   3.292
10027SOL     OW30979   4.970   3.151   5.304
10027SOL    HW130980   4.904   3.223   5.324
10027SOL    HW230981   4.965   3.127   5.208
10028SOL     OW30982   2.043   1.535   0.529
10028SOL    HW130983   2.079   1.603   0.465
10028SOL    HW230984   2.045   1.444   0.486
10029SOL     OW30985   5.995   1.467   3.836
10029SOL    HW130986   5.941   1.533   3.888
10029SOL    HW230987   6.005   1.498   3.742
10030SOL     OW30988   1.664   0.085   3.873
10030SOL    HW130989   1.571   0.122   3.865
10030SOL    HW230990   1.724   0.154   3.914
10031SOL     OW30991   6.597   4.075   4.053
10031SOL    HW130992   6.597   3.975   4.052
10031SOL    HW230993   6.517   4.109   4.003
10032SOL     OW30994   2.958   1.451   4.533
10032SOL    HW130995   3.011   1.530   4.561
10032SOL    HW230996   2.966   1.437   4.434
10033SOL     OW30997   5.948   3.096   5.162
10033SOL    HW130998   5.970   3.115   5.066
10033SOL    HW230999   5.878   3.160   5.194
10034SOL     OW31000   5.589   0.444   5.166
10034SOL    HW131001   5.631   0.354   5.179
10034SOL    HW231002   5.629   0.508   5.231
10035SOL     OW31003   0.183   5.620   1.590
10035SOL    HW131004   0.167   5.620   1.491
10035SOL    HW231005   0.262   5.679   1.611
10036SOL     OW31006   6.699   0.980   0.423
10036SOL    HW131007   6.614   0.928   0.435
10036SOL    HW231008   6.777   0.923   0.450
10037SOL     OW31009   0.855   6.772   0.054
10037SOL    HW131010   0.904   6.859   0.042
10037SOL    HW231011   0.889   6.705   7.012
10038SOL     OW31012   6.510   6.421   1.066
10038SOL    HW131013   6.568   6.357   1.015
10038SOL    HW231014   6.454   6.371   1.132
10039SOL     OW31015   3.215   6.966   3.644
10039SOL    HW131016   3.180   0.035   3.629
10039SOL    HW231017   3.168   6.902   3.584
10040SOL     OW31018   0.432   3.236   1.403
10040SOL    HW131019   0.445   3.300   1.327
10040SOL    HW231020   0.504   3.248   1.470
10041SOL     OW31021   1.870   6.144   0.144
10041SOL    HW131022   1.824   6.230   0.163
10041SOL    HW231023   1.824   6.070   0.194
10042SOL     OW31024   6.094   2.718   2.530
10042SOL    HW131025   6.121   2.630   2.490
10042SOL    HW231026   6.132   2.792   2.474
10043SOL     OW31027   0.129   1.469   5.387
10043SOL    HW131028   0.093   1.545   5.333
10043SOL    HW231029   0.227   1.481   5.402
10044SOL     OW31030   3.221   2.207   5.793
10044SOL    HW131031   3.269   2.154   5.722
10044SOL    HW231032   3.156   2.148   5.839
10045SOL     OW31033   3.827   1.391   0.650
10045SOL    HW131034   3.807   1.469   0.590
10045SOL    HW231035   3.741   1.352   0.683
10046SOL     OW31036   1.771   5.466   0.984
10046SOL    HW131037   1.716   5.400   1.035
10046SOL    HW231038   1.777   5.437   0.888
10047SOL     OW31039   0.601   3.514   0.988
10047SOL    HW131040   0.502   3.528   0.986
10047SOL    HW231041   0.630   3.468   0.905
10048SOL     OW31042   6.060   5.584   2.953
10048SOL    HW131043   6.056   5.682   2.974
10048SOL    HW231044   6.021   5.568   2.862
10049SOL     OW31045   0.085   0.953   5.794
10049SOL    HW131046   7.011   0.946   5.775
10049SOL    HW231047   0.119   1.042   5.762
10050SOL     OW31048   6.834   3.001   6.692
10050SOL    HW131049   6.797   2.983   6.600
10050SOL    HW231050   6.776   3.068   6.738
10051SOL     OW31051   2.094   3.317   3.592
10051SOL    HW131052   2.104   3.403   3.642
10051SOL    HW231053   2.109   3.333   3.495
10052SOL     OW31054   1.236   6.308   3.121
10052SOL    HW131055   1.136   6.306   3.130
10052SOL    HW231056   1.272   6.385   3.174
10053SOL     OW31057   5.816   5.444   4.778
10053SOL    HW131058   5.828   5.371   4.709
10053SOL    HW231059   5.726   5.435   4.820
10054SOL     OW31060   5.985   4.225   5.055
10054SOL    HW131061   6.008   4.129   5.073
10054SOL    HW231062   5.996   4.278   5.139
10055SOL     OW31063   0.689   1.568   6.622
10055SOL    HW131064   0.606   1.586   6.568
10055SOL    HW231065   0.760   1.532   6.562
10056SOL     OW31066   6.347   2.359   3.235
10056SOL    HW131067   6.354   2.366   3.136
10056SOL    HW231068   6.427   2.311   3.271
10057SOL     OW31069   6.295   4.617   5.264
10057SOL    HW131070   6.208   4.571   5.245
10057SOL    HW231071   6.342   4.635   5.178
10058SOL     OW31072   6.785   3.854   5.599
10058SOL    HW131073   6.841   3.876   5.520
10058SOL    HW231074   6.835   3.876   5.683
10059SOL     OW31075   6.433   0.759   6.566
10059SOL    HW131076   6.335   0.768   6.580
10059SOL    HW231077   6.460   0.808   6.483
10060SOL     OW31078   2.354   2.136   1.763
10060SOL    HW131079   2.360   2.234   1.745
10060SOL    HW231080   2.434   2.089   1.725
10061SOL     OW31081   3.668   0.040   3.180
10061SOL    HW131082   3.600   6.995   3.207
10061SOL    HW231083   3.753   0.024   3.231
10062SOL     OW31084   6.793   0.004   4.802
10062SOL    HW131085   6.750   0.093   4.814
10062SOL    HW231086   6.729   6.956   4.830
10063SOL     OW31087   2.090   2.401   5.534
10063SOL    HW131088   1.995   2.400   5.502
10063SOL    HW231089   2.123   2.495   5.537
10064SOL     OW31090   2.620   0.101   0.545
10064SOL    HW131091   2.634   0.036   0.619
10064SOL    HW231092   2.659   0.189   0.570
10065SOL     OW31093   0.622   1.398   1.673
10065SOL    HW131094   0.672   1.324   1.629
10065SOL    HW231095   0.636   1.483   1.622
10066SOL     OW31096   6.568   3.554   3.819
10066SOL    HW131097   6.484   3.512   3.783
10066SOL    HW231098   6.584   3.522   3.912
10067SOL     OW31099   6.779   3.358   5.698
10067SOL    HW131100   6.783   3.317   5.789
10067SOL    HW231101   6.811   3.292   5.630
10068SOL     OW31102   2.107   3.512   3.038
10068SOL    HW131103   2.103   3.526   2.939
10068SOL    HW231104   2.088   3.597   3.085
10069SOL     OW31105   3.190   5.000   0.669
10069SOL    HW131106   3.154   5.093   0.659
10069SOL    HW231107   3.133   4.948   0.732
10070SOL     OW31108   4.149   6.952   6.325
10070SOL    HW131109   4.152   0.029   6.332
10070SOL    HW231110   4.192   6.923   6.240
10071SOL     OW31111   6.118   0.026   3.943
10071SOL    HW131112   6.107   0.082   4.026
10071SOL    HW231113   6.080   6.959   3.959
10072SOL     OW31114   6.588   3.249   1.389
10072SOL    HW131115   6.551   3.237   1.481
10072SOL    HW231116   6.658   3.180   1.372
10073SOL     OW31117   6.648   4.760   4.714
10073SOL    HW131118   6.588   4.699   4.663
10073SOL    HW231119   6.694   4.708   4.787
10074SOL     OW31120   1.001   4.819   0.294
10074SOL    HW131121   1.039   4.865   0.213
10074SOL    HW231122   0.971   4.727   0.269
10075SOL     OW31123   1.301   3.768   2.238
10075SOL    HW131124   1.399   3.751   2.222
10075SOL    HW231125   1.260   3.686   2.278
10076SOL     OW31126   5.442   5.015   4.611
10076SOL    HW131127   5.359   5.033   4.664
10076SOL    HW231128   5.417   4.994   4.516
10077SOL     OW31129   5.017   3.350   6.970
10077SOL    HW131130   5.023   3.430   0.006
10077SOL    HW231131   4.921   3.321   6.962
10078SOL     OW31132   6.582   5.754   4.908
10078SOL    HW131133   6.516   5.681   4.893
10078SOL    HW231134   6.537   5.842   4.896
10079SOL     OW31135   4.878   3.096   4.106
10079SOL    HW131136   4.845   3.003   4.091
10079SOL    HW231137   4.839   3.132   4.191
10080SOL     OW31138   4.986   1.646   5.467
10080SOL    HW131139   4.894   1.610   5.484
10080SOL    HW231140   5.036   1.651   5.553
10081SOL     OW31141   1.651   4.360   0.635
10081SOL    HW131142   1.624   4.359   0.538
10081SOL    HW231143   1.571   4.375   0.692
10082SOL     OW31144   0.616   4.641   0.758
10082SOL    HW131145   0.656   4.671   0.671
10082SOL    HW231146   0.622   4.541   0.764
10083SOL     OW31147   3.121   5.289   2.693
10083SOL    HW131148   3.165   5.314   2.607
10083SOL    HW231149   3.029   5.329   2.696
10084SOL     OW31150   0.874   0.922   5.109
10084SOL    HW131151   0.943   0.990   5.085
10084SOL    HW231152   0.905   0.868   5.187
10085SOL     OW31153   5.371   0.422   0.343
10085SOL    HW131154   5.290   0.414   0.284
10085SOL    HW231155   5.359   0.498   0.407
10086SOL     OW31156   5.808   6.902   3.301
10086SOL    HW131157   5.737   6.966   3.273
10086SOL    HW231158   5.802   6.819   3.245
10087SOL     OW31159   1.401   6.112   5.637
10087SOL    HW131160   1.322   6.145   5.690
10087SOL    HW231161   1.485   6.146   5.679
10088SOL     OW31162   6.580   2.957   1.207
10088SOL    HW131163   6.567   2.959   1.306
10088SOL    HW231164   6.594   2.862   1.177
10089SOL     OW31165   3.456   1.251   1.604
10089SOL    HW131166   3.403   1.179   1.649
10089SOL    HW231167   3.428   1.340   1.639
10090SOL     OW31168   2.650   6.563   2.381
10090SOL    HW131169   2.678   6.484   2.436
10090SOL    HW231170   2.551   6.576   2.389
10091SOL     OW31171   6.392   4.552   5.530
10091SOL    HW131172   6.487   4.554   5.560
10091SOL    HW231173   6.388   4.578   5.433
10092SOL     OW31174   1.077   2.397   4.048
10092SOL    HW131175   1.084   2.361   4.141
10092SOL    HW231176   1.010   2.343   3.996
10093SOL     OW31177   4.731   4.894   6.601
10093SOL    HW131178   4.665   4.820   6.595
10093SOL    HW231179   4.768   4.899   6.694
10094SOL     OW31180   3.374   1.751   1.375
10094SOL    HW131181   3.471   1.749   1.400
10094SOL    HW231182   3.365   1.770   1.277
10095SOL     OW31183   4.340   2.997   5.596
10095SOL    HW131184   4.288   2.953   5.670
10095SOL    HW231185   4.322   2.949   5.510
10096SOL     OW31186   6.493   2.912   2.083
10096SOL    HW131187   6.490   2.906   1.983
10096SOL    HW231188   6.416   2.969   2.114
10097SOL     OW31189   0.486   1.178   0.225
10097SOL    HW131190   0.571   1.173   0.278
10097SOL    HW231191   0.441   1.265   0.245
10098SOL     OW31192   2.686   5.306   3.630
10098SOL    HW131193   2.670   5.263   3.719
10098SOL    HW231194   2.670   5.240   3.557
10099SOL     OW31195   0.200   5.029   2.027
10099SOL    HW131196   0.243   4.938   2.026
10099SOL    HW231197   0.234   5.083   1.950
10100SOL     OW31198   5.122   5.197   4.134
10100SOL    HW131199   5.024   5.217   4.128
10100SOL    HW231200   5.172   5.257   4.073
10101SOL     OW31201   7.018   3.241   1.009
10101SOL    HW131202   6.954   3.275   1.078
10101SOL    HW231203   6.968   3.202   0.932
10102SOL     OW31204   6.937   5.289   3.046
10102SOL    HW131205   6.978   5.359   2.989
10102SOL    HW231206   7.008   5.227   3.079
10103SOL     OW31207   6.911   5.773   6.305
10103SOL    HW131208   6.947   5.715   6.233
10103SOL    HW231209   6.978   5.782   6.378
10104SOL     OW31210   2.363   0.791   4.896
10104SOL    HW131211   2.326   0.710   4.941
10104SOL    HW231212   2.371   0.865   4.962
10105SOL     OW31213   3.273   1.008   4.981
10105SOL    HW131214   3.319   1.053   5.057
10105SOL    HW231215   3.250   1.076   4.911
10106SOL     OW31216   5.489   4.340   1.384
10106SOL    HW131217   5.499   4.241   1.373
10106SOL    HW231218   5.569   4.386   1.344
10107SOL     OW31219   5.407   5.174   0.485
10107SOL    HW131220   5.325   5.225   0.510
10107SOL    HW231221   5.388   5.075   0.490
10108SOL     OW31222   2.438   2.066   6.352
10108SOL    HW131223   2.354   2.013   6.350
10108SOL    HW231224   2.459   2.100   6.260
10109SOL     OW31225   1.044   2.119   1.425
10109SOL    HW131226   1.022   2.184   1.352
10109SOL    HW231227   0.961   2.100   1.478
10110SOL     OW31228   5.902   5.569   2.734
10110SOL    HW131229   5.877   5.665   2.746
10110SOL    HW231230   5.836   5.525   2.673
10111SOL     OW31231   0.751   2.297   1.680
10111SOL    HW131232   0.827   2.308   1.745
10111SOL    HW231233   0.740   2.382   1.629
10112SOL     OW31234   0.835   2.486   2.711
10112SOL    HW131235   0.856   2.552   2.783
10112SOL    HW231236   0.835   2.532   2.623
10113SOL     OW31237   6.443   0.454   6.213
10113SOL    HW131238   6.458   0.454   6.312
10113SOL    HW231239   6.526   0.422   6.167
10114SOL     OW31240   6.169   2.440   1.448
10114SOL    HW131241   6.204   2.391   1.368
10114SOL    HW231242   6.099   2.505   1.418
10115SOL     OW31243   3.579   2.784   5.712
10115SOL    HW131244   3.661   2.769   5.657
10115SOL    HW231245   3.499   2.753   5.660
10116SOL     OW31246   7.000   0.590   5.542
10116SOL    HW131247   6.929   0.659   5.527
10116SOL    HW231248   0.042   0.624   5.611
10117SOL     OW31249   6.403   4.762   3.632
10117SOL    HW131250   6.371   4.679   3.677
10117SOL    HW231251   6.325   4.822   3.612
10118SOL     OW31252   4.045   5.368   3.554
10118SOL    HW131253   4.114   5.403   3.491
10118SOL    HW231254   4.057   5.412   3.644
10119SOL     OW31255   6.481   5.973   5.775
10119SOL    HW131256   6.411   5.905   5.796
10119SOL    HW231257   6.505   6.024   5.857
10120SOL     OW31258   2.234   2.856   3.864
10120SOL    HW131259   2.240   2.941   3.813
10120SOL    HW231260   2.279   2.867   3.953
10121SOL     OW31261   6.942   4.719   0.607
10121SOL    HW131262   6.995   4.747   0.688
10121SOL    HW231263   6.960   4.783   0.533
10122SOL     OW31264   1.776   0.506   3.669
10122SOL    HW131265   1.742   0.542   3.756
10122SOL    HW231266   1.705   0.450   3.627
10123SOL     OW31267   6.722   5.063   6.559
10123SOL    HW131268   6.803   5.082   6.615
10123SOL    HW231269   6.652   5.018   6.615
10124SOL     OW31270   2.371   5.257   2.891
10124SOL    HW131271   2.436   5.182   2.897
10124SOL    HW231272   2.290   5.227   2.840
10125SOL     OW31273   1.397   0.315   4.835
10125SOL    HW131274   1.413   0.391   4.898
10125SOL    HW231275   1.299   0.304   4.820
10126SOL     OW31276   6.232   6.398   6.032
10126SOL    HW131277   6.222   6.368   6.127
10126SOL    HW231278   6.161   6.465   6.011
10127SOL     OW31279   2.944   6.667   5.328
10127SOL    HW131280   3.012   6.709   5.388
10127SOL    HW231281   2.856   6.711   5.341
10128SOL     OW31282   2.463   3.138   0.316
10128SOL    HW131283   2.427   3.064   0.260
10128SOL    HW231284   2.395   3.164   0.384
10129SOL     OW31285   6.124   1.657   4.430
10129SOL    HW131286   6.123   1.609   4.342
10129SOL    HW231287   6.188   1.734   4.425
10130SOL     OW31288   0.677   1.706   4.444
10130SOL    HW131289   0.670   1.740   4.538
10130SOL    HW231290   0.749   1.637   4.439
10131SOL     OW31291   2.116   6.858   4.349
10131SOL    HW131292   2.089   6.930   4.285
10131SOL    HW231293   2.169   6.899   4.423
10132SOL     OW31294   5.714   0.056   1.346
10132SOL    HW131295   5.638   0.121   1.341
10132SOL    HW231296   5.720   0.018   1.439
10133SOL     OW31297   4.927   6.368   0.701
10133SOL    HW131298   5.012   6.315   0.706
10133SOL    HW231299   4.947   6.462   0.677
10134SOL     OW31300   6.909   0.206   3.020
10134SOL    HW131301   6.998   0.195   3.065
10134SOL    HW231302   6.873   0.116   2.996
10135SOL     OW31303   5.978   0.702   3.298
10135SOL    HW131304   5.953   0.717   3.393
10135SOL    HW231305   6.002   0.789   3.255
10136SOL     OW31306   4.697   2.227   3.129
10136SOL    HW131307   4.744   2.148   3.089
10136SOL    HW231308   4.598   2.210   3.129
10137SOL     OW31309   6.434   4.938   5.109
10137SOL    HW131310   6.395   4.924   5.200
10137SOL    HW231311   6.452   5.036   5.095
10138SOL     OW31312   0.258   2.449   1.541
10138SOL    HW131313   0.194   2.452   1.465
10138SOL    HW231314   0.216   2.402   1.618
10139SOL     OW31315   2.979   2.741   6.633
10139SOL    HW131316   3.064   2.689   6.619
10139SOL    HW231317   2.901   2.680   6.618
10140SOL     OW31318   1.025   6.015   5.936
10140SOL    HW131319   1.054   5.947   6.003
10140SOL    HW231320   0.973   5.970   5.863
10141SOL     OW31321   1.806   2.314   4.115
10141SOL    HW131322   1.758   2.326   4.202
10141SOL    HW231323   1.856   2.398   4.092
10142SOL     OW31324   5.091   6.813   3.413
10142SOL    HW131325   5.035   6.732   3.398
10142SOL    HW231326   5.094   6.868   3.329
10143SOL     OW31327   5.419   2.871   6.516
10143SOL    HW131328   5.411   2.922   6.602
10143SOL    HW231329   5.382   2.927   6.441
10144SOL     OW31330   3.261   6.630   0.710
10144SOL    HW131331   3.251   6.678   0.623
10144SOL    HW231332   3.341   6.569   0.706
10145SOL     OW31333   5.772   6.785   6.158
10145SOL    HW131334   5.817   6.874   6.154
10145SOL    HW231335   5.690   6.787   6.102
10146SOL     OW31336   0.750   2.612   5.002
10146SOL    HW131337   0.706   2.633   4.916
10146SOL    HW231338   0.681   2.598   5.073
10147SOL     OW31339   4.224   5.993   5.598
10147SOL    HW131340   4.218   5.931   5.519
10147SOL    HW231341   4.301   5.965   5.656
10148SOL     OW31342   0.725   4.363   6.960
10148SOL    HW131343   0.634   4.322   6.957
10148SOL    HW231344   0.740   4.418   6.878
10149SOL     OW31345   4.194   3.175   1.167
10149SOL    HW131346   4.125   3.114   1.205
10149SOL    HW231347   4.176   3.190   1.070
10150SOL     OW31348   4.562   4.230   1.084
10150SOL    HW131349   4.650   4.274   1.063
10150SOL    HW231350   4.533   4.176   1.005
10151SOL     OW31351   6.220   0.367   6.098
10151SOL    HW131352   6.291   0.400   6.161
10151SOL    HW231353   6.134   0.354   6.149
10152SOL     OW31354   4.236   0.023   2.718
10152SOL    HW131355   4.136   0.016   2.714
10152SOL    HW231356   4.271   6.989   2.792
10153SOL     OW31357   4.779   4.650   2.114
10153SOL    HW131358   4.720   4.614   2.042
10153SOL    HW231359   4.798   4.747   2.096
10154SOL     OW31360   5.054   5.157   5.837
10154SOL    HW131361   5.016   5.129   5.749
10154SOL    HW231362   5.115   5.235   5.824
10155SOL     OW31363   4.160   1.824   4.214
10155SOL    HW131364   4.197   1.743   4.259
10155SOL    HW231365   4.145   1.896   4.282
10156SOL     OW31366   3.916   1.643   0.097
10156SOL    HW131367   3.986   1.576   0.070
10156SOL    HW231368   3.862   1.669   0.017
10157SOL     OW31369   0.469   4.530   1.338
10157SOL    HW131370   0.555   4.534   1.387
10157SOL    HW231371   0.397   4.573   1.393
10158SOL     OW31372   5.621   5.342   6.997
10158SOL    HW131373   5.660   5.411   0.035
10158SOL    HW231374   5.692   5.279   6.968
10159SOL     OW31375   3.164   3.091   2.151
10159SOL    HW131376   3.233   3.159   2.127
10159SOL    HW231377   3.073   3.131   2.140
10160SOL     OW31378   0.267   4.253   2.702
10160SOL    HW131379   0.329   4.278   2.777
10160SOL    HW231380   0.272   4.154   2.687
10161SOL     OW31381   5.319   3.283   5.208
10161SOL    HW131382   5.343   3.315   5.300
10161SOL    HW231383   5.308   3.183   5.210
10162SOL     OW31384   1.403   2.479   1.766
10162SOL    HW131385   1.478   2.414   1.778
10162SOL    HW231386   1.321   2.430   1.736
10163SOL     OW31387   2.874   5.453   5.090
10163SOL    HW131388   2.837   5.462   5.183
10163SOL    HW231389   2.833   5.373   5.046
10164SOL     OW31390   0.831   1.473   3.781
10164SOL    HW131391   0.740   1.511   3.766
10164SOL    HW231392   0.880   1.466   3.694
10165SOL     OW31393   0.925   3.495   4.315
10165SOL    HW131394   0.962   3.414   4.269
10165SOL    HW231395   1.000   3.549   4.352
10166SOL     OW31396   2.090   6.369   2.330
10166SOL    HW131397   2.173   6.334   2.373
10166SOL    HW231398   2.114   6.428   2.253
10167SOL     OW31399   2.125   1.652   6.803
10167SOL    HW131400   2.162   1.577   6.858
10167SOL    HW231401   2.166   1.650   6.712
10168SOL     OW31402   6.812   0.282   6.462
10168SOL    HW131403   6.908   0.304   6.480
10168SOL    HW231404   6.765   0.263   6.548
10169SOL     OW31405   5.123   4.611   3.923
10169SOL    HW131406   5.053   4.673   3.960
10169SOL    HW231407   5.207   4.619   3.976
10170SOL     OW31408   5.380   5.754   0.158
10170SOL    HW131409   5.410   5.716   0.245
10170SOL    HW231410   5.452   5.743   0.090
10171SOL     OW31411   2.068   4.881   4.976
10171SOL    HW131412   2.142   4.817   4.998
10171SOL    HW231413   1.990   4.863   5.036
10172SOL     OW31414   6.598   0.840   3.096
10172SOL    HW131415   6.656   0.767   3.132
10172SOL    HW231416   6.558   0.812   3.009
10173SOL     OW31417   3.471   3.607   5.022
10173SOL    HW131418   3.384   3.652   5.002
10173SOL    HW231419   3.469   3.513   4.986
10174SOL     OW31420   4.320   4.971   1.290
10174SOL    HW131421   4.287   5.052   1.240
10174SOL    HW231422   4.287   4.975   1.384
10175SOL     OW31423   0.171   6.881   4.468
10175SOL    HW131424   0.264   6.877   4.504
10175SOL    HW231425   0.105   6.883   4.544
10176SOL     OW31426   6.593   0.976   4.544
10176SOL    HW131427   6.577   1.074   4.539
10176SOL    HW231428   6.680   0.959   4.591
10177SOL     OW31429   2.666   1.248   3.498
10177SOL    HW131430   2.697   1.155   3.479
10177SOL    HW231431   2.579   1.265   3.452
10178SOL     OW31432   0.626   1.787   1.191
10178SOL    HW131433   0.594   1.863   1.248
10178SOL    HW231434   0.549   1.749   1.140
10179SOL     OW31435   0.997   4.209   6.998
10179SOL    HW131436   0.947   4.218   0.061
10179SOL    HW231437   1.022   4.299   6.964
10180SOL     OW31438   4.105   0.352   6.005
10180SOL    HW131439   4.181   0.382   5.948
10180SOL    HW231440   4.055   0.431   6.039
10181SOL     OW31441   5.926   3.423   2.702
10181SOL    HW131442   5.863   3.359   2.748
10181SOL    HW231443   5.958   3.382   2.617
10182SOL     OW31444   4.281   1.163   1.348
10182SOL    HW131445   4.254   1.068   1.360
10182SOL    HW231446   4.200   1.220   1.334
10183SOL     OW31447   5.601   0.924   5.343
10183SOL    HW131448   5.606   0.842   5.285
10183SOL    HW231449   5.568   0.899   5.433
10184SOL     OW31450   5.052   2.126   5.917
10184SOL    HW131451   5.058   2.226   5.915
10184SOL    HW231452   5.094   2.092   6.001
10185SOL     OW31453   3.529   5.543   1.217
10185SOL    HW131454   3.466   5.621   1.220
10185SOL    HW231455   3.623   5.577   1.216
10186SOL     OW31456   3.394   3.273   6.455
10186SOL    HW131457   3.481   3.287   6.502
10186SOL    HW231458   3.398   3.189   6.401
10187SOL     OW31459   1.951   4.652   5.278
10187SOL    HW131460   1.909   4.615   5.361
10187SOL    HW231461   1.992   4.578   5.225
10188SOL     OW31462   3.202   0.161   6.000
10188SOL    HW131463   3.267   0.090   6.028
10188SOL    HW231464   3.144   0.185   6.078
10189SOL     OW31465   2.096   1.853   5.441
10189SOL    HW131466   2.171   1.910   5.409
10189SOL    HW231467   2.128   1.794   5.515
10190SOL     OW31468   4.397   4.685   0.943
10190SOL    HW131469   4.388   4.771   0.893
10190SOL    HW231470   4.428   4.704   1.036
10191SOL     OW31471   5.571   0.053   0.205
10191SOL    HW131472   5.624   0.026   0.285
10191SOL    HW231473   5.486   0.097   0.235
10192SOL     OW31474   1.574   1.139   4.496
10192SOL    HW131475   1.492   1.090   4.526
10192SOL    HW231476   1.594   1.212   4.562
10193SOL     OW31477   3.931   3.509   3.662
10193SOL    HW131478   3.915   3.584   3.726
10193SOL    HW231479   3.911   3.422   3.706
10194SOL     OW31480   2.879   0.340   2.718
10194SOL    HW131481   2.929   0.423   2.693
10194SOL    HW231482   2.813   0.318   2.645
10195SOL     OW31483   5.306   6.844   2.676
10195SOL    HW131484   5.221   6.896   2.677
10195SOL    HW231485   5.287   6.748   2.696
10196SOL     OW31486   5.804   3.252   4.321
10196SOL    HW131487   5.787   3.290   4.231
10196SOL    HW231488   5.728   3.276   4.382
10197SOL     OW31489   5.733   1.290   2.295
10197SOL    HW131490   5.691   1.292   2.386
10197SOL    HW231491   5.685   1.353   2.234
10198SOL     OW31492   2.229   0.101   0.861
10198SOL    HW131493   2.281   0.097   0.775
10198SOL    HW231494   2.132   0.108   0.841
10199SOL     OW31495   0.805   1.775   0.635
10199SOL    HW131496   0.718   1.819   0.656
10199SOL    HW231497   0.840   1.728   0.716
10200SOL     OW31498   6.317   4.812   5.637
10200SOL    HW131499   6.318   4.839   5.733
10200SOL    HW231500   6.238   4.753   5.619
10201SOL     OW31501   1.886   5.043   2.935
10201SOL    HW131502   1.967   5.021   2.880
10201SOL    HW231503   1.915   5.069   3.027
10202SOL     OW31504   0.869   2.614   2.475
10202SOL    HW131505   0.961   2.604   2.514
10202SOL    HW231506   0.870   2.682   2.402
10203SOL     OW31507   1.085   3.290   1.895
10203SOL    HW131508   1.141   3.361   1.852
10203SOL    HW231509   1.062   3.220   1.827
10204SOL     OW31510   3.319   5.238   3.949
10204SOL    HW131511   3.326   5.158   4.009
10204SOL    HW231512   3.229   5.239   3.905
10205SOL     OW31513   4.559   1.288   2.737
10205SOL    HW131514   4.577   1.311   2.833
10205SOL    HW231515   4.461   1.298   2.719
10206SOL     OW31516   4.746   0.545   6.313
10206SOL    HW131517   4.731   0.548   6.214
10206SOL    HW231518   4.695   0.620   6.357
10207SOL     OW31519   4.234   1.135   3.128
10207SOL    HW131520   4.189   1.193   3.059
10207SOL    HW231521   4.196   1.042   3.122
10208SOL     OW31522   5.622   3.896   5.027
10208SOL    HW131523   5.582   3.847   5.104
10208SOL    HW231524   5.720   3.907   5.041
10209SOL     OW31525   5.379   6.846   6.695
10209SOL    HW131526   5.392   6.915   6.765
10209SOL    HW231527   5.387   6.888   6.604
10210SOL     OW31528   4.897   5.775   1.765
10210SOL    HW131529   4.962   5.707   1.732
10210SOL    HW231530   4.943   5.864   1.774
10211SOL     OW31531   3.593   6.099   5.008
10211SOL    HW131532   3.653   6.020   5.008
10211SOL    HW231533   3.637   6.175   5.056
10212SOL     OW31534   6.358   6.531   5.201
10212SOL    HW131535   6.364   6.616   5.254
10212SOL    HW231536   6.317   6.551   5.112
10213SOL     OW31537   5.270   0.574   3.720
10213SOL    HW131538   5.334   0.536   3.787
10213SOL    HW231539   5.257   0.671   3.737
10214SOL     OW31540   6.907   0.172   1.960
10214SOL    HW131541   6.947   0.241   2.021
10214SOL    HW231542   6.833   0.125   2.008
10215SOL     OW31543   3.690   2.789   0.076
10215SOL    HW131544   3.727   2.730   0.005
10215SOL    HW231545   3.657   2.874   0.036
10216SOL     OW31546   4.927   0.511   2.379
10216SOL    HW131547   5.001   0.445   2.369
10216SOL    HW231548   4.902   0.548   2.290
10217SOL     OW31549   3.007   2.039   5.745
10217SOL    HW131550   3.071   2.012   5.672
10217SOL    HW231551   2.915   2.045   5.707
10218SOL     OW31552   2.307   2.725   1.104
10218SOL    HW131553   2.226   2.712   1.047
10218SOL    HW231554   2.381   2.666   1.071
10219SOL     OW31555   0.969   4.104   0.618
10219SOL    HW131556   1.064   4.104   0.647
10219SOL    HW231557   0.923   4.023   0.656
10220SOL     OW31558   4.101   2.192   0.694
10220SOL    HW131559   4.169   2.237   0.637
10220SOL    HW231560   4.137   2.104   0.726
10221SOL     OW31561   3.111   0.729   5.201
10221SOL    HW131562   3.067   0.660   5.258
10221SOL    HW231563   3.045   0.766   5.136
10222SOL     OW31564   1.983   5.071   5.995
10222SOL    HW131565   1.948   5.036   6.082
10222SOL    HW231566   1.964   5.005   5.923
10223SOL     OW31567   6.600   4.781   0.381
10223SOL    HW131568   6.507   4.798   0.412
10223SOL    HW231569   6.653   4.866   0.387
10224SOL     OW31570   2.076   6.512   4.813
10224SOL    HW131571   2.104   6.608   4.813
10224SOL    HW231572   1.977   6.506   4.811
10225SOL     OW31573   5.598   5.842   4.621
10225SOL    HW131574   5.683   5.793   4.642
10225SOL    HW231575   5.546   5.854   4.706
10226SOL     OW31576   0.001   2.464   0.440
10226SOL    HW131577   0.043   2.500   0.523
10226SOL    HW231578   6.998   2.540   0.381
10227SOL     OW31579   5.511   6.147   6.585
10227SOL    HW131580   5.461   6.136   6.671
10227SOL    HW231581   5.590   6.207   6.600
10228SOL     OW31582   0.574   3.530   3.277
10228SOL    HW131583   0.551   3.569   3.188
10228SOL    HW231584   0.534   3.439   3.285
10229SOL     OW31585   2.150   1.077   2.156
10229SOL    HW131586   2.115   1.066   2.064
10229SOL    HW231587   2.225   1.012   2.171
10230SOL     OW31588   6.488   6.668   4.637
10230SOL    HW131589   6.555   6.594   4.648
10230SOL    HW231590   6.531   6.744   4.588
10231SOL     OW31591   4.428   6.458   4.411
10231SOL    HW131592   4.384   6.402   4.342
10231SOL    HW231593   4.523   6.476   4.384
10232SOL     OW31594   3.878   2.095   4.638
10232SOL    HW131595   3.882   1.999   4.666
10232SOL    HW231596   3.848   2.100   4.542
10233SOL     OW31597   4.601   1.209   5.454
10233SOL    HW131598   4.603   1.219   5.553
10233SOL    HW231599   4.687   1.170   5.422
10234SOL     OW31600   5.704   5.983   1.200
10234SOL    HW131601   5.766   6.058   1.224
10234SOL    HW231602   5.649   5.959   1.280
10235SOL     OW31603   5.227   1.529   6.071
10235SOL    HW131604   5.303   1.521   6.007
10235SOL    HW231605   5.254   1.587   6.147
10236SOL     OW31606   2.408   5.997   2.828
10236SOL    HW131607   2.330   6.050   2.794
10236SOL    HW231608   2.477   6.060   2.865
10237SOL     OW31609   6.703   2.342   3.350
10237SOL    HW131610   6.726   2.429   3.307
10237SOL    HW231611   6.782   2.307   3.401
10238SOL     OW31612   4.577   4.969   4.421
10238SOL    HW131613   4.621   5.057   4.406
10238SOL    HW231614   4.569   4.920   4.334
10239SOL     OW31615   6.838   3.623   4.137
10239SOL    HW131616   6.874   3.619   4.044
10239SOL    HW231617   6.841   3.717   4.171
10240SOL     OW31618   6.756   3.575   3.609
10240SOL    HW131619   6.777   3.650   3.547
10240SOL    HW231620   6.696   3.607   3.682
10241SOL     OW31621   2.330   1.563   3.464
10241SOL    HW131622   2.403   1.525   3.407
10241SOL    HW231623   2.249   1.504   3.459
10242SOL     OW31624   0.834   6.280   6.065
10242SOL    HW131625   0.756   6.319   6.017
10242SOL    HW231626   0.840   6.182   6.047
10243SOL     OW31627   0.727   5.864   2.743
10243SOL    HW131628   0.628   5.872   2.756
10243SOL    HW231629   0.755   5.918   2.663
10244SOL     OW31630   1.990   6.428   6.789
10244SOL    HW131631   1.977   6.522   6.757
10244SOL    HW231632   1.903   6.391   6.821
10245SOL     OW31633   2.134   2.315   6.797
10245SOL    HW131634   2.071   2.317   6.874
10245SOL    HW231635   2.224   2.347   6.826
10246SOL     OW31636   4.033   3.845   4.374
10246SOL    HW131637   4.082   3.785   4.311
10246SOL    HW231638   3.983   3.789   4.441
10247SOL     OW31639   1.493   5.851   5.739
10247SOL    HW131640   1.456   5.933   5.695
10247SOL    HW231641   1.586   5.869   5.770
10248SOL     OW31642   4.844   0.208   2.299
10248SOL    HW131643   4.917   0.271   2.270
10248SOL    HW231644   4.780   0.257   2.358
10249SOL     OW31645   3.792   0.994   0.131
10249SOL    HW131646   3.800   0.948   0.042
10249SOL    HW231647   3.878   1.040   0.153
10250SOL     OW31648   6.455   0.345   0.054
10250SOL    HW131649   6.552   0.326   0.039
10250SOL    HW231650   6.411   0.265   0.094
10251SOL     OW31651   3.780   4.404   6.399
10251SOL    HW131652   3.739   4.460   6.327
10251SOL    HW231653   3.862   4.450   6.434
10252SOL     OW31654   6.506   5.176   2.225
10252SOL    HW131655   6.605   5.172   2.210
10252SOL    HW231656   6.459   5.183   2.136
10253SOL     OW31657   3.683   4.810   6.421
10253SOL    HW131658   3.615   4.809   6.494
10253SOL    HW231659   3.645   4.765   6.340
10254SOL     OW31660   2.434   2.017   4.517
10254SOL    HW131661   2.400   1.985   4.605
10254SOL    HW231662   2.510   1.959   4.487
10255SOL     OW31663   2.966   5.911   2.962
10255SOL    HW131664   2.996   5.912   3.058
10255SOL    HW231665   2.907   5.832   2.947
10256SOL     OW31666   5.776   6.106   6.825
10256SOL    HW131667   5.856   6.130   6.769
10256SOL    HW231668   5.776   6.008   6.842
10257SOL     OW31669   1.757   6.668   6.392
10257SOL    HW131670   1.820   6.739   6.362
10257SOL    HW231671   1.666   6.685   6.352
10258SOL     OW31672   4.015   1.075   3.472
10258SOL    HW131673   3.991   0.978   3.479
10258SOL    HW231674   4.110   1.084   3.444
10259SOL     OW31675   0.814   3.615   3.380
10259SOL    HW131676   0.730   3.569   3.351
10259SOL    HW231677   0.893   3.560   3.352
10260SOL     OW31678   0.259   6.982   1.164
10260SOL    HW131679   0.259   0.053   1.197
10260SOL    HW231680   0.332   6.931   1.210
10261SOL     OW31681   2.206   6.638   1.723
10261SOL    HW131682   2.198   6.677   1.631
10261SOL    HW231683   2.130   6.670   1.779
10262SOL     OW31684   2.047   5.112   5.133
10262SOL    HW131685   2.074   5.033   5.079
10262SOL    HW231686   2.009   5.082   5.220
10263SOL     OW31687   6.344   1.863   5.978
10263SOL    HW131688   6.392   1.848   5.891
10263SOL    HW231689   6.362   1.787   6.040
10264SOL     OW31690   0.468   6.471   6.743
10264SOL    HW131691   0.540   6.539   6.727
10264SOL    HW231692   0.421   6.492   6.828
10265SOL     OW31693   4.678   1.732   2.323
10265SOL    HW131694   4.687   1.755   2.420
10265SOL    HW231695   4.644   1.812   2.273
10266SOL     OW31696   3.787   4.256   6.114
10266SOL    HW131697   3.758   4.175   6.166
10266SOL    HW231698   3.887   4.263   6.116
10267SOL     OW31699   6.025   1.901   6.348
10267SOL    HW131700   6.043   1.894   6.250
10267SOL    HW231701   6.067   1.984   6.384
10268SOL     OW31702   6.243   4.852   1.854
10268SOL    HW131703   6.245   4.900   1.766
10268SOL    HW231704   6.152   4.814   1.868
10269SOL     OW31705   2.855   2.908   6.133
10269SOL    HW131706   2.811   2.915   6.222
10269SOL    HW231707   2.947   2.947   6.138
10270SOL     OW31708   2.716   6.231   0.545
10270SOL    HW131709   2.776   6.153   0.561
10270SOL    HW231710   2.731   6.268   0.453
10271SOL     OW31711   3.566   5.174   0.717
10271SOL    HW131712   3.520   5.115   0.783
10271SOL    HW231713   3.525   5.162   0.626
10272SOL     OW31714   0.770   0.829   5.890
10272SOL    HW131715   0.826   0.748   5.871
10272SOL    HW231716   0.699   0.806   5.956
10273SOL     OW31717   4.442   5.743   4.671
10273SOL    HW131718   4.478   5.835   4.688
10273SOL    HW231719   4.404   5.739   4.578
10274SOL     OW31720   2.103   6.100   5.930
10274SOL    HW131721   2.154   6.154   5.997
10274SOL    HW231722   2.005   6.118   5.941
10275SOL     OW31723   0.941   6.123   2.122
10275SOL    HW131724   0.956   6.194   2.190
10275SOL    HW231725   0.975   6.153   2.033
10276SOL     OW31726   6.825   6.190   6.263
10276SOL    HW131727   6.821   6.259   6.191
10276SOL    HW231728   6.811   6.099   6.223
10277SOL     OW31729   1.810   5.204   3.381
10277SOL    HW131730   1.755   5.260   3.319
10277SOL    HW231731   1.864   5.138   3.328
10278SOL     OW31732   5.871   0.572   5.655
10278SOL    HW131733   5.829   0.660   5.679
10278SOL    HW231734   5.941   0.549   5.723
10279SOL     OW31735   3.229   6.532   3.522
10279SOL    HW131736   3.278   6.603   3.574
10279SOL    HW231737   3.237   6.551   3.424
10280SOL     OW31738   2.929   3.143   6.692
10280SOL    HW131739   2.989   3.192   6.630
10280SOL    HW231740   2.984   3.098   6.763
10281SOL     OW31741   4.139   6.884   3.733
10281SOL    HW131742   4.115   6.857   3.826
10281SOL    HW231743   4.127   6.982   3.722
10282SOL     OW31744   1.154   2.515   4.961
10282SOL    HW131745   1.153   2.588   4.893
10282SOL    HW231746   1.179   2.553   5.050
10283SOL     OW31747   0.982   3.457   5.887
10283SOL    HW131748   0.981   3.408   5.975
10283SOL    HW231749   0.928   3.407   5.820
10284SOL     OW31750   5.191   3.810   6.569
10284SOL    HW131751   5.245   3.732   6.598
10284SOL    HW231752   5.249   3.892   6.569
10285SOL     OW31753   6.001   0.275   0.597
10285SOL    HW131754   5.959   0.269   0.688
10285SOL    HW231755   5.935   0.245   0.528
10286SOL     OW31756   4.556   1.089   3.734
10286SOL    HW131757   4.546   1.047   3.643
10286SOL    HW231758   4.481   1.057   3.793
10287SOL     OW31759   2.260   5.815   1.612
10287SOL    HW131760   2.309   5.886   1.561
10287SOL    HW231761   2.326   5.756   1.659
10288SOL     OW31762   5.066   6.091   3.986
10288SOL    HW131763   5.004   6.144   4.045
10288SOL    HW231764   5.127   6.035   4.042
10289SOL     OW31765   2.963   1.548   1.545
10289SOL    HW131766   3.047   1.524   1.496
10289SOL    HW231767   2.932   1.637   1.514
10290SOL     OW31768   2.967   3.815   2.335
10290SOL    HW131769   2.943   3.717   2.337
10290SOL    HW231770   2.953   3.850   2.242
10291SOL     OW31771   3.757   0.252   5.854
10291SOL    HW131772   3.813   0.224   5.932
10291SOL    HW231773   3.663   0.264   5.884
10292SOL     OW31774   0.440   1.138   4.372
10292SOL    HW131775   0.374   1.073   4.336
10292SOL    HW231776   0.423   1.228   4.332
10293SOL     OW31777   2.375   5.717   2.881
10293SOL    HW131778   2.462   5.686   2.842
10293SOL    HW231779   2.359   5.812   2.857
10294SOL     OW31780   5.969   1.696   3.459
10294SOL    HW131781   6.033   1.655   3.394
10294SOL    HW231782   5.891   1.633   3.473
10295SOL     OW31783   0.969   5.144   5.588
10295SOL    HW131784   1.010   5.116   5.674
10295SOL    HW231785   0.913   5.069   5.551
10296SOL     OW31786   6.171   1.949   1.010
10296SOL    HW131787   6.194   1.853   1.025
10296SOL    HW231788   6.132   1.988   1.093
10297SOL     OW31789   2.151   4.999   4.202
10297SOL    HW131790   2.093   4.984   4.121
10297SOL    HW231791   2.164   4.913   4.250
10298SOL     OW31792   5.508   3.512   3.513
10298SOL    HW131793   5.493   3.432   3.455
10298SOL    HW231794   5.585   3.494   3.575
10299SOL     OW31795   4.965   4.933   2.459
10299SOL    HW131796   4.996   4.866   2.392
10299SOL    HW231797   4.951   4.888   2.547
10300SOL     OW31798   2.122   4.946   2.840
10300SOL    HW131799   2.128   5.030   2.786
10300SOL    HW231800   2.085   4.872   2.783
10301SOL     OW31801   5.727   1.659   1.855
10301SOL    HW131802   5.672   1.626   1.778
10301SOL    HW231803   5.736   1.585   1.923
10302SOL     OW31804   1.435   5.352   3.023
10302SOL    HW131805   1.377   5.426   2.988
10302SOL    HW231806   1.445   5.282   2.952
10303SOL     OW31807   3.399   3.001   0.913
10303SOL    HW131808   3.313   3.042   0.944
10303SOL    HW231809   3.432   3.050   0.833
10304SOL     OW31810   6.219   6.572   3.697
10304SOL    HW131811   6.174   6.500   3.751
10304SOL    HW231812   6.153   6.645   3.677
10305SOL     OW31813   1.809   5.768   1.413
10305SOL    HW131814   1.799   5.840   1.345
10305SOL    HW231815   1.906   5.747   1.425
10306SOL     OW31816   4.297   5.036   0.378
10306SOL    HW131817   4.328   4.944   0.403
10306SOL    HW231818   4.326   5.057   0.284
10307SOL     OW31819   2.739   0.890   5.363
10307SOL    HW131820   2.689   0.963   5.410
10307SOL    HW231821   2.725   0.899   5.265
10308SOL     OW31822   3.316   5.673   3.405
10308SOL    HW131823   3.376   5.753   3.406
10308SOL    HW231824   3.223   5.700   3.427
10309SOL     OW31825   0.712   6.428   3.121
10309SOL    HW131826   0.756   6.350   3.165
10309SOL    HW231827   0.657   6.397   3.044
10310SOL     OW31828   3.974   3.360   4.055
10310SOL    HW131829   4.000   3.280   4.002
10310SOL    HW231830   4.003   3.443   4.007
10311SOL     OW31831   7.017   6.123   0.594
10311SOL    HW131832   0.047   6.207   0.586
10311SOL    HW231833   0.054   6.048   0.622
10312SOL     OW31834   1.634   4.864   1.104
10312SOL    HW131835   1.733   4.856   1.113
10312SOL    HW231836   1.595   4.774   1.082
10313SOL     OW31837   5.840   5.976   3.425
10313SOL    HW131838   5.863   5.884   3.394
10313SOL    HW231839   5.891   5.996   3.509
10314SOL     OW31840   6.520   5.458   6.125
10314SOL    HW131841   6.559   5.512   6.199
10314SOL    HW231842   6.516   5.514   6.042
10315SOL     OW31843   6.269   5.839   4.851
10315SOL    HW131844   6.262   5.782   4.934
10315SOL    HW231845   6.197   5.908   4.852
10316SOL     OW31846   6.931   3.827   2.675
10316SOL    HW131847   6.906   3.923   2.689
10316SOL    HW231848   6.957   3.786   2.762
10317SOL     OW31849   3.528   4.708   1.057
10317SOL    HW131850   3.527   4.730   0.959
10317SOL    HW231851   3.436   4.679   1.085
10318SOL     OW31852   6.352   5.892   2.208
10318SOL    HW131853   6.349   5.796   2.237
10318SOL    HW231854   6.400   5.899   2.120
10319SOL     OW31855   5.080   6.265   4.306
10319SOL    HW131856   5.131   6.188   4.269
10319SOL    HW231857   4.999   6.282   4.250
10320SOL     OW31858   4.634   6.113   1.193
10320SOL    HW131859   4.538   6.103   1.220
10320SOL    HW231860   4.655   6.047   1.120
10321SOL     OW31861   4.326   6.307   4.216
10321SOL    HW131862   4.387   6.282   4.141
10321SOL    HW231863   4.232   6.282   4.192
10322SOL     OW31864   6.534   2.581   0.079
10322SOL    HW131865   6.550   2.541   0.168
10322SOL    HW231866   6.596   2.659   0.066
10323SOL     OW31867   5.772   2.347   5.051
10323SOL    HW131868   5.823   2.362   5.135
10323SOL    HW231869   5.696   2.412   5.045
10324SOL     OW31870   3.029   3.920   3.681
10324SOL    HW131871   3.061   3.825   3.675
10324SOL    HW231872   2.931   3.923   3.664
10325SOL     OW31873   0.917   3.786   3.591
10325SOL    HW131874   0.888   3.774   3.496
10325SOL    HW231875   0.973   3.708   3.619
10326SOL     OW31876   4.622   1.402   1.392
10326SOL    HW131877   4.708   1.354   1.410
10326SOL    HW231878   4.640   1.481   1.333
10327SOL     OW31879   0.152   1.008   3.869
10327SOL    HW131880   0.184   0.983   3.778
10327SOL    HW231881   0.107   0.930   3.912
10328SOL     OW31882   5.965   2.937   2.131
10328SOL    HW131883   5.926   3.027   2.109
10328SOL    HW231884   5.891   2.869   2.136
10329SOL     OW31885   3.916   6.157   2.232
10329SOL    HW131886   3.960   6.071   2.206
10329SOL    HW231887   3.949   6.230   2.173
10330SOL     OW31888   3.818   4.562   1.032
10330SOL    HW131889   3.721   4.572   1.055
10330SOL    HW231890   3.874   4.586   1.112
10331SOL     OW31891   5.503   0.639   4.364
10331SOL    HW131892   5.478   0.734   4.384
10331SOL    HW231893   5.569   0.637   4.289
10332SOL     OW31894   0.235   1.716   0.083
10332SOL    HW131895   0.264   1.622   0.067
10332SOL    HW231896   0.165   1.718   0.154
10333SOL     OW31897   4.788   3.967   4.697
10333SOL    HW131898   4.869   3.912   4.721
10333SOL    HW231899   4.710   3.906   4.683
10334SOL     OW31900   0.908   4.821   5.087
10334SOL    HW131901   0.852   4.902   5.107
10334SOL    HW231902   0.977   4.810   5.158
10335SOL     OW31903   2.042   5.119   1.966
10335SOL    HW131904   1.972   5.178   2.006
10335SOL    HW231905   2.129   5.169   1.962
10336SOL     OW31906   4.431   6.367   2.988
10336SOL    HW131907   4.523   6.333   3.011
10336SOL    HW231908   4.402   6.432   3.059
10337SOL     OW31909   0.785   5.067   5.203
10337SOL    HW131910   0.703   5.046   5.151
10337SOL    HW231911   0.787   5.011   5.286
10338SOL     OW31912   3.731   4.872   3.339
10338SOL    HW131913   3.749   4.836   3.247
10338SOL    HW231914   3.811   4.859   3.397
10339SOL     OW31915   3.072   5.245   0.651
10339SOL    HW131916   3.103   5.255   0.746
10339SOL    HW231917   3.032   5.332   0.621
10340SOL     OW31918   1.634   6.866   6.656
10340SOL    HW131919   1.669   6.844   6.747
10340SOL    HW231920   1.588   6.786   6.617
10341SOL     OW31921   1.561   1.729   2.603
10341SOL    HW131922   1.660   1.714   2.600
10341SOL    HW231923   1.525   1.731   2.510
10342SOL     OW31924   2.644   6.773   4.434
10342SOL    HW131925   2.606   6.691   4.477
10342SOL    HW231926   2.732   6.795   4.477
10343SOL     OW31927   1.936   2.710   4.141
10343SOL    HW131928   1.987   2.754   4.067
10343SOL    HW231929   1.895   2.779   4.200
10344SOL     OW31930   3.974   3.712   6.910
10344SOL    HW131931   3.925   3.784   6.959
10344SOL    HW231932   4.072   3.720   6.927
10345SOL     OW31933   1.582   1.846   5.985
10345SOL    HW131934   1.589   1.747   6.001
10345SOL    HW231935   1.645   1.872   5.912
10346SOL     OW31936   5.391   5.539   0.358
10346SOL    HW131937   5.292   5.556   0.353
10346SOL    HW231938   5.417   5.469   0.292
10347SOL     OW31939   4.799   1.602   1.782
10347SOL    HW131940   4.765   1.510   1.765
10347SOL    HW231941   4.746   1.645   1.855
10348SOL     OW31942   6.927   5.007   5.849
10348SOL    HW131943   6.833   4.981   5.829
10348SOL    HW231944   6.979   4.926   5.875
10349SOL     OW31945   0.036   1.613   1.053
10349SOL    HW131946   0.077   1.522   1.050
10349SOL    HW231947   6.961   1.604   1.073
10350SOL     OW31948   2.405   4.480   4.437
10350SOL    HW131949   2.429   4.407   4.501
10350SOL    HW231950   2.325   4.529   4.471
10351SOL     OW31951   4.600   4.536   5.006
10351SOL    HW131952   4.502   4.526   5.022
10351SOL    HW231953   4.616   4.613   4.945
10352SOL     OW31954   5.361   1.356   6.799
10352SOL    HW131955   5.271   1.392   6.775
10352SOL    HW231956   5.387   1.284   6.736
10353SOL     OW31957   6.572   2.827   3.617
10353SOL    HW131958   6.645   2.856   3.555
10353SOL    HW231959   6.484   2.835   3.570
10354SOL     OW31960   6.303   3.087   1.242
10354SOL    HW131961   6.402   3.083   1.230
10354SOL    HW231962   6.275   3.182   1.256
10355SOL     OW31963   0.416   1.631   1.101
10355SOL    HW131964   0.447   1.581   1.182
10355SOL    HW231965   0.352   1.573   1.049
10356SOL     OW31966   5.865   3.271   5.769
10356SOL    HW131967   5.935   3.246   5.837
10356SOL    HW231968   5.856   3.371   5.767
10357SOL     OW31969   0.878   1.080   5.934
10357SOL    HW131970   0.847   0.990   5.904
10357SOL    HW231971   0.877   1.084   6.034
10358SOL     OW31972   0.797   2.439   3.111
10358SOL    HW131973   0.878   2.402   3.066
10358SOL    HW231974   0.777   2.530   3.076
10359SOL     OW31975   5.935   2.386   2.024
10359SOL    HW131976   6.030   2.369   2.049
10359SOL    HW231977   5.882   2.411   2.105
10360SOL     OW31978   5.779   4.517   1.860
10360SOL    HW131979   5.732   4.468   1.787
10360SOL    HW231980   5.840   4.585   1.822
10361SOL     OW31981   6.765   1.928   2.449
10361SOL    HW131982   6.857   1.893   2.464
10361SOL    HW231983   6.714   1.925   2.536
10362SOL     OW31984   1.062   5.799   1.761
10362SOL    HW131985   0.962   5.798   1.768
10362SOL    HW231986   1.092   5.725   1.702
10363SOL     OW31987   5.470   4.524   6.585
10363SOL    HW131988   5.477   4.606   6.527
10363SOL    HW231989   5.499   4.547   6.678
10364SOL     OW31990   6.222   4.582   2.702
10364SOL    HW131991   6.288   4.541   2.766
10364SOL    HW231992   6.131   4.545   2.720
10365SOL     OW31993   5.831   5.110   0.727
10365SOL    HW131994   5.859   5.204   0.744
10365SOL    HW231995   5.732   5.107   0.712
10366SOL     OW31996   2.719   6.432   3.087
10366SOL    HW131997   2.769   6.362   3.036
10366SOL    HW231998   2.689   6.393   3.174
10367SOL     OW31999   5.915   6.497   1.598
10367SOL    HW132000   5.975   6.523   1.522
10367SOL    HW232001   5.861   6.417   1.572
10368SOL     OW32002   2.072   6.661   1.451
10368SOL    HW132003   2.040   6.742   1.402
10368SOL    HW232004   2.012   6.583   1.429
10369SOL     OW32005   3.042   6.909   5.953
10369SOL    HW132006   3.129   6.954   5.974
10369SOL    HW232007   3.033   6.827   6.009
10370SOL     OW32008   1.265   0.797   5.919
10370SOL    HW132009   1.230   0.890   5.929
10370SOL    HW232010   1.337   0.796   5.848
10371SOL     OW32011   4.673   5.377   2.733
10371SOL    HW132012   4.644   5.285   2.759
10371SOL    HW232013   4.593   5.430   2.701
10372SOL     OW32014   3.054   6.541   1.876
10372SOL    HW132015   2.989   6.465   1.883
10372SOL    HW232016   3.140   6.507   1.839
10373SOL     OW32017   6.642   1.384   6.185
10373SOL    HW132018   6.739   1.406   6.173
10373SOL    HW232019   6.624   1.292   6.153
10374SOL     OW32020   3.702   5.436   3.226
10374SOL    HW132021   3.739   5.502   3.292
10374SOL    HW232022   3.713   5.343   3.263
10375SOL     OW32023   2.352   4.657   6.977
10375SOL    HW132024   2.322   4.752   6.986
10375SOL    HW232025   2.423   4.638   0.021
10376SOL     OW32026   2.211   4.889   3.609
10376SOL    HW132027   2.280   4.955   3.637
10376SOL    HW232028   2.131   4.898   3.668
10377SOL     OW32029   1.764   1.045   2.185
10377SOL    HW132030   1.840   0.985   2.212
10377SOL    HW232031   1.800   1.124   2.136
10378SOL     OW32032   6.975   5.510   4.221
10378SOL    HW132033   0.036   5.539   4.176
10378SOL    HW232034   6.940   5.427   4.178
10379SOL     OW32035   1.985   6.620   4.382
10379SOL    HW132036   2.014   6.573   4.299
10379SOL    HW232037   2.020   6.714   4.381
10380SOL     OW32038   2.768   2.350   4.546
10380SOL    HW132039   2.813   2.266   4.515
10380SOL    HW232040   2.753   2.410   4.468
10381SOL     OW32041   4.572   6.373   2.223
10381SOL    HW132042   4.601   6.308   2.153
10381SOL    HW232043   4.485   6.344   2.262
10382SOL     OW32044   4.194   6.032   1.796
10382SOL    HW132045   4.226   6.089   1.720
10382SOL    HW232046   4.266   5.968   1.822
10383SOL     OW32047   1.295   4.288   0.073
10383SOL    HW132048   1.300   4.338   7.010
10383SOL    HW232049   1.285   4.353   0.148
10384SOL     OW32050   5.774   6.240   1.559
10384SOL    HW132051   5.767   6.201   1.651
10384SOL    HW232052   5.684   6.237   1.514
10385SOL     OW32053   4.645   4.659   6.768
10385SOL    HW132054   4.714   4.722   6.804
10385SOL    HW232055   4.615   4.596   6.840
10386SOL     OW32056   0.208   1.111   0.695
10386SOL    HW132057   0.185   1.028   0.745
10386SOL    HW232058   0.281   1.159   0.743
10387SOL     OW32059   5.217   3.391   2.103
10387SOL    HW132060   5.208   3.291   2.099
10387SOL    HW232061   5.296   3.415   2.160
10388SOL     OW32062   2.431   0.320   5.010
10388SOL    HW132063   2.374   0.256   5.060
10388SOL    HW232064   2.512   0.342   5.064
10389SOL     OW32065   0.436   3.862   0.708
10389SOL    HW132066   0.408   3.948   0.666
10389SOL    HW232067   0.423   3.866   0.807
10390SOL     OW32068   2.427   2.092   1.366
10390SOL    HW132069   2.398   2.127   1.277
10390SOL    HW232070   2.452   2.168   1.426
10391SOL     OW32071   5.310   6.996   4.247
10391SOL    HW132072   5.273   6.973   4.337
10391SOL    HW232073   5.408   6.973   4.245
10392SOL     OW32074   6.618   3.805   4.044
10392SOL    HW132075   6.669   3.767   3.967
10392SOL    HW232076   6.575   3.732   4.096
10393SOL     OW32077   1.370   3.435   3.728
10393SOL    HW132078   1.439   3.439   3.655
10393SOL    HW232079   1.381   3.349   3.779
10394SOL     OW32080   3.261   6.491   4.476
10394SOL    HW132081   3.207   6.414   4.443
10394SOL    HW232082   3.254   6.496   4.576
10395SOL     OW32083   1.131   0.582   1.071
10395SOL    HW132084   1.043   0.615   1.107
10395SOL    HW232085   1.205   0.610   1.133
10396SOL     OW32086   2.775   2.319   4.820
10396SOL    HW132087   2.764   2.346   4.725
10396SOL    HW232088   2.693   2.272   4.851
10397SOL     OW32089   3.629   2.025   2.813
10397SOL    HW132090   3.699   2.010   2.743
10397SOL    HW232091   3.668   2.008   2.903
10398SOL     OW32092   6.592   2.611   1.523
10398SOL    HW132093   6.509   2.666   1.533
10398SOL    HW232094   6.574   2.518   1.556
10399SOL     OW32095   6.724   3.442   1.963
10399SOL    HW132096   6.643   3.413   2.015
10399SOL    HW232097   6.776   3.362   1.935
10400SOL     OW32098   4.356   6.338   0.139
10400SOL    HW132099   4.356   6.426   0.187
10400SOL    HW232100   4.304   6.271   0.192
10401SOL     OW32101   0.321   1.147   5.372
10401SOL    HW132102   0.283   1.186   5.456
10401SOL    HW232103   0.274   1.186   5.293
10402SOL     OW32104   6.915   2.840   4.856
10402SOL    HW132105   6.985   2.871   4.920
10402SOL    HW232106   6.959   2.794   4.778
10403SOL     OW32107   2.684   0.646   2.673
10403SOL    HW132108   2.602   0.701   2.659
10403SOL    HW232109   2.670   0.583   2.749
10404SOL     OW32110   0.220   6.694   6.782
10404SOL    HW132111   0.276   6.630   6.835
10404SOL    HW232112   0.187   6.649   6.699
10405SOL     OW32113   6.907   1.398   6.124
10405SOL    HW132114   6.897   1.304   6.157
10405SOL    HW232115   7.001   1.413   6.095
10406SOL     OW32116   2.864   4.749   1.748
10406SOL    HW132117   2.848   4.701   1.835
10406SOL    HW232118   2.945   4.710   1.704
10407SOL     OW32119   2.965   6.744   0.215
10407SOL    HW132120   2.962   6.696   0.303
10407SOL    HW232121   3.060   6.749   0.184
10408SOL     OW32122   4.028   0.620   0.793
10408SOL    HW132123   3.996   0.703   0.838
10408SOL    HW232124   4.123   0.603   0.820
10409SOL     OW32125   5.860   4.802   1.333
10409SOL    HW132126   5.935   4.836   1.390
10409SOL    HW232127   5.894   4.730   1.273
10410SOL     OW32128   5.623   0.638   0.962
10410SOL    HW132129   5.598   0.564   1.024
10410SOL    HW232130   5.716   0.624   0.928
10411SOL     OW32131   3.121   5.468   3.098
10411SOL    HW132132   3.091   5.523   3.176
10411SOL    HW232133   3.091   5.374   3.110
10412SOL     OW32134   6.348   0.175   0.857
10412SOL    HW132135   6.410   0.198   0.782
10412SOL    HW232136   6.288   0.253   0.875
10413SOL     OW32137   5.781   2.456   1.031
10413SOL    HW132138   5.803   2.432   1.125
10413SOL    HW232139   5.840   2.531   1.000
10414SOL     OW32140   4.715   2.783   4.340
10414SOL    HW132141   4.619   2.764   4.359
10414SOL    HW232142   4.770   2.765   4.422
10415SOL     OW32143   0.958   5.983   6.616
10415SOL    HW132144   0.911   5.896   6.629
10415SOL    HW232145   0.973   5.998   6.518
10416SOL     OW32146   5.758   3.209   4.768
10416SOL    HW132147   5.783   3.286   4.708
10416SOL    HW232148   5.706   3.142   4.715
10417SOL     OW32149   2.410   4.870   4.084
10417SOL    HW132150   2.366   4.845   4.171
10417SOL    HW232151   2.411   4.970   4.075
10418SOL     OW32152   0.764   4.460   5.523
10418SOL    HW132153   0.687   4.418   5.476
10418SOL    HW232154   0.847   4.408   5.504
10419SOL     OW32155   1.164   1.051   0.879
10419SOL    HW132156   1.103   0.985   0.835
10419SOL    HW232157   1.147   1.142   0.841
10420SOL     OW32158   6.841   2.965   3.051
10420SOL    HW132159   6.835   2.895   2.980
10420SOL    HW232160   6.758   3.020   3.051
10421SOL     OW32161   0.958   0.745   3.443
10421SOL    HW132162   0.880   0.808   3.437
10421SOL    HW232163   0.932   0.656   3.405
10422SOL     OW32164   6.208   2.807   6.100
10422SOL    HW132165   6.172   2.734   6.158
10422SOL    HW232166   6.191   2.895   6.145
10423SOL     OW32167   4.615   4.388   3.497
10423SOL    HW132168   4.673   4.344   3.428
10423SOL    HW232169   4.538   4.432   3.453
10424SOL     OW32170   5.002   1.720   6.756
10424SOL    HW132171   4.984   1.631   6.797
10424SOL    HW232172   5.084   1.760   6.797
10425SOL     OW32173   1.114   5.625   2.693
10425SOL    HW132174   1.158   5.669   2.615
10425SOL    HW232175   1.052   5.553   2.660
10426SOL     OW32176   6.221   4.628   0.043
10426SOL    HW132177   6.275   4.710   0.060
10426SOL    HW232178   6.127   4.643   0.072
10427SOL     OW32179   5.496   2.205   0.438
10427SOL    HW132180   5.574   2.234   0.382
10427SOL    HW232181   5.411   2.237   0.396
10428SOL     OW32182   4.664   0.401   4.334
10428SOL    HW132183   4.728   0.466   4.374
10428SOL    HW232184   4.674   0.312   4.379
10429SOL     OW32185   6.997   6.105   1.755
10429SOL    HW132186   6.961   6.128   1.846
10429SOL    HW232187   6.994   6.005   1.743
10430SOL     OW32188   4.049   6.750   2.590
10430SOL    HW132189   4.079   6.827   2.534
10430SOL    HW232190   3.995   6.687   2.534
10431SOL     OW32191   2.925   0.357   4.329
10431SOL    HW132192   2.996   0.418   4.292
10431SOL    HW232193   2.969   0.279   4.374
10432SOL     OW32194   6.164   0.842   4.452
10432SOL    HW132195   6.132   0.757   4.496
10432SOL    HW232196   6.242   0.821   4.394
10433SOL     OW32197   2.001   6.574   1.067
10433SOL    HW132198   1.952   6.498   1.111
10433SOL    HW232199   2.070   6.537   1.005
10434SOL     OW32200   2.765   0.611   3.775
10434SOL    HW132201   2.703   0.560   3.716
10434SOL    HW232202   2.718   0.635   3.860
10435SOL     OW32203   5.533   6.452   6.202
10435SOL    HW132204   5.528   6.353   6.217
10435SOL    HW232205   5.615   6.474   6.150
10436SOL     OW32206   1.536   4.780   4.057
10436SOL    HW132207   1.525   4.826   3.969
10436SOL    HW232208   1.618   4.815   4.102
10437SOL     OW32209   6.624   5.179   6.023
10437SOL    HW132210   6.543   5.124   6.041
10437SOL    HW232211   6.646   5.235   6.103
10438SOL     OW32212   4.316   6.786   0.328
10438SOL    HW132213   4.302   6.828   0.418
10438SOL    HW232214   4.342   6.690   0.340
10439SOL     OW32215   3.732   6.956   5.847
10439SOL    HW132216   3.676   6.904   5.912
10439SOL    HW232217   3.817   6.985   5.891
10440SOL     OW32218   1.666   6.599   1.088
10440SOL    HW132219   1.740   6.539   1.120
10440SOL    HW232220   1.681   6.691   1.123
10441SOL     OW32221   5.306   2.441   6.452
10441SOL    HW132222   5.272   2.367   6.394
10441SOL    HW232223   5.324   2.405   6.544
10442SOL     OW32224   3.972   4.846   5.521
10442SOL    HW132225   3.889   4.836   5.575
10442SOL    HW232226   3.982   4.940   5.490
10443SOL     OW32227   5.589   3.499   4.974
10443SOL    HW132228   5.540   3.521   5.058
10443SOL    HW232229   5.534   3.528   4.895
10444SOL     OW32230   3.953   5.336   4.931
10444SOL    HW132231   3.950   5.407   5.002
10444SOL    HW232232   3.900   5.366   4.852
10445SOL     OW32233   6.971   6.404   4.879
10445SOL    HW132234   0.028   6.463   4.870
10445SOL    HW232235   6.924   6.425   4.965
10446SOL     OW32236   1.310   4.960   5.753
10446SOL    HW132237   1.344   4.899   5.825
10446SOL    HW232238   1.228   5.007   5.785
10447SOL     OW32239   6.134   2.277   0.957
10447SOL    HW132240   6.069   2.226   1.013
10447SOL    HW232241   6.086   2.321   0.881
10448SOL     OW32242   4.098   3.779   2.192
10448SOL    HW132243   4.146   3.769   2.105
10448SOL    HW232244   4.006   3.815   2.175
10449SOL     OW32245   2.887   5.331   4.588
10449SOL    HW132246   2.899   5.353   4.491
10449SOL    HW232247   2.967   5.282   4.621
10450SOL     OW32248   6.920   2.117   0.849
10450SOL    HW132249   7.013   2.148   0.831
10450SOL    HW232250   6.887   2.060   0.774
10451SOL     OW32251   2.600   4.710   2.925
10451SOL    HW132252   2.637   4.686   3.014
10451SOL    HW232253   2.542   4.636   2.892
10452SOL     OW32254   1.092   3.134   3.683
10452SOL    HW132255   1.164   3.070   3.709
10452SOL    HW232256   1.005   3.105   3.724
10453SOL     OW32257   4.865   6.281   1.761
10453SOL    HW132258   4.937   6.239   1.815
10453SOL    HW232259   4.812   6.344   1.818
10454SOL     OW32260   5.166   3.123   2.144
10454SOL    HW132261   5.256   3.085   2.121
10454SOL    HW232262   5.159   3.134   2.243
10455SOL     OW32263   6.989   4.829   3.661
10455SOL    HW132264   6.899   4.786   3.664
10455SOL    HW232265   0.001   4.838   3.755
10456SOL     OW32266   4.367   6.166   1.246
10456SOL    HW132267   4.334   6.078   1.213
10456SOL    HW232268   4.311   6.196   1.322
10457SOL     OW32269   4.141   3.628   3.341
10457SOL    HW132270   4.146   3.576   3.426
10457SOL    HW232271   4.220   3.608   3.285
10458SOL     OW32272   0.917   6.555   1.010
10458SOL    HW132273   0.840   6.604   0.970
10458SOL    HW232274   0.911   6.458   0.985
10459SOL     OW32275   6.296   5.385   2.759
10459SOL    HW132276   6.392   5.356   2.753
10459SOL    HW232277   6.252   5.335   2.834
10460SOL     OW32278   2.191   4.901   2.102
10460SOL    HW132279   2.125   4.975   2.092
10460SOL    HW232280   2.151   4.827   2.155
10461SOL     OW32281   2.896   0.941   6.598
10461SOL    HW132282   2.905   0.957   6.500
10461SOL    HW232283   2.879   1.028   6.644
10462SOL     OW32284   6.702   0.337   0.890
10462SOL    HW132285   6.691   0.429   0.929
10462SOL    HW232286   6.672   0.269   0.957
10463SOL     OW32287   3.068   4.965   0.211
10463SOL    HW132288   2.980   4.953   0.257
10463SOL    HW232289   3.058   5.029   0.136
10464SOL     OW32290   5.559   0.446   1.140
10464SOL    HW132291   5.646   0.474   1.183
10464SOL    HW232292   5.527   0.361   1.182
10465SOL     OW32293   6.357   5.076   6.051
10465SOL    HW132294   6.352   4.978   6.032
10465SOL    HW232295   6.280   5.102   6.109
10466SOL     OW32296   4.875   6.213   5.997
10466SOL    HW132297   4.786   6.192   5.956
10466SOL    HW232298   4.886   6.312   6.005
10467SOL     OW32299   2.975   1.083   5.438
10467SOL    HW132300   2.899   1.024   5.413
10467SOL    HW232301   2.960   1.121   5.529
10468SOL     OW32302   3.134   6.582   3.943
10468SOL    HW132303   3.061   6.547   4.002
10468SOL    HW232304   3.140   6.526   3.861
10469SOL     OW32305   1.432   4.656   0.678
10469SOL    HW132306   1.447   4.570   0.727
10469SOL    HW232307   1.426   4.731   0.743
10470SOL     OW32308   2.632   1.830   4.451
10470SOL    HW132309   2.709   1.817   4.390
10470SOL    HW232310   2.558   1.768   4.425
10471SOL     OW32311   3.050   3.638   0.704
10471SOL    HW132312   3.120   3.600   0.765
10471SOL    HW232313   2.974   3.673   0.760
10472SOL     OW32314   4.438   1.317   2.181
10472SOL    HW132315   4.383   1.241   2.145
10472SOL    HW232316   4.491   1.358   2.106
10473SOL     OW32317   4.928   6.232   0.415
10473SOL    HW132318   4.873   6.148   0.416
10473SOL    HW232319   4.917   6.281   0.501
10474SOL     OW32320   4.132   0.506   5.000
10474SOL    HW132321   4.128   0.487   4.902
10474SOL    HW232322   4.199   0.578   5.018
10475SOL     OW32323   4.137   0.001   1.758
10475SOL    HW132324   4.152   6.927   1.741
10475SOL    HW232325   4.213   0.037   1.812
10476SOL     OW32326   0.034   5.488   6.934
10476SOL    HW132327   0.017   5.417   6.865
10476SOL    HW232328   0.043   5.577   6.890
10477SOL     OW32329   5.289   4.238   5.233
10477SOL    HW132330   5.247   4.327   5.219
10477SOL    HW232331   5.221   4.166   5.215
10478SOL     OW32332   0.297   6.569   1.181
10478SOL    HW132333   0.360   6.589   1.105
10478SOL    HW232334   0.343   6.511   1.248
10479SOL     OW32335   1.278   3.861   3.499
10479SOL    HW132336   1.197   3.908   3.466
10479SOL    HW232337   1.344   3.928   3.532
10480SOL     OW32338   5.945   0.119   2.101
10480SOL    HW132339   5.857   0.164   2.084
10480SOL    HW232340   6.005   0.133   2.022
10481SOL     OW32341   2.181   0.612   5.262
10481SOL    HW132342   2.146   0.700   5.232
10481SOL    HW232343   2.108   0.559   5.306
10482SOL     OW32344   1.674   5.478   5.623
10482SOL    HW132345   1.640   5.417   5.551
10482SOL    HW232346   1.714   5.560   5.581
10483SOL     OW32347   0.130   5.184   0.249
10483SOL    HW132348   0.048   5.147   0.206
10483SOL    HW232349   0.125   5.171   0.348
10484SOL     OW32350   6.613   1.168   1.478
10484SOL    HW132351   6.552   1.175   1.399
10484SOL    HW232352   6.594   1.244   1.541
10485SOL     OW32353   3.584   4.076   3.213
10485SOL    HW132354   3.632   3.989   3.200
10485SOL    HW232355   3.546   4.079   3.305
10486SOL     OW32356   6.317   6.773   5.652
10486SOL    HW132357   6.390   6.832   5.616
10486SOL    HW232358   6.345   6.677   5.645
10487SOL     OW32359   4.788   2.594   1.704
10487SOL    HW132360   4.751   2.687   1.710
10487SOL    HW232361   4.844   2.585   1.622
10488SOL     OW32362   5.933   2.514   5.905
10488SOL    HW132363   6.021   2.561   5.895
10488SOL    HW232364   5.880   2.558   5.978
10489SOL     OW32365   6.241   4.578   4.838
10489SOL    HW132366   6.314   4.605   4.901
10489SOL    HW232367   6.223   4.654   4.775
10490SOL     OW32368   5.574   6.542   6.461
10490SOL    HW132369   5.531   6.505   6.378
10490SOL    HW232370   5.626   6.624   6.438
10491SOL     OW32371   1.899   2.733   6.392
10491SOL    HW132372   1.911   2.754   6.295
10491SOL    HW232373   1.948   2.800   6.448
10492SOL     OW32374   3.860   0.884   0.480
10492SOL    HW132375   3.915   0.911   0.559
10492SOL    HW232376   3.771   0.851   0.512
10493SOL     OW32377   4.385   5.841   0.853
10493SOL    HW132378   4.395   5.940   0.857
10493SOL    HW232379   4.359   5.807   0.943
10494SOL     OW32380   0.760   4.823   5.380
10494SOL    HW132381   0.859   4.820   5.373
10494SOL    HW232382   0.734   4.842   5.475
10495SOL     OW32383   0.130   6.632   0.698
10495SOL    HW132384   0.164   6.717   0.737
10495SOL    HW232385   0.192   6.557   0.720
10496SOL     OW32386   0.059   3.622   5.058
10496SOL    HW132387   7.004   3.684   5.066
10496SOL    HW232388   0.029   3.535   5.019
10497SOL     OW32389   2.330   0.322   1.029
10497SOL    HW132390   2.289   0.246   0.980
10497SOL    HW232391   2.346   0.398   0.966
10498SOL     OW32392   4.427   4.581   0.215
10498SOL    HW132393   4.503   4.519   0.193
10498SOL    HW232394   4.359   4.531   0.269
10499SOL     OW32395   6.110   4.825   2.708
10499SOL    HW132396   6.077   4.788   2.795
10499SOL    HW232397   6.174   4.761   2.667
10500SOL     OW32398   6.910   3.242   5.465
10500SOL    HW132399   6.885   3.156   5.421
10500SOL    HW232400   6.903   3.317   5.399
10501SOL     OW32401   3.754   4.873   2.613
10501SOL    HW132402   3.723   4.966   2.632
10501SOL    HW232403   3.682   4.808   2.641
10502SOL     OW32404   3.251   3.675   2.279
10502SOL    HW132405   3.232   3.630   2.192
10502SOL    HW232406   3.185   3.750   2.292
10503SOL     OW32407   6.380   2.468   6.548
10503SOL    HW132408   6.394   2.445   6.451
10503SOL    HW232409   6.283   2.457   6.571
10504SOL     OW32410   1.248   2.690   5.833
10504SOL    HW132411   1.196   2.711   5.916
10504SOL    HW232412   1.246   2.591   5.817
10505SOL     OW32413   5.790   6.475   0.896
10505SOL    HW132414   5.809   6.488   0.799
10505SOL    HW232415   5.793   6.563   0.943
10506SOL     OW32416   1.050   2.721   0.152
10506SOL    HW132417   0.968   2.773   0.174
10506SOL    HW232418   1.104   2.706   0.235
10507SOL     OW32419   1.287   5.436   6.231
10507SOL    HW132420   1.372   5.400   6.269
10507SOL    HW232421   1.308   5.514   6.172
10508SOL     OW32422   1.903   4.794   4.470
10508SOL    HW132423   1.874   4.752   4.556
10508SOL    HW232424   1.968   4.868   4.489
10509SOL     OW32425   4.759   2.764   3.468
10509SOL    HW132426   4.702   2.766   3.550
10509SOL    HW232427   4.778   2.858   3.439
10510SOL     OW32428   5.416   5.597   3.608
10510SOL    HW132429   5.514   5.614   3.622
10510SOL    HW232430   5.384   5.653   3.531
10511SOL     OW32431   4.638   2.351   1.760
10511SOL    HW132432   4.682   2.441   1.759
10511SOL    HW232433   4.611   2.328   1.853
10512SOL     OW32434   4.689   0.929   4.893
10512SOL    HW132435   4.776   0.977   4.908
10512SOL    HW232436   4.708   0.836   4.861
10513SOL     OW32437   4.460   3.445   0.902
10513SOL    HW132438   4.380   3.454   0.844
10513SOL    HW232439   4.543   3.439   0.846
10514SOL     OW32440   1.071   3.089   1.722
10514SOL    HW132441   1.017   3.108   1.640
10514SOL    HW232442   1.168   3.087   1.697
10515SOL     OW32443   2.457   2.718   5.131
10515SOL    HW132444   2.381   2.672   5.085
10515SOL    HW232445   2.449   2.817   5.115
10516SOL     OW32446   3.881   2.023   1.479
10516SOL    HW132447   3.893   2.012   1.578
10516SOL    HW232448   3.941   2.096   1.446
10517SOL     OW32449   1.706   2.264   2.738
10517SOL    HW132450   1.784   2.324   2.721
10517SOL    HW232451   1.711   2.184   2.678
10518SOL     OW32452   0.425   4.794   2.826
10518SOL    HW132453   0.365   4.865   2.864
10518SOL    HW232454   0.371   4.734   2.767
10519SOL     OW32455   3.657   6.730   1.301
10519SOL    HW132456   3.684   6.764   1.391
10519SOL    HW232457   3.601   6.649   1.311
10520SOL     OW32458   6.928   2.364   5.801
10520SOL    HW132459   6.913   2.450   5.850
10520SOL    HW232460   6.852   2.301   5.821
10521SOL     OW32461   7.016   3.118   2.057
10521SOL    HW132462   6.922   3.098   2.085
10521SOL    HW232463   0.056   3.065   2.114
10522SOL     OW32464   4.978   2.674   3.341
10522SOL    HW132465   4.890   2.706   3.374
10522SOL    HW232466   5.008   2.596   3.396
10523SOL     OW32467   0.386   4.319   3.240
10523SOL    HW132468   0.429   4.320   3.330
10523SOL    HW232469   0.307   4.257   3.241
10524SOL     OW32470   0.513   6.334   5.169
10524SOL    HW132471   0.512   6.434   5.168
10524SOL    HW232472   0.451   6.299   5.098
10525SOL     OW32473   4.854   1.579   3.957
10525SOL    HW132474   4.800   1.590   3.874
10525SOL    HW232475   4.935   1.638   3.953
10526SOL     OW32476   1.279   4.759   0.480
10526SOL    HW132477   1.272   4.708   0.394
10526SOL    HW232478   1.349   4.718   0.538
10527SOL     OW32479   0.612   0.257   4.859
10527SOL    HW132480   0.546   0.272   4.786
10527SOL    HW232481   0.563   0.234   4.943
10528SOL     OW32482   1.613   3.595   5.505
10528SOL    HW132483   1.593   3.670   5.441
10528SOL    HW232484   1.587   3.623   5.597
10529SOL     OW32485   0.508   6.334   0.946
10529SOL    HW132486   0.525   6.280   1.028
10529SOL    HW232487   0.580   6.318   0.879
10530SOL     OW32488   0.461   5.483   0.494
10530SOL    HW132489   0.426   5.564   0.541
10530SOL    HW232490   0.481   5.412   0.561
10531SOL     OW32491   2.924   3.292   5.274
10531SOL    HW132492   2.965   3.205   5.302
10531SOL    HW232493   2.825   3.289   5.292
10532SOL     OW32494   5.392   6.455   6.957
10532SOL    HW132495   5.463   6.390   6.986
10532SOL    HW232496   5.392   6.461   6.858
10533SOL     OW32497   3.845   6.416   2.901
10533SOL    HW132498   3.912   6.359   2.853
10533SOL    HW232499   3.851   6.510   2.866
10534SOL     OW32500   1.493   5.853   3.911
10534SOL    HW132501   1.474   5.944   3.874
10534SOL    HW232502   1.575   5.857   3.967
10535SOL     OW32503   3.640   2.037   2.367
10535SOL    HW132504   3.652   2.030   2.268
10535SOL    HW232505   3.573   1.970   2.398
10536SOL     OW32506   5.704   2.212   4.311
10536SOL    HW132507   5.764   2.270   4.366
10536SOL    HW232508   5.694   2.251   4.220
10537SOL     OW32509   4.017   0.025   4.055
10537SOL    HW132510   4.089   0.046   4.121
10537SOL    HW232511   4.001   0.105   3.997
10538SOL     OW32512   6.739   3.673   2.945
10538SOL    HW132513   6.835   3.646   2.934
10538SOL    HW232514   6.681   3.613   2.889
10539SOL     OW32515   6.549   0.318   3.206
10539SOL    HW132516   6.520   0.223   3.216
10539SOL    HW232517   6.606   0.344   3.284
10540SOL     OW32518   1.793   3.658   5.923
10540SOL    HW132519   1.748   3.713   5.993
10540SOL    HW232520   1.885   3.633   5.953
10541SOL     OW32521   3.411   3.288   5.361
10541SOL    HW132522   3.381   3.301   5.266
10541SOL    HW232523   3.340   3.321   5.423
10542SOL     OW32524   4.790   6.874   4.642
10542SOL    HW132525   4.789   6.796   4.704
10542SOL    HW232526   4.785   6.841   4.548
10543SOL     OW32527   0.821   3.582   5.042
10543SOL    HW132528   0.764   3.603   5.121
10543SOL    HW232529   0.764   3.579   4.959
10544SOL     OW32530   1.977   1.860   3.041
10544SOL    HW132531   1.944   1.849   2.947
10544SOL    HW232532   2.006   1.954   3.056
10545SOL     OW32533   1.993   2.693   2.362
10545SOL    HW132534   2.033   2.775   2.320
10545SOL    HW232535   2.020   2.688   2.458
10546SOL     OW32536   2.905   6.721   6.828
10546SOL    HW132537   2.992   6.771   6.838
10546SOL    HW232538   2.830   6.779   6.859
10547SOL     OW32539   4.332   0.219   4.528
10547SOL    HW132540   4.327   0.186   4.623
10547SOL    HW232541   4.299   0.148   4.466
10548SOL     OW32542   0.178   5.293   3.963
10548SOL    HW132543   0.192   5.378   4.013
10548SOL    HW232544   0.087   5.294   3.920
10549SOL     OW32545   6.943   0.586   1.317
10549SOL    HW132546   6.959   0.598   1.219
10549SOL    HW232547   6.845   0.588   1.336
10550SOL     OW32548   4.943   5.659   3.566
10550SOL    HW132549   4.846   5.672   3.586
10550SOL    HW232550   4.963   5.562   3.559
10551SOL     OW32551   2.401   1.880   5.750
10551SOL    HW132552   2.402   1.957   5.686
10551SOL    HW232553   2.322   1.888   5.810
10552SOL     OW32554   2.625   1.376   4.641
10552SOL    HW132555   2.651   1.324   4.559
10552SOL    HW232556   2.707   1.401   4.693
10553SOL     OW32557   6.755   5.167   0.758
10553SOL    HW132558   6.805   5.185   0.673
10553SOL    HW232559   6.798   5.217   0.833
10554SOL     OW32560   6.067   5.928   1.897
10554SOL    HW132561   6.042   6.012   1.946
10554SOL    HW232562   6.159   5.900   1.923
10555SOL     OW32563   4.066   3.049   0.891
10555SOL    HW132564   4.027   3.000   0.969
10555SOL    HW232565   4.149   3.002   0.861
10556SOL     OW32566   2.236   1.797   2.892
10556SOL    HW132567   2.313   1.746   2.932
10556SOL    HW232568   2.153   1.775   2.942
10557SOL     OW32569   2.384   4.507   3.488
10557SOL    HW132570   2.426   4.460   3.565
10557SOL    HW232571   2.455   4.544   3.428
10558SOL     OW32572   3.581   5.561   4.838
10558SOL    HW132573   3.522   5.554   4.757
10558SOL    HW232574   3.554   5.493   4.906
10559SOL     OW32575   4.014   6.603   0.336
10559SOL    HW132576   4.084   6.672   0.356
10559SOL    HW232577   4.050   6.512   0.354
10560SOL     OW32578   5.707   7.009   2.268
10560SOL    HW132579   5.745   6.982   2.179
10560SOL    HW232580   5.772   6.985   2.340
10561SOL     OW32581   5.919   4.578   0.201
10561SOL    HW132582   5.855   4.509   0.167
10561SOL    HW232583   5.892   4.668   0.167
10562SOL     OW32584   4.197   6.063   2.848
10562SOL    HW132585   4.149   6.147   2.824
10562SOL    HW232586   4.212   6.061   2.947
10563SOL     OW32587   0.344   0.039   1.908
10563SOL    HW132588   0.348   0.024   2.007
10563SOL    HW232589   0.248   0.048   1.880
10564SOL     OW32590   5.782   4.602   4.203
10564SOL    HW132591   5.819   4.571   4.115
10564SOL    HW232592   5.828   4.687   4.229
10565SOL     OW32593   0.564   0.125   6.305
10565SOL    HW132594   0.563   0.169   6.216
10565SOL    HW232595   0.644   0.064   6.312
10566SOL     OW32596   3.140   3.026   0.470
10566SOL    HW132597   3.100   3.010   0.561
10566SOL    HW232598   3.070   3.011   0.400
10567SOL     OW32599   1.355   2.473   6.319
10567SOL    HW132600   1.371   2.516   6.408
10567SOL    HW232601   1.404   2.386   6.315
10568SOL     OW32602   4.837   2.550   5.756
10568SOL    HW132603   4.776   2.489   5.807
10568SOL    HW232604   4.858   2.631   5.812
10569SOL     OW32605   6.021   6.666   0.484
10569SOL    HW132606   6.104   6.621   0.517
10569SOL    HW232607   6.043   6.760   0.457
10570SOL     OW32608   1.061   4.662   3.310
10570SOL    HW132609   0.990   4.721   3.272
10570SOL    HW232610   1.020   4.597   3.374
10571SOL     OW32611   6.411   4.631   6.155
10571SOL    HW132612   6.418   4.531   6.156
10571SOL    HW232613   6.343   4.660   6.222
10572SOL     OW32614   5.840   4.314   0.833
10572SOL    HW132615   5.891   4.232   0.861
10572SOL    HW232616   5.852   4.329   0.735
10573SOL     OW32617   5.747   1.917   3.235
10573SOL    HW132618   5.687   1.966   3.298
10573SOL    HW232619   5.838   1.958   3.237
10574SOL     OW32620   0.025   2.607   3.147
10574SOL    HW132621   0.080   2.607   3.231
10574SOL    HW232622   6.952   2.621   3.169
10575SOL     OW32623   6.274   0.180   1.633
10575SOL    HW132624   6.200   0.187   1.566
10575SOL    HW232625   6.343   0.117   1.599
10576SOL     OW32626   1.193   4.253   4.402
10576SOL    HW132627   1.258   4.323   4.373
10576SOL    HW232628   1.174   4.264   4.500
10577SOL     OW32629   4.086   4.612   0.564
10577SOL    HW132630   4.044   4.694   0.524
10577SOL    HW232631   4.034   4.583   0.644
10578SOL     OW32632   0.199   3.092   4.472
10578SOL    HW132633   0.128   3.120   4.536
10578SOL    HW232634   0.213   3.163   4.403
10579SOL     OW32635   0.783   3.660   6.622
10579SOL    HW132636   0.799   3.595   6.548
10579SOL    HW232637   0.851   3.733   6.617
10580SOL     OW32638   6.352   6.544   0.225
10580SOL    HW132639   6.439   6.531   0.177
10580SOL    HW232640   6.340   6.642   0.244
10581SOL     OW32641   5.277   6.962   3.025
10581SOL    HW132642   5.333   6.965   3.108
10581SOL    HW232643   5.337   6.964   2.944
10582SOL     OW32644   5.385   4.245   6.205
10582SOL    HW132645   5.447   4.172   6.236
10582SOL    HW232646   5.403   4.266   6.109
10583SOL     OW32647   3.223   1.327   5.102
10583SOL    HW132648   3.160   1.336   5.180
10583SOL    HW232649   3.310   1.290   5.135
10584SOL     OW32650   1.192   6.947   4.823
10584SOL    HW132651   1.210   6.927   4.919
10584SOL    HW232652   1.262   6.904   4.766
10585SOL     OW32653   1.042   6.783   5.248
10585SOL    HW132654   0.961   6.831   5.214
10585SOL    HW232655   1.045   6.791   5.348
10586SOL     OW32656   4.288   4.179   5.342
10586SOL    HW132657   4.213   4.114   5.338
10586SOL    HW232658   4.289   4.235   5.259
10587SOL     OW32659   2.502   5.034   5.244
10587SOL    HW132660   2.513   4.936   5.258
10587SOL    HW232661   2.430   5.050   5.176
10588SOL     OW32662   1.049   3.848   4.253
10588SOL    HW132663   1.013   3.918   4.314
10588SOL    HW232664   0.981   3.825   4.184
10589SOL     OW32665   5.245   5.999   3.783
10589SOL    HW132666   5.184   6.028   3.857
10589SOL    HW232667   5.215   5.909   3.750
10590SOL     OW32668   0.893   4.987   2.793
10590SOL    HW132669   0.953   5.030   2.725
10590SOL    HW232670   0.832   4.923   2.748
10591SOL     OW32671   6.940   2.438   1.576
10591SOL    HW132672   6.880   2.409   1.651
10591SOL    HW232673   7.010   2.369   1.560
10592SOL     OW32674   6.441   2.034   4.923
10592SOL    HW132675   6.470   2.120   4.880
10592SOL    HW232676   6.351   2.046   4.965
10593SOL     OW32677   3.326   5.231   3.067
10593SOL    HW132678   3.313   5.272   2.976
10593SOL    HW232679   3.248   5.174   3.090
10594SOL     OW32680   2.716   6.547   3.885
10594SOL    HW132681   2.641   6.605   3.917
10594SOL    HW232682   2.678   6.465   3.842
10595SOL     OW32683   5.387   6.531   0.262
10595SOL    HW132684   5.417   6.463   0.194
10595SOL    HW232685   5.365   6.617   0.216
10596SOL     OW32686   5.072   2.885   0.153
10596SOL    HW132687   5.154   2.854   0.104
10596SOL    HW232688   5.083   2.981   0.180
10597SOL     OW32689   2.598   0.738   5.122
10597SOL    HW132690   2.622   0.664   5.185
10597SOL    HW232691   2.640   0.722   5.033
10598SOL     OW32692   2.675   1.556   6.392
10598SOL    HW132693   2.632   1.468   6.372
10598SOL    HW232694   2.610   1.614   6.442
10599SOL     OW32695   6.926   2.151   6.473
10599SOL    HW132696   6.828   2.167   6.477
10599SOL    HW232697   6.963   2.147   6.566
10600SOL     OW32698   2.616   2.332   1.213
10600SOL    HW132699   2.571   2.361   1.297
10600SOL    HW232700   2.680   2.403   1.183
10601SOL     OW32701   1.337   0.087   6.000
10601SOL    HW132702   1.239   0.103   5.989
10601SOL    HW232703   1.369   0.134   6.082
10602SOL     OW32704   7.004   0.332   1.452
10602SOL    HW132705   6.944   0.305   1.527
10602SOL    HW232706   6.967   0.413   1.407
10603SOL     OW32707   5.246   0.807   2.986
10603SOL    HW132708   5.269   0.903   2.970
10603SOL    HW232709   5.147   0.795   2.984
10604SOL     OW32710   5.299   6.660   4.768
10604SOL    HW132711   5.391   6.623   4.783
10604SOL    HW232712   5.295   6.753   4.804
10605SOL     OW32713   2.374   2.208   1.119
10605SOL    HW132714   2.314   2.245   1.049
10605SOL    HW232715   2.458   2.262   1.123
10606SOL     OW32716   6.352   0.591   0.115
10606SOL    HW132717   6.394   0.500   0.107
10606SOL    HW232718   6.257   0.581   0.144
10607SOL     OW32719   2.916   4.999   6.481
10607SOL    HW132720   2.850   5.071   6.503
10607SOL    HW232721   3.000   5.041   6.446
10608SOL     OW32722   5.812   4.153   3.316
10608SOL    HW132723   5.761   4.082   3.266
10608SOL    HW232724   5.897   4.114   3.351
10609SOL     OW32725   4.338   1.487   6.636
10609SOL    HW132726   4.286   1.507   6.553
10609SOL    HW232727   4.436   1.491   6.617
10610SOL     OW32728   0.639   0.828   3.563
10610SOL    HW132729   0.644   0.874   3.474
10610SOL    HW232730   0.704   0.871   3.626
10611SOL     OW32731   3.909   5.574   4.386
10611SOL    HW132732   3.856   5.596   4.468
10611SOL    HW232733   3.885   5.638   4.313
10612SOL     OW32734   6.188   2.064   3.511
10612SOL    HW132735   6.230   2.016   3.589
10612SOL    HW232736   6.151   2.152   3.541
10613SOL     OW32737   4.553   5.986   4.719
10613SOL    HW132738   4.490   6.063   4.731
10613SOL    HW232739   4.647   6.017   4.733
10614SOL     OW32740   3.779   1.141   5.785
10614SOL    HW132741   3.699   1.084   5.804
10614SOL    HW232742   3.815   1.178   5.870
10615SOL     OW32743   1.339   1.585   5.673
10615SOL    HW132744   1.385   1.526   5.607
10615SOL    HW232745   1.305   1.667   5.627
10616SOL     OW32746   2.467   6.568   0.300
10616SOL    HW132747   2.484   6.471   0.320
10616SOL    HW232748   2.369   6.585   0.297
10617SOL     OW32749   2.393   3.373   1.468
10617SOL    HW132750   2.382   3.307   1.542
10617SOL    HW232751   2.312   3.370   1.409
10618SOL     OW32752   1.514   4.971   3.822
10618SOL    HW132753   1.416   4.992   3.824
10618SOL    HW232754   1.566   5.057   3.825
10619SOL     OW32755   2.016   2.286   2.394
10619SOL    HW132756   2.116   2.283   2.389
10619SOL    HW232757   1.979   2.193   2.391
10620SOL     OW32758   3.035   1.207   6.134
10620SOL    HW132759   3.072   1.191   6.226
10620SOL    HW232760   3.008   1.303   6.125
10621SOL     OW32761   0.286   3.638   3.474
10621SOL    HW132762   0.321   3.551   3.511
10621SOL    HW232763   0.361   3.687   3.430
10622SOL     OW32764   4.229   2.241   7.022
10622SOL    HW132765   4.261   2.285   6.939
10622SOL    HW232766   4.143   2.193   7.004
10623SOL     OW32767   5.043   6.505   6.133
10623SOL    HW132768   5.013   6.451   6.211
10623SOL    HW232769   4.966   6.557   6.096
10624SOL     OW32770   0.224   1.842   6.778
10624SOL    HW132771   0.288   1.842   6.701
10624SOL    HW232772   0.267   1.801   6.858
10625SOL     OW32773   5.578   4.713   0.121
10625SOL    HW132774   5.626   4.628   0.146
10625SOL    HW232775   5.533   4.750   0.202
10626SOL     OW32776   5.359   3.243   1.087
10626SOL    HW132777   5.409   3.268   1.171
10626SOL    HW232778   5.409   3.171   1.040
10627SOL     OW32779   6.084   5.460   5.962
10627SOL    HW132780   6.166   5.422   5.920
10627SOL    HW232781   6.017   5.387   5.976
10628SOL     OW32782   3.846   6.625   0.877
10628SOL    HW132783   3.808   6.598   0.966
10628SOL    HW232784   3.772   6.659   0.818
10629SOL     OW32785   3.284   5.441   4.334
10629SOL    HW132786   3.220   5.501   4.382
10629SOL    HW232787   3.319   5.489   4.253
10630SOL     OW32788   3.718   1.073   2.253
10630SOL    HW132789   3.635   1.097   2.303
10630SOL    HW232790   3.783   1.148   2.258
10631SOL     OW32791   4.137   5.996   6.872
10631SOL    HW132792   4.078   5.959   6.801
10631SOL    HW232793   4.103   6.086   6.900
10632SOL     OW32794   4.575   5.967   3.478
10632SOL    HW132795   4.545   5.950   3.384
10632SOL    HW232796   4.601   5.881   3.521
10633SOL     OW32797   1.381   3.108   1.415
10633SOL    HW132798   1.358   3.014   1.391
10633SOL    HW232799   1.408   3.112   1.511
10634SOL     OW32800   0.595   3.459   6.763
10634SOL    HW132801   0.523   3.410   6.715
10634SOL    HW232802   0.633   3.530   6.703
10635SOL     OW32803   2.415   4.281   6.023
10635SOL    HW132804   2.437   4.308   5.929
10635SOL    HW232805   2.496   4.294   6.081
10636SOL     OW32806   6.422   2.453   6.283
10636SOL    HW132807   6.357   2.377   6.280
10636SOL    HW232808   6.511   2.423   6.250
10637SOL     OW32809   3.177   0.838   7.012
10637SOL    HW132810   3.107   0.873   0.051
10637SOL    HW232811   3.160   0.873   6.920
10638SOL     OW32812   6.891   5.888   2.035
10638SOL    HW132813   6.898   5.987   2.047
10638SOL    HW232814   6.863   5.868   1.941
10639SOL     OW32815   1.492   4.378   1.614
10639SOL    HW132816   1.574   4.342   1.571
10639SOL    HW232817   1.412   4.357   1.558
10640SOL     OW32818   4.359   7.001   3.502
10640SOL    HW132819   4.339   7.021   3.598
10640SOL    HW232820   4.287   0.015   3.445
10641SOL     OW32821   1.441   0.974   3.750
10641SOL    HW132822   1.499   0.917   3.692
10641SOL    HW232823   1.408   1.053   3.698
10642SOL     OW32824   5.421   2.050   6.404
10642SOL    HW132825   5.424   2.093   6.314
10642SOL    HW232826   5.469   2.106   6.471
10643SOL     OW32827   1.739   4.846   5.446
10643SOL    HW132828   1.755   4.753   5.478
10643SOL    HW232829   1.671   4.890   5.505
10644SOL     OW32830   6.378   2.497   2.885
10644SOL    HW132831   6.393   2.533   2.792
10644SOL    HW232832   6.318   2.417   2.880
10645SOL     OW32833   2.691   2.351   3.543
10645SOL    HW132834   2.640   2.402   3.474
10645SOL    HW232835   2.657   2.375   3.634
10646SOL     OW32836   5.239   0.843   3.781
10646SOL    HW132837   5.245   0.865   3.684
10646SOL    HW232838   5.284   0.916   3.834
10647SOL     OW32839   3.638   4.950   4.749
10647SOL    HW132840   3.578   4.915   4.677
10647SOL    HW232841   3.595   5.028   4.793
10648SOL     OW32842   5.073   5.239   5.379
10648SOL    HW132843   5.048   5.229   5.283
10648SOL    HW232844   5.172   5.228   5.388
10649SOL     OW32845   6.243   3.250   3.022
10649SOL    HW132846   6.304   3.216   2.950
10649SOL    HW232847   6.179   3.178   3.049
10650SOL     OW32848   0.530   0.259   3.834
10650SOL    HW132849   0.477   0.177   3.813
10650SOL    HW232850   0.572   0.294   3.750
10651SOL     OW32851   4.140   6.338   6.047
10651SOL    HW132852   4.053   6.332   5.998
10651SOL    HW232853   4.135   6.283   6.131
10652SOL     OW32854   1.878   0.357   6.829
10652SOL    HW132855   1.852   0.315   6.917
10652SOL    HW232856   1.796   0.371   6.774
10653SOL     OW32857   4.232   5.608   3.919
10653SOL    HW132858   4.286   5.648   3.844
10653SOL    HW232859   4.291   5.551   3.976
10654SOL     OW32860   5.579   1.766   4.261
10654SOL    HW132861   5.553   1.684   4.313
10654SOL    HW232862   5.669   1.797   4.291
10655SOL     OW32863   0.680   4.967   1.189
10655SOL    HW132864   0.653   4.881   1.145
10655SOL    HW232865   0.725   5.026   1.123
10656SOL     OW32866   6.178   2.002   3.084
10656SOL    HW132867   6.151   2.007   3.180
10656SOL    HW232868   6.104   2.036   3.026
10657SOL     OW32869   5.254   6.448   4.392
10657SOL    HW132870   5.193   6.385   4.345
10657SOL    HW232871   5.254   6.427   4.490
10658SOL     OW32872   0.590   3.035   5.411
10658SOL    HW132873   0.610   2.963   5.477
10658SOL    HW232874   0.667   3.043   5.347
10659SOL     OW32875   1.016   5.329   0.660
10659SOL    HW132876   1.062   5.249   0.698
10659SOL    HW232877   1.071   5.366   0.585
10660SOL     OW32878   6.119   3.090   5.372
10660SOL    HW132879   6.083   3.172   5.417
10660SOL    HW232880   6.079   3.081   5.281
10661SOL     OW32881   1.653   4.825   5.932
10661SOL    HW132882   1.572   4.771   5.908
10661SOL    HW232883   1.632   4.922   5.920
10662SOL     OW32884   2.459   1.159   2.830
10662SOL    HW132885   2.484   1.251   2.857
10662SOL    HW232886   2.372   1.133   2.874
10663SOL     OW32887   1.739   1.742   3.928
10663SOL    HW132888   1.821   1.741   3.872
10663SOL    HW232889   1.764   1.738   4.025
10664SOL     OW32890   1.475   5.278   4.373
10664SOL    HW132891   1.415   5.222   4.317
10664SOL    HW232892   1.508   5.357   4.320
10665SOL     OW32893   1.917   2.736   5.980
10665SOL    HW132894   1.955   2.745   5.888
10665SOL    HW232895   1.820   2.714   5.975
10666SOL     OW32896   3.398   3.655   1.991
10666SOL    HW132897   3.406   3.737   1.935
10666SOL    HW232898   3.370   3.578   1.933
10667SOL     OW32899   5.650   2.048   3.456
10667SOL    HW132900   5.553   2.061   3.472
10667SOL    HW232901   5.695   2.019   3.541
10668SOL     OW32902   3.075   2.459   5.407
10668SOL    HW132903   3.072   2.558   5.416
10668SOL    HW232904   3.134   2.434   5.331
10669SOL     OW32905   6.329   1.449   0.845
10669SOL    HW132906   6.295   1.452   0.938
10669SOL    HW232907   6.412   1.394   0.841
10670SOL     OW32908   5.038   3.300   4.504
10670SOL    HW132909   5.136   3.318   4.509
10670SOL    HW232910   4.997   3.357   4.433
10671SOL     OW32911   1.317   3.387   4.054
10671SOL    HW132912   1.330   3.323   3.978
10671SOL    HW232913   1.342   3.342   4.140
10672SOL     OW32914   6.240   3.339   1.320
10672SOL    HW132915   6.272   3.433   1.313
10672SOL    HW232916   6.224   3.316   1.416
10673SOL     OW32917   2.286   1.004   1.083
10673SOL    HW132918   2.353   1.030   1.152
10673SOL    HW232919   2.327   0.941   1.017
10674SOL     OW32920   3.588   4.164   4.243
10674SOL    HW132921   3.528   4.111   4.303
10674SOL    HW232922   3.645   4.224   4.299
10675SOL     OW32923   3.958   0.030   5.558
10675SOL    HW132924   4.036   0.083   5.592
10675SOL    HW232925   3.982   7.013   5.470
10676SOL     OW32926   2.244   6.085   5.672
10676SOL    HW132927   2.171   6.063   5.738
10676SOL    HW232928   2.316   6.137   5.719
10677SOL     OW32929   0.156   1.379   0.957
10677SOL    HW132930   0.151   1.292   0.909
10677SOL    HW232931   0.193   1.449   0.895
10678SOL     OW32932   4.303   5.344   3.710
10678SOL    HW132933   4.214   5.388   3.723
10678SOL    HW232934   4.299   5.282   3.632
10679SOL     OW32935   3.921   3.479   6.672
10679SOL    HW132936   3.991   3.408   6.675
10679SOL    HW232937   3.871   3.478   6.758
10680SOL     OW32938   4.199   1.157   3.873
10680SOL    HW132939   4.248   1.071   3.888
10680SOL    HW232940   4.260   1.223   3.828
10681SOL     OW32941   1.065   3.235   6.077
10681SOL    HW132942   1.020   3.147   6.065
10681SOL    HW232943   1.049   3.268   6.171
10682SOL     OW32944   5.857   2.940   6.109
10682SOL    HW132945   5.919   2.949   6.031
10682SOL    HW232946   5.910   2.938   6.193
10683SOL     OW32947   3.477   0.010   3.564
10683SOL    HW132948   3.393   7.005   3.610
10683SOL    HW232949   3.455   0.080   3.495
10684SOL     OW32950   4.438   4.666   1.504
10684SOL    HW132951   4.447   4.600   1.579
10684SOL    HW232952   4.475   4.754   1.532
10685SOL     OW32953   0.977   6.030   1.626
10685SOL    HW132954   0.927   6.003   1.544
10685SOL    HW232955   1.029   5.952   1.661
10686SOL     OW32956   2.465   3.211   6.993
10686SOL    HW132957   2.448   3.224   6.896
10686SOL    HW232958   2.436   3.119   7.020
10687SOL     OW32959   0.772   4.371   3.326
10687SOL    HW132960   0.708   4.304   3.365
10687SOL    HW232961   0.823   4.415   3.400
10688SOL     OW32962   5.148   1.575   2.198
10688SOL    HW132963   5.137   1.477   2.215
10688SOL    HW232964   5.224   1.610   2.253
10689SOL     OW32965   6.766   6.699   2.356
10689SOL    HW132966   6.858   6.684   2.392
10689SOL    HW232967   6.698   6.668   2.423
10690SOL     OW32968   6.999   6.437   3.585
10690SOL    HW132969   6.984   6.362   3.649
10690SOL    HW232970   6.921   6.500   3.587
10691SOL     OW32971   3.056   1.481   2.666
10691SOL    HW132972   2.989   1.424   2.619
10691SOL    HW232973   3.106   1.425   2.733
10692SOL     OW32974   2.718   1.019   4.389
10692SOL    HW132975   2.802   1.073   4.384
10692SOL    HW232976   2.648   1.060   4.331
10693SOL     OW32977   1.495   5.496   0.865
10693SOL    HW132978   1.582   5.464   0.903
10693SOL    HW232979   1.493   5.596   0.866
10694SOL     OW32980   4.835   6.499   5.623
10694SOL    HW132981   4.786   6.553   5.691
10694SOL    HW232982   4.917   6.460   5.665
10695SOL     OW32983   6.896   3.600   1.387
10695SOL    HW132984   6.820   3.565   1.442
10695SOL    HW232985   6.913   3.537   1.311
10696SOL     OW32986   0.104   4.388   4.828
10696SOL    HW132987   0.094   4.486   4.809
10696SOL    HW232988   0.014   4.347   4.836
10697SOL     OW32989   1.424   5.314   4.958
10697SOL    HW132990   1.398   5.248   4.888
10697SOL    HW232991   1.521   5.337   4.949
10698SOL     OW32992   4.406   3.385   0.156
10698SOL    HW132993   4.363   3.406   0.069
10698SOL    HW232994   4.462   3.462   0.186
10699SOL     OW32995   3.292   4.182   0.755
10699SOL    HW132996   3.382   4.218   0.729
10699SOL    HW232997   3.304   4.106   0.818
10700SOL     OW32998   5.317   0.142   0.409
10700SOL    HW132999   5.354   0.235   0.406
10700SOL    HW233000   5.288   0.121   0.503
10701SOL     OW33001   2.960   0.242   6.177
10701SOL    HW133002   2.962   0.226   6.275
10701SOL    HW233003   2.950   0.340   6.159
10702SOL     OW33004   4.824   2.944   2.270
10702SOL    HW133005   4.807   2.962   2.173
10702SOL    HW233006   4.767   2.868   2.301
10703SOL     OW33007   1.758   2.476   6.156
10703SOL    HW133008   1.685   2.522   6.208
10703SOL    HW233009   1.747   2.496   6.059
10704SOL     OW33010   6.920   6.391   2.539
10704SOL    HW133011   6.969   6.309   2.569
10704SOL    HW233012   6.839   6.404   2.596
10705SOL     OW33013   5.577   4.785   1.316
10705SOL    HW133014   5.659   4.727   1.306
10705SOL    HW233015   5.591   4.871   1.265
10706SOL     OW33016   5.068   0.347   2.228
10706SOL    HW133017   5.147   0.405   2.208
10706SOL    HW233018   5.072   0.265   2.171
10707SOL     OW33019   6.076   6.785   4.201
10707SOL    HW133020   6.073   6.798   4.300
10707SOL    HW233021   6.010   6.847   4.158
10708SOL     OW33022   4.750   2.700   2.720
10708SOL    HW133023   4.770   2.776   2.783
10708SOL    HW233024   4.706   2.626   2.770
10709SOL     OW33025   5.972   5.496   4.063
10709SOL    HW133026   5.981   5.397   4.072
10709SOL    HW233027   6.040   5.541   4.121
10710SOL     OW33028   4.929   1.004   3.058
10710SOL    HW133029   4.832   0.989   3.040
10710SOL    HW233030   4.951   0.971   3.150
10711SOL     OW33031   3.565   6.564   2.225
10711SOL    HW133032   3.618   6.591   2.305
10711SOL    HW233033   3.577   6.631   2.152
10712SOL     OW33034   3.338   0.118   2.997
10712SOL    HW133035   3.401   0.147   3.070
10712SOL    HW233036   3.391   0.095   2.915
10713SOL     OW33037   1.093   3.661   0.710
10713SOL    HW133038   1.175   3.688   0.761
10713SOL    HW233039   1.038   3.598   0.764
10714SOL     OW33040   3.703   2.961   4.060
10714SOL    HW133041   3.756   2.925   3.984
10714SOL    HW233042   3.764   3.004   4.127
10715SOL     OW33043   5.554   0.526   2.352
10715SOL    HW133044   5.484   0.515   2.423
10715SOL    HW233045   5.536   0.462   2.278
10716SOL     OW33046   6.737   2.388   2.968
10716SOL    HW133047   6.695   2.443   3.041
10716SOL    HW233048   6.666   2.349   2.911
10717SOL     OW33049   1.109   2.744   0.720
10717SOL    HW133050   1.148   2.788   0.639
10717SOL    HW233051   1.183   2.712   0.779
10718SOL     OW33052   0.639   4.645   6.260
10718SOL    HW133053   0.556   4.698   6.239
10718SOL    HW233054   0.681   4.682   6.343
10719SOL     OW33055   6.364   5.894   3.681
10719SOL    HW133056   6.430   5.828   3.645
10719SOL    HW233057   6.411   5.980   3.701
10720SOL     OW33058   5.773   5.460   4.308
10720SOL    HW133059   5.823   5.519   4.371
10720SOL    HW233060   5.770   5.502   4.217
10721SOL     OW33061   4.937   4.049   5.216
10721SOL    HW133062   5.020   3.995   5.230
10721SOL    HW233063   4.917   4.101   5.299
10722SOL     OW33064   6.400   4.022   6.434
10722SOL    HW133065   6.493   4.013   6.399
10722SOL    HW233066   6.358   4.105   6.398
10723SOL     OW33067   6.977   1.216   0.035
10723SOL    HW133068   7.020   1.291   0.085
10723SOL    HW233069   6.953   1.143   0.100
10724SOL     OW33070   0.407   6.732   0.429
10724SOL    HW133071   0.370   6.825   0.436
10724SOL    HW233072   0.450   6.707   0.516
10725SOL     OW33073   2.685   5.215   5.310
10725SOL    HW133074   2.651   5.303   5.343
10725SOL    HW233075   2.610   5.149   5.306
10726SOL     OW33076   4.891   0.887   3.840
10726SOL    HW133077   4.900   0.961   3.773
10726SOL    HW233078   4.975   0.833   3.842
10727SOL     OW33079   1.267   5.649   6.059
10727SOL    HW133080   1.191   5.714   6.061
10727SOL    HW233081   1.324   5.667   5.978
10728SOL     OW33082   6.849   5.237   0.506
10728SOL    HW133083   6.781   5.285   0.451
10728SOL    HW233084   6.933   5.291   0.509
10729SOL     OW33085   6.047   2.300   1.672
10729SOL    HW133086   6.112   2.332   1.603
10729SOL    HW233087   5.971   2.364   1.678
10730SOL     OW33088   3.728   0.683   1.546
10730SOL    HW133089   3.787   0.762   1.564
10730SOL    HW233090   3.719   0.628   1.629
10731SOL     OW33091   4.189   1.107   0.860
10731SOL    HW133092   4.185   1.187   0.800
10731SOL    HW233093   4.269   1.114   0.920
10732SOL     OW33094   0.180   5.026   5.274
10732SOL    HW133095   0.262   5.057   5.323
10732SOL    HW233096   0.118   5.103   5.261
10733SOL     OW33097   5.616   1.504   6.447
10733SOL    HW133098   5.519   1.490   6.428
10733SOL    HW233099   5.632   1.600   6.470
10734SOL     OW33100   0.867   1.713   1.092
10734SOL    HW133101   0.920   1.747   1.170
10734SOL    HW233102   0.771   1.706   1.118
10735SOL     OW33103   0.133   2.729   1.759
10735SOL    HW133104   0.137   2.735   1.659
10735SOL    HW233105   0.156   2.818   1.798
10736SOL     OW33106   2.110   0.131   3.921
10736SOL    HW133107   2.047   0.065   3.879
10736SOL    HW233108   2.202   0.115   3.887
10737SOL     OW33109   0.521   1.802   1.631
10737SOL    HW133110   0.453   1.732   1.653
10737SOL    HW233111   0.510   1.879   1.693
10738SOL     OW33112   3.625   5.993   2.827
10738SOL    HW133113   3.547   5.955   2.778
10738SOL    HW233114   3.647   6.084   2.790
10739SOL     OW33115   1.348   2.550   1.256
10739SOL    HW133116   1.321   2.568   1.161
10739SOL    HW233117   1.377   2.455   1.265
10740SOL     OW33118   5.799   5.058   5.076
10740SOL    HW133119   5.723   5.055   5.011
10740SOL    HW233120   5.813   5.152   5.107
10741SOL     OW33121   4.376   0.735   2.421
10741SOL    HW133122   4.412   0.788   2.498
10741SOL    HW233123   4.301   0.676   2.452
10742SOL     OW33124   5.659   5.424   1.172
10742SOL    HW133125   5.606   5.508   1.170
10742SOL    HW233126   5.754   5.444   1.148
10743SOL     OW33127   2.034   2.169   4.169
10743SOL    HW133128   1.936   2.189   4.169
10743SOL    HW233129   2.085   2.254   4.153
10744SOL     OW33130   3.013   1.642   1.192
10744SOL    HW133131   3.058   1.606   1.274
10744SOL    HW233132   2.985   1.737   1.209
10745SOL     OW33133   0.161   5.372   5.798
10745SOL    HW133134   0.096   5.421   5.856
10745SOL    HW233135   0.176   5.280   5.834
10746SOL     OW33136   1.394   3.822   5.924
10746SOL    HW133137   1.460   3.797   5.854
10746SOL    HW233138   1.346   3.740   5.955
10747SOL     OW33139   3.120   0.912   4.474
10747SOL    HW133140   3.162   0.918   4.384
10747SOL    HW233141   3.022   0.928   4.466
10748SOL     OW33142   6.427   1.396   2.465
10748SOL    HW133143   6.445   1.320   2.403
10748SOL    HW233144   6.358   1.369   2.533
10749SOL     OW33145   1.049   6.226   5.515
10749SOL    HW133146   1.062   6.143   5.461
10749SOL    HW233147   1.114   6.226   5.591
10750SOL     OW33148   3.985   0.293   5.096
10750SOL    HW133149   4.016   0.388   5.084
10750SOL    HW233150   3.903   0.292   5.153
10751SOL     OW33151   2.187   4.464   4.150
10751SOL    HW133152   2.268   4.523   4.152
10751SOL    HW233153   2.204   4.383   4.206
10752SOL     OW33154   5.282   4.758   5.414
10752SOL    HW133155   5.309   4.663   5.396
10752SOL    HW233156   5.199   4.759   5.470
10753SOL     OW33157   0.572   3.955   4.366
10753SOL    HW133158   0.549   3.966   4.269
10753SOL    HW233159   0.566   3.858   4.390
10754SOL     OW33160   1.064   0.045   3.130
10754SOL    HW133161   0.998   6.998   3.159
10754SOL    HW233162   1.147   0.000   3.097
10755SOL     OW33163   6.878   6.633   1.877
10755SOL    HW133164   6.899   6.697   1.803
10755SOL    HW233165   6.854   6.683   1.960
10756SOL     OW33166   6.960   5.709   5.467
10756SOL    HW133167   0.030   5.694   5.499
10756SOL    HW233168   6.962   5.759   5.381
10757SOL     OW33169   2.109   2.766   0.156
10757SOL    HW133170   2.047   2.724   0.089
10757SOL    HW233171   2.058   2.831   0.212
10758SOL     OW33172   0.536   6.166   3.350
10758SOL    HW133173   0.494   6.178   3.261
10758SOL    HW233174   0.505   6.080   3.391
10759SOL     OW33175   0.963   3.196   0.577
10759SOL    HW133176   0.969   3.136   0.656
10759SOL    HW233177   0.871   3.235   0.572
10760SOL     OW33178   5.671   1.349   3.731
10760SOL    HW133179   5.757   1.383   3.769
10760SOL    HW233180   5.628   1.421   3.676
10761SOL     OW33181   1.886   5.301   6.244
10761SOL    HW133182   1.983   5.288   6.224
10761SOL    HW233183   1.840   5.212   6.244
10762SOL     OW33184   3.045   0.109   5.382
10762SOL    HW133185   2.958   0.088   5.427
10762SOL    HW233186   3.101   0.166   5.442
10763SOL     OW33187   3.411   0.284   3.457
10763SOL    HW133188   3.316   0.313   3.445
10763SOL    HW233189   3.464   0.311   3.376
10764SOL     OW33190   5.152   1.245   4.541
10764SOL    HW133191   5.198   1.334   4.544
10764SOL    HW233192   5.101   1.232   4.626
10765SOL     OW33193   5.087   2.988   0.961
10765SOL    HW133194   5.086   2.889   0.948
10765SOL    HW233195   5.058   3.033   0.877
10766SOL     OW33196   3.919   4.336   0.631
10766SOL    HW133197   3.857   4.349   0.553
10766SOL    HW233198   3.906   4.243   0.667
10767SOL     OW33199   2.526   0.416   0.625
10767SOL    HW133200   2.604   0.464   0.583
10767SOL    HW233201   2.512   0.452   0.718
10768SOL     OW33202   6.588   4.934   1.095
10768SOL    HW133203   6.673   4.968   1.055
10768SOL    HW233204   6.610   4.869   1.169
10769SOL     OW33205   1.746   3.402   5.864
10769SOL    HW133206   1.759   3.497   5.892
10769SOL    HW233207   1.825   3.372   5.810
10770SOL     OW33208   4.890   5.278   2.991
10770SOL    HW133209   4.855   5.254   2.901
10770SOL    HW233210   4.928   5.371   2.988
10771SOL     OW33211   4.038   6.800   3.956
10771SOL    HW133212   4.025   6.896   3.980
10771SOL    HW233213   4.037   6.744   4.039
10772SOL     OW33214   6.990   6.046   3.810
10772SOL    HW133215   7.008   6.020   3.715
10772SOL    HW233216   0.039   6.011   3.869
10773SOL     OW33217   6.044   4.471   5.237
10773SOL    HW133218   5.971   4.444   5.299
10773SOL    HW233219   6.009   4.537   5.170
10774SOL     OW33220   1.683   1.071   4.165
10774SOL    HW133221   1.667   0.974   4.183
10774SOL    HW233222   1.609   1.125   4.205
10775SOL     OW33223   0.806   4.379   1.885
10775SOL    HW133224   0.859   4.303   1.846
10775SOL    HW233225   0.835   4.464   1.842
10776SOL     OW33226   1.940   1.144   5.900
10776SOL    HW133227   1.964   1.198   5.820
10776SOL    HW233228   1.907   1.054   5.871
10777SOL     OW33229   3.702   4.976   1.254
10777SOL    HW133230   3.801   4.972   1.269
10777SOL    HW233231   3.684   5.020   1.166
10778SOL     OW33232   5.483   6.388   3.944
10778SOL    HW133233   5.411   6.444   3.985
10778SOL    HW233234   5.462   6.292   3.959
10779SOL     OW33235   6.105   2.818   3.144
10779SOL    HW133236   6.075   2.903   3.100
10779SOL    HW233237   6.038   2.789   3.212
10780SOL     OW33238   1.339   0.754   3.913
10780SOL    HW133239   1.364   0.838   3.865
10780SOL    HW233240   1.325   0.775   4.010
10781SOL     OW33241   3.996   0.274   3.951
10781SOL    HW133242   3.955   0.274   3.860
10781SOL    HW233243   3.941   0.330   4.012
10782SOL     OW33244   6.338   6.792   4.121
10782SOL    HW133245   6.238   6.783   4.127
10782SOL    HW233246   6.365   6.803   4.026
10783SOL     OW33247   0.278   2.680   2.812
10783SOL    HW133248   0.363   2.733   2.815
10783SOL    HW233249   0.204   2.735   2.850
10784SOL     OW33250   2.769   1.292   3.733
10784SOL    HW133251   2.740   1.268   3.640
10784SOL    HW233252   2.692   1.333   3.782
10785SOL     OW33253   0.860   3.999   0.078
10785SOL    HW133254   0.903   4.054   0.006
10785SOL    HW233255   0.821   3.916   0.038
10786SOL     OW33256   5.906   5.736   3.287
10786SOL    HW133257   5.835   5.684   3.240
10786SOL    HW233258   5.967   5.778   3.220
10787SOL     OW33259   0.375   0.584   5.617
10787SOL    HW133260   0.374   0.683   5.634
10787SOL    HW233261   0.309   0.562   5.545
10788SOL     OW33262   0.454   3.631   7.012
10788SOL    HW133263   0.382   3.624   6.944
10788SOL    HW233264   0.509   3.712   6.994
10789SOL     OW33265   6.870   2.500   0.149
10789SOL    HW133266   6.944   2.549   0.193
10789SOL    HW233267   6.853   2.413   0.196
10790SOL     OW33268   0.521   6.609   1.609
10790SOL    HW133269   0.473   6.580   1.692
10790SOL    HW233270   0.489   6.699   1.581
10791SOL     OW33271   6.453   6.225   1.962
10791SOL    HW133272   6.414   6.304   1.913
10791SOL    HW233273   6.525   6.257   2.024
10792SOL     OW33274   3.826   3.685   5.333
10792SOL    HW133275   3.777   3.721   5.412
10792SOL    HW233276   3.874   3.601   5.360
10793SOL     OW33277   5.580   3.404   5.683
10793SOL    HW133278   5.651   3.345   5.721
10793SOL    HW233279   5.490   3.365   5.703
10794SOL     OW33280   3.830   3.707   3.833
10794SOL    HW133281   3.809   3.700   3.930
10794SOL    HW233282   3.907   3.770   3.820
10795SOL     OW33283   1.051   4.303   2.722
10795SOL    HW133284   0.961   4.261   2.709
10795SOL    HW233285   1.044   4.377   2.789
10796SOL     OW33286   0.813   6.038   5.451
10796SOL    HW133287   0.770   6.051   5.361
10796SOL    HW233288   0.860   6.122   5.477
10797SOL     OW33289   4.103   2.738   0.722
10797SOL    HW133290   4.138   2.725   0.815
10797SOL    HW233291   4.180   2.753   0.660
10798SOL     OW33292   1.964   1.427   0.808
10798SOL    HW133293   1.873   1.465   0.795
10798SOL    HW233294   2.014   1.430   0.721
10799SOL     OW33295   3.844   0.439   2.947
10799SOL    HW133296   3.935   0.466   2.979
10799SOL    HW233297   3.775   0.470   3.013
10800SOL     OW33298   1.130   5.890   0.269
10800SOL    HW133299   1.175   5.867   0.182
10800SOL    HW233300   1.199   5.914   0.337
10801SOL     OW33301   1.352   0.807   0.458
10801SOL    HW133302   1.271   0.865   0.460
10801SOL    HW233303   1.352   0.748   0.540
10802SOL     OW33304   6.394   6.749   3.844
10802SOL    HW133305   6.332   6.698   3.786
10802SOL    HW233306   6.489   6.731   3.817
10803SOL     OW33307   1.766   5.470   6.729
10803SOL    HW133308   1.725   5.542   6.786
10803SOL    HW233309   1.842   5.428   6.779
10804SOL     OW33310   0.043   3.079   3.754
10804SOL    HW133311   6.969   3.057   3.750
10804SOL    HW233312   0.079   3.052   3.843
10805SOL     OW33313   5.988   1.018   4.563
10805SOL    HW133314   6.066   0.980   4.513
10805SOL    HW233315   5.931   0.944   4.598
10806SOL     OW33316   2.722   5.409   6.820
10806SOL    HW133317   2.729   5.467   6.901
10806SOL    HW233318   2.812   5.373   6.797
10807SOL     OW33319   2.350   5.928   3.757
10807SOL    HW133320   2.380   5.984   3.680
10807SOL    HW233321   2.261   5.961   3.789
10808SOL     OW33322   6.964   1.917   6.314
10808SOL    HW133323   6.969   1.970   6.399
10808SOL    HW233324   0.033   1.903   6.278
10809SOL     OW33325   2.560   4.731   4.304
10809SOL    HW133326   2.588   4.663   4.237
10809SOL    HW233327   2.630   4.738   4.375
10810SOL     OW33328   0.232   0.299   3.721
10810SOL    HW133329   0.305   0.236   3.746
10810SOL    HW233330   0.272   0.384   3.686
10811SOL     OW33331   4.864   5.324   4.894
10811SOL    HW133332   4.829   5.372   4.813
10811SOL    HW233333   4.959   5.298   4.878
10812SOL     OW33334   6.957   3.137   6.217
10812SOL    HW133335   6.962   3.057   6.277
10812SOL    HW233336   7.015   3.210   6.253
10813SOL     OW33337   0.412   3.718   5.856
10813SOL    HW133338   0.432   3.699   5.760
10813SOL    HW233339   0.489   3.691   5.913
10814SOL     OW33340   1.880   0.365   0.344
10814SOL    HW133341   1.922   0.306   0.414
10814SOL    HW233342   1.784   0.382   0.368
10815SOL     OW33343   5.186   1.497   3.859
10815SOL    HW133344   5.285   1.511   3.854
10815SOL    HW233345   5.140   1.584   3.844
10816SOL     OW33346   3.288   2.996   3.665
10816SOL    HW133347   3.277   3.085   3.711
10816SOL    HW233348   3.218   2.987   3.595
10817SOL     OW33349   2.764   0.356   3.423
10817SOL    HW133350   2.746   0.272   3.371
10817SOL    HW233351   2.863   0.367   3.434
10818SOL     OW33352   4.942   5.363   6.271
10818SOL    HW133353   4.989   5.433   6.217
10818SOL    HW233354   4.860   5.402   6.312
10819SOL     OW33355   0.063   5.501   6.431
10819SOL    HW133356   0.115   5.549   6.502
10819SOL    HW233357   0.049   5.562   6.353
10820SOL     OW33358   1.351   5.371   5.599
10820SOL    HW133359   1.421   5.316   5.553
10820SOL    HW233360   1.371   5.374   5.697
10821SOL     OW33361   4.298   5.295   2.622
10821SOL    HW133362   4.286   5.230   2.697
10821SOL    HW233363   4.375   5.355   2.642
10822SOL     OW33364   5.681   2.534   0.419
10822SOL    HW133365   5.720   2.623   0.396
10822SOL    HW233366   5.689   2.473   0.340
10823SOL     OW33367   0.138   6.924   3.145
10823SOL    HW133368   0.069   6.879   3.088
10823SOL    HW233369   0.098   7.008   3.184
10824SOL     OW33370   1.253   0.735   4.428
10824SOL    HW133371   1.185   0.736   4.501
10824SOL    HW233372   1.271   0.640   4.402
10825SOL     OW33373   1.055   1.933   0.616
10825SOL    HW133374   1.062   1.989   0.698
10825SOL    HW233375   0.959   1.929   0.586
10826SOL     OW33376   1.704   2.128   2.512
10826SOL    HW133377   1.793   2.083   2.505
10826SOL    HW233378   1.647   2.101   2.435
10827SOL     OW33379   6.333   3.660   5.271
10827SOL    HW133380   6.284   3.678   5.357
10827SOL    HW233381   6.293   3.716   5.198
10828SOL     OW33382   6.455   3.484   6.840
10828SOL    HW133383   6.385   3.417   6.817
10828SOL    HW233384   6.412   3.565   6.880
10829SOL     OW33385   4.868   3.328   6.625
10829SOL    HW133386   4.917   3.244   6.649
10829SOL    HW233387   4.882   3.348   6.528
10830SOL     OW33388   4.842   1.394   3.428
10830SOL    HW133389   4.922   1.343   3.398
10830SOL    HW233390   4.809   1.357   3.516
10831SOL     OW33391   4.114   0.826   2.749
10831SOL    HW133392   4.056   0.823   2.830
10831SOL    HW233393   4.138   0.921   2.729
10832SOL     OW33394   6.651   3.298   0.673
10832SOL    HW133395   6.712   3.232   0.715
10832SOL    HW233396   6.627   3.369   0.739
10833SOL     OW33397   0.663   1.448   0.823
10833SOL    HW133398   0.751   1.496   0.812
10833SOL    HW233399   0.590   1.503   0.783
10834SOL     OW33400   6.650   6.619   0.935
10834SOL    HW133401   6.619   6.714   0.932
10834SOL    HW233402   6.603   6.572   1.009
10835SOL     OW33403   5.687   3.380   6.449
10835SOL    HW133404   5.764   3.420   6.399
10835SOL    HW233405   5.633   3.323   6.388
10836SOL     OW33406   0.835   1.547   3.157
10836SOL    HW133407   0.872   1.457   3.134
10836SOL    HW233408   0.797   1.545   3.249
10837SOL     OW33409   6.765   4.567   2.314
10837SOL    HW133410   6.707   4.489   2.291
10837SOL    HW233411   6.855   4.534   2.344
10838SOL     OW33412   5.949   5.678   3.540
10838SOL    HW133413   5.939   5.700   3.443
10838SOL    HW233414   6.027   5.729   3.577
10839SOL     OW33415   4.833   3.572   0.446
10839SOL    HW133416   4.848   3.637   0.372
10839SOL    HW233417   4.822   3.622   0.533
10840SOL     OW33418   2.969   7.019   0.855
10840SOL    HW133419   3.065   6.992   0.845
10840SOL    HW233420   2.961   0.059   0.932
10841SOL     OW33421   1.109   5.278   5.030
10841SOL    HW133422   1.209   5.284   5.021
10841SOL    HW233423   1.069   5.271   4.939
10842SOL     OW33424   4.732   3.976   1.258
10842SOL    HW133425   4.729   4.075   1.249
10842SOL    HW233426   4.664   3.946   1.325
10843SOL     OW33427   1.994   1.676   1.230
10843SOL    HW133428   1.899   1.702   1.214
10843SOL    HW233429   2.015   1.593   1.178
10844SOL     OW33430   1.127   5.549   4.742
10844SOL    HW133431   1.146   5.576   4.836
10844SOL    HW233432   1.102   5.452   4.739
10845SOL     OW33433   4.712   6.139   5.401
10845SOL    HW133434   4.637   6.103   5.345
10845SOL    HW233435   4.799   6.107   5.365
10846SOL     OW33436   5.297   6.514   0.531
10846SOL    HW133437   5.254   6.601   0.554
10846SOL    HW233438   5.314   6.511   0.432
10847SOL     OW33439   1.771   1.658   0.054
10847SOL    HW133440   1.706   1.698   0.118
10847SOL    HW233441   1.777   1.716   6.996
10848SOL     OW33442   1.588   4.242   1.158
10848SOL    HW133443   1.648   4.295   1.099
10848SOL    HW233444   1.587   4.146   1.128
10849SOL     OW33445   3.039   5.558   3.827
10849SOL    HW133446   3.048   5.478   3.768
10849SOL    HW233447   2.950   5.602   3.810
10850SOL     OW33448   4.163   6.172   0.240
10850SOL    HW133449   4.157   6.072   0.249
10850SOL    HW233450   4.070   6.210   0.232
10851SOL     OW33451   2.335   4.281   2.178
10851SOL    HW133452   2.362   4.370   2.215
10851SOL    HW233453   2.358   4.277   2.081
10852SOL     OW33454   2.181   1.908   1.222
10852SOL    HW133455   2.102   1.850   1.242
10852SOL    HW233456   2.151   2.003   1.215
10853SOL     OW33457   2.012   2.302   6.034
10853SOL    HW133458   2.038   2.250   6.115
10853SOL    HW233459   2.012   2.400   6.055
10854SOL     OW33460   4.320   6.098   5.056
10854SOL    HW133461   4.330   6.009   5.102
10854SOL    HW233462   4.407   6.124   5.016
10855SOL     OW33463   3.084   1.554   0.794
10855SOL    HW133464   3.029   1.485   0.841
10855SOL    HW233465   3.116   1.516   0.707
10856SOL     OW33466   0.064   0.490   0.054
10856SOL    HW133467   0.040   0.580   0.017
10856SOL    HW233468   0.162   0.474   0.041
10857SOL     OW33469   6.696   1.278   2.336
10857SOL    HW133470   6.615   1.236   2.296
10857SOL    HW233471   6.673   1.367   2.373
10858SOL     OW33472   2.780   5.972   1.450
10858SOL    HW133473   2.759   6.009   1.359
10858SOL    HW233474   2.762   6.041   1.520
10859SOL     OW33475   0.573   5.345   3.995
10859SOL    HW133476   0.623   5.275   4.046
10859SOL    HW233477   0.604   5.435   4.024
10860SOL     OW33478   6.613   2.891   2.497
10860SOL    HW133479   6.571   2.978   2.471
10860SOL    HW233480   6.579   2.819   2.437
10861SOL     OW33481   3.256   2.979   4.345
10861SOL    HW133482   3.313   2.935   4.275
10861SOL    HW233483   3.274   2.935   4.434
10862SOL     OW33484   2.025   0.076   5.057
10862SOL    HW133485   2.006   0.128   5.141
10862SOL    HW233486   1.944   0.078   4.998
10863SOL     OW33487   3.202   5.886   4.643
10863SOL    HW133488   3.221   5.982   4.623
10863SOL    HW233489   3.222   5.866   4.739
10864SOL     OW33490   3.390   6.867   2.244
10864SOL    HW133491   3.315   6.828   2.189
10864SOL    HW233492   3.477   6.831   2.212
10865SOL     OW33493   5.851   1.408   6.528
10865SOL    HW133494   5.875   1.443   6.618
10865SOL    HW233495   5.762   1.446   6.500
10866SOL     OW33496   5.262   4.747   0.281
10866SOL    HW133497   5.284   4.698   0.198
10866SOL    HW233498   5.210   4.830   0.259
10867SOL     OW33499   3.435   3.826   0.563
10867SOL    HW133500   3.382   3.751   0.524
10867SOL    HW233501   3.518   3.789   0.606
10868SOL     OW33502   3.413   1.680   3.485
10868SOL    HW133503   3.314   1.673   3.474
10868SOL    HW233504   3.435   1.752   3.551
10869NA      NA33505   5.828   2.286   5.515
10870NA      NA33506   4.373   4.680   5.250
10871NA      NA33507   2.073   3.648   1.586
10872NA      NA33508   4.770   3.908   5.140
10873NA      NA33509   4.354   2.433   5.252
10874NA      NA33510   3.657   4.610   1.611
10875NA      NA33511   6.739   5.625   5.516
10876NA      NA33512   3.653   3.623   5.178
10877NA      NA33513   5.042   6.729   6.842
10878NA      NA33514   3.740   6.978   5.579
10879NA      NA33515   6.521   4.995   2.391
10880NA      NA33516   2.385   0.532   3.696
10881NA      NA33517   3.561   4.773   1.303
10882NA      NA33518   3.439   3.733   2.739
   7.02336   7.02336   7.02336
