Generated by trjconv : CNT in water t= 209.00000
33518
    1C        C    1   2.842   2.769   4.751
    1C        C    2   2.900   2.722   4.871
    1C        C    3   2.849   2.775   4.990
    1C        C    4   2.846   2.768   4.262
    1C        C    5   2.898   2.723   4.386
    1C        C    6   2.846   2.769   4.509
    1C        C    7   3.011   2.637   4.629
    1C        C    8   2.895   2.717   4.631
    1C        C    9   3.078   2.604   4.749
    1C        C   10   3.012   2.637   4.869
    1C        C   11   3.182   2.498   4.983
    1C        C   12   3.058   2.564   4.979
    1C        C   13   2.849   2.766   3.774
    1C        C   14   2.899   2.718   3.897
    1C        C   15   2.849   2.771   4.018
    1C        C   16   3.018   2.645   4.141
    1C        C   17   2.900   2.722   4.140
    1C        C   18   3.080   2.613   4.264
    1C        C   19   3.017   2.647   4.386
    1C        C   20   3.210   2.560   4.507
    1C        C   21   3.077   2.606   4.508
    1C        C   22   3.277   2.532   4.628
    1C        C   23   3.208   2.546   4.751
    1C        C   24   3.413   2.484   4.869
    1C        C   25   3.271   2.504   4.871
    1C        C   26   3.493   2.479   4.984
    1C        C   27   2.847   2.761   3.284
    1C        C   28   2.898   2.715   3.407
    1C        C   29   2.845   2.763   3.529
    1C        C   30   3.017   2.638   3.650
    1C        C   31   2.900   2.717   3.651
    1C        C   32   3.076   2.602   3.773
    1C        C   33   3.014   2.637   3.895
    1C        C   34   3.206   2.551   4.019
    1C        C   35   3.075   2.604   4.018
    1C        C   36   3.277   2.538   4.140
    1C        C   37   3.211   2.559   4.263
    1C        C   38   3.418   2.515   4.385
    1C        C   39   3.280   2.543   4.385
    1C        C   40   3.487   2.511   4.508
    1C        C   41   3.416   2.506   4.630
    1C        C   42   3.631   2.484   4.746
    1C        C   43   3.488   2.479   4.748
    1C        C   44   3.706   2.491   4.865
    1C        C   45   3.632   2.482   4.983
    1C        C   46   2.832   2.748   2.795
    1C        C   47   2.886   2.701   2.917
    1C        C   48   2.842   2.757   3.038
    1C        C   49   3.007   2.626   3.163
    1C        C   50   2.892   2.709   3.161
    1C        C   51   3.075   2.600   3.284
    1C        C   52   3.016   2.638   3.407
    1C        C   53   3.210   2.549   3.530
    1C        C   54   3.080   2.604   3.528
    1C        C   55   3.277   2.531   3.653
    1C        C   56   3.207   2.550   3.775
    1C        C   57   3.415   2.508   3.896
    1C        C   58   3.275   2.532   3.897
    1C        C   59   3.485   2.503   4.018
    1C        C   60   3.416   2.513   4.141
    1C        C   61   3.629   2.508   4.259
    1C        C   62   3.488   2.506   4.262
    1C        C   63   3.699   2.515   4.382
    1C        C   64   3.628   2.507   4.504
    1C        C   65   3.835   2.547   4.624
    1C        C   66   3.700   2.505   4.625
    1C        C   67   3.904   2.573   4.744
    1C        C   68   3.843   2.528   4.863
    1C        C   69   4.055   2.588   4.979
    1C        C   70   3.925   2.536   4.976
    1C        C   71   2.828   2.735   2.307
    1C        C   72   2.883   2.693   2.430
    1C        C   73   2.831   2.746   2.551
    1C        C   74   3.005   2.624   2.673
    1C        C   75   2.888   2.703   2.673
    1C        C   76   3.068   2.590   2.795
    1C        C   77   3.005   2.625   2.917
    1C        C   78   3.203   2.550   3.037
    1C        C   79   3.070   2.598   3.040
    1C        C   80   3.273   2.532   3.159
    1C        C   81   3.206   2.546   3.282
    1C        C   82   3.412   2.507   3.405
    1C        C   83   3.272   2.526   3.405
    1C        C   84   3.484   2.506   3.527
    1C        C   85   3.416   2.509   3.651
    1C        C   86   3.626   2.510   3.770
    1C        C   87   3.485   2.500   3.774
    1C        C   88   3.695   2.516   3.893
    1C        C   89   3.626   2.508   4.016
    1C        C   90   3.833   2.561   4.136
    1C        C   91   3.698   2.518   4.136
    1C        C   92   3.900   2.582   4.259
    1C        C   93   3.834   2.556   4.381
    1C        C   94   4.030   2.637   4.500
    1C        C   95   3.903   2.576   4.503
    1C        C   96   4.093   2.675   4.621
    1C        C   97   4.032   2.635   4.742
    1C        C   98   4.189   2.770   4.861
    1C        C   99   4.106   2.654   4.862
    1C        C  100   4.220   2.842   4.977
    1C        C  101   2.824   2.734   2.069
    1C        C  102   2.991   2.591   2.192
    1C        C  103   2.879   2.679   2.186
    1C        C  104   3.063   2.570   2.313
    1C        C  105   3.000   2.615   2.431
    1C        C  106   3.199   2.533   2.550
    1C        C  107   3.067   2.585   2.552
    1C        C  108   3.266   2.516   2.673
    1C        C  109   3.199   2.538   2.795
    1C        C  110   3.408   2.493   2.916
    1C        C  111   3.270   2.521   2.916
    1C        C  112   3.480   2.496   3.038
    1C        C  113   3.412   2.506   3.161
    1C        C  114   3.625   2.510   3.282
    1C        C  115   3.484   2.501   3.283
    1C        C  116   3.694   2.520   3.405
    1C        C  117   3.625   2.509   3.528
    1C        C  118   3.835   2.552   3.648
    1C        C  119   3.697   2.521   3.649
    1C        C  120   3.900   2.581   3.770
    1C        C  121   3.831   2.557   3.891
    1C        C  122   4.023   2.649   4.015
    1C        C  123   3.898   2.582   4.013
    1C        C  124   4.089   2.679   4.136
    1C        C  125   4.029   2.640   4.258
    1C        C  126   4.198   2.770   4.378
    1C        C  127   4.089   2.680   4.379
    1C        C  128   4.248   2.821   4.500
    1C        C  129   4.198   2.769   4.621
    1C        C  130   4.333   2.936   4.744
    1C        C  131   4.248   2.822   4.742
    1C        C  132   4.363   3.003   4.864
    1C        C  133   4.290   2.962   4.976
    1C        C  134   3.173   2.465   2.084
    1C        C  135   3.041   2.513   2.083
    1C        C  136   3.261   2.475   2.192
    1C        C  137   3.196   2.519   2.310
    1C        C  138   3.408   2.485   2.431
    1C        C  139   3.269   2.507   2.430
    1C        C  140   3.479   2.486   2.553
    1C        C  141   3.407   2.502   2.673
    1C        C  142   3.620   2.501   2.793
    1C        C  143   3.479   2.490   2.794
    1C        C  144   3.692   2.509   2.914
    1C        C  145   3.621   2.508   3.037
    1C        C  146   3.831   2.543   3.157
    1C        C  147   3.693   2.513   3.158
    1C        C  148   3.897   2.570   3.279
    1C        C  149   3.831   2.555   3.403
    1C        C  150   4.028   2.633   3.526
    1C        C  151   3.898   2.578   3.525
    1C        C  152   4.088   2.672   3.648
    1C        C  153   4.027   2.642   3.772
    1C        C  154   4.199   2.769   3.891
    1C        C  155   4.085   2.685   3.893
    1C        C  156   4.251   2.817   4.014
    1C        C  157   4.201   2.765   4.135
    1C        C  158   4.345   2.922   4.254
    1C        C  159   4.256   2.812   4.256
    1C        C  160   4.379   2.986   4.375
    1C        C  161   4.334   2.934   4.498
    1C        C  162   4.443   3.115   4.620
    1C        C  163   4.375   2.991   4.621
    1C        C  164   4.474   3.185   4.738
    1C        C  165   4.440   3.121   4.860
    1C        C  166   4.520   3.323   4.974
    1C        C  167   4.480   3.190   4.975
    1C        C  168   3.476   2.430   2.078
    1C        C  169   3.400   2.450   2.194
    1C        C  170   3.621   2.468   2.310
    1C        C  171   3.479   2.461   2.310
    1C        C  172   3.695   2.488   2.429
    1C        C  173   3.621   2.488   2.549
    1C        C  174   3.828   2.539   2.669
    1C        C  175   3.690   2.509   2.670
    1C        C  176   3.895   2.562   2.791
    1C        C  177   3.829   2.542   2.914
    1C        C  178   4.025   2.628   3.036
    1C        C  179   3.900   2.562   3.035
    1C        C  180   4.086   2.668   3.157
    1C        C  181   4.024   2.632   3.278
    1C        C  182   4.195   2.756   3.401
    1C        C  183   4.084   2.668   3.401
    1C        C  184   4.249   2.808   3.521
    1C        C  185   4.196   2.762   3.644
    1C        C  186   4.342   2.917   3.764
    1C        C  187   4.249   2.812   3.766
    1C        C  188   4.384   2.977   3.885
    1C        C  189   4.343   2.924   4.009
    1C        C  190   4.454   3.104   4.131
    1C        C  191   4.386   2.980   4.132
    1C        C  192   4.479   3.170   4.253
    1C        C  193   4.449   3.109   4.377
    1C        C  194   4.509   3.315   4.494
    1C        C  195   4.473   3.178   4.497
    1C        C  196   4.525   3.387   4.614
    1C        C  197   4.517   3.320   4.738
    1C        C  198   4.555   3.539   4.853
    1C        C  199   4.539   3.397   4.856
    1C        C  200   4.580   3.622   4.967
    1C        C  201   3.616   2.414   2.079
    1C        C  202   3.827   2.515   2.185
    1C        C  203   3.693   2.464   2.188
    1C        C  204   3.900   2.542   2.305
    1C        C  205   3.832   2.521   2.427
    1C        C  206   4.025   2.619   2.546
    1C        C  207   3.897   2.559   2.547
    1C        C  208   4.084   2.658   2.669
    1C        C  209   4.020   2.628   2.792
    1C        C  210   4.194   2.753   2.910
    1C        C  211   4.083   2.664   2.913
    1C        C  212   4.250   2.796   3.032
    1C        C  213   4.202   2.749   3.156
    1C        C  214   4.339   2.909   3.274
    1C        C  215   4.249   2.800   3.279
    1C        C  216   4.375   2.973   3.395
    1C        C  217   4.339   2.917   3.519
    1C        C  218   4.445   3.100   3.641
    1C        C  219   4.380   2.975   3.641
    1C        C  220   4.466   3.171   3.762
    1C        C  221   4.446   3.104   3.885
    1C        C  222   4.514   3.305   4.004
    1C        C  223   4.479   3.168   4.007
    1C        C  224   4.520   3.377   4.125
    1C        C  225   4.505   3.309   4.248
    1C        C  226   4.522   3.521   4.368
    1C        C  227   4.519   3.380   4.369
    1C        C  228   4.519   3.597   4.487
    1C        C  229   4.531   3.528   4.610
    1C        C  230   4.507   3.744   4.727
    1C        C  231   4.542   3.606   4.728
    1C        C  232   4.497   3.822   4.844
    1C        C  233   4.543   3.757   4.960
    1C        C  234   4.016   2.622   2.065
    1C        C  235   3.898   2.549   2.069
    1C        C  236   4.084   2.654   2.183
    1C        C  237   4.023   2.612   2.303
    1C        C  238   4.201   2.734   2.424
    1C        C  239   4.087   2.650   2.423
    1C        C  240   4.251   2.789   2.545
    1C        C  241   4.193   2.747   2.666
    1C        C  242   4.338   2.903   2.785
    1C        C  243   4.250   2.793   2.787
    1C        C  244   4.379   2.961   2.907
    1C        C  245   4.339   2.906   3.031
    1C        C  246   4.438   3.097   3.150
    1C        C  247   4.377   2.969   3.152
    1C        C  248   4.460   3.163   3.273
    1C        C  249   4.438   3.099   3.397
    1C        C  250   4.499   3.303   3.517
    1C        C  251   4.471   3.165   3.518
    1C        C  252   4.509   3.375   3.638
    1C        C  253   4.503   3.307   3.762
    1C        C  254   4.528   3.519   3.880
    1C        C  255   4.523   3.377   3.883
    1C        C  256   4.521   3.590   4.002
    1C        C  257   4.519   3.518   4.124
    1C        C  258   4.488   3.729   4.244
    1C        C  259   4.513   3.590   4.245
    1C        C  260   4.465   3.803   4.363
    1C        C  261   4.489   3.735   4.484
    1C        C  262   4.427   3.939   4.606
    1C        C  263   4.478   3.808   4.605
    1C        C  264   4.397   4.010   4.724
    1C        C  265   4.430   3.946   4.846
    1C        C  266   4.323   4.132   4.961
    1C        C  267   4.392   4.011   4.964
    1C        C  268   4.270   2.772   2.067
    1C        C  269   4.204   2.729   2.183
    1C        C  270   4.344   2.892   2.299
    1C        C  271   4.258   2.779   2.303
    1C        C  272   4.389   2.950   2.420
    1C        C  273   4.346   2.894   2.542
    1C        C  274   4.448   3.083   2.663
    1C        C  275   4.378   2.960   2.662
    1C        C  276   4.473   3.151   2.784
    1C        C  277   4.442   3.088   2.907
    1C        C  278   4.506   3.294   3.027
    1C        C  279   4.467   3.158   3.027
    1C        C  280   4.510   3.366   3.148
    1C        C  281   4.497   3.300   3.272
    1C        C  282   4.519   3.512   3.391
    1C        C  283   4.514   3.370   3.393
    1C        C  284   4.519   3.585   3.511
    1C        C  285   4.521   3.516   3.635
    1C        C  286   4.493   3.725   3.754
    1C        C  287   4.521   3.587   3.757
    1C        C  288   4.474   3.795   3.876
    1C        C  289   4.492   3.728   3.999
    1C        C  290   4.425   3.930   4.118
    1C        C  291   4.473   3.797   4.121
    1C        C  292   4.396   3.999   4.238
    1C        C  293   4.417   3.936   4.362
    1C        C  294   4.326   4.127   4.482
    1C        C  295   4.396   4.004   4.484
    1C        C  296   4.285   4.188   4.603
    1C        C  297   4.330   4.136   4.726
    1C        C  298   4.206   4.319   4.838
    1C        C  299   4.286   4.200   4.844
    1C        C  300   4.174   4.403   4.950
    1C        C  301   4.355   2.882   2.061
    1C        C  302   4.470   3.069   2.179
    1C        C  303   4.395   2.947   2.178
    1C        C  304   4.491   3.140   2.300
    1C        C  305   4.457   3.075   2.420
    1C        C  306   4.512   3.282   2.536
    1C        C  307   4.481   3.144   2.540
    1C        C  308   4.515   3.355   2.657
    1C        C  309   4.511   3.287   2.781
    1C        C  310   4.524   3.500   2.901
    1C        C  311   4.525   3.359   2.903
    1C        C  312   4.517   3.574   3.021
    1C        C  313   4.518   3.507   3.146
    1C        C  314   4.489   3.719   3.267
    1C        C  315   4.514   3.580   3.267
    1C        C  316   4.468   3.789   3.388
    1C        C  317   4.489   3.723   3.511
    1C        C  318   4.419   3.925   3.631
    1C        C  319   4.472   3.794   3.633
    1C        C  320   4.383   3.986   3.753
    1C        C  321   4.420   3.926   3.876
    1C        C  322   4.317   4.113   3.993
    1C        C  323   4.393   3.994   3.996
    1C        C  324   4.277   4.173   4.115
    1C        C  325   4.321   4.119   4.238
    1C        C  326   4.191   4.288   4.355
    1C        C  327   4.281   4.180   4.359
    1C        C  328   4.138   4.340   4.475
    1C        C  329   4.193   4.295   4.597
    1C        C  330   4.035   4.446   4.715
    1C        C  331   4.144   4.355   4.715
    1C        C  332   3.975   4.497   4.832
    1C        C  333   4.056   4.478   4.944
    1C        C  334   4.549   3.269   2.061
    1C        C  335   4.527   3.130   2.063
    1C        C  336   4.543   3.350   2.175
    1C        C  337   4.523   3.279   2.295
    1C        C  338   4.522   3.494   2.411
    1C        C  339   4.530   3.353   2.415
    1C        C  340   4.514   3.565   2.533
    1C        C  341   4.521   3.496   2.656
    1C        C  342   4.487   3.707   2.777
    1C        C  343   4.514   3.568   2.778
    1C        C  344   4.475   3.781   2.896
    1C        C  345   4.489   3.712   3.019
    1C        C  346   4.423   3.914   3.141
    1C        C  347   4.467   3.780   3.141
    1C        C  348   4.391   3.983   3.260
    1C        C  349   4.419   3.921   3.384
    1C        C  350   4.317   4.106   3.503
    1C        C  351   4.393   3.987   3.507
    1C        C  352   4.275   4.167   3.624
    1C        C  353   4.316   4.110   3.746
    1C        C  354   4.180   4.270   3.868
    1C        C  355   4.278   4.168   3.869
    1C        C  356   4.126   4.320   3.988
    1C        C  357   4.179   4.275   4.110
    1C        C  358   4.017   4.408   4.233
    1C        C  359   4.134   4.330   4.232
    1C        C  360   3.954   4.450   4.353
    1C        C  361   4.023   4.422   4.473
    1C        C  362   3.830   4.511   4.594
    1C        C  363   3.964   4.465   4.594
    1C        C  364   3.764   4.544   4.715
    1C        C  365   3.840   4.541   4.834
    1C        C  366   3.630   4.592   4.952
    1C        C  367   3.768   4.575   4.949
    1C        C  368   4.513   3.564   2.053
    1C        C  369   4.525   3.490   2.171
    1C        C  370   4.502   3.707   2.290
    1C        C  371   4.514   3.566   2.290
    1C        C  372   4.487   3.778   2.411
    1C        C  373   4.494   3.704   2.532
    1C        C  374   4.419   3.905   2.651
    1C        C  375   4.470   3.773   2.653
    1C        C  376   4.391   3.971   2.773
    1C        C  377   4.421   3.912   2.897
    1C        C  378   4.320   4.099   3.013
    1C        C  379   4.390   3.976   3.019
    1C        C  380   4.271   4.154   3.133
    1C        C  381   4.310   4.099   3.257
    1C        C  382   4.175   4.259   3.379
    1C        C  383   4.272   4.157   3.380
    1C        C  384   4.125   4.314   3.499
    1C        C  385   4.177   4.269   3.623
    1C        C  386   4.011   4.398   3.745
    1C        C  387   4.126   4.317   3.746
    1C        C  388   3.948   4.436   3.866
    1C        C  389   4.008   4.399   3.988
    1C        C  390   3.820   4.489   4.111
    1C        C  391   3.952   4.439   4.112
    1C        C  392   3.750   4.513   4.232
    1C        C  393   3.822   4.501   4.352
    1C        C  394   3.620   4.554   4.476
    1C        C  395   3.759   4.533   4.474
    1C        C  396   3.548   4.561   4.598
    1C        C  397   3.624   4.562   4.717
    1C        C  398   3.412   4.553   4.841
    1C        C  399   3.552   4.573   4.837
    1C        C  400   3.345   4.519   4.959
    1C        C  401   4.505   3.703   2.053
    1C        C  402   4.455   3.915   2.167
    1C        C  403   4.491   3.779   2.169
    1C        C  404   4.412   3.976   2.287
    1C        C  405   4.433   3.908   2.409
    1C        C  406   4.323   4.093   2.528
    1C        C  407   4.396   3.973   2.530
    1C        C  408   4.274   4.148   2.649
    1C        C  409   4.315   4.090   2.771
    1C        C  410   4.173   4.253   2.887
    1C        C  411   4.272   4.153   2.891
    1C        C  412   4.123   4.301   3.010
    1C        C  413   4.173   4.257   3.134
    1C        C  414   3.999   4.377   3.256
    1C        C  415   4.120   4.303   3.256
    1C        C  416   3.940   4.417   3.378
    1C        C  417   4.004   4.388   3.500
    1C        C  418   3.816   4.481   3.622
    1C        C  419   3.945   4.425   3.623
    1C        C  420   3.748   4.510   3.743
    1C        C  421   3.817   4.489   3.865
    1C        C  422   3.616   4.545   3.988
    1C        C  423   3.753   4.513   3.989
    1C        C  424   3.544   4.551   4.110
    1C        C  425   3.613   4.547   4.233
    1C        C  426   3.403   4.559   4.361
    1C        C  427   3.545   4.560   4.357
    1C        C  428   3.332   4.546   4.482
    1C        C  429   3.407   4.555   4.602
    1C        C  430   3.196   4.520   4.723
    1C        C  431   3.335   4.550   4.723
    1C        C  432   3.126   4.497   4.845
    1C        C  433   3.209   4.488   4.958
    1C        C  434   4.384   4.125   2.055
    1C        C  435   4.444   3.998   2.054
    1C        C  436   4.300   4.160   2.166
    1C        C  437   4.329   4.091   2.287
    1C        C  438   4.178   4.248   2.404
    1C        C  439   4.279   4.149   2.406
    1C        C  440   4.121   4.297   2.523
    1C        C  441   4.177   4.250   2.644
    1C        C  442   4.006   4.382   2.766
    1C        C  443   4.118   4.295   2.764
    1C        C  444   3.945   4.415   2.889
    1C        C  445   4.009   4.385   3.011
    1C        C  446   3.814   4.475   3.132
    1C        C  447   3.942   4.415   3.132
    1C        C  448   3.747   4.498   3.254
    1C        C  449   3.811   4.475   3.377
    1C        C  450   3.608   4.528   3.498
    1C        C  451   3.747   4.501   3.500
    1C        C  452   3.540   4.543   3.621
    1C        C  453   3.610   4.536   3.743
    1C        C  454   3.401   4.544   3.869
    1C        C  455   3.542   4.547   3.867
    1C        C  456   3.331   4.535   3.992
    1C        C  457   3.404   4.539   4.113
    1C        C  458   3.201   4.498   4.238
    1C        C  459   3.337   4.535   4.238
    1C        C  460   3.131   4.476   4.359
    1C        C  461   3.197   4.507   4.480
    1C        C  462   3.000   4.431   4.607
    1C        C  463   3.128   4.491   4.602
    1C        C  464   2.932   4.398   4.726
    1C        C  465   2.994   4.442   4.846
    1C        C  466   2.805   4.335   4.964
    1C        C  467   2.908   4.430   4.960
    1C        C  468   4.119   4.282   2.043
    1C        C  469   4.184   4.243   2.161
    1C        C  470   4.010   4.374   2.279
    1C        C  471   4.128   4.295   2.280
    1C        C  472   3.943   4.406   2.399
    1C        C  473   4.002   4.373   2.522
    1C        C  474   3.813   4.467   2.644
    1C        C  475   3.945   4.418   2.643
    1C        C  476   3.747   4.494   2.766
    1C        C  477   3.815   4.470   2.887
    1C        C  478   3.609   4.522   3.010
    1C        C  479   3.747   4.492   3.009
    1C        C  480   3.538   4.534   3.131
    1C        C  481   3.609   4.528   3.253
    1C        C  482   3.397   4.538   3.377
    1C        C  483   3.538   4.537   3.375
    1C        C  484   3.328   4.532   3.501
    1C        C  485   3.399   4.548   3.622
    1C        C  486   3.194   4.505   3.747
    1C        C  487   3.331   4.540   3.746
    1C        C  488   3.132   4.478   3.870
    1C        C  489   3.194   4.502   3.995
    1C        C  490   3.004   4.413   4.118
    1C        C  491   3.129   4.480   4.118
    1C        C  492   2.942   4.381   4.240
    1C        C  493   3.002   4.420   4.362
    1C        C  494   2.828   4.305   4.483
    1C        C  495   2.937   4.394   4.486
    1C        C  496   2.770   4.260   4.604
    1C        C  497   2.817   4.315   4.725
    1C        C  498   2.666   4.168   4.844
    1C        C  499   2.758   4.275   4.846
    1C        C  500   2.594   4.121   4.955
    1C        C  501   4.001   4.355   2.039
    1C        C  502   3.816   4.464   2.158
    1C        C  503   3.944   4.404   2.157
    1C        C  504   3.748   4.491   2.279
    1C        C  505   3.815   4.468   2.400
    1C        C  506   3.607   4.517   2.522
    1C        C  507   3.745   4.488   2.521
    1C        C  508   3.536   4.528   2.644
    1C        C  509   3.608   4.521   2.764
    1C        C  510   3.397   4.524   2.889
    1C        C  511   3.539   4.527   2.887
    1C        C  512   3.326   4.521   3.010
    1C        C  513   3.396   4.532   3.132
    1C        C  514   3.189   4.497   3.257
    1C        C  515   3.327   4.528   3.255
    1C        C  516   3.123   4.475   3.380
    1C        C  517   3.190   4.501   3.502
    1C        C  518   3.003   4.412   3.628
    1C        C  519   3.126   4.480   3.626
    1C        C  520   2.945   4.374   3.752
    1C        C  521   3.005   4.415   3.873
    1C        C  522   2.835   4.287   3.997
    1C        C  523   2.945   4.376   3.995
    1C        C  524   2.788   4.237   4.121
    1C        C  525   2.834   4.291   4.243
    1C        C  526   2.689   4.136   4.365
    1C        C  527   2.777   4.246   4.365
    1C        C  528   2.653   4.077   4.488
    1C        C  529   2.689   4.145   4.607
    1C        C  530   2.581   3.963   4.731
    1C        C  531   2.633   4.096   4.727
    1C        C  532   2.539   3.905   4.853
    1C        C  533   2.533   3.995   4.964
    1C        C  534   3.621   4.565   2.045
    1C        C  535   3.753   4.517   2.045
    1C        C  536   3.536   4.546   2.158
    1C        C  537   3.607   4.515   2.277
    1C        C  538   3.396   4.523   2.403
    1C        C  539   3.537   4.518   2.400
    1C        C  540   3.323   4.513   2.524
    1C        C  541   3.394   4.528   2.644
    1C        C  542   3.188   4.487   2.769
    1C        C  543   3.325   4.519   2.767
    1C        C  544   3.120   4.467   2.892
    1C        C  545   3.189   4.486   3.014
    1C        C  546   2.995   4.406   3.136
    1C        C  547   3.121   4.470   3.136
    1C        C  548   2.943   4.363   3.260
    1C        C  549   3.000   4.404   3.382
    1C        C  550   2.833   4.282   3.507
    1C        C  551   2.940   4.375   3.507
    1C        C  552   2.785   4.235   3.631
    1C        C  553   2.835   4.286   3.753
    1C        C  554   2.699   4.125   3.875
    1C        C  555   2.784   4.238   3.875
    1C        C  556   2.662   4.066   3.998
    1C        C  557   2.694   4.131   4.119
    1C        C  558   2.597   3.945   4.245
    1C        C  559   2.655   4.074   4.243
    1C        C  560   2.569   3.882   4.368
    1C        C  561   2.590   3.950   4.489
    1C        C  562   2.532   3.750   4.616
    1C        C  563   2.565   3.887   4.613
    1C        C  564   2.515   3.686   4.740
    1C        C  565   2.514   3.764   4.859
    1C        C  566   2.528   3.549   4.979
    1C        C  567   2.519   3.688   4.977
    1C        C  568   3.331   4.479   2.043
    1C        C  569   3.396   4.520   2.160
    1C        C  570   3.186   4.480   2.284
    1C        C  571   3.324   4.512   2.282
    1C        C  572   3.115   4.464   2.406
    1C        C  573   3.184   4.486   2.527
    1C        C  574   2.987   4.410   2.648
    1C        C  575   3.115   4.471   2.649
    1C        C  576   2.932   4.365   2.770
    1C        C  577   2.995   4.402   2.891
    1C        C  578   2.828   4.276   3.016
    1C        C  579   2.934   4.369   3.014
    1C        C  580   2.783   4.224   3.140
    1C        C  581   2.831   4.277   3.261
    1C        C  582   2.698   4.117   3.387
    1C        C  583   2.786   4.227   3.386
    1C        C  584   2.660   4.060   3.511
    1C        C  585   2.701   4.121   3.632
    1C        C  586   2.600   3.935   3.755
    1C        C  587   2.662   4.063   3.754
    1C        C  588   2.576   3.872   3.879
    1C        C  589   2.605   3.937   4.001
    1C        C  590   2.539   3.739   4.128
    1C        C  591   2.573   3.876   4.124
    1C        C  592   2.532   3.672   4.253
    1C        C  593   2.537   3.744   4.374
    1C        C  594   2.520   3.534   4.499
    1C        C  595   2.525   3.675   4.496
    1C        C  596   2.526   3.466   4.623
    1C        C  597   2.521   3.543   4.741
    1C        C  598   2.538   3.331   4.863
    1C        C  599   2.527   3.471   4.862
    1C        C  600   2.528   3.252   4.979
    1C        C  601   3.198   4.443   2.046
    1C        C  602   2.987   4.394   2.161
    1C        C  603   3.121   4.444   2.163
    1C        C  604   2.926   4.360   2.285
    1C        C  605   2.988   4.403   2.405
    1C        C  606   2.821   4.274   2.530
    1C        C  607   2.927   4.368   2.527
    1C        C  608   2.770   4.226   2.653
    1C        C  609   2.823   4.275   2.774
    1C        C  610   2.687   4.112   2.897
    1C        C  611   2.777   4.221   2.896
    1C        C  612   2.650   4.058   3.022
    1C        C  613   2.695   4.113   3.143
    1C        C  614   2.594   3.929   3.268
    1C        C  615   2.658   4.055   3.267
    1C        C  616   2.567   3.866   3.391
    1C        C  617   2.598   3.933   3.512
    1C        C  618   2.539   3.730   3.639
    1C        C  619   2.574   3.867   3.634
    1C        C  620   2.524   3.663   3.762
    1C        C  621   2.538   3.736   3.882
    1C        C  622   2.513   3.529   4.010
    1C        C  623   2.526   3.670   4.006
    1C        C  624   2.523   3.458   4.132
    1C        C  625   2.528   3.530   4.253
    1C        C  626   2.544   3.323   4.380
    1C        C  627   2.524   3.463   4.377
    1C        C  628   2.556   3.253   4.502
    1C        C  629   2.540   3.326   4.622
    1C        C  630   2.596   3.122   4.743
    1C        C  631   2.550   3.256   4.744
    1C        C  632   2.624   3.055   4.866
    1C        C  633   2.567   3.117   4.982
    1C        C  634   2.786   4.307   2.057
    1C        C  635   2.896   4.394   2.051
    1C        C  636   2.751   4.232   2.170
    1C        C  637   2.812   4.275   2.290
    1C        C  638   2.679   4.110   2.409
    1C        C  639   2.762   4.224   2.412
    1C        C  640   2.643   4.052   2.533
    1C        C  641   2.685   4.114   2.653
    1C        C  642   2.590   3.923   2.778
    1C        C  643   2.648   4.053   2.775
    1C        C  644   2.571   3.857   2.901
    1C        C  645   2.596   3.927   3.021
    1C        C  646   2.534   3.727   3.148
    1C        C  647   2.569   3.864   3.145
    1C        C  648   2.524   3.656   3.270
    1C        C  649   2.532   3.729   3.391
    1C        C  650   2.519   3.522   3.520
    1C        C  651   2.526   3.663   3.515
    1C        C  652   2.524   3.452   3.642
    1C        C  653   2.518   3.521   3.765
    1C        C  654   2.538   3.316   3.894
    1C        C  655   2.514   3.455   3.890
    1C        C  656   2.561   3.248   4.015
    1C        C  657   2.547   3.319   4.136
    1C        C  658   2.609   3.118   4.261
    1C        C  659   2.563   3.251   4.259
    1C        C  660   2.639   3.055   4.384
    1C        C  661   2.598   3.118   4.503
    1C        C  662   2.710   2.936   4.626
    1C        C  663   2.632   3.054   4.625
    1C        C  664   2.753   2.880   4.748
    1C        C  665   2.704   2.937   4.869
    1C        C  666   2.756   2.878   4.985
    1C        C  667   2.676   4.025   2.054
    1C        C  668   2.684   4.108   2.166
    1C        C  669   2.594   3.914   2.290
    1C        C  670   2.647   4.046   2.288
    1C        C  671   2.564   3.852   2.413
    1C        C  672   2.585   3.923   2.533
    1C        C  673   2.526   3.720   2.658
    1C        C  674   2.564   3.857   2.656
    1C        C  675   2.517   3.651   2.781
    1C        C  676   2.534   3.720   2.903
    1C        C  677   2.511   3.513   3.031
    1C        C  678   2.521   3.654   3.027
    1C        C  679   2.515   3.443   3.153
    1C        C  680   2.516   3.515   3.275
    1C        C  681   2.542   3.309   3.403
    1C        C  682   2.517   3.448   3.399
    1C        C  683   2.561   3.243   3.526
    1C        C  684   2.542   3.312   3.648
    1C        C  685   2.605   3.114   3.771
    1C        C  686   2.552   3.245   3.772
    1C        C  687   2.638   3.051   3.893
    1C        C  688   2.609   3.115   4.016
    1C        C  689   2.713   2.932   4.140
    1C        C  690   2.638   3.052   4.139
    1C        C  691   2.756   2.877   4.262
    1C        C  692   2.716   2.937   4.384
    1C        C  693   2.758   2.879   4.506
    1C        C  694   2.635   3.891   2.056
    1C        C  695   2.530   3.705   2.175
    1C        C  696   2.583   3.836   2.173
    1C        C  697   2.512   3.639   2.299
    1C        C  698   2.524   3.716   2.417
    1C        C  699   2.501   3.505   2.544
    1C        C  700   2.510   3.646   2.539
    1C        C  701   2.509   3.436   2.666
    1C        C  702   2.510   3.510   2.786
    1C        C  703   2.534   3.301   2.910
    1C        C  704   2.513   3.441   2.910
    1C        C  705   2.551   3.236   3.034
    1C        C  706   2.539   3.304   3.157
    1C        C  707   2.606   3.106   3.281
    1C        C  708   2.560   3.239   3.281
    1C        C  709   2.639   3.046   3.405
    1C        C  710   2.614   3.112   3.527
    1C        C  711   2.709   2.926   3.651
    1C        C  712   2.640   3.049   3.651
    1C        C  713   2.751   2.868   3.773
    1C        C  714   2.716   2.933   3.894
    1C        C  715   2.761   2.881   4.017
    1C        C  716   2.445   3.503   2.063
    1C        C  717   2.483   3.637   2.062
    1C        C  718   2.468   3.424   2.180
    1C        C  719   2.489   3.499   2.300
    1C        C  720   2.516   3.292   2.424
    1C        C  721   2.492   3.431   2.424
    1C        C  722   2.540   3.223   2.545
    1C        C  723   2.530   3.296   2.666
    1C        C  724   2.589   3.095   2.794
    1C        C  725   2.543   3.228   2.789
    1C        C  726   2.630   3.038   2.916
    1C        C  727   2.599   3.103   3.038
    1C        C  728   2.709   2.920   3.160
    1C        C  729   2.633   3.040   3.159
    1C        C  730   2.752   2.866   3.283
    1C        C  731   2.714   2.926   3.405
    1C        C  732   2.752   2.869   3.529
    1C        C  733   2.496   3.200   2.074
    1C        C  734   2.487   3.283   2.187
    1C        C  735   2.579   3.084   2.307
    1C        C  736   2.521   3.214   2.306
    1C        C  737   2.607   3.018   2.429
    1C        C  738   2.582   3.089   2.549
    1C        C  739   2.698   2.914   2.671
    1C        C  740   2.615   3.028   2.672
    1C        C  741   2.742   2.857   2.792
    1C        C  742   2.701   2.915   2.914
    1C        C  743   2.748   2.863   3.037
    1C        C  744   2.549   3.071   2.073
    1C        C  745   2.686   2.898   2.188
    1C        C  746   2.615   3.020   2.186
    1C        C  747   2.733   2.841   2.309
    1C        C  748   2.689   2.903   2.428
    1C        C  749   2.739   2.853   2.550
    1C        C  750   2.734   2.840   2.071
    1C        C  751   3.675   2.312   1.989
    1C        O  752   3.692   2.191   2.019
    1C        O  753   3.658   2.342   1.853
    1C        C  754   4.594   3.059   1.951
    1C        O  755   4.531   3.056   1.842
    1C        O  756   4.728   3.021   1.962
    1C        C  757   4.476   4.232   2.011
    1C        O  758   4.527   4.321   2.086
    1C        O  759   4.543   4.226   1.888
    1C        C  760   3.604   4.678   1.951
    1C        O  761   3.625   4.797   1.986
    1C        O  762   3.557   4.663   1.820
    1C        C  763   2.885   4.510   1.959
    1C        O  764   2.908   4.483   1.837
    1C        O  765   2.831   4.629   2.007
    1C        C  766   2.326   3.469   1.980
    1C        O  767   2.308   3.488   1.857
    1C        O  768   2.196   3.451   2.027
    1C        C  769   4.674   3.588   5.076
    1C        O  770   4.641   3.613   5.195
    1C        O  771   4.811   3.613   5.063
    1C        C  772   4.276   4.458   5.043
    1C        O  773   4.293   4.411   5.158
    1C        O  774   4.311   4.591   5.021
    1C        C  775   4.138   2.500   5.064
    1C        O  776   4.217   2.413   5.017
    1C        O  777   4.149   2.507   5.204
    1C        C  778   2.889   4.556   5.035
    1C        O  779   2.820   4.645   4.978
    1C        O  780   2.855   4.547   5.171
    1C        C  781   2.482   3.045   5.079
    1C        O  782   2.393   2.965   5.036
    1C        O  783   2.448   3.064   5.212
    1C        C  784   2.435   3.992   5.075
    1C        O  785   2.329   4.060   5.074
    1C        O  786   2.483   3.968   5.205
    1C        C  787   2.946   2.442   1.995
    1C        O  788   2.931   2.461   1.871
    1C        O  789   2.877   2.328   2.034
    1C        C  790   3.200   2.398   5.090
    1C        O  791   3.159   2.283   5.059
    1C        O  792   3.184   2.428   5.226
    1C        H  793   4.289   3.024   5.064
    1C        H  794   4.220   2.786   5.068
    1C        H  795   4.481   3.135   5.067
    1C        H  796   4.574   3.353   5.062
    1C        H  797   4.597   3.827   5.021
    1C        H  798   4.405   3.962   5.058
    1C        H  799   4.347   4.196   5.044
    1C        H  800   4.054   4.566   5.005
    1C        H  801   3.814   4.547   5.041
    1C        H  802   3.591   4.642   5.039
    1C        H  803   3.380   4.556   5.053
    1C        H  804   3.170   4.436   5.042
    1C        H  805   3.884   2.501   5.068
    1C        H  806   3.674   2.426   5.064
    1C        H  807   2.992   2.534   5.058
    1C        H  808   3.447   2.508   5.076
    1C        H  809   2.883   2.747   5.088
    1C        H  810   2.725   2.919   5.079
    1C        H  811   2.453   3.284   5.048
    1C        H  812   2.553   3.502   5.071
    1C        H  813   2.555   3.734   5.067
    1C        H  814   2.551   4.203   5.010
    1C        H  815   2.794   4.284   5.057
    1C        H  816   2.685   2.858   1.978
    1C        H  817   2.849   2.688   1.976
    1C        H  818   3.197   2.396   2.006
    1C        H  819   3.430   2.435   1.981
    1C        H  820   3.869   2.509   1.974
    1C        H  821   4.045   2.670   1.973
    1C        H  822   4.293   2.696   1.995
    1C        H  823   4.360   2.933   1.967
    1C        H  824   4.589   3.309   1.970
    1C        H  825   4.489   3.517   1.960
    1C        H  826   4.535   3.755   1.964
    1C        H  827   3.813   4.544   1.961
    1C        H  828   3.953   4.372   1.945
    1C        H  829   4.175   4.278   1.951
    1C        H  830   4.487   3.963   1.963
    1C        H  831   2.636   3.835   1.964
    1C        H  832   2.726   4.059   1.965
    1C        H  833   2.722   4.294   1.973
    1C        H  834   3.390   4.453   1.957
    1C        H  835   3.147   4.436   1.952
    1C        H  836   2.532   3.011   1.986
    1C        H  837   2.474   3.244   1.979
    1C        H  838   2.441   3.701   1.987
    2V3OU   H29  839   2.809   3.557   1.959
    2V3OU   C27  840   2.789   3.500   2.053
    2V3OU   H27  841   2.737   3.570   2.123
    2V3OU   H28  842   2.732   3.406   2.033
    2V3OU   O11  843   2.914   3.473   2.118
    2V3OU   C15  844   2.927   3.399   2.234
    2V3OU   C13  845   3.058   3.375   2.281
    2V3OU   C14  846   3.080   3.269   2.371
    2V3OU   C16  847   2.977   3.194   2.427
    2V3OU    H6  848   2.994   3.102   2.483
    2V3OU   C12  849   3.214   3.233   2.422
    2V3OU    O2  850   3.237   3.129   2.488
    2V3OU   C10  851   3.331   3.310   2.377
    2V3OU    C8  852   3.462   3.272   2.402
    2V3OU   O10  853   3.491   3.158   2.471
    2V3OU   H26  854   3.403   3.124   2.496
    2V3OU    C6  855   3.570   3.354   2.356
    2V3OU    C5  856   3.543   3.470   2.285
    2V3OU    C4  857   3.707   3.296   2.352
    2V3OU    H4  858   3.728   3.237   2.446
    2V3OU    H5  859   3.709   3.227   2.262
    2V3OU    C2  860   3.820   3.400   2.345
    2V3OU    O6  861   3.813   3.479   2.464
    2V3OU   H21  862   3.761   3.556   2.436
    2V3OU    C3  863   3.788   3.500   2.234
    2V3OU    H2  864   3.869   3.577   2.229
    2V3OU    H3  865   3.785   3.445   2.137
    2V3OU   C25  866   3.954   3.328   2.334
    2V3OU    O7  867   4.007   3.295   2.228
    2V3OU   C26  868   4.027   3.294   2.463
    2V3OU   H22  869   4.057   3.393   2.505
    2V3OU   H23  870   4.118   3.233   2.441
    2V3OU    O8  871   3.962   3.217   2.562
    2V3OU   H24  872   3.927   3.275   2.632
    2V3OU    C1  873   3.653   3.567   2.255
    2V3OU    H1  874   3.627   3.623   2.160
    2V3OU    O3  875   3.659   3.651   2.370
    2V3OU   C19  876   3.621   3.788   2.356
    2V3OU    H9  877   3.527   3.803   2.295
    2V3OU    O4  878   3.720   3.849   2.275
    2V3OU   C20  879   3.854   3.874   2.319
    2V3OU   H10  880   3.898   3.772   2.338
    2V3OU   C24  881   3.612   3.857   2.492
    2V3OU   H16  882   3.547   3.794   2.559
    2V3OU   H17  883   3.558   3.954   2.475
    2V3OU   C23  884   3.752   3.879   2.548
    2V3OU   H15  885   3.794   3.776   2.573
    2V3OU    N1  886   3.736   3.955   2.670
    2V3OU   H19  887   3.815   3.923   2.723
    2V3OU   H20  888   3.644   3.931   2.702
    2V3OU   C21  889   3.853   3.950   2.452
    2V3OU   H11  890   3.959   3.929   2.487
    2V3OU    O5  891   3.827   4.089   2.443
    2V3OU   H18  892   3.777   4.105   2.525
    2V3OU   C22  893   3.917   3.946   2.201
    2V3OU   H12  894   3.865   4.043   2.180
    2V3OU   H13  895   3.906   3.883   2.109
    2V3OU   H14  896   4.025   3.964   2.222
    2V3OU   C11  897   3.168   3.470   2.262
    2V3OU    O1  898   3.142   3.585   2.219
    2V3OU    C9  899   3.304   3.429   2.303
    2V3OU    C7  900   3.408   3.510   2.261
    2V3OU    O9  901   3.390   3.619   2.178
    2V3OU   H25  902   3.294   3.632   2.172
    2V3OU   C17  903   2.824   3.320   2.288
    2V3OU    H7  904   2.722   3.348   2.262
    2V3OU   C18  905   2.849   3.218   2.380
    2V3OU    H8  906   2.770   3.170   2.440
    3SOL     OW  907   3.043   4.796   1.017
    3SOL    HW1  908   3.001   4.706   1.008
    3SOL    HW2  909   3.046   4.822   1.114
    4SOL     OW  910   6.467   5.783   1.665
    4SOL    HW1  911   6.466   5.881   1.684
    4SOL    HW2  912   6.520   5.766   1.582
    5SOL     OW  913   4.835   1.585   2.649
    5SOL    HW1  914   4.771   1.590   2.572
    5SOL    HW2  915   4.928   1.578   2.615
    6SOL     OW  916   3.823   0.992   1.164
    6SOL    HW1  917   3.773   1.062   1.215
    6SOL    HW2  918   3.921   1.013   1.166
    7SOL     OW  919   6.860   4.198   2.210
    7SOL    HW1  920   6.898   4.199   2.303
    7SOL    HW2  921   6.761   4.187   2.214
    8SOL     OW  922   2.761   0.632   6.686
    8SOL    HW1  923   2.763   0.575   6.604
    8SOL    HW2  924   2.801   0.582   6.763
    9SOL     OW  925   6.752   6.758   6.559
    9SOL    HW1  926   6.765   6.856   6.545
    9SOL    HW2  927   6.841   6.712   6.556
   10SOL     OW  928   1.449   5.130   6.402
   10SOL    HW1  929   1.472   5.159   6.495
   10SOL    HW2  930   1.412   5.037   6.404
   11SOL     OW  931   2.500   0.308   6.622
   11SOL    HW1  932   2.569   0.302   6.694
   11SOL    HW2  933   2.431   0.376   6.648
   12SOL     OW  934   4.011   6.924   3.931
   12SOL    HW1  935   4.037   6.891   3.841
   12SOL    HW2  936   4.087   6.976   3.971
   13SOL     OW  937   4.236   5.728   3.762
   13SOL    HW1  938   4.165   5.698   3.825
   13SOL    HW2  939   4.246   5.660   3.689
   14SOL     OW  940   4.236   5.506   5.580
   14SOL    HW1  941   4.210   5.509   5.676
   14SOL    HW2  942   4.219   5.414   5.543
   15SOL     OW  943   1.393   6.278   1.297
   15SOL    HW1  944   1.423   6.278   1.392
   15SOL    HW2  945   1.472   6.296   1.238
   16SOL     OW  946   5.274   3.060   5.375
   16SOL    HW1  947   5.337   3.105   5.438
   16SOL    HW2  948   5.194   3.028   5.424
   17SOL     OW  949   4.859   6.094   5.534
   17SOL    HW1  950   4.766   6.120   5.511
   17SOL    HW2  951   4.907   6.064   5.451
   18SOL     OW  952   3.549   0.932   5.884
   18SOL    HW1  953   3.542   0.848   5.830
   18SOL    HW2  954   3.599   0.913   5.969
   19SOL     OW  955   0.048   0.212   3.204
   19SOL    HW1  956   7.002   0.279   3.187
   19SOL    HW2  957   0.131   0.259   3.233
   20SOL     OW  958   5.769   2.681   4.296
   20SOL    HW1  959   5.793   2.708   4.389
   20SOL    HW2  960   5.710   2.750   4.255
   21SOL     OW  961   3.259   2.142   2.431
   21SOL    HW1  962   3.325   2.070   2.411
   21SOL    HW2  963   3.297   2.230   2.404
   22SOL     OW  964   2.299   6.684   0.501
   22SOL    HW1  965   2.337   6.775   0.484
   22SOL    HW2  966   2.213   6.693   0.551
   23SOL     OW  967   5.030   6.445   3.053
   23SOL    HW1  968   4.962   6.418   3.121
   23SOL    HW2  969   5.121   6.415   3.082
   24SOL     OW  970   4.998   1.648   3.021
   24SOL    HW1  971   5.052   1.731   3.003
   24SOL    HW2  972   4.901   1.669   3.012
   25SOL     OW  973   3.097   0.243   5.166
   25SOL    HW1  974   3.147   0.251   5.080
   25SOL    HW2  975   3.083   0.146   5.187
   26SOL     OW  976   6.683   1.113   0.493
   26SOL    HW1  977   6.752   1.164   0.544
   26SOL    HW2  978   6.726   1.035   0.449
   27SOL     OW  979   1.136   1.849   2.457
   27SOL    HW1  980   1.230   1.845   2.424
   27SOL    HW2  981   1.094   1.758   2.450
   28SOL     OW  982   3.665   1.905   6.481
   28SOL    HW1  983   3.702   1.887   6.390
   28SOL    HW2  984   3.579   1.856   6.493
   29SOL     OW  985   4.700   2.549   2.026
   29SOL    HW1  986   4.634   2.587   1.961
   29SOL    HW2  987   4.755   2.479   1.980
   30SOL     OW  988   3.468   1.259   3.983
   30SOL    HW1  989   3.414   1.175   3.987
   30SOL    HW2  990   3.556   1.244   4.027
   31SOL     OW  991   0.956   2.682   6.426
   31SOL    HW1  992   1.039   2.639   6.461
   31SOL    HW2  993   0.929   2.756   6.487
   32SOL     OW  994   0.248   1.328   2.928
   32SOL    HW1  995   0.192   1.397   2.881
   32SOL    HW2  996   0.188   1.258   2.967
   33SOL     OW  997   2.119   4.334   6.637
   33SOL    HW1  998   2.096   4.421   6.593
   33SOL    HW2  999   2.203   4.297   6.597
   34SOL     OW 1000   2.315   1.410   4.037
   34SOL    HW1 1001   2.387   1.399   3.969
   34SOL    HW2 1002   2.308   1.327   4.092
   35SOL     OW 1003   3.266   3.552   6.433
   35SOL    HW1 1004   3.365   3.558   6.443
   35SOL    HW2 1005   3.232   3.632   6.384
   36SOL     OW 1006   6.273   0.916   5.566
   36SOL    HW1 1007   6.318   0.847   5.511
   36SOL    HW2 1008   6.323   1.002   5.561
   37SOL     OW 1009   1.159   0.844   0.082
   37SOL    HW1 1010   1.096   0.829   0.006
   37SOL    HW2 1011   1.177   0.757   0.127
   38SOL     OW 1012   6.860   4.801   3.139
   38SOL    HW1 1013   6.786   4.793   3.071
   38SOL    HW2 1014   6.878   4.711   3.178
   39SOL     OW 1015   6.901   5.149   6.785
   39SOL    HW1 1016   6.992   5.156   6.825
   39SOL    HW2 1017   6.905   5.094   6.701
   40SOL     OW 1018   4.987   2.034   1.483
   40SOL    HW1 1019   5.069   2.091   1.479
   40SOL    HW2 1020   4.953   2.018   1.390
   41SOL     OW 1021   6.821   5.889   4.093
   41SOL    HW1 1022   6.876   5.943   4.030
   41SOL    HW2 1023   6.874   5.869   4.176
   42SOL     OW 1024   2.661   5.379   5.117
   42SOL    HW1 1025   2.635   5.346   5.208
   42SOL    HW2 1026   2.748   5.338   5.090
   43SOL     OW 1027   5.691   6.416   5.744
   43SOL    HW1 1028   5.728   6.342   5.687
   43SOL    HW2 1029   5.592   6.406   5.754
   44SOL     OW 1030   5.197   1.609   0.091
   44SOL    HW1 1031   5.134   1.548   0.139
   44SOL    HW2 1032   5.208   1.578   7.023
   45SOL     OW 1033   3.969   7.021   2.859
   45SOL    HW1 1034   4.048   7.007   2.800
   45SOL    HW2 1035   3.985   6.978   2.948
   46SOL     OW 1036   0.309   2.916   2.978
   46SOL    HW1 1037   0.369   2.902   2.899
   46SOL    HW2 1038   0.340   2.997   3.029
   47SOL     OW 1039   5.141   4.383   1.207
   47SOL    HW1 1040   5.053   4.383   1.255
   47SOL    HW2 1041   5.165   4.290   1.181
   48SOL     OW 1042   6.793   2.570   5.946
   48SOL    HW1 1043   6.730   2.536   5.877
   48SOL    HW2 1044   6.864   2.502   5.963
   49SOL     OW 1045   5.130   3.633   1.684
   49SOL    HW1 1046   5.210   3.645   1.743
   49SOL    HW2 1047   5.047   3.636   1.740
   50SOL     OW 1048   5.940   1.304   4.799
   50SOL    HW1 1049   5.969   1.345   4.713
   50SOL    HW2 1050   6.018   1.263   4.844
   51SOL     OW 1051   3.129   6.424   3.359
   51SOL    HW1 1052   3.214   6.409   3.410
   51SOL    HW2 1053   3.057   6.449   3.423
   52SOL     OW 1054   5.130   2.506   3.165
   52SOL    HW1 1055   5.134   2.561   3.249
   52SOL    HW2 1056   5.209   2.445   3.161
   53SOL     OW 1057   3.386   6.691   4.722
   53SOL    HW1 1058   3.353   6.745   4.644
   53SOL    HW2 1059   3.369   6.594   4.704
   54SOL     OW 1060   3.755   5.094   0.821
   54SOL    HW1 1061   3.828   5.151   0.857
   54SOL    HW2 1062   3.749   5.009   0.874
   55SOL     OW 1063   2.911   1.942   6.556
   55SOL    HW1 1064   2.934   2.013   6.622
   55SOL    HW2 1065   2.845   1.879   6.597
   56SOL     OW 1066   0.067   0.708   1.414
   56SOL    HW1 1067   0.006   0.729   1.338
   56SOL    HW2 1068   0.153   0.672   1.380
   57SOL     OW 1069   5.545   0.759   1.233
   57SOL    HW1 1070   5.492   0.829   1.280
   57SOL    HW2 1071   5.642   0.786   1.232
   58SOL     OW 1072   6.097   6.506   5.727
   58SOL    HW1 1073   6.105   6.605   5.710
   58SOL    HW2 1074   6.160   6.458   5.666
   59SOL     OW 1075   0.870   1.769   5.239
   59SOL    HW1 1076   0.826   1.687   5.274
   59SOL    HW2 1077   0.961   1.779   5.279
   60SOL     OW 1078   5.585   1.668   5.419
   60SOL    HW1 1079   5.487   1.651   5.415
   60SOL    HW2 1080   5.619   1.690   5.328
   61SOL     OW 1081   5.054   2.679   4.916
   61SOL    HW1 1082   4.998   2.597   4.923
   61SOL    HW2 1083   5.044   2.734   4.999
   62SOL     OW 1084   0.525   1.007   2.371
   62SOL    HW1 1085   0.497   1.015   2.276
   62SOL    HW2 1086   0.446   0.983   2.428
   63SOL     OW 1087   5.066   1.371   3.808
   63SOL    HW1 1088   5.034   1.381   3.714
   63SOL    HW2 1089   4.987   1.370   3.870
   64SOL     OW 1090   6.985   3.642   6.045
   64SOL    HW1 1091   6.983   3.608   5.952
   64SOL    HW2 1092   6.968   3.567   6.109
   65SOL     OW 1093   0.182   5.212   6.519
   65SOL    HW1 1094   0.189   5.113   6.502
   65SOL    HW2 1095   0.089   5.243   6.500
   66SOL     OW 1096   3.891   0.671   5.720
   66SOL    HW1 1097   3.989   0.688   5.714
   66SOL    HW2 1098   3.871   0.619   5.803
   67SOL     OW 1099   5.521   4.391   6.094
   67SOL    HW1 1100   5.456   4.315   6.091
   67SOL    HW2 1101   5.550   4.406   6.188
   68SOL     OW 1102   5.796   1.047   6.699
   68SOL    HW1 1103   5.816   1.145   6.708
   68SOL    HW2 1104   5.815   1.001   6.786
   69SOL     OW 1105   0.456   3.480   5.670
   69SOL    HW1 1106   0.469   3.490   5.768
   69SOL    HW2 1107   0.409   3.394   5.651
   70SOL     OW 1108   5.378   4.017   4.394
   70SOL    HW1 1109   5.412   4.006   4.488
   70SOL    HW2 1110   5.455   4.013   4.330
   71SOL     OW 1111   3.784   1.810   2.800
   71SOL    HW1 1112   3.745   1.888   2.849
   71SOL    HW2 1113   3.834   1.843   2.720
   72SOL     OW 1114   1.841   6.275   4.473
   72SOL    HW1 1115   1.815   6.191   4.521
   72SOL    HW2 1116   1.777   6.292   4.398
   73SOL     OW 1117   3.280   1.122   0.766
   73SOL    HW1 1118   3.199   1.097   0.713
   73SOL    HW2 1119   3.299   1.219   0.754
   74SOL     OW 1120   5.108   6.731   0.036
   74SOL    HW1 1121   5.024   6.737   7.007
   74SOL    HW2 1122   5.086   6.693   0.126
   75SOL     OW 1123   3.868   0.172   0.730
   75SOL    HW1 1124   3.861   0.247   0.795
   75SOL    HW2 1125   3.801   0.185   0.656
   76SOL     OW 1126   2.926   3.461   0.716
   76SOL    HW1 1127   2.852   3.453   0.648
   76SOL    HW2 1128   2.991   3.531   0.686
   77SOL     OW 1129   6.578   6.512   3.526
   77SOL    HW1 1130   6.602   6.498   3.622
   77SOL    HW2 1131   6.645   6.466   3.468
   78SOL     OW 1132   5.455   0.912   0.223
   78SOL    HW1 1133   5.364   0.954   0.224
   78SOL    HW2 1134   5.505   0.943   0.142
   79SOL     OW 1135   3.157   6.146   0.576
   79SOL    HW1 1136   3.138   6.048   0.570
   79SOL    HW2 1137   3.256   6.160   0.570
   80SOL     OW 1138   5.544   1.797   4.076
   80SOL    HW1 1139   5.525   1.890   4.109
   80SOL    HW2 1140   5.457   1.752   4.054
   81SOL     OW 1141   2.115   6.680   2.870
   81SOL    HW1 1142   2.019   6.686   2.898
   81SOL    HW2 1143   2.127   6.603   2.808
   82SOL     OW 1144   6.613   4.813   1.064
   82SOL    HW1 1145   6.663   4.728   1.047
   82SOL    HW2 1146   6.531   4.793   1.118
   83SOL     OW 1147   0.269   1.097   6.885
   83SOL    HW1 1148   0.291   1.056   6.973
   83SOL    HW2 1149   0.282   1.028   6.813
   84SOL     OW 1150   5.664   2.648   3.428
   84SOL    HW1 1151   5.633   2.743   3.423
   84SOL    HW2 1152   5.611   2.599   3.497
   85SOL     OW 1153   1.577   1.785   4.309
   85SOL    HW1 1154   1.517   1.796   4.389
   85SOL    HW2 1155   1.577   1.869   4.256
   86SOL     OW 1156   6.601   0.488   5.023
   86SOL    HW1 1157   6.558   0.524   5.105
   86SOL    HW2 1158   6.543   0.504   4.943
   87SOL     OW 1159   4.665   3.275   0.493
   87SOL    HW1 1160   4.624   3.204   0.436
   87SOL    HW2 1161   4.619   3.278   0.582
   88SOL     OW 1162   3.484   1.887   5.599
   88SOL    HW1 1163   3.500   1.851   5.507
   88SOL    HW2 1164   3.493   1.987   5.598
   89SOL     OW 1165   1.282   2.561   6.000
   89SOL    HW1 1166   1.267   2.506   6.082
   89SOL    HW2 1167   1.277   2.502   5.919
   90SOL     OW 1168   3.524   5.589   2.246
   90SOL    HW1 1169   3.516   5.597   2.147
   90SOL    HW2 1170   3.560   5.499   2.269
   91SOL     OW 1171   5.054   4.355   4.977
   91SOL    HW1 1172   5.073   4.392   4.886
   91SOL    HW2 1173   4.962   4.315   4.978
   92SOL     OW 1174   4.238   4.536   0.223
   92SOL    HW1 1175   4.213   4.626   0.189
   92SOL    HW2 1176   4.255   4.542   0.322
   93SOL     OW 1177   2.892   4.171   6.693
   93SOL    HW1 1178   2.848   4.116   6.622
   93SOL    HW2 1179   2.960   4.115   6.741
   94SOL     OW 1180   2.025   5.701   6.635
   94SOL    HW1 1181   2.023   5.741   6.543
   94SOL    HW2 1182   1.950   5.738   6.689
   95SOL     OW 1183   1.345   0.457   3.514
   95SOL    HW1 1184   1.344   0.436   3.612
   95SOL    HW2 1185   1.431   0.424   3.474
   96SOL     OW 1186   3.443   0.186   5.142
   96SOL    HW1 1187   3.539   0.197   5.119
   96SOL    HW2 1188   3.407   0.272   5.180
   97SOL     OW 1189   2.261   2.951   5.832
   97SOL    HW1 1190   2.184   2.989   5.883
   97SOL    HW2 1191   2.336   2.932   5.896
   98SOL     OW 1192   7.017   3.712   1.098
   98SOL    HW1 1193   0.003   3.800   1.145
   98SOL    HW2 1194   0.057   3.646   1.134
   99SOL     OW 1195   3.712   3.237   0.981
   99SOL    HW1 1196   3.622   3.221   0.940
   99SOL    HW2 1197   3.767   3.293   0.920
  100SOL     OW 1198   6.872   6.914   5.054
  100SOL    HW1 1199   6.779   6.893   5.086
  100SOL    HW2 1200   6.933   6.839   5.079
  101SOL     OW 1201   1.507   5.055   2.561
  101SOL    HW1 1202   1.573   4.983   2.539
  101SOL    HW2 1203   1.456   5.080   2.479
  102SOL     OW 1204   4.228   5.883   2.638
  102SOL    HW1 1205   4.327   5.881   2.624
  102SOL    HW2 1206   4.183   5.851   2.554
  103SOL     OW 1207   2.431   1.382   1.737
  103SOL    HW1 1208   2.499   1.411   1.804
  103SOL    HW2 1209   2.351   1.442   1.742
  104SOL     OW 1210   0.968   5.714   2.397
  104SOL    HW1 1211   0.971   5.694   2.299
  104SOL    HW2 1212   1.052   5.760   2.424
  105SOL     OW 1213   6.503   2.687   6.817
  105SOL    HW1 1214   6.442   2.608   6.807
  105SOL    HW2 1215   6.467   2.763   6.763
  106SOL     OW 1216   3.312   6.376   4.671
  106SOL    HW1 1217   3.219   6.408   4.688
  106SOL    HW2 1218   3.344   6.323   4.750
  107SOL     OW 1219   2.043   1.249   1.366
  107SOL    HW1 1220   2.131   1.223   1.325
  107SOL    HW2 1221   2.015   1.338   1.331
  108SOL     OW 1222   2.876   5.285   5.419
  108SOL    HW1 1223   2.963   5.331   5.403
  108SOL    HW2 1224   2.882   5.190   5.388
  109SOL     OW 1225   0.170   0.253   1.375
  109SOL    HW1 1226   0.230   0.191   1.325
  109SOL    HW2 1227   0.156   0.336   1.321
  110SOL     OW 1228   3.372   5.751   4.878
  110SOL    HW1 1229   3.335   5.693   4.951
  110SOL    HW2 1230   3.454   5.709   4.840
  111SOL     OW 1231   2.506   1.324   4.461
  111SOL    HW1 1232   2.497   1.250   4.528
  111SOL    HW2 1233   2.514   1.412   4.509
  112SOL     OW 1234   3.675   6.806   6.610
  112SOL    HW1 1235   3.733   6.785   6.689
  112SOL    HW2 1236   3.659   6.722   6.557
  113SOL     OW 1237   6.631   5.887   3.266
  113SOL    HW1 1238   6.729   5.869   3.270
  113SOL    HW2 1239   6.598   5.868   3.173
  114SOL     OW 1240   0.465   6.966   1.668
  114SOL    HW1 1241   0.408   0.007   1.621
  114SOL    HW2 1242   0.490   7.001   1.759
  115SOL     OW 1243   4.604   1.736   3.359
  115SOL    HW1 1244   4.683   1.785   3.320
  115SOL    HW2 1245   4.569   1.672   3.291
  116SOL     OW 1246   5.896   5.043   1.257
  116SOL    HW1 1247   5.978   5.014   1.306
  116SOL    HW2 1248   5.910   5.133   1.217
  117SOL     OW 1249   1.493   2.137   0.541
  117SOL    HW1 1250   1.571   2.164   0.483
  117SOL    HW2 1251   1.490   2.197   0.621
  118SOL     OW 1252   1.487   0.982   3.302
  118SOL    HW1 1253   1.543   0.900   3.319
  118SOL    HW2 1254   1.491   1.005   3.205
  119SOL     OW 1255   0.501   0.753   6.547
  119SOL    HW1 1256   0.486   0.704   6.633
  119SOL    HW2 1257   0.438   0.719   6.478
  120SOL     OW 1258   6.258   0.058   6.614
  120SOL    HW1 1259   6.194   0.107   6.674
  120SOL    HW2 1260   6.207   0.003   6.548
  121SOL     OW 1261   1.433   3.900   6.207
  121SOL    HW1 1262   1.358   3.917   6.271
  121SOL    HW2 1263   1.401   3.840   6.133
  122SOL     OW 1264   1.697   3.363   5.884
  122SOL    HW1 1265   1.707   3.458   5.855
  122SOL    HW2 1266   1.786   3.327   5.911
  123SOL     OW 1267   0.657   1.014   2.796
  123SOL    HW1 1268   0.689   0.929   2.754
  123SOL    HW2 1269   0.649   1.085   2.726
  124SOL     OW 1270   4.474   2.590   0.469
  124SOL    HW1 1271   4.375   2.579   0.464
  124SOL    HW2 1272   4.512   2.592   0.377
  125SOL     OW 1273   2.538   1.877   1.282
  125SOL    HW1 1274   2.633   1.902   1.300
  125SOL    HW2 1275   2.477   1.938   1.333
  126SOL     OW 1276   2.224   4.026   1.041
  126SOL    HW1 1277   2.187   3.938   1.070
  126SOL    HW2 1278   2.156   4.075   0.988
  127SOL     OW 1279   0.919   5.544   0.303
  127SOL    HW1 1280   0.998   5.554   0.364
  127SOL    HW2 1281   0.944   5.572   0.211
  128SOL     OW 1282   5.481   2.623   1.353
  128SOL    HW1 1283   5.426   2.655   1.276
  128SOL    HW2 1284   5.462   2.681   1.433
  129SOL     OW 1285   1.843   3.506   6.170
  129SOL    HW1 1286   1.936   3.472   6.159
  129SOL    HW2 1287   1.832   3.546   6.261
  130SOL     OW 1288   1.084   2.153   3.928
  130SOL    HW1 1289   1.137   2.087   3.875
  130SOL    HW2 1290   1.081   2.124   4.023
  131SOL     OW 1291   5.538   2.045   3.815
  131SOL    HW1 1292   5.598   2.078   3.888
  131SOL    HW2 1293   5.587   2.045   3.728
  132SOL     OW 1294   2.559   3.025   1.029
  132SOL    HW1 1295   2.613   3.110   1.023
  132SOL    HW2 1296   2.467   3.046   1.060
  133SOL     OW 1297   4.789   6.864   4.040
  133SOL    HW1 1298   4.787   6.771   4.005
  133SOL    HW2 1299   4.852   6.919   3.986
  134SOL     OW 1300   6.399   0.783   2.926
  134SOL    HW1 1301   6.354   0.726   2.857
  134SOL    HW2 1302   6.414   0.730   3.009
  135SOL     OW 1303   5.595   3.834   3.396
  135SOL    HW1 1304   5.679   3.883   3.419
  135SOL    HW2 1305   5.564   3.782   3.475
  136SOL     OW 1306   2.907   4.411   5.582
  136SOL    HW1 1307   2.981   4.469   5.547
  136SOL    HW2 1308   2.842   4.393   5.509
  137SOL     OW 1309   6.199   2.360   4.308
  137SOL    HW1 1310   6.232   2.325   4.221
  137SOL    HW2 1311   6.125   2.426   4.292
  138SOL     OW 1312   1.254   4.417   2.451
  138SOL    HW1 1313   1.275   4.505   2.408
  138SOL    HW2 1314   1.170   4.380   2.411
  139SOL     OW 1315   1.807   0.040   5.162
  139SOL    HW1 1316   1.719   7.023   5.147
  139SOL    HW2 1317   1.880   7.007   5.129
  140SOL     OW 1318   0.979   5.934   2.709
  140SOL    HW1 1319   1.034   5.981   2.779
  140SOL    HW2 1320   0.910   5.997   2.673
  141SOL     OW 1321   0.009   2.364   5.394
  141SOL    HW1 1322   0.034   2.312   5.313
  141SOL    HW2 1323   0.022   2.461   5.377
  142SOL     OW 1324   0.822   3.817   1.069
  142SOL    HW1 1325   0.860   3.817   1.162
  142SOL    HW2 1326   0.893   3.843   1.004
  143SOL     OW 1327   6.104   4.403   1.232
  143SOL    HW1 1328   6.201   4.396   1.211
  143SOL    HW2 1329   6.061   4.470   1.172
  144SOL     OW 1330   1.289   5.581   5.523
  144SOL    HW1 1331   1.232   5.532   5.457
  144SOL    HW2 1332   1.243   5.667   5.548
  145SOL     OW 1333   6.956   5.414   0.402
  145SOL    HW1 1334   0.005   5.348   0.406
  145SOL    HW2 1335   6.993   5.504   0.379
  146SOL     OW 1336   4.445   0.303   6.246
  146SOL    HW1 1337   4.449   0.218   6.195
  146SOL    HW2 1338   4.530   0.355   6.232
  147SOL     OW 1339   6.173   3.787   6.314
  147SOL    HW1 1340   6.259   3.778   6.365
  147SOL    HW2 1341   6.150   3.699   6.273
  148SOL     OW 1342   6.603   5.255   0.022
  148SOL    HW1 1343   6.633   5.169   7.007
  148SOL    HW2 1344   6.657   5.330   7.011
  149SOL     OW 1345   3.465   2.092   3.678
  149SOL    HW1 1346   3.387   2.121   3.623
  149SOL    HW2 1347   3.544   2.078   3.618
  150SOL     OW 1348   5.984   6.075   0.146
  150SOL    HW1 1349   6.051   6.026   0.202
  150SOL    HW2 1350   6.024   6.161   0.115
  151SOL     OW 1351   2.752   2.842   0.975
  151SOL    HW1 1352   2.765   2.854   0.877
  151SOL    HW2 1353   2.675   2.898   1.005
  152SOL     OW 1354   1.112   0.765   1.990
  152SOL    HW1 1355   1.024   0.729   2.021
  152SOL    HW2 1356   1.186   0.713   2.033
  153SOL     OW 1357   2.895   0.599   1.866
  153SOL    HW1 1358   2.918   0.635   1.956
  153SOL    HW2 1359   2.946   0.650   1.796
  154SOL     OW 1360   0.510   2.089   2.163
  154SOL    HW1 1361   0.552   2.175   2.136
  154SOL    HW2 1362   0.439   2.064   2.097
  155SOL     OW 1363   0.224   1.407   3.767
  155SOL    HW1 1364   0.228   1.491   3.712
  155SOL    HW2 1365   0.275   1.422   3.852
  156SOL     OW 1366   0.066   2.350   0.626
  156SOL    HW1 1367   0.156   2.393   0.625
  156SOL    HW2 1368   0.028   2.355   0.718
  157SOL     OW 1369   5.090   3.317   1.772
  157SOL    HW1 1370   5.001   3.270   1.775
  157SOL    HW2 1371   5.127   3.314   1.679
  158SOL     OW 1372   2.497   4.902   2.221
  158SOL    HW1 1373   2.567   4.834   2.241
  158SOL    HW2 1374   2.509   4.981   2.282
  159SOL     OW 1375   4.761   4.652   2.149
  159SOL    HW1 1376   4.830   4.580   2.141
  159SOL    HW2 1377   4.687   4.635   2.084
  160SOL     OW 1378   5.151   5.338   0.696
  160SOL    HW1 1379   5.223   5.280   0.656
  160SOL    HW2 1380   5.104   5.288   0.768
  161SOL     OW 1381   2.151   5.801   4.294
  161SOL    HW1 1382   2.177   5.851   4.212
  161SOL    HW2 1383   2.205   5.718   4.301
  162SOL     OW 1384   3.832   5.708   0.304
  162SOL    HW1 1385   3.748   5.756   0.278
  162SOL    HW2 1386   3.838   5.622   0.254
  163SOL     OW 1387   6.183   5.296   1.254
  163SOL    HW1 1388   6.114   5.338   1.196
  163SOL    HW2 1389   6.215   5.211   1.213
  164SOL     OW 1390   6.934   4.988   0.869
  164SOL    HW1 1391   6.999   5.019   0.939
  164SOL    HW2 1392   6.975   4.996   0.779
  165SOL     OW 1393   5.193   3.085   1.075
  165SOL    HW1 1394   5.223   3.180   1.085
  165SOL    HW2 1395   5.173   3.048   1.166
  166SOL     OW 1396   0.043   3.814   2.961
  166SOL    HW1 1397   0.014   3.719   2.949
  166SOL    HW2 1398   6.990   3.874   2.958
  167SOL     OW 1399   4.972   2.424   0.644
  167SOL    HW1 1400   4.996   2.482   0.567
  167SOL    HW2 1401   4.910   2.352   0.613
  168SOL     OW 1402   2.624   3.424   1.288
  168SOL    HW1 1403   2.555   3.454   1.223
  168SOL    HW2 1404   2.587   3.348   1.342
  169SOL     OW 1405   5.024   1.721   2.072
  169SOL    HW1 1406   5.012   1.741   2.169
  169SOL    HW2 1407   4.973   1.787   2.017
  170SOL     OW 1408   1.032   1.012   3.389
  170SOL    HW1 1409   1.120   1.044   3.423
  170SOL    HW2 1410   1.044   0.921   3.347
  171SOL     OW 1411   3.311   4.727   6.034
  171SOL    HW1 1412   3.273   4.639   6.003
  171SOL    HW2 1413   3.351   4.775   5.956
  172SOL     OW 1414   6.033   1.699   3.087
  172SOL    HW1 1415   6.031   1.745   2.999
  172SOL    HW2 1416   5.980   1.751   3.154
  173SOL     OW 1417   6.222   1.845   4.361
  173SOL    HW1 1418   6.188   1.776   4.424
  173SOL    HW2 1419   6.164   1.926   4.365
  174SOL     OW 1420   4.243   5.177   3.229
  174SOL    HW1 1421   4.198   5.202   3.143
  174SOL    HW2 1422   4.279   5.084   3.222
  175SOL     OW 1423   2.709   0.210   1.620
  175SOL    HW1 1424   2.680   0.184   1.712
  175SOL    HW2 1425   2.790   0.269   1.626
  176SOL     OW 1426   0.938   4.962   0.344
  176SOL    HW1 1427   0.932   4.862   0.357
  176SOL    HW2 1428   1.034   4.989   0.338
  177SOL     OW 1429   5.733   3.239   2.851
  177SOL    HW1 1430   5.833   3.241   2.859
  177SOL    HW2 1431   5.693   3.304   2.916
  178SOL     OW 1432   2.471   3.350   6.657
  178SOL    HW1 1433   2.380   3.309   6.650
  178SOL    HW2 1434   2.463   3.450   6.659
  179SOL     OW 1435   3.690   0.871   5.236
  179SOL    HW1 1436   3.728   0.848   5.325
  179SOL    HW2 1437   3.765   0.891   5.172
  180SOL     OW 1438   2.121   6.586   0.326
  180SOL    HW1 1439   2.107   6.494   0.363
  180SOL    HW2 1440   2.205   6.624   0.364
  181SOL     OW 1441   3.313   3.035   6.196
  181SOL    HW1 1442   3.357   2.963   6.143
  181SOL    HW2 1443   3.215   3.016   6.204
  182SOL     OW 1444   3.895   1.694   5.086
  182SOL    HW1 1445   3.827   1.631   5.048
  182SOL    HW2 1446   3.893   1.780   5.035
  183SOL     OW 1447   4.070   2.229   3.313
  183SOL    HW1 1448   4.099   2.293   3.384
  183SOL    HW2 1449   4.004   2.164   3.351
  184SOL     OW 1450   1.065   6.234   4.350
  184SOL    HW1 1451   0.994   6.209   4.284
  184SOL    HW2 1452   1.026   6.290   4.423
  185SOL     OW 1453   0.599   1.482   6.016
  185SOL    HW1 1454   0.651   1.566   6.031
  185SOL    HW2 1455   0.543   1.463   6.097
  186SOL     OW 1456   5.955   0.560   4.694
  186SOL    HW1 1457   5.921   0.646   4.656
  186SOL    HW2 1458   5.898   0.484   4.662
  187SOL     OW 1459   4.267   7.021   2.758
  187SOL    HW1 1460   4.295   6.998   2.851
  187SOL    HW2 1461   4.240   0.091   2.754
  188SOL     OW 1462   0.638   1.646   3.404
  188SOL    HW1 1463   0.731   1.682   3.406
  188SOL    HW2 1464   0.584   1.697   3.337
  189SOL     OW 1465   2.280   5.505   1.306
  189SOL    HW1 1466   2.247   5.570   1.374
  189SOL    HW2 1467   2.245   5.414   1.327
  190SOL     OW 1468   5.271   2.592   4.758
  190SOL    HW1 1469   5.239   2.540   4.680
  190SOL    HW2 1470   5.193   2.624   4.812
  191SOL     OW 1471   5.899   0.082   6.827
  191SOL    HW1 1472   5.875   0.007   6.765
  191SOL    HW2 1473   5.964   0.143   6.782
  192SOL     OW 1474   1.028   5.873   2.125
  192SOL    HW1 1475   1.115   5.826   2.138
  192SOL    HW2 1476   0.968   5.819   2.066
  193SOL     OW 1477   4.540   3.155   5.557
  193SOL    HW1 1478   4.495   3.075   5.518
  193SOL    HW2 1479   4.470   3.220   5.587
  194SOL     OW 1480   3.958   0.593   2.967
  194SOL    HW1 1481   3.956   0.657   3.043
  194SOL    HW2 1482   3.983   0.641   2.883
  195SOL     OW 1483   2.293   0.302   5.011
  195SOL    HW1 1484   2.358   0.235   4.973
  195SOL    HW2 1485   2.336   0.349   5.088
  196SOL     OW 1486   2.848   0.219   0.728
  196SOL    HW1 1487   2.765   0.234   0.782
  196SOL    HW2 1488   2.881   0.306   0.693
  197SOL     OW 1489   2.595   0.261   1.370
  197SOL    HW1 1490   2.576   0.170   1.334
  197SOL    HW2 1491   2.650   0.253   1.453
  198SOL     OW 1492   4.917   0.692   2.201
  198SOL    HW1 1493   4.967   0.612   2.233
  198SOL    HW2 1494   4.822   0.666   2.179
  199SOL     OW 1495   6.592   1.440   3.706
  199SOL    HW1 1496   6.681   1.426   3.749
  199SOL    HW2 1497   6.532   1.364   3.728
  200SOL     OW 1498   1.011   4.515   1.141
  200SOL    HW1 1499   1.110   4.499   1.151
  200SOL    HW2 1500   0.974   4.453   1.073
  201SOL     OW 1501   6.769   0.055   5.456
  201SOL    HW1 1502   6.669   0.058   5.457
  201SOL    HW2 1503   6.805   0.148   5.449
  202SOL     OW 1504   4.476   1.167   0.145
  202SOL    HW1 1505   4.461   1.248   0.089
  202SOL    HW2 1506   4.571   1.165   0.177
  203SOL     OW 1507   5.684   2.422   5.064
  203SOL    HW1 1508   5.740   2.379   4.994
  203SOL    HW2 1509   5.726   2.406   5.154
  204SOL     OW 1510   1.211   0.312   5.290
  204SOL    HW1 1511   1.226   0.248   5.214
  204SOL    HW2 1512   1.170   0.396   5.255
  205SOL     OW 1513   0.475   2.013   2.810
  205SOL    HW1 1514   0.392   1.960   2.789
  205SOL    HW2 1515   0.521   2.037   2.725
  206SOL     OW 1516   0.627   4.767   0.583
  206SOL    HW1 1517   0.658   4.747   0.490
  206SOL    HW2 1518   0.537   4.727   0.597
  207SOL     OW 1519   6.218   1.345   3.867
  207SOL    HW1 1520   6.241   1.324   3.962
  207SOL    HW2 1521   6.194   1.442   3.859
  208SOL     OW 1522   6.412   3.611   4.949
  208SOL    HW1 1523   6.343   3.671   4.990
  208SOL    HW2 1524   6.485   3.666   4.909
  209SOL     OW 1525   0.440   5.426   4.441
  209SOL    HW1 1526   0.344   5.397   4.435
  209SOL    HW2 1527   0.498   5.357   4.398
  210SOL     OW 1528   4.133   1.912   0.393
  210SOL    HW1 1529   4.116   1.957   0.480
  210SOL    HW2 1530   4.179   1.824   0.409
  211SOL     OW 1531   1.823   6.301   2.445
  211SOL    HW1 1532   1.725   6.299   2.423
  211SOL    HW2 1533   1.853   6.209   2.473
  212SOL     OW 1534   1.027   4.037   2.275
  212SOL    HW1 1535   1.078   3.957   2.242
  212SOL    HW2 1536   1.038   4.044   2.374
  213SOL     OW 1537   3.200   0.693   0.761
  213SOL    HW1 1538   3.285   0.743   0.782
  213SOL    HW2 1539   3.201   0.666   0.665
  214SOL     OW 1540   4.551   4.829   1.947
  214SOL    HW1 1541   4.581   4.770   1.872
  214SOL    HW2 1542   4.453   4.820   1.960
  215SOL     OW 1543   2.146   4.174   0.717
  215SOL    HW1 1544   2.218   4.230   0.677
  215SOL    HW2 1545   2.083   4.233   0.768
  216SOL     OW 1546   2.123   6.253   4.140
  216SOL    HW1 1547   2.100   6.315   4.215
  216SOL    HW2 1548   2.066   6.171   4.146
  217SOL     OW 1549   1.521   2.083   3.812
  217SOL    HW1 1550   1.487   2.164   3.859
  217SOL    HW2 1551   1.587   2.110   3.742
  218SOL     OW 1552   0.137   3.290   4.778
  218SOL    HW1 1553   0.196   3.370   4.785
  218SOL    HW2 1554   0.070   3.304   4.704
  219SOL     OW 1555   4.502   0.422   6.925
  219SOL    HW1 1556   4.475   0.513   6.957
  219SOL    HW2 1557   4.497   0.419   6.825
  220SOL     OW 1558   3.061   6.853   1.567
  220SOL    HW1 1559   2.997   6.923   1.535
  220SOL    HW2 1560   3.033   6.764   1.533
  221SOL     OW 1561   6.541   3.973   0.950
  221SOL    HW1 1562   6.630   3.927   0.952
  221SOL    HW2 1563   6.523   4.007   0.858
  222SOL     OW 1564   1.585   4.770   5.884
  222SOL    HW1 1565   1.561   4.790   5.979
  222SOL    HW2 1566   1.503   4.771   5.827
  223SOL     OW 1567   6.057   3.510   6.552
  223SOL    HW1 1568   6.154   3.487   6.560
  223SOL    HW2 1569   6.034   3.524   6.456
  224SOL     OW 1570   2.288   1.947   4.609
  224SOL    HW1 1571   2.384   1.971   4.617
  224SOL    HW2 1572   2.251   1.985   4.524
  225SOL     OW 1573   4.432   3.931   6.186
  225SOL    HW1 1574   4.417   3.935   6.087
  225SOL    HW2 1575   4.506   3.994   6.212
  226SOL     OW 1576   1.616   1.429   5.522
  226SOL    HW1 1577   1.554   1.388   5.456
  226SOL    HW2 1578   1.609   1.529   5.519
  227SOL     OW 1579   1.689   3.580   2.257
  227SOL    HW1 1580   1.771   3.532   2.224
  227SOL    HW2 1581   1.612   3.516   2.261
  228SOL     OW 1582   3.137   6.791   3.767
  228SOL    HW1 1583   3.099   6.883   3.777
  228SOL    HW2 1584   3.099   6.731   3.837
  229SOL     OW 1585   5.932   6.067   6.900
  229SOL    HW1 1586   5.939   6.055   6.999
  229SOL    HW2 1587   5.890   6.155   6.880
  230SOL     OW 1588   3.308   5.053   3.659
  230SOL    HW1 1589   3.361   5.058   3.743
  230SOL    HW2 1590   3.233   4.987   3.670
  231SOL     OW 1591   6.490   2.067   6.790
  231SOL    HW1 1592   6.426   2.144   6.781
  231SOL    HW2 1593   6.548   2.082   6.870
  232SOL     OW 1594   0.785   3.050   6.854
  232SOL    HW1 1595   0.777   3.002   6.941
  232SOL    HW2 1596   0.704   3.108   6.841
  233SOL     OW 1597   3.108   1.384   2.939
  233SOL    HW1 1598   3.139   1.289   2.952
  233SOL    HW2 1599   3.175   1.446   2.980
  234SOL     OW 1600   5.432   0.593   5.541
  234SOL    HW1 1601   5.471   0.504   5.568
  234SOL    HW2 1602   5.360   0.578   5.474
  235SOL     OW 1603   3.798   2.491   1.483
  235SOL    HW1 1604   3.872   2.435   1.521
  235SOL    HW2 1605   3.742   2.528   1.558
  236SOL     OW 1606   5.281   2.656   6.412
  236SOL    HW1 1607   5.237   2.573   6.376
  236SOL    HW2 1608   5.259   2.665   6.509
  237SOL     OW 1609   6.325   4.662   1.716
  237SOL    HW1 1610   6.397   4.721   1.751
  237SOL    HW2 1611   6.359   4.610   1.638
  238SOL     OW 1612   5.393   1.837   0.412
  238SOL    HW1 1613   5.323   1.883   0.359
  238SOL    HW2 1614   5.396   1.875   0.504
  239SOL     OW 1615   0.791   5.101   0.134
  239SOL    HW1 1616   0.848   5.045   0.194
  239SOL    HW2 1617   0.695   5.082   0.153
  240SOL     OW 1618   7.025   2.934   3.500
  240SOL    HW1 1619   0.087   2.958   3.459
  240SOL    HW2 1620   0.003   2.949   3.599
  241SOL     OW 1621   2.408   2.245   5.087
  241SOL    HW1 1622   2.500   2.277   5.108
  241SOL    HW2 1623   2.410   2.146   5.071
  242SOL     OW 1624   3.309   3.767   4.052
  242SOL    HW1 1625   3.309   3.668   4.065
  242SOL    HW2 1626   3.333   3.788   3.957
  243SOL     OW 1627   4.297   0.621   5.946
  243SOL    HW1 1628   4.235   0.557   5.900
  243SOL    HW2 1629   4.337   0.576   6.026
  244SOL     OW 1630   6.067   2.607   5.005
  244SOL    HW1 1631   6.141   2.562   5.055
  244SOL    HW2 1632   6.055   2.563   4.916
  245SOL     OW 1633   5.496   3.488   4.095
  245SOL    HW1 1634   5.567   3.426   4.061
  245SOL    HW2 1635   5.536   3.577   4.115
  246SOL     OW 1636   4.400   2.469   3.707
  246SOL    HW1 1637   4.486   2.519   3.721
  246SOL    HW2 1638   4.367   2.436   3.795
  247SOL     OW 1639   2.993   2.115   1.063
  247SOL    HW1 1640   2.975   2.022   1.030
  247SOL    HW2 1641   3.042   2.110   1.151
  248SOL     OW 1642   3.691   1.228   2.492
  248SOL    HW1 1643   3.688   1.235   2.591
  248SOL    HW2 1644   3.749   1.301   2.455
  249SOL     OW 1645   3.899   6.919   4.617
  249SOL    HW1 1646   3.853   6.837   4.583
  249SOL    HW2 1647   3.834   6.995   4.619
  250SOL     OW 1648   4.956   2.712   0.576
  250SOL    HW1 1649   4.948   2.677   0.669
  250SOL    HW2 1650   4.865   2.717   0.535
  251SOL     OW 1651   4.782   4.207   5.736
  251SOL    HW1 1652   4.816   4.129   5.682
  251SOL    HW2 1653   4.694   4.236   5.700
  252SOL     OW 1654   6.420   5.817   0.049
  252SOL    HW1 1655   6.372   5.778   0.128
  252SOL    HW2 1656   6.373   5.790   6.991
  253SOL     OW 1657   2.435   5.685   6.034
  253SOL    HW1 1658   2.534   5.691   6.037
  253SOL    HW2 1659   2.400   5.667   6.127
  254SOL     OW 1660   5.544   2.500   3.625
  254SOL    HW1 1661   5.609   2.522   3.698
  254SOL    HW2 1662   5.452   2.497   3.663
  255SOL     OW 1663   1.733   4.439   5.372
  255SOL    HW1 1664   1.809   4.415   5.312
  255SOL    HW2 1665   1.658   4.373   5.360
  256SOL     OW 1666   6.097   3.502   6.257
  256SOL    HW1 1667   6.037   3.475   6.182
  256SOL    HW2 1668   6.159   3.427   6.280
  257SOL     OW 1669   4.795   0.276   3.861
  257SOL    HW1 1670   4.705   0.307   3.892
  257SOL    HW2 1671   4.789   0.249   3.765
  258SOL     OW 1672   2.008   5.109   4.754
  258SOL    HW1 1673   2.048   5.151   4.836
  258SOL    HW2 1674   1.953   5.030   4.781
  259SOL     OW 1675   0.342   1.745   2.591
  259SOL    HW1 1676   0.377   1.698   2.671
  259SOL    HW2 1677   0.417   1.766   2.529
  260SOL     OW 1678   4.712   0.652   1.353
  260SOL    HW1 1679   4.752   0.696   1.433
  260SOL    HW2 1680   4.654   0.576   1.382
  261SOL     OW 1681   6.800   3.549   1.111
  261SOL    HW1 1682   6.809   3.461   1.157
  261SOL    HW2 1683   6.887   3.598   1.116
  262SOL     OW 1684   0.387   3.934   0.415
  262SOL    HW1 1685   0.404   4.012   0.476
  262SOL    HW2 1686   0.466   3.873   0.416
  263SOL     OW 1687   1.933   0.599   3.874
  263SOL    HW1 1688   1.938   0.654   3.957
  263SOL    HW2 1689   1.847   0.617   3.827
  264SOL     OW 1690   6.203   2.932   6.629
  264SOL    HW1 1691   6.239   2.870   6.559
  264SOL    HW2 1692   6.130   2.987   6.590
  265SOL     OW 1693   5.310   6.366   2.257
  265SOL    HW1 1694   5.404   6.395   2.278
  265SOL    HW2 1695   5.246   6.415   2.316
  266SOL     OW 1696   3.317   2.906   5.591
  266SOL    HW1 1697   3.394   2.902   5.654
  266SOL    HW2 1698   3.238   2.945   5.637
  267SOL     OW 1699   0.545   1.430   6.700
  267SOL    HW1 1700   0.485   1.449   6.622
  267SOL    HW2 1701   0.593   1.343   6.685
  268SOL     OW 1702   3.529   0.688   5.732
  268SOL    HW1 1703   3.510   0.719   5.639
  268SOL    HW2 1704   3.628   0.684   5.746
  269SOL     OW 1705   0.624   3.424   2.047
  269SOL    HW1 1706   0.611   3.469   1.959
  269SOL    HW2 1707   0.665   3.334   2.032
  270SOL     OW 1708   0.877   0.068   0.574
  270SOL    HW1 1709   0.856   0.112   0.662
  270SOL    HW2 1710   0.795   0.068   0.517
  271SOL     OW 1711   0.027   1.727   6.534
  271SOL    HW1 1712   0.005   1.792   6.606
  271SOL    HW2 1713   6.969   1.700   6.487
  272SOL     OW 1714   3.371   5.573   4.536
  272SOL    HW1 1715   3.276   5.603   4.542
  272SOL    HW2 1716   3.380   5.505   4.463
  273SOL     OW 1717   1.757   4.520   4.991
  273SOL    HW1 1718   1.857   4.518   4.987
  273SOL    HW2 1719   1.727   4.608   5.027
  274SOL     OW 1720   4.271   2.135   3.100
  274SOL    HW1 1721   4.216   2.159   3.019
  274SOL    HW2 1722   4.217   2.153   3.182
  275SOL     OW 1723   6.106   4.307   5.433
  275SOL    HW1 1724   6.063   4.386   5.388
  275SOL    HW2 1725   6.077   4.303   5.528
  276SOL     OW 1726   6.898   6.547   2.950
  276SOL    HW1 1727   6.984   6.583   2.985
  276SOL    HW2 1728   6.877   6.460   2.996
  277SOL     OW 1729   1.324   3.978   0.396
  277SOL    HW1 1730   1.340   3.926   0.480
  277SOL    HW2 1731   1.246   3.939   0.348
  278SOL     OW 1732   6.504   5.104   2.245
  278SOL    HW1 1733   6.522   5.129   2.149
  278SOL    HW2 1734   6.568   5.153   2.304
  279SOL     OW 1735   6.532   3.026   4.229
  279SOL    HW1 1736   6.624   3.001   4.261
  279SOL    HW2 1737   6.516   2.988   4.138
  280SOL     OW 1738   3.071   6.979   2.987
  280SOL    HW1 1739   3.088   6.957   3.083
  280SOL    HW2 1740   3.000   6.919   2.951
  281SOL     OW 1741   2.611   4.652   1.862
  281SOL    HW1 1742   2.558   4.732   1.892
  281SOL    HW2 1743   2.682   4.632   1.930
  282SOL     OW 1744   3.031   1.650   5.591
  282SOL    HW1 1745   2.954   1.618   5.536
  282SOL    HW2 1746   3.086   1.714   5.538
  283SOL     OW 1747   6.034   1.276   6.842
  283SOL    HW1 1748   6.034   1.336   6.923
  283SOL    HW2 1749   6.094   1.198   6.858
  284SOL     OW 1750   1.402   4.143   3.409
  284SOL    HW1 1751   1.404   4.059   3.354
  284SOL    HW2 1752   1.490   4.154   3.456
  285SOL     OW 1753   6.173   4.634   5.253
  285SOL    HW1 1754   6.137   4.687   5.330
  285SOL    HW2 1755   6.272   4.620   5.266
  286SOL     OW 1756   3.479   5.675   5.684
  286SOL    HW1 1757   3.450   5.705   5.775
  286SOL    HW2 1758   3.564   5.720   5.659
  287SOL     OW 1759   0.313   4.348   0.537
  287SOL    HW1 1760   0.217   4.376   0.547
  287SOL    HW2 1761   0.317   4.253   0.505
  288SOL     OW 1762   4.156   0.926   5.820
  288SOL    HW1 1763   4.163   0.877   5.733
  288SOL    HW2 1764   4.227   0.894   5.882
  289SOL     OW 1765   0.028   4.261   5.059
  289SOL    HW1 1766   7.014   4.307   4.980
  289SOL    HW2 1767   0.122   4.293   5.071
  290SOL     OW 1768   6.198   1.945   4.722
  290SOL    HW1 1769   6.246   1.961   4.636
  290SOL    HW2 1770   6.167   1.850   4.725
  291SOL     OW 1771   1.560   2.507   4.668
  291SOL    HW1 1772   1.514   2.443   4.607
  291SOL    HW2 1773   1.657   2.514   4.642
  292SOL     OW 1774   1.504   2.268   3.359
  292SOL    HW1 1775   1.451   2.239   3.280
  292SOL    HW2 1776   1.590   2.218   3.363
  293SOL     OW 1777   4.496   5.261   1.841
  293SOL    HW1 1778   4.553   5.198   1.894
  293SOL    HW2 1779   4.436   5.209   1.781
  294SOL     OW 1780   0.360   5.390   6.302
  294SOL    HW1 1781   0.441   5.449   6.309
  294SOL    HW2 1782   0.352   5.335   6.385
  295SOL     OW 1783   3.354   2.087   4.104
  295SOL    HW1 1784   3.452   2.099   4.091
  295SOL    HW2 1785   3.333   2.092   4.202
  296SOL     OW 1786   4.181   1.776   2.737
  296SOL    HW1 1787   4.212   1.826   2.656
  296SOL    HW2 1788   4.085   1.794   2.753
  297SOL     OW 1789   2.261   4.665   2.884
  297SOL    HW1 1790   2.247   4.590   2.949
  297SOL    HW2 1791   2.185   4.730   2.892
  298SOL     OW 1792   4.077   6.337   1.060
  298SOL    HW1 1793   4.146   6.295   1.002
  298SOL    HW2 1794   4.122   6.394   1.129
  299SOL     OW 1795   5.167   3.510   6.136
  299SOL    HW1 1796   5.263   3.529   6.158
  299SOL    HW2 1797   5.123   3.593   6.101
  300SOL     OW 1798   6.428   0.990   1.775
  300SOL    HW1 1799   6.475   1.016   1.859
  300SOL    HW2 1800   6.472   1.035   1.697
  301SOL     OW 1801   4.887   3.467   1.323
  301SOL    HW1 1802   4.985   3.476   1.341
  301SOL    HW2 1803   4.865   3.371   1.308
  302SOL     OW 1804   1.033   0.750   3.287
  302SOL    HW1 1805   0.950   0.771   3.235
  302SOL    HW2 1806   1.023   0.661   3.331
  303SOL     OW 1807   5.786   0.943   1.856
  303SOL    HW1 1808   5.798   0.868   1.792
  303SOL    HW2 1809   5.857   1.012   1.841
  304SOL     OW 1810   2.774   0.015   4.008
  304SOL    HW1 1811   2.753   6.979   4.083
  304SOL    HW2 1812   2.689   0.051   3.969
  305SOL     OW 1813   0.400   3.604   0.138
  305SOL    HW1 1814   0.372   3.690   0.095
  305SOL    HW2 1815   0.329   3.573   0.201
  306SOL     OW 1816   2.378   1.215   3.615
  306SOL    HW1 1817   2.431   1.137   3.581
  306SOL    HW2 1818   2.302   1.182   3.670
  307SOL     OW 1819   4.919   0.248   0.880
  307SOL    HW1 1820   5.016   0.226   0.867
  307SOL    HW2 1821   4.863   0.185   0.826
  308SOL     OW 1822   6.061   3.159   4.837
  308SOL    HW1 1823   6.095   3.238   4.888
  308SOL    HW2 1824   5.963   3.149   4.854
  309SOL     OW 1825   3.134   5.105   6.673
  309SOL    HW1 1826   3.066   5.177   6.677
  309SOL    HW2 1827   3.226   5.146   6.667
  310SOL     OW 1828   5.831   6.897   5.176
  310SOL    HW1 1829   5.856   6.971   5.114
  310SOL    HW2 1830   5.768   6.834   5.130
  311SOL     OW 1831   5.747   4.743   1.758
  311SOL    HW1 1832   5.740   4.831   1.804
  311SOL    HW2 1833   5.837   4.734   1.715
  312SOL     OW 1834   4.068   1.537   5.492
  312SOL    HW1 1835   4.070   1.503   5.398
  312SOL    HW2 1836   4.090   1.635   5.492
  313SOL     OW 1837   3.419   4.320   1.752
  313SOL    HW1 1838   3.428   4.412   1.713
  313SOL    HW2 1839   3.323   4.299   1.765
  314SOL     OW 1840   3.404   4.751   6.759
  314SOL    HW1 1841   3.395   4.827   6.823
  314SOL    HW2 1842   3.342   4.765   6.682
  315SOL     OW 1843   0.933   3.076   3.766
  315SOL    HW1 1844   0.966   3.065   3.860
  315SOL    HW2 1845   0.942   3.171   3.738
  316SOL     OW 1846   2.836   1.797   4.144
  316SOL    HW1 1847   2.878   1.732   4.080
  316SOL    HW2 1848   2.738   1.779   4.149
  317SOL     OW 1849   0.897   0.512   0.819
  317SOL    HW1 1850   0.829   0.534   0.890
  317SOL    HW2 1851   0.912   0.592   0.761
  318SOL     OW 1852   1.189   6.447   6.753
  318SOL    HW1 1853   1.246   6.481   6.828
  318SOL    HW2 1854   1.232   6.366   6.712
  319SOL     OW 1855   6.980   0.466   3.867
  319SOL    HW1 1856   6.904   0.486   3.805
  319SOL    HW2 1857   7.016   0.552   3.903
  320SOL     OW 1858   6.198   1.963   0.414
  320SOL    HW1 1859   6.107   1.963   0.373
  320SOL    HW2 1860   6.211   1.878   0.465
  321SOL     OW 1861   3.671   1.635   1.113
  321SOL    HW1 1862   3.679   1.585   1.199
  321SOL    HW2 1863   3.736   1.712   1.114
  322SOL     OW 1864   3.732   4.222   4.873
  322SOL    HW1 1865   3.697   4.311   4.901
  322SOL    HW2 1866   3.709   4.207   4.776
  323SOL     OW 1867   0.771   3.717   6.257
  323SOL    HW1 1868   0.782   3.692   6.353
  323SOL    HW2 1869   0.700   3.787   6.248
  324SOL     OW 1870   2.245   2.343   3.742
  324SOL    HW1 1871   2.157   2.374   3.707
  324SOL    HW2 1872   2.302   2.422   3.764
  325SOL     OW 1873   1.274   3.099   1.635
  325SOL    HW1 1874   1.364   3.096   1.678
  325SOL    HW2 1875   1.285   3.113   1.537
  326SOL     OW 1876   1.330   4.964   6.722
  326SOL    HW1 1877   1.253   5.021   6.752
  326SOL    HW2 1878   1.337   4.967   6.622
  327SOL     OW 1879   1.765   5.140   3.900
  327SOL    HW1 1880   1.683   5.164   3.952
  327SOL    HW2 1881   1.749   5.158   3.803
  328SOL     OW 1882   1.781   6.045   1.833
  328SOL    HW1 1883   1.829   6.097   1.762
  328SOL    HW2 1884   1.699   6.003   1.794
  329SOL     OW 1885   3.663   4.193   4.584
  329SOL    HW1 1886   3.720   4.270   4.557
  329SOL    HW2 1887   3.706   4.107   4.557
  330SOL     OW 1888   2.946   0.164   1.035
  330SOL    HW1 1889   2.931   0.263   1.028
  330SOL    HW2 1890   2.974   0.141   1.128
  331SOL     OW 1891   3.909   5.431   0.220
  331SOL    HW1 1892   3.997   5.389   0.198
  331SOL    HW2 1893   3.895   5.429   0.319
  332SOL     OW 1894   3.016   1.547   4.718
  332SOL    HW1 1895   3.080   1.603   4.667
  332SOL    HW2 1896   3.025   1.451   4.690
  333SOL     OW 1897   3.559   6.672   6.405
  333SOL    HW1 1898   3.535   6.575   6.411
  333SOL    HW2 1899   3.483   6.723   6.363
  334SOL     OW 1900   2.449   0.485   1.418
  334SOL    HW1 1901   2.512   0.408   1.412
  334SOL    HW2 1902   2.406   0.486   1.508
  335SOL     OW 1903   3.363   6.869   4.155
  335SOL    HW1 1904   3.392   6.871   4.059
  335SOL    HW2 1905   3.398   6.786   4.198
  336SOL     OW 1906   2.523   1.371   3.860
  336SOL    HW1 1907   2.510   1.341   3.765
  336SOL    HW2 1908   2.577   1.455   3.861
  337SOL     OW 1909   0.006   3.198   0.429
  337SOL    HW1 1910   0.083   3.154   0.384
  337SOL    HW2 1911   6.962   3.221   0.362
  338SOL     OW 1912   3.369   3.008   1.471
  338SOL    HW1 1913   3.346   3.042   1.380
  338SOL    HW2 1914   3.301   2.941   1.499
  339SOL     OW 1915   3.583   6.173   4.246
  339SOL    HW1 1916   3.677   6.205   4.246
  339SOL    HW2 1917   3.533   6.214   4.322
  340SOL     OW 1918   5.051   4.443   5.676
  340SOL    HW1 1919   4.998   4.380   5.734
  340SOL    HW2 1920   5.026   4.537   5.698
  341SOL     OW 1921   6.775   0.644   4.643
  341SOL    HW1 1922   6.815   0.571   4.587
  341SOL    HW2 1923   6.682   0.618   4.669
  342SOL     OW 1924   5.696   3.849   6.667
  342SOL    HW1 1925   5.636   3.866   6.589
  342SOL    HW2 1926   5.692   3.927   6.731
  343SOL     OW 1927   1.993   5.840   0.684
  343SOL    HW1 1928   2.004   5.818   0.781
  343SOL    HW2 1929   1.965   5.757   0.634
  344SOL     OW 1930   1.637   4.817   2.195
  344SOL    HW1 1931   1.632   4.851   2.102
  344SOL    HW2 1932   1.639   4.717   2.194
  345SOL     OW 1933   6.376   1.453   4.810
  345SOL    HW1 1934   6.309   1.401   4.758
  345SOL    HW2 1935   6.330   1.507   4.881
  346SOL     OW 1936   1.444   0.278   2.479
  346SOL    HW1 1937   1.400   0.203   2.528
  346SOL    HW2 1938   1.376   0.349   2.461
  347SOL     OW 1939   2.997   5.852   6.158
  347SOL    HW1 1940   3.013   5.756   6.181
  347SOL    HW2 1941   3.023   5.909   6.236
  348SOL     OW 1942   5.531   5.075   1.074
  348SOL    HW1 1943   5.446   5.127   1.069
  348SOL    HW2 1944   5.585   5.106   1.152
  349SOL     OW 1945   6.692   4.520   1.056
  349SOL    HW1 1946   6.790   4.499   1.056
  349SOL    HW2 1947   6.640   4.435   1.053
  350SOL     OW 1948   3.720   2.948   0.863
  350SOL    HW1 1949   3.820   2.953   0.865
  350SOL    HW2 1950   3.681   3.031   0.904
  351SOL     OW 1951   2.458   3.060   0.475
  351SOL    HW1 1952   2.488   3.099   0.388
  351SOL    HW2 1953   2.405   3.128   0.526
  352SOL     OW 1954   3.569   0.318   4.749
  352SOL    HW1 1955   3.642   0.384   4.768
  352SOL    HW2 1956   3.503   0.319   4.824
  353SOL     OW 1957   2.626   7.013   0.832
  353SOL    HW1 1958   2.559   6.957   0.783
  353SOL    HW2 1959   2.615   0.083   0.805
  354SOL     OW 1960   3.667   2.283   0.223
  354SOL    HW1 1961   3.648   2.369   0.269
  354SOL    HW2 1962   3.597   2.216   0.248
  355SOL     OW 1963   6.988   2.843   2.505
  355SOL    HW1 1964   7.016   2.752   2.475
  355SOL    HW2 1965   6.916   2.835   2.574
  356SOL     OW 1966   3.993   5.667   5.519
  356SOL    HW1 1967   4.010   5.598   5.448
  356SOL    HW2 1968   4.046   5.749   5.498
  357SOL     OW 1969   6.262   6.889   5.481
  357SOL    HW1 1970   6.324   6.883   5.559
  357SOL    HW2 1971   6.179   6.839   5.501
  358SOL     OW 1972   5.568   0.163   1.840
  358SOL    HW1 1973   5.628   0.243   1.849
  358SOL    HW2 1974   5.502   0.163   1.915
  359SOL     OW 1975   1.615   2.158   2.205
  359SOL    HW1 1976   1.562   2.138   2.123
  359SOL    HW2 1977   1.700   2.204   2.179
  360SOL     OW 1978   1.249   5.539   6.833
  360SOL    HW1 1979   1.274   5.526   6.737
  360SOL    HW2 1980   1.239   5.636   6.853
  361SOL     OW 1981   5.494   5.850   2.958
  361SOL    HW1 1982   5.565   5.846   3.029
  361SOL    HW2 1983   5.439   5.766   2.962
  362SOL     OW 1984   3.793   3.982   1.221
  362SOL    HW1 1985   3.842   4.043   1.158
  362SOL    HW2 1986   3.843   3.896   1.231
  363SOL     OW 1987   4.640   4.367   3.324
  363SOL    HW1 1988   4.657   4.295   3.256
  363SOL    HW2 1989   4.621   4.326   3.413
  364SOL     OW 1990   6.918   5.495   6.231
  364SOL    HW1 1991   6.859   5.515   6.152
  364SOL    HW2 1992   7.013   5.517   6.207
  365SOL     OW 1993   5.090   5.187   2.051
  365SOL    HW1 1994   5.064   5.203   2.147
  365SOL    HW2 1995   5.114   5.091   2.039
  366SOL     OW 1996   6.424   0.670   0.171
  366SOL    HW1 1997   6.471   0.756   0.188
  366SOL    HW2 1998   6.477   0.595   0.209
  367SOL     OW 1999   4.850   2.987   1.167
  367SOL    HW1 2000   4.773   2.925   1.158
  367SOL    HW2 2001   4.935   2.938   1.146
  368SOL     OW 2002   0.415   3.400   4.789
  368SOL    HW1 2003   0.395   3.344   4.869
  368SOL    HW2 2004   0.421   3.496   4.815
  369SOL     OW 2005   0.026   5.181   1.404
  369SOL    HW1 2006   0.016   5.159   1.501
  369SOL    HW2 2007   7.002   5.114   1.350
  370SOL     OW 2008   3.064   1.313   5.177
  370SOL    HW1 2009   3.090   1.409   5.185
  370SOL    HW2 2010   3.147   1.257   5.171
  371SOL     OW 2011   2.357   3.585   6.610
  371SOL    HW1 2012   2.313   3.673   6.593
  371SOL    HW2 2013   2.375   3.540   6.523
  372SOL     OW 2014   6.972   0.235   5.239
  372SOL    HW1 2015   6.878   0.214   5.212
  372SOL    HW2 2016   7.013   0.294   5.169
  373SOL     OW 2017   6.231   6.090   5.650
  373SOL    HW1 2018   6.172   6.017   5.615
  373SOL    HW2 2019   6.325   6.074   5.619
  374SOL     OW 2020   3.524   0.457   2.062
  374SOL    HW1 2021   3.517   0.498   1.970
  374SOL    HW2 2022   3.433   0.440   2.098
  375SOL     OW 2023   0.986   4.669   3.639
  375SOL    HW1 2024   0.902   4.723   3.629
  375SOL    HW2 2025   0.962   4.572   3.644
  376SOL     OW 2026   1.832   2.912   4.254
  376SOL    HW1 2027   1.761   2.872   4.312
  376SOL    HW2 2028   1.920   2.870   4.275
  377SOL     OW 2029   6.940   2.807   2.217
  377SOL    HW1 2030   6.865   2.742   2.231
  377SOL    HW2 2031   6.946   2.868   2.296
  378SOL     OW 2032   3.542   3.214   5.553
  378SOL    HW1 2033   3.522   3.194   5.457
  378SOL    HW2 2034   3.629   3.172   5.578
  379SOL     OW 2035   6.535   4.304   1.660
  379SOL    HW1 2036   6.575   4.328   1.749
  379SOL    HW2 2037   6.444   4.265   1.674
  380SOL     OW 2038   2.675   1.210   1.900
  380SOL    HW1 2039   2.772   1.186   1.903
  380SOL    HW2 2040   2.665   1.309   1.908
  381SOL     OW 2041   1.999   4.653   2.157
  381SOL    HW1 2042   1.956   4.743   2.152
  381SOL    HW2 2043   1.949   4.588   2.099
  382SOL     OW 2044   5.543   6.683   6.446
  382SOL    HW1 2045   5.612   6.631   6.497
  382SOL    HW2 2046   5.502   6.752   6.507
  383SOL     OW 2047   5.771   2.925   6.110
  383SOL    HW1 2048   5.784   2.832   6.145
  383SOL    HW2 2049   5.683   2.961   6.142
  384SOL     OW 2050   6.840   4.317   4.257
  384SOL    HW1 2051   6.901   4.329   4.179
  384SOL    HW2 2052   6.851   4.393   4.321
  385SOL     OW 2053   4.122   6.237   6.480
  385SOL    HW1 2054   4.059   6.162   6.462
  385SOL    HW2 2055   4.073   6.324   6.477
  386SOL     OW 2056   3.199   6.837   5.048
  386SOL    HW1 2057   3.248   6.922   5.027
  386SOL    HW2 2058   3.123   6.825   4.985
  387SOL     OW 2059   6.749   6.421   3.353
  387SOL    HW1 2060   6.834   6.468   3.331
  387SOL    HW2 2061   6.721   6.364   3.276
  388SOL     OW 2062   0.526   2.691   3.693
  388SOL    HW1 2063   0.587   2.613   3.678
  388SOL    HW2 2064   0.574   2.761   3.745
  389SOL     OW 2065   4.349   4.319   1.721
  389SOL    HW1 2066   4.351   4.225   1.687
  389SOL    HW2 2067   4.415   4.329   1.796
  390SOL     OW 2068   3.464   1.743   0.217
  390SOL    HW1 2069   3.374   1.699   0.223
  390SOL    HW2 2070   3.497   1.738   0.123
  391SOL     OW 2071   2.365   4.015   5.456
  391SOL    HW1 2072   2.393   4.108   5.432
  391SOL    HW2 2073   2.345   3.963   5.373
  392SOL     OW 2074   1.857   3.360   2.402
  392SOL    HW1 2075   1.823   3.387   2.492
  392SOL    HW2 2076   1.951   3.325   2.411
  393SOL     OW 2077   1.318   5.369   0.397
  393SOL    HW1 2078   1.277   5.382   0.307
  393SOL    HW2 2079   1.411   5.406   0.397
  394SOL     OW 2080   1.225   2.839   0.112
  394SOL    HW1 2081   1.289   2.898   0.061
  394SOL    HW2 2082   1.182   2.892   0.184
  395SOL     OW 2083   5.227   4.104   2.348
  395SOL    HW1 2084   5.313   4.056   2.329
  395SOL    HW2 2085   5.210   4.104   2.446
  396SOL     OW 2086   2.483   2.484   2.238
  396SOL    HW1 2087   2.433   2.405   2.272
  396SOL    HW2 2088   2.454   2.567   2.287
  397SOL     OW 2089   5.319   1.841   6.744
  397SOL    HW1 2090   5.232   1.848   6.695
  397SOL    HW2 2091   5.384   1.788   6.690
  398SOL     OW 2092   1.629   6.371   3.875
  398SOL    HW1 2093   1.581   6.300   3.823
  398SOL    HW2 2094   1.626   6.457   3.825
  399SOL     OW 2095   5.950   5.948   4.571
  399SOL    HW1 2096   5.888   5.886   4.523
  399SOL    HW2 2097   5.922   5.956   4.666
  400SOL     OW 2098   6.225   6.295   5.274
  400SOL    HW1 2099   6.315   6.289   5.232
  400SOL    HW2 2100   6.156   6.258   5.212
  401SOL     OW 2101   5.913   0.185   6.035
  401SOL    HW1 2102   5.872   0.268   6.073
  401SOL    HW2 2103   5.846   0.136   5.980
  402SOL     OW 2104   6.125   6.986   3.076
  402SOL    HW1 2105   6.089   7.000   2.984
  402SOL    HW2 2106   6.215   0.002   3.083
  403SOL     OW 2107   3.445   0.200   6.011
  403SOL    HW1 2108   3.529   0.194   5.958
  403SOL    HW2 2109   3.456   0.149   6.097
  404SOL     OW 2110   2.060   5.180   5.749
  404SOL    HW1 2111   1.980   5.238   5.733
  404SOL    HW2 2112   2.138   5.237   5.776
  405SOL     OW 2113   1.858   3.884   3.102
  405SOL    HW1 2114   1.884   3.949   3.030
  405SOL    HW2 2115   1.772   3.839   3.076
  406SOL     OW 2116   0.713   4.721   5.097
  406SOL    HW1 2117   0.785   4.679   5.042
  406SOL    HW2 2118   0.624   4.697   5.058
  407SOL     OW 2119   2.002   2.642   4.058
  407SOL    HW1 2120   2.004   2.725   4.112
  407SOL    HW2 2121   2.054   2.570   4.104
  408SOL     OW 2122   3.251   2.114   2.938
  408SOL    HW1 2123   3.320   2.068   2.995
  408SOL    HW2 2124   3.271   2.096   2.842
  409SOL     OW 2125   6.869   3.757   2.083
  409SOL    HW1 2126   6.927   3.676   2.075
  409SOL    HW2 2127   6.925   3.837   2.099
  410SOL     OW 2128   1.462   1.730   1.265
  410SOL    HW1 2129   1.450   1.782   1.350
  410SOL    HW2 2130   1.384   1.745   1.205
  411SOL     OW 2131   6.206   1.382   1.844
  411SOL    HW1 2132   6.116   1.387   1.800
  411SOL    HW2 2133   6.226   1.469   1.889
  412SOL     OW 2134   3.494   4.925   2.674
  412SOL    HW1 2135   3.450   4.853   2.727
  412SOL    HW2 2136   3.475   4.910   2.576
  413SOL     OW 2137   4.514   4.702   1.485
  413SOL    HW1 2138   4.607   4.707   1.449
  413SOL    HW2 2139   4.476   4.794   1.492
  414SOL     OW 2140   3.682   0.335   4.232
  414SOL    HW1 2141   3.608   0.354   4.167
  414SOL    HW2 2142   3.657   0.257   4.288
  415SOL     OW 2143   0.255   1.694   6.786
  415SOL    HW1 2144   0.286   1.657   6.699
  415SOL    HW2 2145   0.163   1.661   6.806
  416SOL     OW 2146   5.064   4.748   4.437
  416SOL    HW1 2147   5.150   4.790   4.408
  416SOL    HW2 2148   4.989   4.787   4.385
  417SOL     OW 2149   2.008   1.195   6.426
  417SOL    HW1 2150   2.003   1.256   6.504
  417SOL    HW2 2151   2.033   1.247   6.344
  418SOL     OW 2152   2.719   0.089   5.392
  418SOL    HW1 2153   2.759   0.173   5.355
  418SOL    HW2 2154   2.728   0.015   5.324
  419SOL     OW 2155   0.086   6.855   3.264
  419SOL    HW1 2156   0.032   6.904   3.332
  419SOL    HW2 2157   0.179   6.894   3.262
  420SOL     OW 2158   5.488   1.365   6.413
  420SOL    HW1 2159   5.574   1.413   6.429
  420SOL    HW2 2160   5.486   1.331   6.319
  421SOL     OW 2161   5.763   3.825   5.018
  421SOL    HW1 2162   5.837   3.892   5.025
  421SOL    HW2 2163   5.721   3.812   5.109
  422SOL     OW 2164   5.621   2.378   0.435
  422SOL    HW1 2165   5.675   2.429   0.502
  422SOL    HW2 2166   5.532   2.422   0.423
  423SOL     OW 2167   2.614   1.403   6.936
  423SOL    HW1 2168   2.687   1.346   6.897
  423SOL    HW2 2169   2.654   1.486   6.974
  424SOL     OW 2170   2.233   5.134   2.870
  424SOL    HW1 2171   2.274   5.224   2.884
  424SOL    HW2 2172   2.302   5.063   2.881
  425SOL     OW 2173   5.149   0.887   4.586
  425SOL    HW1 2174   5.080   0.931   4.643
  425SOL    HW2 2175   5.121   0.793   4.566
  426SOL     OW 2176   2.175   2.921   5.170
  426SOL    HW1 2177   2.261   2.953   5.130
  426SOL    HW2 2178   2.163   2.824   5.148
  427SOL     OW 2179   5.481   0.820   4.265
  427SOL    HW1 2180   5.450   0.833   4.359
  427SOL    HW2 2181   5.417   0.863   4.202
  428SOL     OW 2182   2.725   0.545   3.535
  428SOL    HW1 2183   2.645   0.486   3.544
  428SOL    HW2 2184   2.754   0.575   3.625
  429SOL     OW 2185   0.618   5.200   4.366
  429SOL    HW1 2186   0.691   5.255   4.407
  429SOL    HW2 2187   0.629   5.105   4.393
  430SOL     OW 2188   1.299   6.958   3.711
  430SOL    HW1 2189   1.218   6.975   3.767
  430SOL    HW2 2190   1.336   0.019   3.679
  431SOL     OW 2191   2.234   2.257   0.726
  431SOL    HW1 2192   2.234   2.286   0.822
  431SOL    HW2 2193   2.291   2.319   0.672
  432SOL     OW 2194   5.899   1.805   0.982
  432SOL    HW1 2195   5.912   1.848   1.071
  432SOL    HW2 2196   5.845   1.866   0.923
  433SOL     OW 2197   3.076   6.248   6.006
  433SOL    HW1 2198   3.088   6.188   6.085
  433SOL    HW2 2199   3.120   6.206   5.926
  434SOL     OW 2200   4.015   5.164   4.327
  434SOL    HW1 2201   4.092   5.217   4.293
  434SOL    HW2 2202   4.048   5.098   4.394
  435SOL     OW 2203   4.137   1.298   5.662
  435SOL    HW1 2204   4.080   1.251   5.730
  435SOL    HW2 2205   4.081   1.365   5.613
  436SOL     OW 2206   3.476   5.820   2.729
  436SOL    HW1 2207   3.576   5.830   2.731
  436SOL    HW2 2208   3.436   5.897   2.680
  437SOL     OW 2209   0.186   1.112   5.154
  437SOL    HW1 2210   0.157   1.183   5.218
  437SOL    HW2 2211   0.286   1.108   5.151
  438SOL     OW 2212   1.756   4.436   3.274
  438SOL    HW1 2213   1.756   4.389   3.362
  438SOL    HW2 2214   1.716   4.527   3.286
  439SOL     OW 2215   6.018   0.397   2.587
  439SOL    HW1 2216   5.969   0.314   2.611
  439SOL    HW2 2217   6.027   0.455   2.668
  440SOL     OW 2218   3.638   1.206   6.416
  440SOL    HW1 2219   3.673   1.169   6.329
  440SOL    HW2 2220   3.592   1.293   6.399
  441SOL     OW 2221   5.912   4.299   2.987
  441SOL    HW1 2222   5.836   4.269   3.045
  441SOL    HW2 2223   5.885   4.382   2.937
  442SOL     OW 2224   4.932   4.300   5.945
  442SOL    HW1 2225   4.886   4.374   5.993
  442SOL    HW2 2226   4.870   4.260   5.877
  443SOL     OW 2227   5.343   4.693   4.017
  443SOL    HW1 2228   5.408   4.620   3.994
  443SOL    HW2 2229   5.373   4.779   3.975
  444SOL     OW 2230   4.308   1.181   6.360
  444SOL    HW1 2231   4.234   1.217   6.417
  444SOL    HW2 2232   4.283   1.191   6.264
  445SOL     OW 2233   2.665   6.272   2.914
  445SOL    HW1 2234   2.705   6.361   2.934
  445SOL    HW2 2235   2.577   6.263   2.962
  446SOL     OW 2236   4.207   5.640   3.113
  446SOL    HW1 2237   4.274   5.571   3.141
  446SOL    HW2 2238   4.255   5.717   3.070
  447SOL     OW 2239   6.356   3.305   5.586
  447SOL    HW1 2240   6.428   3.270   5.526
  447SOL    HW2 2241   6.284   3.348   5.531
  448SOL     OW 2242   1.980   1.434   2.942
  448SOL    HW1 2243   1.935   1.377   2.872
  448SOL    HW2 2244   2.047   1.494   2.898
  449SOL     OW 2245   2.440   2.527   3.172
  449SOL    HW1 2246   2.493   2.443   3.186
  449SOL    HW2 2247   2.433   2.547   3.075
  450SOL     OW 2248   1.344   4.551   3.491
  450SOL    HW1 2249   1.355   4.518   3.585
  450SOL    HW2 2250   1.273   4.621   3.489
  451SOL     OW 2251   0.333   2.901   3.695
  451SOL    HW1 2252   0.360   2.932   3.604
  451SOL    HW2 2253   0.340   2.801   3.699
  452SOL     OW 2254   3.616   0.358   1.707
  452SOL    HW1 2255   3.684   0.329   1.774
  452SOL    HW2 2256   3.525   0.355   1.747
  453SOL     OW 2257   4.005   0.534   6.546
  453SOL    HW1 2258   3.938   0.568   6.612
  453SOL    HW2 2259   4.084   0.595   6.544
  454SOL     OW 2260   6.978   4.008   6.655
  454SOL    HW1 2261   6.932   4.051   6.732
  454SOL    HW2 2262   6.910   3.971   6.592
  455SOL     OW 2263   6.445   3.064   5.215
  455SOL    HW1 2264   6.503   3.053   5.296
  455SOL    HW2 2265   6.501   3.092   5.137
  456SOL     OW 2266   1.233   0.849   3.886
  456SOL    HW1 2267   1.219   0.775   3.820
  456SOL    HW2 2268   1.161   0.917   3.875
  457SOL     OW 2269   0.779   5.447   5.639
  457SOL    HW1 2270   0.828   5.395   5.570
  457SOL    HW2 2271   0.787   5.400   5.728
  458SOL     OW 2272   3.015   1.037   2.703
  458SOL    HW1 2273   3.113   1.056   2.698
  458SOL    HW2 2274   2.992   0.963   2.640
  459SOL     OW 2275   2.153   0.776   5.751
  459SOL    HW1 2276   2.090   0.729   5.690
  459SOL    HW2 2277   2.198   0.708   5.810
  460SOL     OW 2278   1.440   1.604   5.193
  460SOL    HW1 2279   1.540   1.605   5.198
  460SOL    HW2 2280   1.410   1.663   5.118
  461SOL     OW 2281   6.588   4.872   5.534
  461SOL    HW1 2282   6.630   4.952   5.576
  461SOL    HW2 2283   6.618   4.790   5.581
  462SOL     OW 2284   4.028   3.818   4.531
  462SOL    HW1 2285   4.123   3.841   4.514
  462SOL    HW2 2286   4.023   3.730   4.578
  463SOL     OW 2287   6.484   6.885   2.885
  463SOL    HW1 2288   6.562   6.892   2.824
  463SOL    HW2 2289   6.505   6.819   2.958
  464SOL     OW 2290   3.204   6.896   6.046
  464SOL    HW1 2291   3.203   6.968   5.977
  464SOL    HW2 2292   3.187   6.935   6.136
  465SOL     OW 2293   1.202   2.329   0.194
  465SOL    HW1 2294   1.232   2.418   0.161
  465SOL    HW2 2295   1.214   2.261   0.122
  466SOL     OW 2296   3.127   6.217   4.351
  466SOL    HW1 2297   3.147   6.227   4.254
  466SOL    HW2 2298   3.082   6.299   4.385
  467SOL     OW 2299   0.789   1.825   2.661
  467SOL    HW1 2300   0.819   1.791   2.751
  467SOL    HW2 2301   0.844   1.905   2.637
  468SOL     OW 2302   4.782   6.934   6.107
  468SOL    HW1 2303   4.811   6.928   6.203
  468SOL    HW2 2304   4.859   6.963   6.050
  469SOL     OW 2305   2.964   4.163   5.736
  469SOL    HW1 2306   2.913   4.235   5.687
  469SOL    HW2 2307   3.004   4.100   5.669
  470SOL     OW 2308   3.479   6.062   2.996
  470SOL    HW1 2309   3.421   6.116   2.935
  470SOL    HW2 2310   3.457   5.965   2.986
  471SOL     OW 2311   2.475   2.446   4.056
  471SOL    HW1 2312   2.478   2.439   3.956
  471SOL    HW2 2313   2.390   2.404   4.089
  472SOL     OW 2314   6.166   4.828   7.006
  472SOL    HW1 2315   6.262   4.845   6.985
  472SOL    HW2 2316   6.123   4.779   6.929
  473SOL     OW 2317   0.085   2.519   2.452
  473SOL    HW1 2318   0.010   2.455   2.470
  473SOL    HW2 2319   0.114   2.562   2.537
  474SOL     OW 2320   6.120   5.104   5.368
  474SOL    HW1 2321   6.135   5.006   5.381
  474SOL    HW2 2322   6.187   5.140   5.303
  475SOL     OW 2323   5.901   3.246   6.959
  475SOL    HW1 2324   5.959   3.236   6.879
  475SOL    HW2 2325   5.874   3.155   6.992
  476SOL     OW 2326   0.480   4.110   2.116
  476SOL    HW1 2327   0.447   4.017   2.101
  476SOL    HW2 2328   0.409   4.175   2.091
  477SOL     OW 2329   2.350   6.101   3.583
  477SOL    HW1 2330   2.389   6.010   3.566
  477SOL    HW2 2331   2.407   6.171   3.541
  478SOL     OW 2332   4.385   5.766   2.922
  478SOL    HW1 2333   4.415   5.755   2.827
  478SOL    HW2 2334   4.343   5.856   2.933
  479SOL     OW 2335   4.021   3.122   4.055
  479SOL    HW1 2336   3.975   3.162   4.133
  479SOL    HW2 2337   3.963   3.052   4.013
  480SOL     OW 2338   1.682   0.228   2.031
  480SOL    HW1 2339   1.609   0.209   1.965
  480SOL    HW2 2340   1.679   0.159   2.103
  481SOL     OW 2341   0.716   6.257   1.410
  481SOL    HW1 2342   0.763   6.182   1.364
  481SOL    HW2 2343   0.778   6.334   1.420
  482SOL     OW 2344   4.895   5.065   2.807
  482SOL    HW1 2345   4.892   5.164   2.824
  482SOL    HW2 2346   4.948   5.021   2.880
  483SOL     OW 2347   6.374   2.748   2.787
  483SOL    HW1 2348   6.440   2.782   2.854
  483SOL    HW2 2349   6.356   2.651   2.805
  484SOL     OW 2350   1.492   4.225   4.573
  484SOL    HW1 2351   1.542   4.287   4.633
  484SOL    HW2 2352   1.557   4.167   4.523
  485SOL     OW 2353   5.401   3.580   2.110
  485SOL    HW1 2354   5.487   3.552   2.067
  485SOL    HW2 2355   5.384   3.521   2.189
  486SOL     OW 2356   5.565   0.472   6.661
  486SOL    HW1 2357   5.610   0.389   6.630
  486SOL    HW2 2358   5.584   0.487   6.758
  487SOL     OW 2359   7.004   0.592   3.337
  487SOL    HW1 2360   6.931   0.530   3.366
  487SOL    HW2 2361   6.963   0.676   3.301
  488SOL     OW 2362   1.877   6.673   2.984
  488SOL    HW1 2363   1.886   6.723   3.070
  488SOL    HW2 2364   1.815   6.596   2.996
  489SOL     OW 2365   6.144   5.555   4.797
  489SOL    HW1 2366   6.156   5.649   4.765
  489SOL    HW2 2367   6.126   5.555   4.895
  490SOL     OW 2368   1.161   5.784   5.187
  490SOL    HW1 2369   1.220   5.710   5.154
  490SOL    HW2 2370   1.065   5.760   5.171
  491SOL     OW 2371   0.516   3.587   0.793
  491SOL    HW1 2372   0.502   3.668   0.736
  491SOL    HW2 2373   0.580   3.525   0.747
  492SOL     OW 2374   1.369   1.112   5.690
  492SOL    HW1 2375   1.461   1.141   5.719
  492SOL    HW2 2376   1.355   1.017   5.718
  493SOL     OW 2377   2.496   0.130   5.561
  493SOL    HW1 2378   2.573   0.126   5.497
  493SOL    HW2 2379   2.526   0.173   5.647
  494SOL     OW 2380   2.356   1.330   5.792
  494SOL    HW1 2381   2.431   1.325   5.726
  494SOL    HW2 2382   2.329   1.238   5.819
  495SOL     OW 2383   4.590   6.170   5.485
  495SOL    HW1 2384   4.532   6.178   5.404
  495SOL    HW2 2385   4.606   6.261   5.524
  496SOL     OW 2386   6.438   1.362   2.694
  496SOL    HW1 2387   6.523   1.326   2.732
  496SOL    HW2 2388   6.432   1.339   2.597
  497SOL     OW 2389   3.697   1.127   5.422
  497SOL    HW1 2390   3.739   1.194   5.482
  497SOL    HW2 2391   3.713   1.035   5.457
  498SOL     OW 2392   0.301   5.005   1.618
  498SOL    HW1 2393   0.397   4.980   1.633
  498SOL    HW2 2394   0.289   5.038   1.525
  499SOL     OW 2395   2.712   5.329   5.621
  499SOL    HW1 2396   2.769   5.290   5.549
  499SOL    HW2 2397   2.765   5.340   5.704
  500SOL     OW 2398   5.167   2.869   6.231
  500SOL    HW1 2399   5.215   2.808   6.294
  500SOL    HW2 2400   5.201   2.962   6.241
  501SOL     OW 2401   2.018   6.879   2.695
  501SOL    HW1 2402   2.067   6.832   2.768
  501SOL    HW2 2403   2.012   6.977   2.715
  502SOL     OW 2404   1.399   4.700   6.258
  502SOL    HW1 2405   1.413   4.622   6.197
  502SOL    HW2 2406   1.410   4.785   6.206
  503SOL     OW 2407   2.732   5.355   6.410
  503SOL    HW1 2408   2.748   5.391   6.502
  503SOL    HW2 2409   2.648   5.302   6.408
  504SOL     OW 2410   0.049   5.378   2.790
  504SOL    HW1 2411   0.075   5.464   2.834
  504SOL    HW2 2412   0.114   5.356   2.718
  505SOL     OW 2413   4.106   6.900   5.225
  505SOL    HW1 2414   4.164   6.862   5.153
  505SOL    HW2 2415   4.010   6.891   5.199
  506SOL     OW 2416   2.973   5.054   2.727
  506SOL    HW1 2417   2.938   4.989   2.660
  506SOL    HW2 2418   2.970   5.146   2.689
  507SOL     OW 2419   4.284   1.339   1.887
  507SOL    HW1 2420   4.243   1.374   1.803
  507SOL    HW2 2421   4.359   1.399   1.915
  508SOL     OW 2422   6.577   2.863   3.514
  508SOL    HW1 2423   6.610   2.843   3.422
  508SOL    HW2 2424   6.599   2.958   3.537
  509SOL     OW 2425   4.687   0.694   0.122
  509SOL    HW1 2426   4.716   0.740   0.206
  509SOL    HW2 2427   4.752   0.713   0.049
  510SOL     OW 2428   0.185   4.810   5.555
  510SOL    HW1 2429   0.275   4.769   5.570
  510SOL    HW2 2430   0.153   4.852   5.640
  511SOL     OW 2431   1.402   2.093   6.148
  511SOL    HW1 2432   1.373   2.098   6.243
  511SOL    HW2 2433   1.363   2.170   6.097
  512SOL     OW 2434   5.676   2.044   7.019
  512SOL    HW1 2435   5.617   2.065   0.071
  512SOL    HW2 2436   5.621   2.043   6.935
  513SOL     OW 2437   6.007   6.564   2.645
  513SOL    HW1 2438   6.106   6.563   2.659
  513SOL    HW2 2439   5.987   6.601   2.554
  514SOL     OW 2440   0.155   6.625   3.507
  514SOL    HW1 2441   0.137   6.561   3.581
  514SOL    HW2 2442   0.211   6.700   3.540
  515SOL     OW 2443   2.657   0.563   6.049
  515SOL    HW1 2444   2.615   0.619   5.978
  515SOL    HW2 2445   2.669   0.618   6.132
  516SOL     OW 2446   2.546   4.391   1.773
  516SOL    HW1 2447   2.569   4.432   1.861
  516SOL    HW2 2448   2.629   4.365   1.725
  517SOL     OW 2449   3.925   4.904   2.327
  517SOL    HW1 2450   3.924   4.989   2.379
  517SOL    HW2 2451   3.834   4.889   2.287
  518SOL     OW 2452   2.353   2.780   3.917
  518SOL    HW1 2453   2.267   2.732   3.895
  518SOL    HW2 2454   2.375   2.765   4.013
  519SOL     OW 2455   6.893   6.800   4.015
  519SOL    HW1 2456   6.905   6.706   4.046
  519SOL    HW2 2457   6.951   6.816   3.935
  520SOL     OW 2458   0.922   3.697   0.061
  520SOL    HW1 2459   0.979   3.767   0.016
  520SOL    HW2 2460   0.829   3.731   0.069
  521SOL     OW 2461   4.612   6.007   4.335
  521SOL    HW1 2462   4.641   5.935   4.399
  521SOL    HW2 2463   4.519   5.987   4.302
  522SOL     OW 2464   4.101   3.900   1.439
  522SOL    HW1 2465   4.034   3.887   1.513
  522SOL    HW2 2466   4.149   3.986   1.453
  523SOL     OW 2467   6.954   6.535   1.915
  523SOL    HW1 2468   6.913   6.576   1.996
  523SOL    HW2 2469   6.989   6.607   1.855
  524SOL     OW 2470   0.845   3.121   2.337
  524SOL    HW1 2471   0.860   3.072   2.422
  524SOL    HW2 2472   0.893   3.075   2.262
  525SOL     OW 2473   1.402   3.303   6.753
  525SOL    HW1 2474   1.407   3.248   6.837
  525SOL    HW2 2475   1.494   3.332   6.727
  526SOL     OW 2476   2.742   6.862   4.210
  526SOL    HW1 2477   2.651   6.825   4.227
  526SOL    HW2 2478   2.811   6.804   4.252
  527SOL     OW 2479   0.991   2.436   6.998
  527SOL    HW1 2480   1.073   2.461   6.947
  527SOL    HW2 2481   1.006   2.348   0.017
  528SOL     OW 2482   0.686   3.278   3.948
  528SOL    HW1 2483   0.664   3.266   3.852
  528SOL    HW2 2484   0.743   3.360   3.959
  529SOL     OW 2485   2.297   0.522   5.769
  529SOL    HW1 2486   2.380   0.570   5.799
  529SOL    HW2 2487   2.315   0.476   5.682
  530SOL     OW 2488   3.597   2.890   2.520
  530SOL    HW1 2489   3.503   2.904   2.489
  530SOL    HW2 2490   3.602   2.807   2.576
  531SOL     OW 2491   2.114   0.870   2.641
  531SOL    HW1 2492   2.180   0.864   2.716
  531SOL    HW2 2493   2.036   0.811   2.660
  532SOL     OW 2494   1.201   3.874   0.673
  532SOL    HW1 2495   1.231   3.784   0.643
  532SOL    HW2 2496   1.104   3.886   0.649
  533SOL     OW 2497   5.535   0.010   3.638
  533SOL    HW1 2498   5.456   7.020   3.580
  533SOL    HW2 2499   5.523   0.096   3.688
  534SOL     OW 2500   0.127   5.883   1.994
  534SOL    HW1 2501   0.177   5.796   1.999
  534SOL    HW2 2502   0.119   5.911   1.899
  535SOL     OW 2503   6.693   4.426   3.180
  535SOL    HW1 2504   6.637   4.416   3.262
  535SOL    HW2 2505   6.784   4.458   3.206
  536SOL     OW 2506   6.197   5.568   2.749
  536SOL    HW1 2507   6.231   5.633   2.680
  536SOL    HW2 2508   6.097   5.572   2.751
  537SOL     OW 2509   3.494   6.672   4.289
  537SOL    HW1 2510   3.473   6.601   4.356
  537SOL    HW2 2511   3.560   6.637   4.223
  538SOL     OW 2512   1.105   5.197   5.105
  538SOL    HW1 2513   1.134   5.168   5.196
  538SOL    HW2 2514   1.120   5.122   5.040
  539SOL     OW 2515   1.520   5.794   2.000
  539SOL    HW1 2516   1.536   5.695   1.999
  539SOL    HW2 2517   1.587   5.838   2.059
  540SOL     OW 2518   2.068   1.276   4.334
  540SOL    HW1 2519   2.068   1.334   4.416
  540SOL    HW2 2520   2.051   1.332   4.254
  541SOL     OW 2521   4.580   5.986   3.592
  541SOL    HW1 2522   4.647   5.978   3.665
  541SOL    HW2 2523   4.488   5.969   3.629
  542SOL     OW 2524   3.399   6.432   6.423
  542SOL    HW1 2525   3.426   6.344   6.462
  542SOL    HW2 2526   3.307   6.423   6.383
  543SOL     OW 2527   5.489   3.414   3.511
  543SOL    HW1 2528   5.442   3.339   3.465
  543SOL    HW2 2529   5.549   3.377   3.582
  544SOL     OW 2530   0.326   5.179   0.250
  544SOL    HW1 2531   0.313   5.235   0.168
  544SOL    HW2 2532   0.422   5.184   0.278
  545SOL     OW 2533   4.511   1.233   0.940
  545SOL    HW1 2534   4.466   1.308   0.892
  545SOL    HW2 2535   4.563   1.268   1.017
  546SOL     OW 2536   1.011   4.117   1.801
  546SOL    HW1 2537   1.062   4.187   1.849
  546SOL    HW2 2538   0.977   4.049   1.867
  547SOL     OW 2539   3.053   2.785   0.737
  547SOL    HW1 2540   3.068   2.694   0.697
  547SOL    HW2 2541   2.956   2.809   0.728
  548SOL     OW 2542   3.424   3.488   0.931
  548SOL    HW1 2543   3.520   3.517   0.936
  548SOL    HW2 2544   3.416   3.410   0.869
  549SOL     OW 2545   5.527   2.600   1.697
  549SOL    HW1 2546   5.592   2.675   1.683
  549SOL    HW2 2547   5.465   2.623   1.772
  550SOL     OW 2548   0.403   5.255   3.440
  550SOL    HW1 2549   0.471   5.245   3.367
  550SOL    HW2 2550   0.370   5.350   3.440
  551SOL     OW 2551   0.166   0.413   1.103
  551SOL    HW1 2552   0.231   0.387   1.032
  551SOL    HW2 2553   0.136   0.507   1.088
  552SOL     OW 2554   5.128   4.979   4.956
  552SOL    HW1 2555   5.108   5.071   4.989
  552SOL    HW2 2556   5.055   4.917   4.983
  553SOL     OW 2557   3.390   6.907   3.866
  553SOL    HW1 2558   3.320   6.861   3.811
  553SOL    HW2 2559   3.480   6.881   3.833
  554SOL     OW 2560   5.646   5.876   0.134
  554SOL    HW1 2561   5.736   5.834   0.125
  554SOL    HW2 2562   5.648   5.967   0.092
  555SOL     OW 2563   3.109   5.111   5.243
  555SOL    HW1 2564   3.076   5.060   5.323
  555SOL    HW2 2565   3.129   5.047   5.169
  556SOL     OW 2566   5.520   1.409   4.279
  556SOL    HW1 2567   5.590   1.345   4.309
  556SOL    HW2 2568   5.489   1.384   4.187
  557SOL     OW 2569   0.409   4.961   6.026
  557SOL    HW1 2570   0.368   5.013   5.951
  557SOL    HW2 2571   0.417   4.865   5.998
  558SOL     OW 2572   3.559   2.944   3.991
  558SOL    HW1 2573   3.550   3.041   4.011
  558SOL    HW2 2574   3.542   2.890   4.074
  559SOL     OW 2575   6.606   6.032   5.846
  559SOL    HW1 2576   6.654   6.011   5.931
  559SOL    HW2 2577   6.514   6.064   5.866
  560SOL     OW 2578   6.339   3.748   3.401
  560SOL    HW1 2579   6.287   3.736   3.317
  560SOL    HW2 2580   6.423   3.693   3.397
  561SOL     OW 2581   6.984   2.602   6.901
  561SOL    HW1 2582   6.954   2.627   6.993
  561SOL    HW2 2583   0.051   2.565   6.904
  562SOL     OW 2584   4.586   0.740   5.965
  562SOL    HW1 2585   4.499   0.692   5.973
  562SOL    HW2 2586   4.661   0.676   5.982
  563SOL     OW 2587   2.572   1.363   3.540
  563SOL    HW1 2588   2.485   1.323   3.570
  563SOL    HW2 2589   2.553   1.436   3.475
  564SOL     OW 2590   0.311   2.397   6.742
  564SOL    HW1 2591   0.330   2.301   6.719
  564SOL    HW2 2592   0.309   2.451   6.658
  565SOL     OW 2593   2.970   3.811   3.292
  565SOL    HW1 2594   2.916   3.746   3.346
  565SOL    HW2 2595   2.989   3.892   3.348
  566SOL     OW 2596   1.856   3.638   3.514
  566SOL    HW1 2597   1.856   3.538   3.506
  566SOL    HW2 2598   1.949   3.672   3.498
  567SOL     OW 2599   3.234   3.122   0.814
  567SOL    HW1 2600   3.268   3.036   0.851
  567SOL    HW2 2601   3.134   3.120   0.809
  568SOL     OW 2602   5.699   6.801   0.107
  568SOL    HW1 2603   5.721   6.723   0.049
  568SOL    HW2 2604   5.766   6.874   0.092
  569SOL     OW 2605   1.028   2.586   0.965
  569SOL    HW1 2606   1.018   2.683   0.986
  569SOL    HW2 2607   0.939   2.547   0.942
  570SOL     OW 2608   3.320   0.488   6.493
  570SOL    HW1 2609   3.411   0.446   6.488
  570SOL    HW2 2610   3.325   0.583   6.463
  571SOL     OW 2611   2.751   4.709   3.782
  571SOL    HW1 2612   2.651   4.706   3.778
  571SOL    HW2 2613   2.780   4.711   3.877
  572SOL     OW 2614   1.948   5.082   5.504
  572SOL    HW1 2615   2.012   5.090   5.581
  572SOL    HW2 2616   1.994   5.041   5.426
  573SOL     OW 2617   6.360   1.277   5.823
  573SOL    HW1 2618   6.288   1.228   5.775
  573SOL    HW2 2619   6.321   1.327   5.900
  574SOL     OW 2620   3.735   0.239   5.106
  574SOL    HW1 2621   3.716   0.295   5.187
  574SOL    HW2 2622   3.801   0.287   5.048
  575SOL     OW 2623   4.172   2.534   1.272
  575SOL    HW1 2624   4.218   2.571   1.191
  575SOL    HW2 2625   4.075   2.559   1.269
  576SOL     OW 2626   1.146   3.182   2.822
  576SOL    HW1 2627   1.200   3.123   2.762
  576SOL    HW2 2628   1.198   3.200   2.906
  577SOL     OW 2629   1.696   0.641   2.003
  577SOL    HW1 2630   1.769   0.708   2.010
  577SOL    HW2 2631   1.702   0.576   2.078
  578SOL     OW 2632   1.184   5.042   5.343
  578SOL    HW1 2633   1.115   4.974   5.316
  578SOL    HW2 2634   1.161   5.077   5.434
  579SOL     OW 2635   1.608   4.678   3.330
  579SOL    HW1 2636   1.581   4.680   3.234
  579SOL    HW2 2637   1.538   4.630   3.383
  580SOL     OW 2638   3.934   4.798   5.610
  580SOL    HW1 2639   3.857   4.737   5.630
  580SOL    HW2 2640   3.967   4.779   5.517
  581SOL     OW 2641   1.391   3.021   3.402
  581SOL    HW1 2642   1.345   3.084   3.466
  581SOL    HW2 2643   1.489   3.019   3.421
  582SOL     OW 2644   4.564   5.752   3.125
  582SOL    HW1 2645   4.500   5.770   3.051
  582SOL    HW2 2646   4.532   5.799   3.208
  583SOL     OW 2647   2.740   5.988   5.471
  583SOL    HW1 2648   2.800   6.047   5.524
  583SOL    HW2 2649   2.781   5.897   5.464
  584SOL     OW 2650   3.333   6.940   0.095
  584SOL    HW1 2651   3.339   6.844   0.066
  584SOL    HW2 2652   3.405   6.993   0.052
  585SOL     OW 2653   4.748   1.045   0.578
  585SOL    HW1 2654   4.698   0.997   0.650
  585SOL    HW2 2655   4.843   1.014   0.577
  586SOL     OW 2656   3.622   0.305   0.824
  586SOL    HW1 2657   3.690   0.350   0.883
  586SOL    HW2 2658   3.540   0.285   0.877
  587SOL     OW 2659   5.034   2.570   2.630
  587SOL    HW1 2660   5.125   2.608   2.641
  587SOL    HW2 2661   4.993   2.553   2.720
  588SOL     OW 2662   2.073   5.201   0.874
  588SOL    HW1 2663   2.128   5.195   0.957
  588SOL    HW2 2664   1.988   5.249   0.894
  589SOL     OW 2665   3.706   5.704   1.327
  589SOL    HW1 2666   3.788   5.652   1.349
  589SOL    HW2 2667   3.667   5.741   1.412
  590SOL     OW 2668   5.521   1.437   0.971
  590SOL    HW1 2669   5.443   1.412   1.027
  590SOL    HW2 2670   5.552   1.356   0.920
  591SOL     OW 2671   4.103   6.614   4.240
  591SOL    HW1 2672   4.062   6.573   4.321
  591SOL    HW2 2673   4.190   6.568   4.220
  592SOL     OW 2674   4.609   0.527   2.649
  592SOL    HW1 2675   4.697   0.496   2.684
  592SOL    HW2 2676   4.618   0.552   2.552
  593SOL     OW 2677   4.714   1.801   4.483
  593SOL    HW1 2678   4.795   1.823   4.537
  593SOL    HW2 2679   4.638   1.860   4.510
  594SOL     OW 2680   6.447   1.002   0.806
  594SOL    HW1 2681   6.544   0.995   0.784
  594SOL    HW2 2682   6.418   0.922   0.858
  595SOL     OW 2683   5.983   6.751   3.635
  595SOL    HW1 2684   6.058   6.790   3.582
  595SOL    HW2 2685   5.978   6.652   3.619
  596SOL     OW 2686   0.582   5.059   3.038
  596SOL    HW1 2687   0.599   4.967   3.073
  596SOL    HW2 2688   0.605   5.063   2.941
  597SOL     OW 2689   2.670   6.522   6.438
  597SOL    HW1 2690   2.705   6.428   6.431
  597SOL    HW2 2691   2.630   6.536   6.528
  598SOL     OW 2692   3.399   4.166   4.683
  598SOL    HW1 2693   3.490   4.157   4.643
  598SOL    HW2 2694   3.402   4.230   4.760
  599SOL     OW 2695   2.393   5.839   2.870
  599SOL    HW1 2696   2.443   5.760   2.905
  599SOL    HW2 2697   2.295   5.820   2.874
  600SOL     OW 2698   6.565   2.968   6.111
  600SOL    HW1 2699   6.565   3.053   6.163
  600SOL    HW2 2700   6.608   2.895   6.166
  601SOL     OW 2701   1.412   1.845   4.556
  601SOL    HW1 2702   1.389   1.749   4.540
  601SOL    HW2 2703   1.330   1.894   4.586
  602SOL     OW 2704   2.458   0.836   6.019
  602SOL    HW1 2705   2.367   0.839   6.060
  602SOL    HW2 2706   2.471   0.916   5.961
  603SOL     OW 2707   2.659   2.372   5.388
  603SOL    HW1 2708   2.669   2.470   5.407
  603SOL    HW2 2709   2.687   2.353   5.294
  604SOL     OW 2710   1.316   2.216   1.496
  604SOL    HW1 2711   1.281   2.132   1.537
  604SOL    HW2 2712   1.296   2.293   1.556
  605SOL     OW 2713   6.847   4.884   1.665
  605SOL    HW1 2714   6.873   4.827   1.742
  605SOL    HW2 2715   6.882   4.977   1.678
  606SOL     OW 2716   4.478   6.249   4.982
  606SOL    HW1 2717   4.514   6.342   4.975
  606SOL    HW2 2718   4.395   6.242   4.926
  607SOL     OW 2719   6.798   4.844   5.353
  607SOL    HW1 2720   6.732   4.855   5.427
  607SOL    HW2 2721   6.876   4.791   5.385
  608SOL     OW 2722   3.859   6.472   6.742
  608SOL    HW1 2723   3.802   6.542   6.785
  608SOL    HW2 2724   3.898   6.413   6.812
  609SOL     OW 2725   4.033   3.246   1.790
  609SOL    HW1 2726   4.028   3.314   1.864
  609SOL    HW2 2727   4.115   3.191   1.802
  610SOL     OW 2728   5.489   2.656   6.928
  610SOL    HW1 2729   5.415   2.648   6.861
  610SOL    HW2 2730   5.510   2.566   6.966
  611SOL     OW 2731   3.974   0.072   1.843
  611SOL    HW1 2732   3.884   0.079   1.800
  611SOL    HW2 2733   3.966   0.018   1.927
  612SOL     OW 2734   3.083   5.777   4.789
  612SOL    HW1 2735   3.149   5.836   4.835
  612SOL    HW2 2736   3.041   5.715   4.856
  613SOL     OW 2737   5.081   3.942   5.038
  613SOL    HW1 2738   5.128   3.988   5.114
  613SOL    HW2 2739   5.138   3.950   4.956
  614SOL     OW 2740   5.259   5.434   5.297
  614SOL    HW1 2741   5.231   5.356   5.242
  614SOL    HW2 2742   5.305   5.401   5.380
  615SOL     OW 2743   0.111   2.633   1.307
  615SOL    HW1 2744   0.071   2.725   1.308
  615SOL    HW2 2745   0.208   2.638   1.331
  616SOL     OW 2746   6.287   2.281   2.650
  616SOL    HW1 2747   6.241   2.204   2.694
  616SOL    HW2 2748   6.235   2.311   2.570
  617SOL     OW 2749   0.977   4.613   5.592
  617SOL    HW1 2750   0.952   4.686   5.656
  617SOL    HW2 2751   0.894   4.564   5.564
  618SOL     OW 2752   1.439   2.298   0.796
  618SOL    HW1 2753   1.344   2.330   0.789
  618SOL    HW2 2754   1.440   2.204   0.830
  619SOL     OW 2755   2.593   2.200   0.792
  619SOL    HW1 2756   2.547   2.200   0.881
  619SOL    HW2 2757   2.532   2.159   0.724
  620SOL     OW 2758   4.630   2.122   0.107
  620SOL    HW1 2759   4.690   2.150   0.032
  620SOL    HW2 2760   4.560   2.191   0.121
  621SOL     OW 2761   3.802   4.964   6.847
  621SOL    HW1 2762   3.829   5.039   6.907
  621SOL    HW2 2763   3.747   5.001   6.772
  622SOL     OW 2764   0.803   1.087   6.357
  622SOL    HW1 2765   0.764   1.143   6.285
  622SOL    HW2 2766   0.729   1.041   6.407
  623SOL     OW 2767   0.715   6.344   5.984
  623SOL    HW1 2768   0.690   6.348   6.081
  623SOL    HW2 2769   0.690   6.255   5.947
  624SOL     OW 2770   1.147   2.671   1.431
  624SOL    HW1 2771   1.130   2.610   1.354
  624SOL    HW2 2772   1.104   2.760   1.413
  625SOL     OW 2773   2.532   2.374   1.149
  625SOL    HW1 2774   2.541   2.421   1.062
  625SOL    HW2 2775   2.597   2.299   1.154
  626SOL     OW 2776   2.680   5.940   3.822
  626SOL    HW1 2777   2.670   5.855   3.874
  626SOL    HW2 2778   2.616   6.007   3.857
  627SOL     OW 2779   5.542   0.383   0.983
  627SOL    HW1 2780   5.455   0.335   0.977
  627SOL    HW2 2781   5.543   0.442   1.063
  628SOL     OW 2782   5.341   4.854   5.260
  628SOL    HW1 2783   5.338   4.842   5.161
  628SOL    HW2 2784   5.408   4.792   5.300
  629SOL     OW 2785   0.070   6.515   1.156
  629SOL    HW1 2786   7.016   6.570   1.178
  629SOL    HW2 2787   0.045   6.418   1.158
  630SOL     OW 2788   5.697   2.171   2.844
  630SOL    HW1 2789   5.719   2.268   2.846
  630SOL    HW2 2790   5.674   2.140   2.937
  631SOL     OW 2791   3.630   6.601   5.397
  631SOL    HW1 2792   3.569   6.601   5.318
  631SOL    HW2 2793   3.664   6.508   5.413
  632SOL     OW 2794   2.916   1.930   0.267
  632SOL    HW1 2795   3.007   1.887   0.269
  632SOL    HW2 2796   2.851   1.873   0.318
  633SOL     OW 2797   3.892   5.150   7.023
  633SOL    HW1 2798   3.988   5.162   6.997
  633SOL    HW2 2799   3.878   5.178   0.091
  634SOL     OW 2800   4.646   4.493   1.927
  634SOL    HW1 2801   4.738   4.465   1.900
  634SOL    HW2 2802   4.605   4.422   1.984
  635SOL     OW 2803   4.702   6.324   2.462
  635SOL    HW1 2804   4.780   6.365   2.413
  635SOL    HW2 2805   4.661   6.392   2.522
  636SOL     OW 2806   5.194   6.250   6.328
  636SOL    HW1 2807   5.182   6.348   6.341
  636SOL    HW2 2808   5.105   6.208   6.307
  637SOL     OW 2809   5.493   4.260   1.692
  637SOL    HW1 2810   5.524   4.344   1.646
  637SOL    HW2 2811   5.520   4.181   1.637
  638SOL     OW 2812   5.327   1.106   2.246
  638SOL    HW1 2813   5.391   1.181   2.228
  638SOL    HW2 2814   5.280   1.123   2.333
  639SOL     OW 2815   5.018   4.139   2.150
  639SOL    HW1 2816   5.056   4.150   2.058
  639SOL    HW2 2817   5.091   4.154   2.217
  640SOL     OW 2818   1.813   4.780   5.055
  640SOL    HW1 2819   1.911   4.789   5.075
  640SOL    HW2 2820   1.764   4.757   5.139
  641SOL     OW 2821   0.271   5.432   4.921
  641SOL    HW1 2822   0.284   5.351   4.864
  641SOL    HW2 2823   0.231   5.506   4.866
  642SOL     OW 2824   0.026   3.972   4.007
  642SOL    HW1 2825   0.049   4.063   3.972
  642SOL    HW2 2826   6.987   3.928   3.946
  643SOL     OW 2827   5.976   4.561   5.092
  643SOL    HW1 2828   6.052   4.591   5.150
  643SOL    HW2 2829   5.994   4.468   5.060
  644SOL     OW 2830   1.127   5.555   2.913
  644SOL    HW1 2831   1.039   5.601   2.901
  644SOL    HW2 2832   1.149   5.550   3.010
  645SOL     OW 2833   5.260   2.284   4.323
  645SOL    HW1 2834   5.180   2.225   4.332
  645SOL    HW2 2835   5.259   2.330   4.234
  646SOL     OW 2836   2.831   2.003   3.446
  646SOL    HW1 2837   2.887   1.944   3.504
  646SOL    HW2 2838   2.818   1.959   3.357
  647SOL     OW 2839   5.782   2.828   5.853
  647SOL    HW1 2840   5.769   2.730   5.841
  647SOL    HW2 2841   5.793   2.849   5.949
  648SOL     OW 2842   6.716   3.552   2.870
  648SOL    HW1 2843   6.671   3.551   2.959
  648SOL    HW2 2844   6.762   3.464   2.855
  649SOL     OW 2845   4.446   4.052   0.134
  649SOL    HW1 2846   4.449   3.986   0.209
  649SOL    HW2 2847   4.517   4.120   0.146
  650SOL     OW 2848   5.538   3.756   0.618
  650SOL    HW1 2849   5.516   3.812   0.538
  650SOL    HW2 2850   5.622   3.705   0.602
  651SOL     OW 2851   0.359   6.896   6.904
  651SOL    HW1 2852   0.276   6.889   6.848
  651SOL    HW2 2853   0.349   6.839   6.986
  652SOL     OW 2854   5.038   5.906   3.865
  652SOL    HW1 2855   5.005   5.863   3.781
  652SOL    HW2 2856   5.128   5.948   3.848
  653SOL     OW 2857   3.604   5.330   5.657
  653SOL    HW1 2858   3.627   5.303   5.750
  653SOL    HW2 2859   3.535   5.401   5.659
  654SOL     OW 2860   0.455   4.476   5.785
  654SOL    HW1 2861   0.514   4.395   5.795
  654SOL    HW2 2862   0.360   4.449   5.798
  655SOL     OW 2863   0.222   6.713   2.402
  655SOL    HW1 2864   0.174   6.800   2.417
  655SOL    HW2 2865   0.189   6.671   2.318
  656SOL     OW 2866   1.879   5.848   1.134
  656SOL    HW1 2867   1.935   5.905   1.195
  656SOL    HW2 2868   1.847   5.768   1.184
  657SOL     OW 2869   2.388   2.075   1.644
  657SOL    HW1 2870   2.303   2.033   1.612
  657SOL    HW2 2871   2.377   2.103   1.739
  658SOL     OW 2872   3.191   3.401   5.887
  658SOL    HW1 2873   3.150   3.342   5.957
  658SOL    HW2 2874   3.270   3.355   5.847
  659SOL     OW 2875   3.106   6.477   6.283
  659SOL    HW1 2876   3.105   6.577   6.273
  659SOL    HW2 2877   3.077   6.435   6.197
  660SOL     OW 2878   4.956   4.251   1.611
  660SOL    HW1 2879   5.037   4.227   1.664
  660SOL    HW2 2880   4.874   4.239   1.667
  661SOL     OW 2881   4.826   6.264   3.895
  661SOL    HW1 2882   4.732   6.297   3.887
  661SOL    HW2 2883   4.889   6.329   3.852
  662SOL     OW 2884   3.881   0.593   5.346
  662SOL    HW1 2885   3.799   0.536   5.340
  662SOL    HW2 2886   3.867   0.664   5.415
  663SOL     OW 2887   2.425   3.807   5.840
  663SOL    HW1 2888   2.392   3.714   5.824
  663SOL    HW2 2889   2.454   3.847   5.753
  664SOL     OW 2890   0.203   6.398   6.491
  664SOL    HW1 2891   0.139   6.325   6.467
  664SOL    HW2 2892   0.188   6.477   6.431
  665SOL     OW 2893   4.256   5.414   1.774
  665SOL    HW1 2894   4.179   5.361   1.810
  665SOL    HW2 2895   4.341   5.383   1.816
  666SOL     OW 2896   5.267   0.885   2.099
  666SOL    HW1 2897   5.336   0.859   2.032
  666SOL    HW2 2898   5.289   0.975   2.137
  667SOL     OW 2899   1.219   4.995   2.940
  667SOL    HW1 2900   1.250   4.899   2.940
  667SOL    HW2 2901   1.125   4.999   2.907
  668SOL     OW 2902   4.880   6.629   6.087
  668SOL    HW1 2903   4.935   6.554   6.051
  668SOL    HW2 2904   4.860   6.694   6.015
  669SOL     OW 2905   5.091   0.418   3.155
  669SOL    HW1 2906   5.171   0.442   3.210
  669SOL    HW2 2907   5.015   0.480   3.177
  670SOL     OW 2908   3.050   2.114   2.033
  670SOL    HW1 2909   2.991   2.195   2.035
  670SOL    HW2 2910   3.006   2.042   1.979
  671SOL     OW 2911   3.140   6.269   1.091
  671SOL    HW1 2912   3.084   6.306   1.016
  671SOL    HW2 2913   3.236   6.291   1.074
  672SOL     OW 2914   6.470   5.495   2.239
  672SOL    HW1 2915   6.435   5.418   2.293
  672SOL    HW2 2916   6.424   5.496   2.150
  673SOL     OW 2917   6.380   6.755   1.031
  673SOL    HW1 2918   6.291   6.743   0.988
  673SOL    HW2 2919   6.388   6.848   1.067
  674SOL     OW 2920   0.440   1.328   4.619
  674SOL    HW1 2921   0.371   1.265   4.582
  674SOL    HW2 2922   0.418   1.421   4.591
  675SOL     OW 2923   5.740   2.437   2.828
  675SOL    HW1 2924   5.838   2.443   2.847
  675SOL    HW2 2925   5.725   2.450   2.730
  676SOL     OW 2926   2.928   5.422   3.826
  676SOL    HW1 2927   2.900   5.342   3.879
  676SOL    HW2 2928   3.027   5.421   3.815
  677SOL     OW 2929   5.057   1.062   0.697
  677SOL    HW1 2930   5.022   1.146   0.656
  677SOL    HW2 2931   5.024   1.055   0.791
  678SOL     OW 2932   2.778   6.142   5.100
  678SOL    HW1 2933   2.773   6.087   5.016
  678SOL    HW2 2934   2.869   6.182   5.107
  679SOL     OW 2935   5.177   1.840   3.860
  679SOL    HW1 2936   5.232   1.776   3.914
  679SOL    HW2 2937   5.089   1.854   3.905
  680SOL     OW 2938   4.693   5.948   4.766
  680SOL    HW1 2939   4.728   5.979   4.854
  680SOL    HW2 2940   4.697   5.848   4.762
  681SOL     OW 2941   4.724   5.752   1.646
  681SOL    HW1 2942   4.812   5.797   1.629
  681SOL    HW2 2943   4.736   5.677   1.710
  682SOL     OW 2944   5.946   1.136   1.549
  682SOL    HW1 2945   6.019   1.071   1.532
  682SOL    HW2 2946   5.859   1.097   1.520
  683SOL     OW 2947   4.461   2.332   0.212
  683SOL    HW1 2948   4.398   2.293   0.278
  683SOL    HW2 2949   4.416   2.406   0.162
  684SOL     OW 2950   6.436   1.041   0.403
  684SOL    HW1 2951   6.525   1.072   0.437
  684SOL    HW2 2952   6.372   1.117   0.404
  685SOL     OW 2953   3.287   1.973   3.868
  685SOL    HW1 2954   3.321   2.034   3.940
  685SOL    HW2 2955   3.336   1.991   3.783
  686SOL     OW 2956   4.778   2.228   4.593
  686SOL    HW1 2957   4.722   2.304   4.559
  686SOL    HW2 2958   4.724   2.171   4.655
  687SOL     OW 2959   0.765   2.159   3.907
  687SOL    HW1 2960   0.862   2.170   3.884
  687SOL    HW2 2961   0.748   2.201   3.996
  688SOL     OW 2962   0.313   1.573   6.525
  688SOL    HW1 2963   0.328   1.615   6.435
  688SOL    HW2 2964   0.237   1.508   6.519
  689SOL     OW 2965   1.132   4.639   5.861
  689SOL    HW1 2966   1.057   4.668   5.921
  689SOL    HW2 2967   1.186   4.718   5.835
  690SOL     OW 2968   6.951   3.652   3.234
  690SOL    HW1 2969   6.978   3.655   3.138
  690SOL    HW2 2970   7.024   3.611   3.289
  691SOL     OW 2971   3.478   1.606   6.920
  691SOL    HW1 2972   3.512   1.518   6.953
  691SOL    HW2 2973   3.556   1.665   6.897
  692SOL     OW 2974   4.309   2.288   4.402
  692SOL    HW1 2975   4.347   2.268   4.492
  692SOL    HW2 2976   4.342   2.378   4.371
  693SOL     OW 2977   4.814   6.571   3.991
  693SOL    HW1 2978   4.901   6.537   4.026
  693SOL    HW2 2979   4.739   6.530   4.042
  694SOL     OW 2980   4.304   6.825   5.040
  694SOL    HW1 2981   4.240   6.799   4.968
  694SOL    HW2 2982   4.369   6.892   5.005
  695SOL     OW 2983   3.897   6.714   4.085
  695SOL    HW1 2984   3.926   6.801   4.045
  695SOL    HW2 2985   3.967   6.681   4.148
  696SOL     OW 2986   5.174   4.596   3.676
  696SOL    HW1 2987   5.241   4.667   3.701
  696SOL    HW2 2988   5.097   4.638   3.629
  697SOL     OW 2989   1.657   3.727   2.491
  697SOL    HW1 2990   1.667   3.676   2.406
  697SOL    HW2 2991   1.684   3.822   2.478
  698SOL     OW 2992   5.839   6.120   1.058
  698SOL    HW1 2993   5.928   6.097   1.020
  698SOL    HW2 2994   5.847   6.203   1.113
  699SOL     OW 2995   1.631   3.460   6.945
  699SOL    HW1 2996   1.724   3.459   6.980
  699SOL    HW2 2997   1.571   3.507   7.010
  700SOL     OW 2998   3.609   6.965   2.370
  700SOL    HW1 2999   3.644   6.873   2.384
  700SOL    HW2 3000   3.545   6.988   2.443
  701SOL     OW 3001   6.911   3.932   0.193
  701SOL    HW1 3002   6.992   3.973   0.152
  701SOL    HW2 3003   6.924   3.833   0.203
  702SOL     OW 3004   1.653   6.282   4.942
  702SOL    HW1 3005   1.568   6.232   4.925
  702SOL    HW2 3006   1.731   6.229   4.908
  703SOL     OW 3007   3.646   3.603   5.597
  703SOL    HW1 3008   3.741   3.587   5.569
  703SOL    HW2 3009   3.588   3.611   5.516
  704SOL     OW 3010   1.860   2.625   6.327
  704SOL    HW1 3011   1.909   2.686   6.264
  704SOL    HW2 3012   1.763   2.651   6.329
  705SOL     OW 3013   5.635   5.529   2.799
  705SOL    HW1 3014   5.706   5.599   2.802
  705SOL    HW2 3015   5.561   5.558   2.738
  706SOL     OW 3016   4.379   1.836   5.224
  706SOL    HW1 3017   4.403   1.890   5.305
  706SOL    HW2 3018   4.450   1.848   5.154
  707SOL     OW 3019   4.143   4.759   3.174
  707SOL    HW1 3020   4.175   4.664   3.172
  707SOL    HW2 3021   4.114   4.786   3.082
  708SOL     OW 3022   2.562   1.188   2.334
  708SOL    HW1 3023   2.645   1.132   2.328
  708SOL    HW2 3024   2.571   1.255   2.407
  709SOL     OW 3025   1.350   5.916   0.750
  709SOL    HW1 3026   1.256   5.932   0.718
  709SOL    HW2 3027   1.388   6.002   0.784
  710SOL     OW 3028   3.946   1.702   1.338
  710SOL    HW1 3029   3.935   1.757   1.256
  710SOL    HW2 3030   3.942   1.762   1.419
  711SOL     OW 3031   0.061   3.046   5.796
  711SOL    HW1 3032   0.131   2.978   5.773
  711SOL    HW2 3033   0.041   3.101   5.715
  712SOL     OW 3034   4.530   2.387   0.654
  712SOL    HW1 3035   4.501   2.459   0.591
  712SOL    HW2 3036   4.616   2.347   0.622
  713SOL     OW 3037   4.208   3.355   5.756
  713SOL    HW1 3038   4.154   3.411   5.693
  713SOL    HW2 3039   4.301   3.392   5.763
  714SOL     OW 3040   0.122   5.272   3.879
  714SOL    HW1 3041   0.057   5.236   3.946
  714SOL    HW2 3042   0.084   5.262   3.787
  715SOL     OW 3043   5.561   5.977   6.732
  715SOL    HW1 3044   5.485   5.951   6.673
  715SOL    HW2 3045   5.644   5.929   6.703
  716SOL     OW 3046   0.944   1.047   2.589
  716SOL    HW1 3047   1.032   1.007   2.566
  716SOL    HW2 3048   0.955   1.110   2.666
  717SOL     OW 3049   6.749   5.001   4.056
  717SOL    HW1 3050   6.708   5.041   3.973
  717SOL    HW2 3051   6.729   5.059   4.134
  718SOL     OW 3052   4.772   3.044   5.670
  718SOL    HW1 3053   4.775   3.063   5.768
  718SOL    HW2 3054   4.682   3.070   5.634
  719SOL     OW 3055   5.922   7.005   2.404
  719SOL    HW1 3056   5.982   6.925   2.394
  719SOL    HW2 3057   5.829   6.975   2.426
  720SOL     OW 3058   2.360   0.478   6.264
  720SOL    HW1 3059   2.423   0.429   6.203
  720SOL    HW2 3060   2.336   0.566   6.222
  721SOL     OW 3061   2.276   1.262   2.009
  721SOL    HW1 3062   2.361   1.226   1.972
  721SOL    HW2 3063   2.237   1.195   2.073
  722SOL     OW 3064   3.310   1.074   5.410
  722SOL    HW1 3065   3.368   1.151   5.382
  722SOL    HW2 3066   3.244   1.105   5.479
  723SOL     OW 3067   2.172   5.273   3.524
  723SOL    HW1 3068   2.146   5.366   3.552
  723SOL    HW2 3069   2.272   5.266   3.521
  724SOL     OW 3070   0.896   1.399   3.414
  724SOL    HW1 3071   0.847   1.422   3.498
  724SOL    HW2 3072   0.878   1.304   3.390
  725SOL     OW 3073   1.671   4.572   2.539
  725SOL    HW1 3074   1.584   4.615   2.561
  725SOL    HW2 3075   1.669   4.476   2.569
  726SOL     OW 3076   2.769   5.114   1.446
  726SOL    HW1 3077   2.754   5.075   1.537
  726SOL    HW2 3078   2.681   5.129   1.401
  727SOL     OW 3079   5.369   4.651   6.153
  727SOL    HW1 3080   5.357   4.605   6.066
  727SOL    HW2 3081   5.337   4.592   6.227
  728SOL     OW 3082   6.472   3.403   4.050
  728SOL    HW1 3083   6.406   3.429   3.980
  728SOL    HW2 3084   6.510   3.485   4.092
  729SOL     OW 3085   0.506   2.954   1.297
  729SOL    HW1 3086   0.605   2.954   1.284
  729SOL    HW2 3087   0.463   3.014   1.229
  730SOL     OW 3088   6.769   0.217   4.262
  730SOL    HW1 3089   6.712   0.275   4.202
  730SOL    HW2 3090   6.792   0.132   4.214
  731SOL     OW 3091   4.869   5.306   6.736
  731SOL    HW1 3092   4.923   5.335   6.656
  731SOL    HW2 3093   4.929   5.303   6.816
  732SOL     OW 3094   5.726   2.907   2.664
  732SOL    HW1 3095   5.656   2.978   2.663
  732SOL    HW2 3096   5.693   2.827   2.614
  733SOL     OW 3097   5.664   0.376   5.293
  733SOL    HW1 3098   5.655   0.373   5.392
  733SOL    HW2 3099   5.688   0.468   5.264
  734SOL     OW 3100   6.058   5.099   2.566
  734SOL    HW1 3101   6.116   5.089   2.647
  734SOL    HW2 3102   6.111   5.076   2.484
  735SOL     OW 3103   4.220   1.640   0.474
  735SOL    HW1 3104   4.303   1.588   0.454
  735SOL    HW2 3105   4.171   1.596   0.549
  736SOL     OW 3106   1.008   1.297   3.768
  736SOL    HW1 3107   0.999   1.240   3.849
  736SOL    HW2 3108   1.016   1.239   3.687
  737SOL     OW 3109   5.448   1.726   6.112
  737SOL    HW1 3110   5.490   1.635   6.116
  737SOL    HW2 3111   5.519   1.796   6.121
  738SOL     OW 3112   2.879   4.148   1.450
  738SOL    HW1 3113   2.879   4.060   1.402
  738SOL    HW2 3114   2.897   4.222   1.384
  739SOL     OW 3115   3.925   0.352   4.577
  739SOL    HW1 3116   4.019   0.367   4.609
  739SOL    HW2 3117   3.862   0.409   4.630
  740SOL     OW 3118   5.636   1.787   2.991
  740SOL    HW1 3119   5.597   1.842   2.917
  740SOL    HW2 3120   5.613   1.828   3.079
  741SOL     OW 3121   2.185   0.132   3.839
  741SOL    HW1 3122   2.165   0.229   3.854
  741SOL    HW2 3123   2.227   0.093   3.921
  742SOL     OW 3124   1.809   6.191   1.373
  742SOL    HW1 3125   1.780   6.286   1.368
  742SOL    HW2 3126   1.896   6.180   1.326
  743SOL     OW 3127   6.866   5.356   3.133
  743SOL    HW1 3128   6.883   5.290   3.059
  743SOL    HW2 3129   6.856   5.306   3.219
  744SOL     OW 3130   6.039   0.677   0.465
  744SOL    HW1 3131   6.041   0.653   0.562
  744SOL    HW2 3132   6.096   0.757   0.449
  745SOL     OW 3133   1.922   5.490   5.217
  745SOL    HW1 3134   2.012   5.453   5.238
  745SOL    HW2 3135   1.932   5.570   5.158
  746SOL     OW 3136   5.892   3.983   5.975
  746SOL    HW1 3137   5.797   4.006   5.957
  746SOL    HW2 3138   5.951   4.061   5.950
  747SOL     OW 3139   4.397   6.003   4.676
  747SOL    HW1 3140   4.433   5.972   4.765
  747SOL    HW2 3141   4.312   5.955   4.657
  748SOL     OW 3142   4.649   5.493   2.265
  748SOL    HW1 3143   4.578   5.531   2.325
  748SOL    HW2 3144   4.729   5.468   2.320
  749SOL     OW 3145   5.644   3.727   4.520
  749SOL    HW1 3146   5.686   3.750   4.608
  749SOL    HW2 3147   5.713   3.732   4.448
  750SOL     OW 3148   2.315   1.250   1.284
  750SOL    HW1 3149   2.317   1.175   1.218
  750SOL    HW2 3150   2.377   1.323   1.254
  751SOL     OW 3151   4.210   1.121   0.221
  751SOL    HW1 3152   4.308   1.138   0.207
  751SOL    HW2 3153   4.185   1.148   0.313
  752SOL     OW 3154   3.049   3.029   0.128
  752SOL    HW1 3155   2.974   2.993   0.184
  752SOL    HW2 3156   3.086   2.955   0.072
  753SOL     OW 3157   1.341   3.409   5.789
  753SOL    HW1 3158   1.352   3.363   5.701
  753SOL    HW2 3159   1.408   3.483   5.796
  754SOL     OW 3160   4.845   1.719   6.375
  754SOL    HW1 3161   4.753   1.695   6.406
  754SOL    HW2 3162   4.908   1.718   6.453
  755SOL     OW 3163   2.699   4.681   5.790
  755SOL    HW1 3164   2.798   4.692   5.800
  755SOL    HW2 3165   2.680   4.625   5.709
  756SOL     OW 3166   2.754   5.229   6.923
  756SOL    HW1 3167   2.844   5.257   6.957
  756SOL    HW2 3168   2.753   5.130   6.910
  757SOL     OW 3169   1.873   6.060   3.138
  757SOL    HW1 3170   1.935   6.025   3.207
  757SOL    HW2 3171   1.916   6.136   3.089
  758SOL     OW 3172   3.975   0.860   3.472
  758SOL    HW1 3173   3.955   0.838   3.376
  758SOL    HW2 3174   3.988   0.776   3.523
  759SOL     OW 3175   0.209   2.966   2.467
  759SOL    HW1 3176   0.241   2.921   2.383
  759SOL    HW2 3177   0.121   2.927   2.494
  760SOL     OW 3178   6.434   7.012   4.174
  760SOL    HW1 3179   6.437   6.939   4.106
  760SOL    HW2 3180   6.527   0.017   4.192
  761SOL     OW 3181   5.552   4.233   6.731
  761SOL    HW1 3182   5.599   4.161   6.781
  761SOL    HW2 3183   5.596   4.321   6.750
  762SOL     OW 3184   3.208   0.352   5.377
  762SOL    HW1 3185   3.169   0.301   5.300
  762SOL    HW2 3186   3.162   0.325   5.461
  763SOL     OW 3187   4.332   6.455   6.340
  763SOL    HW1 3188   4.317   6.368   6.293
  763SOL    HW2 3189   4.419   6.453   6.388
  764SOL     OW 3190   5.305   0.460   5.896
  764SOL    HW1 3191   5.212   0.423   5.892
  764SOL    HW2 3192   5.313   0.537   5.833
  765SOL     OW 3193   1.696   6.421   0.534
  765SOL    HW1 3194   1.654   6.448   0.448
  765SOL    HW2 3195   1.670   6.486   0.606
  766SOL     OW 3196   2.857   2.079   5.440
  766SOL    HW1 3197   2.890   2.052   5.530
  766SOL    HW2 3198   2.920   2.145   5.399
  767SOL     OW 3199   6.381   6.722   3.860
  767SOL    HW1 3200   6.452   6.723   3.930
  767SOL    HW2 3201   6.351   6.816   3.842
  768SOL     OW 3202   1.863   5.523   3.802
  768SOL    HW1 3203   1.906   5.588   3.863
  768SOL    HW2 3204   1.918   5.439   3.797
  769SOL     OW 3205   2.957   0.925   5.109
  769SOL    HW1 3206   2.905   0.944   5.192
  769SOL    HW2 3207   2.907   0.962   5.030
  770SOL     OW 3208   1.506   5.290   4.023
  770SOL    HW1 3209   1.482   5.340   3.940
  770SOL    HW2 3210   1.484   5.345   4.103
  771SOL     OW 3211   1.518   4.672   3.077
  771SOL    HW1 3212   1.523   4.573   3.089
  771SOL    HW2 3213   1.442   4.695   3.017
  772SOL     OW 3214   6.225   4.919   6.508
  772SOL    HW1 3215   6.167   4.981   6.561
  772SOL    HW2 3216   6.167   4.854   6.459
  773SOL     OW 3217   0.390   3.760   2.924
  773SOL    HW1 3218   0.349   3.672   2.950
  773SOL    HW2 3219   0.490   3.752   2.927
  774SOL     OW 3220   1.339   1.275   2.701
  774SOL    HW1 3221   1.243   1.276   2.729
  774SOL    HW2 3222   1.382   1.362   2.726
  775SOL     OW 3223   2.322   1.938   4.302
  775SOL    HW1 3224   2.400   1.932   4.364
  775SOL    HW2 3225   2.289   1.846   4.282
  776SOL     OW 3226   6.751   0.780   6.203
  776SOL    HW1 3227   6.719   0.760   6.296
  776SOL    HW2 3228   6.686   0.842   6.159
  777SOL     OW 3229   1.959   4.226   1.299
  777SOL    HW1 3230   1.863   4.223   1.328
  777SOL    HW2 3231   1.971   4.168   1.218
  778SOL     OW 3232   2.210   0.229   1.526
  778SOL    HW1 3233   2.256   0.253   1.440
  778SOL    HW2 3234   2.279   0.205   1.595
  779SOL     OW 3235   6.798   1.843   2.350
  779SOL    HW1 3236   6.806   1.888   2.261
  779SOL    HW2 3237   6.782   1.745   2.336
  780SOL     OW 3238   0.926   2.611   3.904
  780SOL    HW1 3239   0.937   2.540   3.973
  780SOL    HW2 3240   0.831   2.642   3.903
  781SOL     OW 3241   5.516   5.350   0.605
  781SOL    HW1 3242   5.478   5.258   0.608
  781SOL    HW2 3243   5.518   5.383   0.510
  782SOL     OW 3244   1.676   3.972   5.556
  782SOL    HW1 3245   1.591   3.978   5.505
  782SOL    HW2 3246   1.720   4.062   5.559
  783SOL     OW 3247   5.629   4.456   1.360
  783SOL    HW1 3248   5.578   4.406   1.290
  783SOL    HW2 3249   5.727   4.449   1.341
  784SOL     OW 3250   4.074   5.399   1.555
  784SOL    HW1 3251   4.171   5.391   1.580
  784SOL    HW2 3252   4.020   5.339   1.614
  785SOL     OW 3253   0.463   1.248   3.650
  785SOL    HW1 3254   0.397   1.314   3.686
  785SOL    HW2 3255   0.538   1.297   3.606
  786SOL     OW 3256   0.039   0.860   2.549
  786SOL    HW1 3257   6.977   0.854   2.503
  786SOL    HW2 3258   0.026   0.852   2.648
  787SOL     OW 3259   1.717   6.679   6.759
  787SOL    HW1 3260   1.628   6.715   6.729
  787SOL    HW2 3261   1.775   6.664   6.678
  788SOL     OW 3262   4.382   2.248   1.043
  788SOL    HW1 3263   4.387   2.279   1.138
  788SOL    HW2 3264   4.303   2.290   0.998
  789SOL     OW 3265   4.698   5.250   2.142
  789SOL    HW1 3266   4.661   5.340   2.165
  789SOL    HW2 3267   4.794   5.259   2.115
  790SOL     OW 3268   2.128   1.125   2.189
  790SOL    HW1 3269   2.072   1.207   2.180
  790SOL    HW2 3270   2.091   1.068   2.262
  791SOL     OW 3271   2.434   6.024   5.526
  791SOL    HW1 3272   2.352   5.972   5.505
  791SOL    HW2 3273   2.482   6.046   5.441
  792SOL     OW 3274   0.682   0.761   2.276
  792SOL    HW1 3275   0.635   0.849   2.290
  792SOL    HW2 3276   0.624   0.701   2.222
  793SOL     OW 3277   5.178   5.951   5.308
  793SOL    HW1 3278   5.217   5.869   5.267
  793SOL    HW2 3279   5.079   5.939   5.320
  794SOL     OW 3280   3.143   3.515   5.646
  794SOL    HW1 3281   3.230   3.490   5.604
  794SOL    HW2 3282   3.143   3.487   5.742
  795SOL     OW 3283   4.055   0.341   5.626
  795SOL    HW1 3284   4.021   0.306   5.539
  795SOL    HW2 3285   4.090   0.434   5.613
  796SOL     OW 3286   1.634   2.780   0.433
  796SOL    HW1 3287   1.596   2.713   0.497
  796SOL    HW2 3288   1.583   2.777   0.347
  797SOL     OW 3289   4.255   0.445   0.856
  797SOL    HW1 3290   4.351   0.457   0.831
  797SOL    HW2 3291   4.243   0.463   0.954
  798SOL     OW 3292   3.792   6.129   1.452
  798SOL    HW1 3293   3.752   6.221   1.452
  798SOL    HW2 3294   3.784   6.089   1.361
  799SOL     OW 3295   0.464   0.805   6.085
  799SOL    HW1 3296   0.557   0.824   6.117
  799SOL    HW2 3297   0.455   0.831   5.989
  800SOL     OW 3298   6.789   0.973   2.356
  800SOL    HW1 3299   6.711   0.912   2.341
  800SOL    HW2 3300   6.804   1.029   2.275
  801SOL     OW 3301   2.347   4.248   5.261
  801SOL    HW1 3302   2.383   4.328   5.214
  801SOL    HW2 3303   2.359   4.167   5.203
  802SOL     OW 3304   3.356   2.120   0.101
  802SOL    HW1 3305   3.287   2.177   0.055
  802SOL    HW2 3306   3.310   2.048   0.154
  803SOL     OW 3307   1.566   6.497   5.847
  803SOL    HW1 3308   1.577   6.582   5.796
  803SOL    HW2 3309   1.473   6.492   5.885
  804SOL     OW 3310   6.733   0.190   1.647
  804SOL    HW1 3311   6.831   0.174   1.635
  804SOL    HW2 3312   6.716   0.225   1.739
  805SOL     OW 3313   1.553   0.476   3.952
  805SOL    HW1 3314   1.628   0.413   3.972
  805SOL    HW2 3315   1.478   0.425   3.910
  806SOL     OW 3316   6.164   0.305   6.455
  806SOL    HW1 3317   6.257   0.309   6.491
  806SOL    HW2 3318   6.161   0.245   6.375
  807SOL     OW 3319   0.556   6.896   3.840
  807SOL    HW1 3320   0.476   6.940   3.882
  807SOL    HW2 3321   0.619   6.967   3.808
  808SOL     OW 3322   5.106   3.066   6.539
  808SOL    HW1 3323   5.176   3.032   6.602
  808SOL    HW2 3324   5.150   3.101   6.457
  809SOL     OW 3325   1.020   4.910   0.739
  809SOL    HW1 3326   1.074   4.908   0.655
  809SOL    HW2 3327   1.040   4.994   0.790
  810SOL     OW 3328   3.343   3.812   0.143
  810SOL    HW1 3329   3.249   3.796   0.174
  810SOL    HW2 3330   3.347   3.805   0.043
  811SOL     OW 3331   5.158   4.994   4.075
  811SOL    HW1 3332   5.138   4.899   4.050
  811SOL    HW2 3333   5.251   4.999   4.111
  812SOL     OW 3334   0.261   1.619   2.030
  812SOL    HW1 3335   0.219   1.707   2.009
  812SOL    HW2 3336   0.359   1.631   2.045
  813SOL     OW 3337   2.770   0.470   4.451
  813SOL    HW1 3338   2.727   0.550   4.494
  813SOL    HW2 3339   2.816   0.415   4.521
  814SOL     OW 3340   6.561   6.085   2.648
  814SOL    HW1 3341   6.595   6.000   2.607
  814SOL    HW2 3342   6.605   6.163   2.603
  815SOL     OW 3343   5.688   3.165   3.285
  815SOL    HW1 3344   5.725   3.082   3.242
  815SOL    HW2 3345   5.698   3.158   3.384
  816SOL     OW 3346   5.095   5.126   0.256
  816SOL    HW1 3347   5.129   5.058   0.191
  816SOL    HW2 3348   5.133   5.216   0.234
  817SOL     OW 3349   0.776   5.430   1.885
  817SOL    HW1 3350   0.860   5.390   1.923
  817SOL    HW2 3351   0.801   5.498   1.815
  818SOL     OW 3352   5.721   3.085   3.536
  818SOL    HW1 3353   5.698   2.990   3.553
  818SOL    HW2 3354   5.680   3.143   3.607
  819SOL     OW 3355   6.211   2.548   1.884
  819SOL    HW1 3356   6.280   2.576   1.817
  819SOL    HW2 3357   6.137   2.498   1.837
  820SOL     OW 3358   3.150   2.214   4.490
  820SOL    HW1 3359   3.086   2.220   4.414
  820SOL    HW2 3360   3.231   2.161   4.462
  821SOL     OW 3361   6.203   4.965   6.100
  821SOL    HW1 3362   6.185   4.887   6.160
  821SOL    HW2 3363   6.189   4.938   6.005
  822SOL     OW 3364   0.038   3.414   3.397
  822SOL    HW1 3365   0.039   3.498   3.451
  822SOL    HW2 3366   0.081   3.340   3.449
  823SOL     OW 3367   6.458   4.339   6.675
  823SOL    HW1 3368   6.458   4.297   6.585
  823SOL    HW2 3369   6.552   4.359   6.703
  824SOL     OW 3370   4.768   0.994   5.663
  824SOL    HW1 3371   4.861   0.991   5.700
  824SOL    HW2 3372   4.758   0.922   5.593
  825SOL     OW 3373   6.538   5.782   1.267
  825SOL    HW1 3374   6.576   5.867   1.231
  825SOL    HW2 3375   6.443   5.772   1.237
  826SOL     OW 3376   3.235   2.644   5.681
  826SOL    HW1 3377   3.286   2.572   5.633
  826SOL    HW2 3378   3.263   2.733   5.647
  827SOL     OW 3379   2.903   4.079   5.199
  827SOL    HW1 3380   2.942   4.170   5.212
  827SOL    HW2 3381   2.965   4.024   5.143
  828SOL     OW 3382   5.529   6.057   6.399
  828SOL    HW1 3383   5.445   6.025   6.443
  828SOL    HW2 3384   5.599   5.986   6.406
  829SOL     OW 3385   3.613   3.357   2.004
  829SOL    HW1 3386   3.660   3.270   2.020
  829SOL    HW2 3387   3.518   3.339   1.979
  830SOL     OW 3388   5.707   5.280   6.990
  830SOL    HW1 3389   5.728   5.377   7.002
  830SOL    HW2 3390   5.708   5.234   0.052
  831SOL     OW 3391   6.407   0.223   1.338
  831SOL    HW1 3392   6.321   0.261   1.304
  831SOL    HW2 3393   6.457   0.294   1.387
  832SOL     OW 3394   4.750   1.757   4.225
  832SOL    HW1 3395   4.806   1.675   4.238
  832SOL    HW2 3396   4.743   1.807   4.311
  833SOL     OW 3397   2.174   3.724   6.042
  833SOL    HW1 3398   2.234   3.687   5.971
  833SOL    HW2 3399   2.206   3.815   6.070
  834SOL     OW 3400   5.274   3.022   0.445
  834SOL    HW1 3401   5.174   3.032   0.440
  834SOL    HW2 3402   5.299   2.989   0.536
  835SOL     OW 3403   2.235   0.657   4.687
  835SOL    HW1 3404   2.228   0.662   4.587
  835SOL    HW2 3405   2.193   0.572   4.719
  836SOL     OW 3406   3.167   1.078   5.003
  836SOL    HW1 3407   3.204   1.007   4.942
  836SOL    HW2 3408   3.117   1.034   5.078
  837SOL     OW 3409   0.371   0.261   0.625
  837SOL    HW1 3410   0.440   0.328   0.596
  837SOL    HW2 3411   0.411   0.170   0.629
  838SOL     OW 3412   2.430   6.092   4.354
  838SOL    HW1 3413   2.522   6.098   4.391
  838SOL    HW2 3414   2.371   6.041   4.417
  839SOL     OW 3415   2.236   1.555   1.749
  839SOL    HW1 3416   2.238   1.607   1.835
  839SOL    HW2 3417   2.272   1.611   1.675
  840SOL     OW 3418   6.005   5.310   0.607
  840SOL    HW1 3419   6.077   5.364   0.651
  840SOL    HW2 3420   5.923   5.311   0.663
  841SOL     OW 3421   3.051   5.583   6.112
  841SOL    HW1 3422   2.981   5.562   6.181
  841SOL    HW2 3423   3.073   5.499   6.061
  842SOL     OW 3424   3.497   7.011   6.699
  842SOL    HW1 3425   3.536   0.067   6.739
  842SOL    HW2 3426   3.565   6.966   6.641
  843SOL     OW 3427   1.772   1.895   1.818
  843SOL    HW1 3428   1.846   1.954   1.787
  843SOL    HW2 3429   1.807   1.803   1.834
  844SOL     OW 3430   0.131   6.949   1.383
  844SOL    HW1 3431   0.112   6.872   1.444
  844SOL    HW2 3432   0.046   6.975   1.336
  845SOL     OW 3433   5.290   3.630   3.249
  845SOL    HW1 3434   5.236   3.591   3.324
  845SOL    HW2 3435   5.279   3.574   3.168
  846SOL     OW 3436   2.782   0.882   5.710
  846SOL    HW1 3437   2.807   0.869   5.806
  846SOL    HW2 3438   2.854   0.846   5.651
  847SOL     OW 3439   2.245   2.985   1.864
  847SOL    HW1 3440   2.323   3.032   1.823
  847SOL    HW2 3441   2.203   3.044   1.934
  848SOL     OW 3442   6.597   7.008   5.774
  848SOL    HW1 3443   6.599   0.075   5.737
  848SOL    HW2 3444   6.685   6.988   5.818
  849SOL     OW 3445   6.089   4.493   6.092
  849SOL    HW1 3446   6.188   4.491   6.103
  849SOL    HW2 3447   6.064   4.562   6.023
  850SOL     OW 3448   6.513   0.167   5.271
  850SOL    HW1 3449   6.439   0.124   5.324
  850SOL    HW2 3450   6.490   0.263   5.254
  851SOL     OW 3451   0.215   2.933   6.781
  851SOL    HW1 3452   0.196   2.902   6.874
  851SOL    HW2 3453   0.300   2.892   6.749
  852SOL     OW 3454   0.772   4.836   0.799
  852SOL    HW1 3455   0.868   4.848   0.775
  852SOL    HW2 3456   0.719   4.815   0.717
  853SOL     OW 3457   1.307   4.705   6.860
  853SOL    HW1 3458   1.328   4.794   6.819
  853SOL    HW2 3459   1.391   4.652   6.868
  854SOL     OW 3460   4.614   6.292   0.345
  854SOL    HW1 3461   4.636   6.199   0.317
  854SOL    HW2 3462   4.650   6.310   0.436
  855SOL     OW 3463   6.418   0.052   0.399
  855SOL    HW1 3464   6.470   0.082   0.478
  855SOL    HW2 3465   6.424   6.979   0.390
  856SOL     OW 3466   1.304   1.262   6.476
  856SOL    HW1 3467   1.228   1.198   6.484
  856SOL    HW2 3468   1.357   1.261   6.562
  857SOL     OW 3469   6.663   5.656   2.327
  857SOL    HW1 3470   6.577   5.606   2.313
  857SOL    HW2 3471   6.735   5.616   2.270
  858SOL     OW 3472   3.243   4.529   0.981
  858SOL    HW1 3473   3.184   4.606   0.958
  858SOL    HW2 3474   3.207   4.446   0.939
  859SOL     OW 3475   5.795   6.228   5.542
  859SOL    HW1 3476   5.714   6.169   5.534
  859SOL    HW2 3477   5.845   6.227   5.456
  860SOL     OW 3478   6.157   2.612   6.552
  860SOL    HW1 3479   6.195   2.584   6.640
  860SOL    HW2 3480   6.066   2.653   6.567
  861SOL     OW 3481   2.726   5.351   3.120
  861SOL    HW1 3482   2.676   5.306   3.045
  861SOL    HW2 3483   2.813   5.385   3.086
  862SOL     OW 3484   2.303   4.344   3.376
  862SOL    HW1 3485   2.204   4.354   3.366
  862SOL    HW2 3486   2.326   4.330   3.472
  863SOL     OW 3487   5.980   1.341   6.121
  863SOL    HW1 3488   5.915   1.313   6.192
  863SOL    HW2 3489   6.071   1.305   6.143
  864SOL     OW 3490   3.804   6.146   4.975
  864SOL    HW1 3491   3.794   6.215   5.046
  864SOL    HW2 3492   3.806   6.055   5.017
  865SOL     OW 3493   2.066   0.057   5.639
  865SOL    HW1 3494   2.015   0.097   5.715
  865SOL    HW2 3495   2.003   0.005   5.581
  866SOL     OW 3496   3.209   0.275   0.814
  866SOL    HW1 3497   3.232   0.303   0.907
  866SOL    HW2 3498   3.125   0.221   0.815
  867SOL     OW 3499   4.899   3.539   1.057
  867SOL    HW1 3500   4.910   3.531   1.156
  867SOL    HW2 3501   4.918   3.451   1.014
  868SOL     OW 3502   0.111   1.419   1.904
  868SOL    HW1 3503   0.166   1.498   1.929
  868SOL    HW2 3504   0.170   1.347   1.867
  869SOL     OW 3505   6.934   4.564   3.296
  869SOL    HW1 3506   7.013   4.623   3.312
  869SOL    HW2 3507   6.929   4.495   3.368
  870SOL     OW 3508   4.321   4.312   1.138
  870SOL    HW1 3509   4.260   4.343   1.065
  870SOL    HW2 3510   4.325   4.213   1.138
  871SOL     OW 3511   5.853   2.391   3.932
  871SOL    HW1 3512   5.878   2.329   4.006
  871SOL    HW2 3513   5.821   2.338   3.853
  872SOL     OW 3514   6.604   2.465   4.027
  872SOL    HW1 3515   6.520   2.509   4.059
  872SOL    HW2 3516   6.664   2.534   3.987
  873SOL     OW 3517   4.796   5.719   5.265
  873SOL    HW1 3518   4.743   5.650   5.216
  873SOL    HW2 3519   4.865   5.675   5.321
  874SOL     OW 3520   6.620   3.714   0.286
  874SOL    HW1 3521   6.565   3.789   0.248
  874SOL    HW2 3522   6.579   3.626   0.261
  875SOL     OW 3523   4.620   4.516   0.919
  875SOL    HW1 3524   4.540   4.573   0.901
  875SOL    HW2 3525   4.604   4.460   1.000
  876SOL     OW 3526   0.685   5.702   2.177
  876SOL    HW1 3527   0.677   5.735   2.271
  876SOL    HW2 3528   0.698   5.780   2.115
  877SOL     OW 3529   3.207   4.468   5.966
  877SOL    HW1 3530   3.221   4.376   6.001
  877SOL    HW2 3531   3.171   4.464   5.873
  878SOL     OW 3532   4.512   6.638   4.469
  878SOL    HW1 3533   4.475   6.571   4.404
  878SOL    HW2 3534   4.598   6.602   4.507
  879SOL     OW 3535   3.950   0.361   1.975
  879SOL    HW1 3536   3.868   0.332   2.026
  879SOL    HW2 3537   3.965   0.298   1.899
  880SOL     OW 3538   3.507   3.634   3.784
  880SOL    HW1 3539   3.447   3.580   3.724
  880SOL    HW2 3540   3.496   3.604   3.878
  881SOL     OW 3541   5.107   3.721   5.235
  881SOL    HW1 3542   5.104   3.814   5.198
  881SOL    HW2 3543   5.018   3.697   5.272
  882SOL     OW 3544   1.085   2.805   3.968
  882SOL    HW1 3545   1.156   2.793   3.899
  882SOL    HW2 3546   1.020   2.729   3.963
  883SOL     OW 3547   3.205   0.921   0.974
  883SOL    HW1 3548   3.127   0.903   0.915
  883SOL    HW2 3549   3.243   1.011   0.953
  884SOL     OW 3550   6.017   4.266   5.698
  884SOL    HW1 3551   5.976   4.308   5.780
  884SOL    HW2 3552   5.984   4.172   5.690
  885SOL     OW 3553   3.577   1.275   4.884
  885SOL    HW1 3554   3.660   1.329   4.870
  885SOL    HW2 3555   3.601   1.180   4.903
  886SOL     OW 3556   3.296   0.539   0.175
  886SOL    HW1 3557   3.359   0.524   0.099
  886SOL    HW2 3558   3.329   0.615   0.231
  887SOL     OW 3559   3.962   6.595   3.659
  887SOL    HW1 3560   3.933   6.499   3.650
  887SOL    HW2 3561   3.967   6.619   3.755
  888SOL     OW 3562   6.889   5.852   3.205
  888SOL    HW1 3563   6.929   5.768   3.169
  888SOL    HW2 3564   6.914   5.929   3.147
  889SOL     OW 3565   6.787   2.253   0.439
  889SOL    HW1 3566   6.868   2.194   0.444
  889SOL    HW2 3567   6.816   2.349   0.445
  890SOL     OW 3568   2.034   4.896   2.972
  890SOL    HW1 3569   1.977   4.821   3.004
  890SOL    HW2 3570   2.085   4.935   3.050
  891SOL     OW 3571   6.018   3.938   1.416
  891SOL    HW1 3572   5.952   3.986   1.473
  891SOL    HW2 3573   5.998   3.956   1.319
  892SOL     OW 3574   2.851   3.829   4.931
  892SOL    HW1 3575   2.883   3.742   4.970
  892SOL    HW2 3576   2.760   3.849   4.967
  893SOL     OW 3577   2.240   6.314   3.285
  893SOL    HW1 3578   2.182   6.329   3.206
  893SOL    HW2 3579   2.217   6.379   3.357
  894SOL     OW 3580   0.802   2.972   1.834
  894SOL    HW1 3581   0.860   2.936   1.908
  894SOL    HW2 3582   0.708   2.942   1.848
  895SOL     OW 3583   1.392   4.491   3.742
  895SOL    HW1 3584   1.342   4.496   3.828
  895SOL    HW2 3585   1.486   4.462   3.760
  896SOL     OW 3586   5.424   4.591   1.073
  896SOL    HW1 3587   5.378   4.593   0.985
  896SOL    HW2 3588   5.434   4.496   1.103
  897SOL     OW 3589   4.099   1.719   6.508
  897SOL    HW1 3590   4.018   1.690   6.559
  897SOL    HW2 3591   4.182   1.689   6.556
  898SOL     OW 3592   3.742   6.317   2.670
  898SOL    HW1 3593   3.682   6.369   2.730
  898SOL    HW2 3594   3.803   6.260   2.726
  899SOL     OW 3595   0.453   6.465   0.481
  899SOL    HW1 3596   0.363   6.426   0.460
  899SOL    HW2 3597   0.453   6.502   0.574
  900SOL     OW 3598   5.558   0.366   0.294
  900SOL    HW1 3599   5.548   0.329   0.202
  900SOL    HW2 3600   5.540   0.465   0.293
  901SOL     OW 3601   1.923   0.328   3.738
  901SOL    HW1 3602   2.005   0.297   3.691
  901SOL    HW2 3603   1.941   0.416   3.782
  902SOL     OW 3604   1.486   2.190   1.253
  902SOL    HW1 3605   1.464   2.128   1.328
  902SOL    HW2 3606   1.405   2.245   1.230
  903SOL     OW 3607   0.885   2.908   6.592
  903SOL    HW1 3608   0.963   2.961   6.559
  903SOL    HW2 3609   0.866   2.932   6.687
  904SOL     OW 3610   1.862   1.510   2.513
  904SOL    HW1 3611   1.959   1.531   2.521
  904SOL    HW2 3612   1.817   1.580   2.458
  905SOL     OW 3613   5.473   2.724   6.213
  905SOL    HW1 3614   5.426   2.668   6.281
  905SOL    HW2 3615   5.542   2.781   6.258
  906SOL     OW 3616   0.044   2.124   6.314
  906SOL    HW1 3617   7.018   2.106   6.230
  906SOL    HW2 3618   7.010   2.112   6.393
  907SOL     OW 3619   5.501   3.151   0.343
  907SOL    HW1 3620   5.416   3.122   0.387
  907SOL    HW2 3621   5.570   3.080   0.356
  908SOL     OW 3622   2.789   4.676   3.012
  908SOL    HW1 3623   2.847   4.596   3.023
  908SOL    HW2 3624   2.797   4.735   3.092
  909SOL     OW 3625   4.038   6.463   1.510
  909SOL    HW1 3626   3.985   6.541   1.478
  909SOL    HW2 3627   4.072   6.411   1.432
  910SOL     OW 3628   3.302   1.399   1.214
  910SOL    HW1 3629   3.213   1.353   1.216
  910SOL    HW2 3630   3.289   1.496   1.235
  911SOL     OW 3631   1.425   6.630   6.468
  911SOL    HW1 3632   1.426   6.538   6.428
  911SOL    HW2 3633   1.482   6.690   6.412
  912SOL     OW 3634   5.840   1.808   3.259
  912SOL    HW1 3635   5.832   1.880   3.190
  912SOL    HW2 3636   5.857   1.849   3.348
  913SOL     OW 3637   3.396   0.810   3.141
  913SOL    HW1 3638   3.470   0.783   3.080
  913SOL    HW2 3639   3.368   0.904   3.119
  914SOL     OW 3640   2.299   0.218   5.984
  914SOL    HW1 3641   2.309   0.136   5.928
  914SOL    HW2 3642   2.387   0.241   6.026
  915SOL     OW 3643   6.110   3.840   6.872
  915SOL    HW1 3644   6.043   3.808   6.806
  915SOL    HW2 3645   6.199   3.851   6.827
  916SOL     OW 3646   1.423   3.080   2.398
  916SOL    HW1 3647   1.325   3.096   2.386
  916SOL    HW2 3648   1.471   3.167   2.401
  917SOL     OW 3649   0.865   0.113   1.513
  917SOL    HW1 3650   0.869   0.203   1.557
  917SOL    HW2 3651   0.770   0.093   1.489
  918SOL     OW 3652   3.670   0.766   1.069
  918SOL    HW1 3653   3.729   0.841   1.096
  918SOL    HW2 3654   3.695   0.734   0.978
  919SOL     OW 3655   6.462   0.572   2.520
  919SOL    HW1 3656   6.552   0.611   2.540
  919SOL    HW2 3657   6.473   0.485   2.473
  920SOL     OW 3658   2.254   4.072   2.516
  920SOL    HW1 3659   2.299   3.999   2.465
  920SOL    HW2 3660   2.162   4.086   2.479
  921SOL     OW 3661   3.666   5.453   4.294
  921SOL    HW1 3662   3.704   5.367   4.328
  921SOL    HW2 3663   3.735   5.501   4.240
  922SOL     OW 3664   3.278   3.384   4.598
  922SOL    HW1 3665   3.370   3.405   4.564
  922SOL    HW2 3666   3.211   3.435   4.544
  923SOL     OW 3667   2.177   3.787   6.324
  923SOL    HW1 3668   2.142   3.709   6.272
  923SOL    HW2 3669   2.153   3.872   6.278
  924SOL     OW 3670   6.749   3.874   1.885
  924SOL    HW1 3671   6.658   3.833   1.873
  924SOL    HW2 3672   6.789   3.840   1.970
  925SOL     OW 3673   0.257   1.978   0.085
  925SOL    HW1 3674   0.201   1.895   0.094
  925SOL    HW2 3675   0.258   2.027   0.172
  926SOL     OW 3676   6.568   1.327   1.452
  926SOL    HW1 3677   6.573   1.413   1.504
  926SOL    HW2 3678   6.539   1.347   1.358
  927SOL     OW 3679   5.485   3.647   2.983
  927SOL    HW1 3680   5.513   3.705   3.059
  927SOL    HW2 3681   5.396   3.605   3.004
  928SOL     OW 3682   2.464   6.244   0.420
  928SOL    HW1 3683   2.546   6.198   0.454
  928SOL    HW2 3684   2.487   6.338   0.396
  929SOL     OW 3685   0.205   0.714   6.530
  929SOL    HW1 3686   0.237   0.675   6.444
  929SOL    HW2 3687   0.107   0.696   6.540
  930SOL     OW 3688   5.583   6.901   6.249
  930SOL    HW1 3689   5.514   6.837   6.283
  930SOL    HW2 3690   5.659   6.849   6.209
  931SOL     OW 3691   6.741   0.899   4.852
  931SOL    HW1 3692   6.783   0.980   4.893
  931SOL    HW2 3693   6.803   0.821   4.863
  932SOL     OW 3694   2.710   1.059   3.120
  932SOL    HW1 3695   2.721   1.063   3.021
  932SOL    HW2 3696   2.712   0.963   3.150
  933SOL     OW 3697   1.444   5.074   3.596
  933SOL    HW1 3698   1.452   4.979   3.625
  933SOL    HW2 3699   1.535   5.114   3.589
  934SOL     OW 3700   2.595   5.995   0.221
  934SOL    HW1 3701   2.636   6.064   0.162
  934SOL    HW2 3702   2.525   5.945   0.169
  935SOL     OW 3703   5.111   4.039   4.386
  935SOL    HW1 3704   5.210   4.048   4.401
  935SOL    HW2 3705   5.087   3.942   4.377
  936SOL     OW 3706   0.256   0.146   5.601
  936SOL    HW1 3707   0.204   0.070   5.639
  936SOL    HW2 3708   0.335   0.166   5.659
  937SOL     OW 3709   5.779   1.456   6.480
  937SOL    HW1 3710   5.847   1.529   6.479
  937SOL    HW2 3711   5.783   1.408   6.568
  938SOL     OW 3712   5.844   4.842   5.749
  938SOL    HW1 3713   5.769   4.841   5.682
  938SOL    HW2 3714   5.913   4.909   5.720
  939SOL     OW 3715   0.289   6.835   3.621
  939SOL    HW1 3716   0.318   6.810   3.714
  939SOL    HW2 3717   0.349   6.907   3.586
  940SOL     OW 3718   0.416   3.858   0.722
  940SOL    HW1 3719   0.391   3.863   0.819
  940SOL    HW2 3720   0.381   3.938   0.675
  941SOL     OW 3721   5.621   1.590   7.025
  941SOL    HW1 3722   5.581   1.653   0.065
  941SOL    HW2 3723   5.696   1.635   6.977
  942SOL     OW 3724   5.761   0.075   2.134
  942SOL    HW1 3725   5.731   0.093   2.040
  942SOL    HW2 3726   5.681   0.050   2.190
  943SOL     OW 3727   1.295   4.285   2.673
  943SOL    HW1 3728   1.292   4.351   2.597
  943SOL    HW2 3729   1.242   4.322   2.750
  944SOL     OW 3730   0.066   5.762   5.567
  944SOL    HW1 3731   0.132   5.820   5.518
  944SOL    HW2 3732   0.029   5.693   5.505
  945SOL     OW 3733   0.577   4.799   6.279
  945SOL    HW1 3734   0.565   4.878   6.219
  945SOL    HW2 3735   0.666   4.757   6.263
  946SOL     OW 3736   4.948   4.057   5.536
  946SOL    HW1 3737   5.023   4.123   5.536
  946SOL    HW2 3738   4.899   4.062   5.449
  947SOL     OW 3739   3.338   2.897   3.327
  947SOL    HW1 3740   3.304   2.989   3.306
  947SOL    HW2 3741   3.369   2.852   3.244
  948SOL     OW 3742   5.010   1.405   2.861
  948SOL    HW1 3743   5.002   1.466   2.940
  948SOL    HW2 3744   5.082   1.440   2.800
  949SOL     OW 3745   2.768   5.808   7.020
  949SOL    HW1 3746   2.670   5.821   7.007
  949SOL    HW2 3747   2.793   5.714   7.000
  950SOL     OW 3748   5.939   5.660   2.222
  950SOL    HW1 3749   5.876   5.710   2.282
  950SOL    HW2 3750   5.981   5.585   2.274
  951SOL     OW 3751   1.383   0.204   4.216
  951SOL    HW1 3752   1.318   0.128   4.217
  951SOL    HW2 3753   1.476   0.169   4.226
  952SOL     OW 3754   4.499   2.543   3.305
  952SOL    HW1 3755   4.561   2.572   3.377
  952SOL    HW2 3756   4.551   2.506   3.228
  953SOL     OW 3757   5.710   5.696   4.873
  953SOL    HW1 3758   5.782   5.661   4.812
  953SOL    HW2 3759   5.625   5.705   4.821
  954SOL     OW 3760   3.738   5.885   2.764
  954SOL    HW1 3761   3.810   5.945   2.731
  954SOL    HW2 3762   3.771   5.791   2.766
  955SOL     OW 3763   1.432   4.525   0.769
  955SOL    HW1 3764   1.459   4.478   0.853
  955SOL    HW2 3765   1.333   4.536   0.768
  956SOL     OW 3766   6.206   0.644   1.527
  956SOL    HW1 3767   6.274   0.588   1.575
  956SOL    HW2 3768   6.187   0.603   1.438
  957SOL     OW 3769   5.488   2.649   2.259
  957SOL    HW1 3770   5.399   2.695   2.249
  957SOL    HW2 3771   5.506   2.593   2.178
  958SOL     OW 3772   3.978   0.462   1.220
  958SOL    HW1 3773   3.914   0.502   1.286
  958SOL    HW2 3774   4.026   0.385   1.263
  959SOL     OW 3775   3.484   6.475   4.467
  959SOL    HW1 3776   3.463   6.390   4.419
  959SOL    HW2 3777   3.466   6.464   4.564
  960SOL     OW 3778   0.848   0.400   1.112
  960SOL    HW1 3779   0.835   0.301   1.107
  960SOL    HW2 3780   0.920   0.421   1.178
  961SOL     OW 3781   4.284   6.481   2.941
  961SOL    HW1 3782   4.327   6.567   2.915
  961SOL    HW2 3783   4.347   6.425   2.994
  962SOL     OW 3784   6.898   0.711   5.193
  962SOL    HW1 3785   6.912   0.672   5.102
  962SOL    HW2 3786   6.975   0.770   5.216
  963SOL     OW 3787   4.898   0.686   6.982
  963SOL    HW1 3788   4.922   0.594   6.949
  963SOL    HW2 3789   4.950   0.706   0.039
  964SOL     OW 3790   4.991   4.984   6.047
  964SOL    HW1 3791   5.074   4.929   6.057
  964SOL    HW2 3792   4.974   5.033   6.132
  965SOL     OW 3793   6.367   1.283   2.445
  965SOL    HW1 3794   6.278   1.238   2.434
  965SOL    HW2 3795   6.425   1.262   2.366
  966SOL     OW 3796   5.537   2.553   2.978
  966SOL    HW1 3797   5.580   2.509   2.899
  966SOL    HW2 3798   5.526   2.651   2.959
  967SOL     OW 3799   3.186   4.298   0.652
  967SOL    HW1 3800   3.192   4.332   0.746
  967SOL    HW2 3801   3.268   4.326   0.602
  968SOL     OW 3802   4.270   0.286   1.709
  968SOL    HW1 3803   4.271   0.287   1.609
  968SOL    HW2 3804   4.243   0.196   1.741
  969SOL     OW 3805   2.287   4.699   5.954
  969SOL    HW1 3806   2.376   4.739   5.978
  969SOL    HW2 3807   2.239   4.760   5.891
  970SOL     OW 3808   5.191   0.686   6.483
  970SOL    HW1 3809   5.267   0.749   6.468
  970SOL    HW2 3810   5.226   0.598   6.514
  971SOL     OW 3811   6.831   3.709   2.689
  971SOL    HW1 3812   6.789   3.658   2.765
  971SOL    HW2 3813   6.798   3.672   2.602
  972SOL     OW 3814   6.073   1.887   1.745
  972SOL    HW1 3815   6.085   1.915   1.650
  972SOL    HW2 3816   6.148   1.924   1.800
  973SOL     OW 3817   0.679   5.422   6.497
  973SOL    HW1 3818   0.603   5.383   6.549
  973SOL    HW2 3819   0.748   5.458   6.560
  974SOL     OW 3820   6.671   5.975   2.011
  974SOL    HW1 3821   6.640   5.881   2.030
  974SOL    HW2 3822   6.768   5.983   2.032
  975SOL     OW 3823   2.495   0.474   6.990
  975SOL    HW1 3824   2.488   0.549   0.028
  975SOL    HW2 3825   2.503   0.387   0.014
  976SOL     OW 3826   6.960   3.344   1.373
  976SOL    HW1 3827   6.880   3.325   1.431
  976SOL    HW2 3828   6.991   3.438   1.389
  977SOL     OW 3829   0.632   0.548   2.492
  977SOL    HW1 3830   0.653   0.547   2.394
  977SOL    HW2 3831   0.676   0.469   2.536
  978SOL     OW 3832   5.519   1.869   1.132
  978SOL    HW1 3833   5.538   1.876   1.230
  978SOL    HW2 3834   5.559   1.947   1.084
  979SOL     OW 3835   1.176   3.630   0.188
  979SOL    HW1 3836   1.199   3.534   0.198
  979SOL    HW2 3837   1.082   3.639   0.154
  980SOL     OW 3838   4.939   1.819   4.001
  980SOL    HW1 3839   4.911   1.798   4.095
  980SOL    HW2 3840   4.905   1.909   3.976
  981SOL     OW 3841   0.194   0.689   4.953
  981SOL    HW1 3842   0.146   0.772   4.981
  981SOL    HW2 3843   0.175   0.670   4.857
  982SOL     OW 3844   0.947   1.405   5.008
  982SOL    HW1 3845   1.005   1.354   5.072
  982SOL    HW2 3846   0.915   1.344   4.937
  983SOL     OW 3847   6.473   3.104   3.006
  983SOL    HW1 3848   6.466   3.005   2.996
  983SOL    HW2 3849   6.460   3.128   3.102
  984SOL     OW 3850   2.200   2.740   3.541
  984SOL    HW1 3851   2.182   2.686   3.623
  984SOL    HW2 3852   2.133   2.716   3.471
  985SOL     OW 3853   6.563   4.071   4.646
  985SOL    HW1 3854   6.578   4.156   4.597
  985SOL    HW2 3855   6.649   4.042   4.690
  986SOL     OW 3856   4.923   4.385   1.375
  986SOL    HW1 3857   4.920   4.326   1.455
  986SOL    HW2 3858   4.846   4.365   1.315
  987SOL     OW 3859   4.454   6.646   2.478
  987SOL    HW1 3860   4.408   6.563   2.512
  987SOL    HW2 3861   4.413   6.726   2.521
  988SOL     OW 3862   3.479   4.208   1.261
  988SOL    HW1 3863   3.552   4.182   1.198
  988SOL    HW2 3864   3.441   4.296   1.234
  989SOL     OW 3865   6.490   1.761   7.002
  989SOL    HW1 3866   6.526   1.809   0.056
  989SOL    HW2 3867   6.425   1.691   0.006
  990SOL     OW 3868   3.186   0.559   2.423
  990SOL    HW1 3869   3.178   0.657   2.404
  990SOL    HW2 3870   3.140   0.538   2.510
  991SOL     OW 3871   0.251   3.607   3.655
  991SOL    HW1 3872   0.323   3.666   3.621
  991SOL    HW2 3873   0.245   3.616   3.755
  992SOL     OW 3874   0.152   3.262   1.650
  992SOL    HW1 3875   0.121   3.347   1.608
  992SOL    HW2 3876   0.074   3.213   1.688
  993SOL     OW 3877   0.191   4.211   0.849
  993SOL    HW1 3878   0.110   4.231   0.793
  993SOL    HW2 3879   0.163   4.162   0.932
  994SOL     OW 3880   4.320   5.066   1.761
  994SOL    HW1 3881   4.332   4.976   1.803
  994SOL    HW2 3882   4.229   5.101   1.786
  995SOL     OW 3883   3.954   2.822   6.176
  995SOL    HW1 3884   4.019   2.822   6.253
  995SOL    HW2 3885   4.002   2.795   6.092
  996SOL     OW 3886   3.441   4.998   4.601
  996SOL    HW1 3887   3.487   4.977   4.687
  996SOL    HW2 3888   3.455   5.095   4.579
  997SOL     OW 3889   0.872   6.684   3.298
  997SOL    HW1 3890   0.901   6.600   3.344
  997SOL    HW2 3891   0.773   6.692   3.304
  998SOL     OW 3892   6.476   0.480   6.101
  998SOL    HW1 3893   6.409   0.408   6.118
  998SOL    HW2 3894   6.550   0.473   6.168
  999SOL     OW 3895   5.070   3.670   2.135
  999SOL    HW1 3896   5.071   3.571   2.116
  999SOL    HW2 3897   5.125   3.688   2.217
 1000SOL     OW 3898   4.329   1.731   1.502
 1000SOL    HW1 3899   4.254   1.668   1.482
 1000SOL    HW2 3900   4.404   1.716   1.437
 1001SOL     OW 3901   4.225   6.134   1.953
 1001SOL    HW1 3902   4.306   6.077   1.947
 1001SOL    HW2 3903   4.245   6.217   2.006
 1002SOL     OW 3904   5.225   2.335   1.653
 1002SOL    HW1 3905   5.139   2.334   1.602
 1002SOL    HW2 3906   5.246   2.428   1.682
 1003SOL     OW 3907   2.250   5.771   3.774
 1003SOL    HW1 3908   2.177   5.833   3.803
 1003SOL    HW2 3909   2.221   5.676   3.790
 1004SOL     OW 3910   0.319   0.892   2.526
 1004SOL    HW1 3911   0.365   0.806   2.502
 1004SOL    HW2 3912   0.222   0.875   2.543
 1005SOL     OW 3913   1.604   3.168   3.700
 1005SOL    HW1 3914   1.543   3.230   3.651
 1005SOL    HW2 3915   1.697   3.178   3.663
 1006SOL     OW 3916   1.488   3.917   0.164
 1006SOL    HW1 3917   1.570   3.958   0.205
 1006SOL    HW2 3918   1.419   3.902   0.234
 1007SOL     OW 3919   4.723   0.763   5.509
 1007SOL    HW1 3920   4.723   0.684   5.572
 1007SOL    HW2 3921   4.803   0.758   5.450
 1008SOL     OW 3922   0.358   2.209   5.151
 1008SOL    HW1 3923   0.430   2.272   5.181
 1008SOL    HW2 3924   0.271   2.259   5.146
 1009SOL     OW 3925   6.683   4.956   5.981
 1009SOL    HW1 3926   6.640   4.887   6.040
 1009SOL    HW2 3927   6.725   4.911   5.902
 1010SOL     OW 3928   2.776   3.167   1.508
 1010SOL    HW1 3929   2.764   3.154   1.606
 1010SOL    HW2 3930   2.686   3.174   1.465
 1011SOL     OW 3931   1.210   5.068   3.693
 1011SOL    HW1 3932   1.300   5.086   3.654
 1011SOL    HW2 3933   1.176   5.151   3.738
 1012SOL     OW 3934   0.085   6.539   2.221
 1012SOL    HW1 3935   0.018   6.474   2.258
 1012SOL    HW2 3936   0.141   6.493   2.152
 1013SOL     OW 3937   6.972   0.692   6.076
 1013SOL    HW1 3938   6.998   0.742   5.993
 1013SOL    HW2 3939   6.882   0.722   6.106
 1014SOL     OW 3940   0.417   4.005   4.882
 1014SOL    HW1 3941   0.325   3.968   4.892
 1014SOL    HW2 3942   0.423   4.059   4.798
 1015SOL     OW 3943   2.523   0.302   6.128
 1015SOL    HW1 3944   2.585   0.381   6.125
 1015SOL    HW2 3945   2.563   0.231   6.186
 1016SOL     OW 3946   4.382   4.697   0.873
 1016SOL    HW1 3947   4.384   4.730   0.778
 1016SOL    HW2 3948   4.288   4.678   0.900
 1017SOL     OW 3949   4.000   2.193   0.835
 1017SOL    HW1 3950   4.033   2.135   0.910
 1017SOL    HW2 3951   3.907   2.224   0.856
 1018SOL     OW 3952   0.945   4.687   4.086
 1018SOL    HW1 3953   0.935   4.597   4.045
 1018SOL    HW2 3954   0.960   4.755   4.015
 1019SOL     OW 3955   0.051   5.957   1.193
 1019SOL    HW1 3956   0.035   5.902   1.275
 1019SOL    HW2 3957   0.139   6.005   1.202
 1020SOL     OW 3958   6.425   1.494   1.618
 1020SOL    HW1 3959   6.383   1.453   1.537
 1020SOL    HW2 3960   6.359   1.495   1.693
 1021SOL     OW 3961   5.505   6.922   1.913
 1021SOL    HW1 3962   5.528   7.012   1.876
 1021SOL    HW2 3963   5.421   6.889   1.871
 1022SOL     OW 3964   2.845   5.011   5.404
 1022SOL    HW1 3965   2.835   4.951   5.483
 1022SOL    HW2 3966   2.844   4.955   5.320
 1023SOL     OW 3967   0.076   0.693   2.998
 1023SOL    HW1 3968   0.134   0.637   2.939
 1023SOL    HW2 3969   0.132   0.733   3.071
 1024SOL     OW 3970   0.470   1.975   3.629
 1024SOL    HW1 3971   0.544   2.042   3.621
 1024SOL    HW2 3972   0.384   2.015   3.597
 1025SOL     OW 3973   3.565   3.764   0.407
 1025SOL    HW1 3974   3.647   3.765   0.464
 1025SOL    HW2 3975   3.574   3.830   0.333
 1026SOL     OW 3976   2.407   3.372   1.654
 1026SOL    HW1 3977   2.480   3.435   1.625
 1026SOL    HW2 3978   2.358   3.411   1.732
 1027SOL     OW 3979   2.143   0.056   2.321
 1027SOL    HW1 3980   2.044   0.045   2.321
 1027SOL    HW2 3981   2.168   0.130   2.384
 1028SOL     OW 3982   1.554   0.087   2.744
 1028SOL    HW1 3983   1.500   0.145   2.805
 1028SOL    HW2 3984   1.602   0.018   2.798
 1029SOL     OW 3985   1.237   2.098   5.554
 1029SOL    HW1 3986   1.214   2.019   5.611
 1029SOL    HW2 3987   1.261   2.066   5.462
 1030SOL     OW 3988   3.287   3.428   1.481
 1030SOL    HW1 3989   3.221   3.353   1.473
 1030SOL    HW2 3990   3.374   3.400   1.440
 1031SOL     OW 3991   4.780   3.359   1.724
 1031SOL    HW1 3992   4.680   3.367   1.729
 1031SOL    HW2 3993   4.821   3.450   1.728
 1032SOL     OW 3994   1.779   1.083   5.120
 1032SOL    HW1 3995   1.701   1.145   5.130
 1032SOL    HW2 3996   1.757   0.995   5.163
 1033SOL     OW 3997   1.570   5.528   2.057
 1033SOL    HW1 3998   1.572   5.436   2.018
 1033SOL    HW2 3999   1.661   5.552   2.091
 1034SOL     OW 4000   1.518   5.285   4.735
 1034SOL    HW1 4001   1.501   5.379   4.762
 1034SOL    HW2 4002   1.432   5.242   4.707
 1035SOL     OW 4003   0.059   2.218   0.060
 1035SOL    HW1 4004   7.020   2.151   0.026
 1035SOL    HW2 4005   0.150   2.178   0.061
 1036SOL     OW 4006   3.957   1.015   1.806
 1036SOL    HW1 4007   4.052   1.015   1.837
 1036SOL    HW2 4008   3.949   1.067   1.722
 1037SOL     OW 4009   1.757   1.582   2.856
 1037SOL    HW1 4010   1.793   1.674   2.840
 1037SOL    HW2 4011   1.833   1.518   2.869
 1038SOL     OW 4012   1.881   1.444   5.045
 1038SOL    HW1 4013   1.918   1.356   5.075
 1038SOL    HW2 4014   1.952   1.496   4.998
 1039SOL     OW 4015   3.452   3.896   4.517
 1039SOL    HW1 4016   3.405   3.868   4.601
 1039SOL    HW2 4017   3.422   3.989   4.492
 1040SOL     OW 4018   4.987   0.956   2.212
 1040SOL    HW1 4019   5.085   0.934   2.210
 1040SOL    HW2 4020   4.934   0.871   2.209
 1041SOL     OW 4021   6.666   6.191   3.639
 1041SOL    HW1 4022   6.583   6.158   3.595
 1041SOL    HW2 4023   6.746   6.156   3.590
 1042SOL     OW 4024   4.262   5.476   2.814
 1042SOL    HW1 4025   4.305   5.459   2.725
 1042SOL    HW2 4026   4.286   5.568   2.845
 1043SOL     OW 4027   3.886   2.039   3.377
 1043SOL    HW1 4028   3.891   2.056   3.476
 1043SOL    HW2 4029   3.791   2.045   3.347
 1044SOL     OW 4030   5.808   5.205   2.184
 1044SOL    HW1 4031   5.793   5.199   2.283
 1044SOL    HW2 4032   5.886   5.148   2.158
 1045SOL     OW 4033   4.311   0.658   2.921
 1045SOL    HW1 4034   4.269   0.687   3.007
 1045SOL    HW2 4035   4.355   0.569   2.934
 1046SOL     OW 4036   1.981   1.633   6.967
 1046SOL    HW1 4037   2.046   1.708   6.972
 1046SOL    HW2 4038   2.016   1.563   6.905
 1047SOL     OW 4039   2.354   0.676   4.168
 1047SOL    HW1 4040   2.301   0.592   4.178
 1047SOL    HW2 4041   2.293   0.750   4.138
 1048SOL     OW 4042   3.409   5.999   1.602
 1048SOL    HW1 4043   3.501   5.960   1.611
 1048SOL    HW2 4044   3.400   6.077   1.664
 1049SOL     OW 4045   5.905   0.184   4.104
 1049SOL    HW1 4046   5.923   0.177   4.006
 1049SOL    HW2 4047   5.871   0.276   4.125
 1050SOL     OW 4048   3.827   5.529   2.098
 1050SOL    HW1 4049   3.791   5.491   2.183
 1050SOL    HW2 4050   3.819   5.461   2.025
 1051SOL     OW 4051   0.352   5.834   0.488
 1051SOL    HW1 4052   0.332   5.738   0.506
 1051SOL    HW2 4053   0.450   5.851   0.500
 1052SOL     OW 4054   4.696   0.596   5.184
 1052SOL    HW1 4055   4.787   0.556   5.182
 1052SOL    HW2 4056   4.681   0.649   5.101
 1053SOL     OW 4057   5.606   3.828   2.488
 1053SOL    HW1 4058   5.666   3.840   2.409
 1053SOL    HW2 4059   5.575   3.733   2.493
 1054SOL     OW 4060   2.900   3.566   0.991
 1054SOL    HW1 4061   2.880   3.504   1.067
 1054SOL    HW2 4062   2.887   3.519   0.904
 1055SOL     OW 4063   4.170   6.193   5.421
 1055SOL    HW1 4064   4.249   6.197   5.361
 1055SOL    HW2 4065   4.166   6.103   5.465
 1056SOL     OW 4066   1.386   3.585   0.372
 1056SOL    HW1 4067   1.344   3.662   0.325
 1056SOL    HW2 4068   1.366   3.590   0.470
 1057SOL     OW 4069   3.830   2.857   1.300
 1057SOL    HW1 4070   3.787   2.936   1.343
 1057SOL    HW2 4071   3.905   2.887   1.242
 1058SOL     OW 4072   5.186   2.445   4.110
 1058SOL    HW1 4073   5.271   2.430   4.060
 1058SOL    HW2 4074   5.146   2.533   4.084
 1059SOL     OW 4075   2.103   6.816   1.719
 1059SOL    HW1 4076   2.030   6.875   1.755
 1059SOL    HW2 4077   2.103   6.729   1.768
 1060SOL     OW 4078   0.188   4.684   4.171
 1060SOL    HW1 4079   0.266   4.655   4.116
 1060SOL    HW2 4080   0.215   4.758   4.232
 1061SOL     OW 4081   6.672   3.572   5.904
 1061SOL    HW1 4082   6.590   3.528   5.867
 1061SOL    HW2 4083   6.721   3.619   5.831
 1062SOL     OW 4084   4.597   5.548   6.113
 1062SOL    HW1 4085   4.530   5.560   6.039
 1062SOL    HW2 4086   4.548   5.523   6.197
 1063SOL     OW 4087   6.993   6.356   0.418
 1063SOL    HW1 4088   6.986   6.380   0.321
 1063SOL    HW2 4089   6.902   6.345   0.457
 1064SOL     OW 4090   1.796   4.510   2.023
 1064SOL    HW1 4091   1.790   4.410   2.024
 1064SOL    HW2 4092   1.776   4.546   2.114
 1065SOL     OW 4093   4.683   0.984   2.951
 1065SOL    HW1 4094   4.688   0.924   2.872
 1065SOL    HW2 4095   4.743   1.062   2.938
 1066SOL     OW 4096   4.277   6.439   2.624
 1066SOL    HW1 4097   4.329   6.447   2.710
 1066SOL    HW2 4098   4.195   6.495   2.630
 1067SOL     OW 4099   2.045   2.180   0.119
 1067SOL    HW1 4100   2.096   2.265   0.129
 1067SOL    HW2 4101   1.973   2.176   0.188
 1068SOL     OW 4102   6.671   4.238   1.389
 1068SOL    HW1 4103   6.726   4.314   1.425
 1068SOL    HW2 4104   6.619   4.196   1.463
 1069SOL     OW 4105   4.963   6.088   0.456
 1069SOL    HW1 4106   4.962   6.183   0.424
 1069SOL    HW2 4107   4.901   6.033   0.400
 1070SOL     OW 4108   1.514   0.135   1.843
 1070SOL    HW1 4109   1.456   0.211   1.813
 1070SOL    HW2 4110   1.543   0.082   1.763
 1071SOL     OW 4111   2.584   1.933   3.807
 1071SOL    HW1 4112   2.560   1.953   3.902
 1071SOL    HW2 4113   2.665   1.986   3.781
 1072SOL     OW 4114   2.588   0.848   1.163
 1072SOL    HW1 4115   2.656   0.840   1.090
 1072SOL    HW2 4116   2.631   0.884   1.245
 1073SOL     OW 4117   4.764   0.928   3.408
 1073SOL    HW1 4118   4.693   0.994   3.432
 1073SOL    HW2 4119   4.832   0.922   3.481
 1074SOL     OW 4120   2.427   5.337   1.743
 1074SOL    HW1 4121   2.452   5.392   1.663
 1074SOL    HW2 4122   2.476   5.370   1.823
 1075SOL     OW 4123   5.588   0.841   3.360
 1075SOL    HW1 4124   5.547   0.767   3.306
 1075SOL    HW2 4125   5.641   0.802   3.436
 1076SOL     OW 4126   0.779   2.187   6.114
 1076SOL    HW1 4127   0.758   2.277   6.076
 1076SOL    HW2 4128   0.743   2.116   6.053
 1077SOL     OW 4129   6.566   6.552   1.068
 1077SOL    HW1 4130   6.495   6.622   1.059
 1077SOL    HW2 4131   6.625   6.554   0.987
 1078SOL     OW 4132   6.814   0.625   3.020
 1078SOL    HW1 4133   6.907   0.659   3.003
 1078SOL    HW2 4134   6.760   0.696   3.065
 1079SOL     OW 4135   1.364   5.211   2.064
 1079SOL    HW1 4136   1.325   5.303   2.065
 1079SOL    HW2 4137   1.442   5.209   2.001
 1080SOL     OW 4138   2.187   5.505   3.823
 1080SOL    HW1 4139   2.258   5.490   3.892
 1080SOL    HW2 4140   2.138   5.419   3.806
 1081SOL     OW 4141   6.804   5.182   6.081
 1081SOL    HW1 4142   6.773   5.103   6.028
 1081SOL    HW2 4143   6.759   5.183   6.170
 1082SOL     OW 4144   6.156   1.955   5.840
 1082SOL    HW1 4145   6.167   1.963   5.741
 1082SOL    HW2 4146   6.078   2.011   5.870
 1083SOL     OW 4147   4.824   3.454   0.357
 1083SOL    HW1 4148   4.903   3.418   0.308
 1083SOL    HW2 4149   4.766   3.378   0.387
 1084SOL     OW 4150   6.731   6.747   6.042
 1084SOL    HW1 4151   6.653   6.687   6.058
 1084SOL    HW2 4152   6.705   6.841   6.065
 1085SOL     OW 4153   2.011   3.660   4.464
 1085SOL    HW1 4154   1.965   3.714   4.394
 1085SOL    HW2 4155   2.054   3.720   4.531
 1086SOL     OW 4156   6.630   4.565   0.415
 1086SOL    HW1 4157   6.646   4.656   0.453
 1086SOL    HW2 4158   6.660   4.495   0.481
 1087SOL     OW 4159   0.117   1.651   4.581
 1087SOL    HW1 4160   0.059   1.707   4.640
 1087SOL    HW2 4161   0.194   1.706   4.549
 1088SOL     OW 4162   0.505   4.416   3.085
 1088SOL    HW1 4163   0.525   4.341   3.148
 1088SOL    HW2 4164   0.405   4.427   3.078
 1089SOL     OW 4165   0.005   5.384   4.659
 1089SOL    HW1 4166   0.034   5.460   4.717
 1089SOL    HW2 4167   6.961   5.331   4.706
 1090SOL     OW 4168   3.602   2.041   2.553
 1090SOL    HW1 4169   3.658   1.958   2.556
 1090SOL    HW2 4170   3.638   2.107   2.620
 1091SOL     OW 4171   2.121   3.010   4.085
 1091SOL    HW1 4172   2.142   3.018   3.988
 1091SOL    HW2 4173   2.119   3.102   4.126
 1092SOL     OW 4174   1.313   4.959   0.666
 1092SOL    HW1 4175   1.299   4.873   0.616
 1092SOL    HW2 4176   1.288   4.946   0.762
 1093SOL     OW 4177   3.071   6.820   1.854
 1093SOL    HW1 4178   3.092   6.834   1.757
 1093SOL    HW2 4179   2.974   6.797   1.864
 1094SOL     OW 4180   0.513   6.396   2.351
 1094SOL    HW1 4181   0.522   6.489   2.387
 1094SOL    HW2 4182   0.436   6.350   2.396
 1095SOL     OW 4183   0.253   3.269   6.249
 1095SOL    HW1 4184   0.297   3.180   6.235
 1095SOL    HW2 4185   0.195   3.290   6.171
 1096SOL     OW 4186   3.582   4.617   1.458
 1096SOL    HW1 4187   3.541   4.704   1.427
 1096SOL    HW2 4188   3.516   4.569   1.516
 1097SOL     OW 4189   2.174   4.141   3.849
 1097SOL    HW1 4190   2.080   4.139   3.882
 1097SOL    HW2 4191   2.196   4.054   3.805
 1098SOL     OW 4192   5.738   3.342   6.469
 1098SOL    HW1 4193   5.802   3.304   6.403
 1098SOL    HW2 4194   5.745   3.291   6.555
 1099SOL     OW 4195   4.295   0.866   6.059
 1099SOL    HW1 4196   4.310   0.863   6.158
 1099SOL    HW2 4197   4.302   0.774   6.022
 1100SOL     OW 4198   4.343   1.218   4.491
 1100SOL    HW1 4199   4.384   1.157   4.422
 1100SOL    HW2 4200   4.244   1.204   4.491
 1101SOL     OW 4201   5.388   3.582   5.837
 1101SOL    HW1 4202   5.307   3.641   5.845
 1101SOL    HW2 4203   5.411   3.571   5.741
 1102SOL     OW 4204   1.773   0.932   4.706
 1102SOL    HW1 4205   1.815   0.852   4.749
 1102SOL    HW2 4206   1.677   0.938   4.734
 1103SOL     OW 4207   3.157   1.838   0.525
 1103SOL    HW1 4208   3.066   1.854   0.563
 1103SOL    HW2 4209   3.214   1.790   0.593
 1104SOL     OW 4210   1.571   3.697   4.032
 1104SOL    HW1 4211   1.585   3.656   4.123
 1104SOL    HW2 4212   1.509   3.775   4.040
 1105SOL     OW 4213   5.773   3.098   4.619
 1105SOL    HW1 4214   5.679   3.076   4.591
 1105SOL    HW2 4215   5.779   3.194   4.645
 1106SOL     OW 4216   0.956   2.053   1.650
 1106SOL    HW1 4217   0.994   2.086   1.736
 1106SOL    HW2 4218   0.880   1.991   1.668
 1107SOL     OW 4219   1.171   0.193   6.887
 1107SOL    HW1 4220   1.177   0.131   6.808
 1107SOL    HW2 4221   1.111   0.153   6.956
 1108SOL     OW 4222   3.229   6.598   5.155
 1108SOL    HW1 4223   3.238   6.616   5.253
 1108SOL    HW2 4224   3.217   6.685   5.106
 1109SOL     OW 4225   5.656   0.764   4.499
 1109SOL    HW1 4226   5.562   0.796   4.508
 1109SOL    HW2 4227   5.712   0.837   4.459
 1110SOL     OW 4228   4.436   1.825   3.049
 1110SOL    HW1 4229   4.343   1.791   3.058
 1110SOL    HW2 4230   4.452   1.897   3.116
 1111SOL     OW 4231   5.851   5.536   6.737
 1111SOL    HW1 4232   5.870   5.439   6.745
 1111SOL    HW2 4233   5.923   5.580   6.683
 1112SOL     OW 4234   5.682   0.984   2.914
 1112SOL    HW1 4235   5.695   0.892   2.951
 1112SOL    HW2 4236   5.772   1.027   2.902
 1113SOL     OW 4237   5.596   4.078   1.509
 1113SOL    HW1 4238   5.627   4.102   1.417
 1113SOL    HW2 4239   5.629   3.986   1.532
 1114SOL     OW 4240   2.773   1.553   5.993
 1114SOL    HW1 4241   2.821   1.541   6.080
 1114SOL    HW2 4242   2.829   1.518   5.918
 1115SOL     OW 4243   3.766   3.505   5.280
 1115SOL    HW1 4244   3.781   3.408   5.301
 1115SOL    HW2 4245   3.684   3.515   5.224
 1116SOL     OW 4246   5.373   6.893   6.544
 1116SOL    HW1 4247   5.444   6.954   6.578
 1116SOL    HW2 4248   5.339   6.836   6.619
 1117SOL     OW 4249   1.270   1.854   2.205
 1117SOL    HW1 4250   1.261   1.760   2.173
 1117SOL    HW2 4251   1.365   1.870   2.235
 1118SOL     OW 4252   2.478   5.261   0.285
 1118SOL    HW1 4253   2.495   5.293   0.192
 1118SOL    HW2 4254   2.396   5.203   0.286
 1119SOL     OW 4255   4.273   4.565   1.600
 1119SOL    HW1 4256   4.354   4.611   1.564
 1119SOL    HW2 4257   4.300   4.478   1.641
 1120SOL     OW 4258   6.292   5.750   1.211
 1120SOL    HW1 4259   6.247   5.677   1.263
 1120SOL    HW2 4260   6.233   5.779   1.137
 1121SOL     OW 4261   0.238   4.182   4.406
 1121SOL    HW1 4262   0.176   4.109   4.376
 1121SOL    HW2 4263   0.230   4.261   4.345
 1122SOL     OW 4264   6.026   2.766   2.234
 1122SOL    HW1 4265   5.954   2.720   2.286
 1122SOL    HW2 4266   6.056   2.848   2.282
 1123SOL     OW 4267   4.990   2.406   3.616
 1123SOL    HW1 4268   5.001   2.341   3.691
 1123SOL    HW2 4269   5.008   2.359   3.529
 1124SOL     OW 4270   0.060   4.147   5.381
 1124SOL    HW1 4271   7.002   4.120   5.334
 1124SOL    HW2 4272   0.063   4.247   5.390
 1125SOL     OW 4273   1.403   2.641   3.549
 1125SOL    HW1 4274   1.445   2.555   3.580
 1125SOL    HW2 4275   1.382   2.634   3.452
 1126SOL     OW 4276   6.321   5.846   6.069
 1126SOL    HW1 4277   6.420   5.843   6.054
 1126SOL    HW2 4278   6.274   5.803   5.992
 1127SOL     OW 4279   5.697   6.399   4.601
 1127SOL    HW1 4280   5.751   6.325   4.641
 1127SOL    HW2 4281   5.746   6.485   4.611
 1128SOL     OW 4282   6.111   1.075   4.430
 1128SOL    HW1 4283   6.060   1.160   4.433
 1128SOL    HW2 4284   6.064   1.006   4.485
 1129SOL     OW 4285   2.171   6.496   0.798
 1129SOL    HW1 4286   2.249   6.471   0.741
 1129SOL    HW2 4287   2.086   6.479   0.749
 1130SOL     OW 4288   2.088   4.898   1.068
 1130SOL    HW1 4289   2.153   4.962   1.109
 1130SOL    HW2 4290   2.135   4.843   0.998
 1131SOL     OW 4291   1.681   6.843   5.395
 1131SOL    HW1 4292   1.763   6.858   5.451
 1131SOL    HW2 4293   1.709   6.819   5.302
 1132SOL     OW 4294   4.292   0.320   3.211
 1132SOL    HW1 4295   4.276   0.228   3.248
 1132SOL    HW2 4296   4.233   0.385   3.257
 1133SOL     OW 4297   1.404   1.008   0.066
 1133SOL    HW1 4298   1.333   0.944   0.038
 1133SOL    HW2 4299   1.488   0.958   0.085
 1134SOL     OW 4300   4.923   0.017   3.253
 1134SOL    HW1 4301   4.923   6.948   3.223
 1134SOL    HW2 4302   5.009   0.060   3.226
 1135SOL     OW 4303   2.174   6.516   3.442
 1135SOL    HW1 4304   2.134   6.483   3.528
 1135SOL    HW2 4305   2.231   6.596   3.460
 1136SOL     OW 4306   4.086   4.755   2.621
 1136SOL    HW1 4307   4.013   4.732   2.556
 1136SOL    HW2 4308   4.119   4.848   2.603
 1137SOL     OW 4309   1.202   6.660   0.124
 1137SOL    HW1 4310   1.217   6.758   0.138
 1137SOL    HW2 4311   1.261   6.627   0.051
 1138SOL     OW 4312   0.503   1.502   5.257
 1138SOL    HW1 4313   0.413   1.460   5.259
 1138SOL    HW2 4314   0.557   1.471   5.336
 1139SOL     OW 4315   2.647   5.106   3.334
 1139SOL    HW1 4316   2.568   5.100   3.273
 1139SOL    HW2 4317   2.726   5.139   3.283
 1140SOL     OW 4318   2.840   0.351   2.104
 1140SOL    HW1 4319   2.812   0.358   2.009
 1140SOL    HW2 4320   2.869   0.440   2.138
 1141SOL     OW 4321   6.894   6.122   0.275
 1141SOL    HW1 4322   6.952   6.197   0.306
 1141SOL    HW2 4323   6.799   6.153   0.267
 1142SOL     OW 4324   3.453   0.701   4.164
 1142SOL    HW1 4325   3.549   0.688   4.190
 1142SOL    HW2 4326   3.404   0.746   4.239
 1143SOL     OW 4327   1.824   3.144   2.928
 1143SOL    HW1 4328   1.920   3.118   2.942
 1143SOL    HW2 4329   1.765   3.066   2.950
 1144SOL     OW 4330   5.757   4.666   3.467
 1144SOL    HW1 4331   5.794   4.601   3.401
 1144SOL    HW2 4332   5.673   4.629   3.508
 1145SOL     OW 4333   0.806   2.887   0.706
 1145SOL    HW1 4334   0.714   2.881   0.667
 1145SOL    HW2 4335   0.853   2.800   0.696
 1146SOL     OW 4336   0.730   1.573   2.269
 1146SOL    HW1 4337   0.737   1.620   2.357
 1146SOL    HW2 4338   0.679   1.487   2.282
 1147SOL     OW 4339   3.190   5.762   1.232
 1147SOL    HW1 4340   3.164   5.851   1.194
 1147SOL    HW2 4341   3.283   5.739   1.205
 1148SOL     OW 4342   4.635   6.224   1.087
 1148SOL    HW1 4343   4.616   6.322   1.093
 1148SOL    HW2 4344   4.672   6.203   0.997
 1149SOL     OW 4345   5.280   2.356   2.399
 1149SOL    HW1 4346   5.318   2.322   2.312
 1149SOL    HW2 4347   5.182   2.371   2.389
 1150SOL     OW 4348   0.753   4.177   0.460
 1150SOL    HW1 4349   0.790   4.091   0.425
 1150SOL    HW2 4350   0.725   4.235   0.383
 1151SOL     OW 4351   5.619   4.624   4.874
 1151SOL    HW1 4352   5.586   4.605   4.967
 1151SOL    HW2 4353   5.541   4.643   4.815
 1152SOL     OW 4354   5.059   6.435   6.519
 1152SOL    HW1 4355   5.104   6.475   6.599
 1152SOL    HW2 4356   4.997   6.362   6.549
 1153SOL     OW 4357   6.936   0.054   1.893
 1153SOL    HW1 4358   6.968   0.148   1.901
 1153SOL    HW2 4359   6.977   0.011   1.812
 1154SOL     OW 4360   0.350   4.737   0.283
 1154SOL    HW1 4361   0.298   4.657   0.312
 1154SOL    HW2 4362   0.444   4.710   0.261
 1155SOL     OW 4363   3.279   4.825   5.515
 1155SOL    HW1 4364   3.342   4.896   5.545
 1155SOL    HW2 4365   3.259   4.837   5.418
 1156SOL     OW 4366   4.751   2.103   5.122
 1156SOL    HW1 4367   4.841   2.103   5.079
 1156SOL    HW2 4368   4.752   2.042   5.202
 1157SOL     OW 4369   5.174   1.234   5.920
 1157SOL    HW1 4370   5.270   1.216   5.942
 1157SOL    HW2 4371   5.116   1.180   5.980
 1158SOL     OW 4372   6.519   5.292   5.090
 1158SOL    HW1 4373   6.614   5.302   5.060
 1158SOL    HW2 4374   6.492   5.372   5.144
 1159SOL     OW 4375   6.358   6.902   3.420
 1159SOL    HW1 4376   6.419   6.861   3.489
 1159SOL    HW2 4377   6.409   6.916   3.335
 1160SOL     OW 4378   4.376   4.938   1.481
 1160SOL    HW1 4379   4.310   4.937   1.557
 1160SOL    HW2 4380   4.331   4.974   1.399
 1161SOL     OW 4381   0.338   6.107   6.117
 1161SOL    HW1 4382   0.246   6.117   6.154
 1161SOL    HW2 4383   0.366   6.192   6.072
 1162SOL     OW 4384   2.378   2.537   6.049
 1162SOL    HW1 4385   2.296   2.480   6.043
 1162SOL    HW2 4386   2.455   2.483   6.081
 1163SOL     OW 4387   6.067   4.324   1.789
 1163SOL    HW1 4388   6.147   4.359   1.838
 1163SOL    HW2 4389   5.985   4.372   1.820
 1164SOL     OW 4390   4.685   2.025   4.749
 1164SOL    HW1 4391   4.784   2.015   4.757
 1164SOL    HW2 4392   4.639   1.971   4.820
 1165SOL     OW 4393   4.310   5.919   3.584
 1165SOL    HW1 4394   4.292   5.918   3.486
 1165SOL    HW2 4395   4.266   5.839   3.626
 1166SOL     OW 4396   2.349   6.231   0.168
 1166SOL    HW1 4397   2.425   6.219   0.232
 1166SOL    HW2 4398   2.349   6.325   0.134
 1167SOL     OW 4399   4.767   5.384   0.734
 1167SOL    HW1 4400   4.802   5.416   0.646
 1167SOL    HW2 4401   4.679   5.338   0.720
 1168SOL     OW 4402   5.951   2.517   1.762
 1168SOL    HW1 4403   5.936   2.613   1.786
 1168SOL    HW2 4404   5.868   2.480   1.719
 1169SOL     OW 4405   4.266   1.610   5.844
 1169SOL    HW1 4406   4.350   1.590   5.895
 1169SOL    HW2 4407   4.288   1.665   5.763
 1170SOL     OW 4408   5.309   0.336   3.354
 1170SOL    HW1 4409   5.233   0.341   3.419
 1170SOL    HW2 4410   5.379   0.403   3.379
 1171SOL     OW 4411   2.883   6.596   6.968
 1171SOL    HW1 4412   2.951   6.573   0.012
 1171SOL    HW2 4413   2.924   6.586   6.878
 1172SOL     OW 4414   5.419   4.074   0.947
 1172SOL    HW1 4415   5.514   4.099   0.930
 1172SOL    HW2 4416   5.398   3.988   0.901
 1173SOL     OW 4417   2.805   1.582   0.642
 1173SOL    HW1 4418   2.892   1.576   0.690
 1173SOL    HW2 4419   2.791   1.500   0.586
 1174SOL     OW 4420   3.708   3.807   1.921
 1174SOL    HW1 4421   3.691   3.817   2.020
 1174SOL    HW2 4422   3.656   3.876   1.871
 1175SOL     OW 4423   4.613   3.640   6.478
 1175SOL    HW1 4424   4.658   3.710   6.533
 1175SOL    HW2 4425   4.523   3.672   6.450
 1176SOL     OW 4426   5.382   3.344   0.196
 1176SOL    HW1 4427   5.444   3.282   0.244
 1176SOL    HW2 4428   5.327   3.395   0.263
 1177SOL     OW 4429   6.034   3.649   5.099
 1177SOL    HW1 4430   6.042   3.650   5.198
 1177SOL    HW2 4431   6.042   3.742   5.064
 1178SOL     OW 4432   2.893   4.441   0.300
 1178SOL    HW1 4433   2.823   4.503   0.335
 1178SOL    HW2 4434   2.897   4.449   0.200
 1179SOL     OW 4435   2.012   5.720   0.942
 1179SOL    HW1 4436   1.945   5.765   1.001
 1179SOL    HW2 4437   2.048   5.640   0.989
 1180SOL     OW 4438   2.691   6.580   3.939
 1180SOL    HW1 4439   2.758   6.635   3.888
 1180SOL    HW2 4440   2.739   6.509   3.991
 1181SOL     OW 4441   0.449   5.484   5.129
 1181SOL    HW1 4442   0.435   5.568   5.180
 1181SOL    HW2 4443   0.377   5.474   5.060
 1182SOL     OW 4444   4.717   5.210   3.669
 1182SOL    HW1 4445   4.726   5.145   3.593
 1182SOL    HW2 4446   4.650   5.280   3.645
 1183SOL     OW 4447   2.217   4.294   0.102
 1183SOL    HW1 4448   2.161   4.315   0.023
 1183SOL    HW2 4449   2.271   4.212   0.084
 1184SOL     OW 4450   0.048   0.985   4.477
 1184SOL    HW1 4451   0.020   0.925   4.552
 1184SOL    HW2 4452   0.033   0.938   4.390
 1185SOL     OW 4453   0.737   0.658   1.007
 1185SOL    HW1 4454   0.755   0.566   1.042
 1185SOL    HW2 4455   0.784   0.725   1.065
 1186SOL     OW 4456   5.467   6.596   6.218
 1186SOL    HW1 4457   5.493   6.620   6.312
 1186SOL    HW2 4458   5.384   6.540   6.220
 1187SOL     OW 4459   5.089   0.226   6.126
 1187SOL    HW1 4460   5.180   0.242   6.164
 1187SOL    HW2 4461   5.023   0.216   6.200
 1188SOL     OW 4462   3.408   6.017   5.971
 1188SOL    HW1 4463   3.408   5.922   6.002
 1188SOL    HW2 4464   3.495   6.037   5.925
 1189SOL     OW 4465   6.473   2.432   1.516
 1189SOL    HW1 4466   6.511   2.513   1.561
 1189SOL    HW2 4467   6.373   2.438   1.516
 1190SOL     OW 4468   3.064   5.511   3.472
 1190SOL    HW1 4469   3.043   5.492   3.377
 1190SOL    HW2 4470   3.110   5.432   3.513
 1191SOL     OW 4471   4.460   5.656   4.096
 1191SOL    HW1 4472   4.494   5.577   4.147
 1191SOL    HW2 4473   4.530   5.726   4.090
 1192SOL     OW 4474   5.135   4.924   2.001
 1192SOL    HW1 4475   5.202   4.851   2.003
 1192SOL    HW2 4476   5.045   4.887   2.026
 1193SOL     OW 4477   6.716   2.211   5.016
 1193SOL    HW1 4478   6.624   2.205   4.977
 1193SOL    HW2 4479   6.775   2.260   4.953
 1194SOL     OW 4480   6.004   6.715   1.752
 1194SOL    HW1 4481   6.006   6.755   1.843
 1194SOL    HW2 4482   5.925   6.751   1.702
 1195SOL     OW 4483   0.465   4.255   1.065
 1195SOL    HW1 4484   0.379   4.217   1.032
 1195SOL    HW2 4485   0.459   4.355   1.066
 1196SOL     OW 4486   6.948   5.390   3.415
 1196SOL    HW1 4487   6.930   5.471   3.360
 1196SOL    HW2 4488   6.882   5.384   3.490
 1197SOL     OW 4489   4.818   0.128   4.869
 1197SOL    HW1 4490   4.775   0.100   4.955
 1197SOL    HW2 4491   4.868   0.050   4.830
 1198SOL     OW 4492   1.124   2.783   2.771
 1198SOL    HW1 4493   1.188   2.746   2.838
 1198SOL    HW2 4494   1.050   2.830   2.819
 1199SOL     OW 4495   3.599   3.796   1.115
 1199SOL    HW1 4496   3.594   3.843   1.026
 1199SOL    HW2 4497   3.667   3.842   1.172
 1200SOL     OW 4498   3.177   4.019   4.053
 1200SOL    HW1 4499   3.228   3.935   4.073
 1200SOL    HW2 4500   3.227   4.097   4.090
 1201SOL     OW 4501   1.064   0.972   4.214
 1201SOL    HW1 4502   1.158   0.998   4.239
 1201SOL    HW2 4503   1.038   1.019   4.130
 1202SOL     OW 4504   0.594   5.728   5.756
 1202SOL    HW1 4505   0.552   5.754   5.843
 1202SOL    HW2 4506   0.587   5.629   5.745
 1203SOL     OW 4507   6.513   6.355   6.677
 1203SOL    HW1 4508   6.430   6.358   6.732
 1203SOL    HW2 4509   6.549   6.447   6.666
 1204SOL     OW 4510   4.150   0.631   1.661
 1204SOL    HW1 4511   4.076   0.614   1.726
 1204SOL    HW2 4512   4.119   0.697   1.593
 1205SOL     OW 4513   4.438   3.155   0.707
 1205SOL    HW1 4514   4.377   3.182   0.781
 1205SOL    HW2 4515   4.387   3.150   0.622
 1206SOL     OW 4516   2.618   2.653   5.434
 1206SOL    HW1 4517   2.665   2.690   5.515
 1206SOL    HW2 4518   2.569   2.726   5.388
 1207SOL     OW 4519   2.222   6.272   0.975
 1207SOL    HW1 4520   2.166   6.343   0.933
 1207SOL    HW2 4521   2.262   6.215   0.904
 1208SOL     OW 4522   3.018   3.296   1.049
 1208SOL    HW1 4523   3.068   3.360   1.108
 1208SOL    HW2 4524   3.058   3.296   0.958
 1209SOL     OW 4525   4.098   0.941   4.021
 1209SOL    HW1 4526   4.137   0.946   4.113
 1209SOL    HW2 4527   4.099   1.032   3.979
 1210SOL     OW 4528   3.064   0.346   3.633
 1210SOL    HW1 4529   3.007   0.422   3.663
 1210SOL    HW2 4530   3.149   0.345   3.687
 1211SOL     OW 4531   0.875   3.391   2.378
 1211SOL    HW1 4532   0.870   3.448   2.296
 1211SOL    HW2 4533   0.865   3.295   2.352
 1212SOL     OW 4534   6.243   0.280   0.392
 1212SOL    HW1 4535   6.231   0.359   0.333
 1212SOL    HW2 4536   6.308   0.216   0.350
 1213SOL     OW 4537   6.586   2.838   1.223
 1213SOL    HW1 4538   6.521   2.767   1.198
 1213SOL    HW2 4539   6.550   2.928   1.195
 1214SOL     OW 4540   1.477   2.766   6.819
 1214SOL    HW1 4541   1.509   2.685   6.867
 1214SOL    HW2 4542   1.380   2.757   6.797
 1215SOL     OW 4543   0.963   4.802   3.135
 1215SOL    HW1 4544   1.036   4.740   3.106
 1215SOL    HW2 4545   0.988   4.845   3.222
 1216SOL     OW 4546   5.275   0.403   1.287
 1216SOL    HW1 4547   5.369   0.427   1.264
 1216SOL    HW2 4548   5.214   0.478   1.263
 1217SOL     OW 4549   2.270   4.713   0.791
 1217SOL    HW1 4550   2.197   4.647   0.811
 1217SOL    HW2 4551   2.357   4.678   0.826
 1218SOL     OW 4552   1.600   4.398   4.792
 1218SOL    HW1 4553   1.666   4.461   4.831
 1218SOL    HW2 4554   1.592   4.317   4.850
 1219SOL     OW 4555   5.185   6.358   1.842
 1219SOL    HW1 4556   5.098   6.406   1.828
 1219SOL    HW2 4557   5.255   6.396   1.781
 1220SOL     OW 4558   0.914   4.408   3.053
 1220SOL    HW1 4559   0.858   4.480   3.012
 1220SOL    HW2 4560   0.864   4.321   3.049
 1221SOL     OW 4561   5.376   4.204   6.507
 1221SOL    HW1 4562   5.464   4.197   6.554
 1221SOL    HW2 4563   5.303   4.170   6.567
 1222SOL     OW 4564   6.531   0.664   6.680
 1222SOL    HW1 4565   6.498   0.751   6.718
 1222SOL    HW2 4566   6.565   0.606   6.754
 1223SOL     OW 4567   4.209   1.485   7.019
 1223SOL    HW1 4568   4.194   1.570   0.043
 1223SOL    HW2 4569   4.124   1.432   7.018
 1224SOL     OW 4570   3.553   5.323   0.500
 1224SOL    HW1 4571   3.541   5.302   0.597
 1224SOL    HW2 4572   3.550   5.422   0.486
 1225SOL     OW 4573   3.140   3.322   6.346
 1225SOL    HW1 4574   3.203   3.374   6.404
 1225SOL    HW2 4575   3.192   3.274   6.275
 1226SOL     OW 4576   2.793   5.359   1.681
 1226SOL    HW1 4577   2.866   5.361   1.613
 1226SOL    HW2 4578   2.708   5.394   1.641
 1227SOL     OW 4579   6.622   3.927   6.238
 1227SOL    HW1 4580   6.641   3.981   6.156
 1227SOL    HW2 4581   6.595   3.835   6.211
 1228SOL     OW 4582   3.145   2.201   6.519
 1228SOL    HW1 4583   3.092   2.189   6.602
 1228SOL    HW2 4584   3.241   2.179   6.538
 1229SOL     OW 4585   3.501   5.000   5.535
 1229SOL    HW1 4586   3.531   4.976   5.442
 1229SOL    HW2 4587   3.580   5.005   5.595
 1230SOL     OW 4588   4.680   6.956   2.789
 1230SOL    HW1 4589   4.648   6.956   2.884
 1230SOL    HW2 4590   4.748   0.001   2.776
 1231SOL     OW 4591   1.818   3.389   4.830
 1231SOL    HW1 4592   1.737   3.340   4.797
 1231SOL    HW2 4593   1.796   3.437   4.915
 1232SOL     OW 4594   0.767   1.811   4.984
 1232SOL    HW1 4595   0.793   1.797   5.080
 1232SOL    HW2 4596   0.714   1.733   4.952
 1233SOL     OW 4597   0.892   4.035   4.630
 1233SOL    HW1 4598   0.802   4.000   4.657
 1233SOL    HW2 4599   0.953   3.958   4.613
 1234SOL     OW 4600   6.335   3.858   5.124
 1234SOL    HW1 4601   6.239   3.887   5.117
 1234SOL    HW2 4602   6.343   3.788   5.195
 1235SOL     OW 4603   7.009   5.734   2.703
 1235SOL    HW1 4604   0.003   5.697   2.793
 1235SOL    HW2 4605   0.042   5.690   2.635
 1236SOL     OW 4606   4.871   1.456   0.323
 1236SOL    HW1 4607   4.846   1.544   0.364
 1236SOL    HW2 4608   4.913   1.472   0.234
 1237SOL     OW 4609   1.716   5.221   5.466
 1237SOL    HW1 4610   1.704   5.287   5.392
 1237SOL    HW2 4611   1.812   5.195   5.473
 1238SOL     OW 4612   2.724   1.113   0.242
 1238SOL    HW1 4613   2.663   1.113   0.162
 1238SOL    HW2 4614   2.682   1.165   0.316
 1239SOL     OW 4615   0.037   6.993   5.937
 1239SOL    HW1 4616   0.037   6.976   5.839
 1239SOL    HW2 4617   6.985   0.023   5.962
 1240SOL     OW 4618   5.166   6.205   2.062
 1240SOL    HW1 4619   5.188   6.265   1.986
 1240SOL    HW2 4620   5.181   6.253   2.149
 1241SOL     OW 4621   6.317   4.398   3.716
 1241SOL    HW1 4622   6.303   4.441   3.806
 1241SOL    HW2 4623   6.244   4.332   3.699
 1242SOL     OW 4624   6.877   3.532   1.710
 1242SOL    HW1 4625   6.816   3.500   1.638
 1242SOL    HW2 4626   6.943   3.598   1.672
 1243SOL     OW 4627   6.664   6.636   4.966
 1243SOL    HW1 4628   6.566   6.618   4.972
 1243SOL    HW2 4629   6.679   6.730   4.936
 1244SOL     OW 4630   6.554   0.160   4.508
 1244SOL    HW1 4631   6.495   0.079   4.519
 1244SOL    HW2 4632   6.650   0.133   4.513
 1245SOL     OW 4633   4.759   4.740   6.633
 1245SOL    HW1 4634   4.842   4.792   6.616
 1245SOL    HW2 4635   4.681   4.802   6.638
 1246SOL     OW 4636   2.294   6.121   1.643
 1246SOL    HW1 4637   2.245   6.137   1.557
 1246SOL    HW2 4638   2.228   6.093   1.714
 1247SOL     OW 4639   2.347   0.517   6.695
 1247SOL    HW1 4640   2.395   0.586   6.640
 1247SOL    HW2 4641   2.369   0.531   6.792
 1248SOL     OW 4642   1.787   6.704   4.661
 1248SOL    HW1 4643   1.700   6.654   4.652
 1248SOL    HW2 4644   1.769   6.798   4.691
 1249SOL     OW 4645   5.684   2.486   2.566
 1249SOL    HW1 4646   5.664   2.421   2.494
 1249SOL    HW2 4647   5.631   2.569   2.552
 1250SOL     OW 4648   6.258   5.080   4.636
 1250SOL    HW1 4649   6.326   5.028   4.584
 1250SOL    HW2 4650   6.302   5.125   4.713
 1251SOL     OW 4651   3.305   6.849   4.525
 1251SOL    HW1 4652   3.364   6.800   4.460
 1251SOL    HW2 4653   3.292   6.943   4.494
 1252SOL     OW 4654   4.034   3.144   5.182
 1252SOL    HW1 4655   4.123   3.175   5.215
 1252SOL    HW2 4656   3.962   3.176   5.243
 1253SOL     OW 4657   3.549   5.191   1.781
 1253SOL    HW1 4658   3.620   5.139   1.828
 1253SOL    HW2 4659   3.461   5.174   1.825
 1254SOL     OW 4660   0.398   2.567   2.223
 1254SOL    HW1 4661   0.441   2.572   2.313
 1254SOL    HW2 4662   0.304   2.535   2.233
 1255SOL     OW 4663   6.397   1.745   4.891
 1255SOL    HW1 4664   6.412   1.738   4.793
 1255SOL    HW2 4665   6.406   1.841   4.919
 1256SOL     OW 4666   6.676   6.447   3.759
 1256SOL    HW1 4667   6.678   6.443   3.859
 1256SOL    HW2 4668   6.701   6.358   3.721
 1257SOL     OW 4669   0.105   6.634   4.241
 1257SOL    HW1 4670   0.202   6.611   4.251
 1257SOL    HW2 4671   0.096   6.733   4.235
 1258SOL     OW 4672   2.109   5.953   3.917
 1258SOL    HW1 4673   2.047   5.997   3.982
 1258SOL    HW2 4674   2.181   6.018   3.890
 1259SOL     OW 4675   3.759   1.251   4.070
 1259SOL    HW1 4676   3.734   1.158   4.098
 1259SOL    HW2 4677   3.823   1.290   4.137
 1260SOL     OW 4678   1.587   1.573   6.614
 1260SOL    HW1 4679   1.500   1.621   6.615
 1260SOL    HW2 4680   1.661   1.636   6.641
 1261SOL     OW 4681   0.507   5.653   6.722
 1261SOL    HW1 4682   0.410   5.677   6.716
 1261SOL    HW2 4683   0.562   5.731   6.691
 1262SOL     OW 4684   4.586   3.973   1.045
 1262SOL    HW1 4685   4.629   3.988   1.134
 1262SOL    HW2 4686   4.596   3.877   1.019
 1263SOL     OW 4687   0.443   1.514   2.433
 1263SOL    HW1 4688   0.482   1.606   2.424
 1263SOL    HW2 4689   0.461   1.479   2.525
 1264SOL     OW 4690   7.007   4.491   6.685
 1264SOL    HW1 4691   6.910   4.517   6.696
 1264SOL    HW2 4692   0.002   4.416   6.748
 1265SOL     OW 4693   5.815   5.279   5.063
 1265SOL    HW1 4694   5.819   5.370   5.023
 1265SOL    HW2 4695   5.863   5.214   5.004
 1266SOL     OW 4696   0.660   0.658   4.493
 1266SOL    HW1 4697   0.751   0.691   4.516
 1266SOL    HW2 4698   0.611   0.632   4.577
 1267SOL     OW 4699   5.715   1.515   1.135
 1267SOL    HW1 4700   5.650   1.493   1.063
 1267SOL    HW2 4701   5.698   1.607   1.169
 1268SOL     OW 4702   2.723   3.009   6.919
 1268SOL    HW1 4703   2.809   2.962   6.900
 1268SOL    HW2 4704   2.657   2.987   6.847
 1269SOL     OW 4705   5.884   3.251   4.091
 1269SOL    HW1 4706   5.901   3.201   4.006
 1269SOL    HW2 4707   5.964   3.307   4.113
 1270SOL     OW 4708   2.356   4.686   2.607
 1270SOL    HW1 4709   2.341   4.691   2.706
 1270SOL    HW2 4710   2.332   4.595   2.574
 1271SOL     OW 4711   3.302   1.709   2.407
 1271SOL    HW1 4712   3.210   1.722   2.370
 1271SOL    HW2 4713   3.351   1.797   2.406
 1272SOL     OW 4714   5.595   5.159   6.776
 1272SOL    HW1 4715   5.655   5.206   6.840
 1272SOL    HW2 4716   5.574   5.068   6.810
 1273SOL     OW 4717   0.877   4.301   5.729
 1273SOL    HW1 4718   0.812   4.371   5.699
 1273SOL    HW2 4719   0.846   4.262   5.815
 1274SOL     OW 4720   0.013   4.642   0.649
 1274SOL    HW1 4721   7.017   4.673   0.557
 1274SOL    HW2 4722   6.962   4.660   0.710
 1275SOL     OW 4723   3.767   1.609   3.511
 1275SOL    HW1 4724   3.777   1.524   3.563
 1275SOL    HW2 4725   3.807   1.597   3.420
 1276SOL     OW 4726   5.522   5.229   4.870
 1276SOL    HW1 4727   5.483   5.307   4.918
 1276SOL    HW2 4728   5.537   5.154   4.934
 1277SOL     OW 4729   1.894   5.154   6.377
 1277SOL    HW1 4730   1.975   5.212   6.370
 1277SOL    HW2 4731   1.864   5.127   6.286
 1278SOL     OW 4732   1.748   0.289   5.031
 1278SOL    HW1 4733   1.656   0.318   5.058
 1278SOL    HW2 4734   1.772   0.205   5.080
 1279SOL     OW 4735   2.100   4.654   6.576
 1279SOL    HW1 4736   2.095   4.747   6.612
 1279SOL    HW2 4737   2.131   4.655   6.481
 1280SOL     OW 4738   4.258   6.439   3.435
 1280SOL    HW1 4739   4.231   6.416   3.528
 1280SOL    HW2 4740   4.290   6.533   3.431
 1281SOL     OW 4741   2.515   6.277   3.410
 1281SOL    HW1 4742   2.462   6.243   3.332
 1281SOL    HW2 4743   2.555   6.366   3.386
 1282SOL     OW 4744   6.930   2.012   7.004
 1282SOL    HW1 4745   6.831   2.012   6.993
 1282SOL    HW2 4746   6.958   1.932   0.032
 1283SOL     OW 4747   6.623   2.708   5.314
 1283SOL    HW1 4748   6.674   2.625   5.291
 1283SOL    HW2 4749   6.525   2.691   5.304
 1284SOL     OW 4750   3.901   1.096   1.557
 1284SOL    HW1 4751   3.964   1.027   1.521
 1284SOL    HW2 4752   3.845   1.132   1.482
 1285SOL     OW 4753   4.709   1.666   5.393
 1285SOL    HW1 4754   4.661   1.674   5.306
 1285SOL    HW2 4755   4.646   1.629   5.462
 1286SOL     OW 4756   4.556   2.722   0.873
 1286SOL    HW1 4757   4.577   2.806   0.823
 1286SOL    HW2 4758   4.565   2.644   0.811
 1287SOL     OW 4759   5.371   4.028   5.496
 1287SOL    HW1 4760   5.333   4.109   5.540
 1287SOL    HW2 4761   5.385   3.957   5.564
 1288SOL     OW 4762   3.775   4.789   6.019
 1288SOL    HW1 4763   3.760   4.874   5.968
 1288SOL    HW2 4764   3.836   4.730   5.967
 1289SOL     OW 4765   0.724   0.330   1.655
 1289SOL    HW1 4766   0.690   0.398   1.720
 1289SOL    HW2 4767   0.679   0.342   1.567
 1290SOL     OW 4768   1.138   0.341   0.335
 1290SOL    HW1 4769   1.045   0.338   0.297
 1290SOL    HW2 4770   1.158   0.254   0.381
 1291SOL     OW 4771   0.465   4.008   3.820
 1291SOL    HW1 4772   0.398   4.063   3.870
 1291SOL    HW2 4773   0.551   4.059   3.812
 1292SOL     OW 4774   0.235   5.815   2.350
 1292SOL    HW1 4775   0.319   5.861   2.378
 1292SOL    HW2 4776   0.166   5.882   2.325
 1293SOL     OW 4777   2.461   2.549   6.560
 1293SOL    HW1 4778   2.447   2.517   6.654
 1293SOL    HW2 4779   2.454   2.471   6.497
 1294SOL     OW 4780   0.314   3.740   5.594
 1294SOL    HW1 4781   0.218   3.715   5.580
 1294SOL    HW2 4782   0.362   3.664   5.638
 1295SOL     OW 4783   0.331   3.094   1.128
 1295SOL    HW1 4784   0.349   3.131   1.037
 1295SOL    HW2 4785   0.291   3.003   1.119
 1296SOL     OW 4786   4.422   6.639   5.225
 1296SOL    HW1 4787   4.369   6.561   5.192
 1296SOL    HW2 4788   4.413   6.715   5.160
 1297SOL     OW 4789   0.898   6.458   1.434
 1297SOL    HW1 4790   0.908   6.502   1.523
 1297SOL    HW2 4791   0.986   6.418   1.407
 1298SOL     OW 4792   5.428   6.520   3.713
 1298SOL    HW1 4793   5.515   6.551   3.751
 1298SOL    HW2 4794   5.443   6.435   3.664
 1299SOL     OW 4795   2.444   2.553   3.782
 1299SOL    HW1 4796   2.449   2.636   3.836
 1299SOL    HW2 4797   2.450   2.576   3.684
 1300SOL     OW 4798   1.997   3.419   1.166
 1300SOL    HW1 4799   1.939   3.466   1.233
 1300SOL    HW2 4800   1.940   3.369   1.101
 1301SOL     OW 4801   0.504   0.062   1.902
 1301SOL    HW1 4802   0.518   0.158   1.926
 1301SOL    HW2 4803   0.494   0.008   1.985
 1302SOL     OW 4804   5.281   0.166   5.380
 1302SOL    HW1 4805   5.268   0.254   5.425
 1302SOL    HW2 4806   5.327   0.180   5.293
 1303SOL     OW 4807   4.101   0.720   1.390
 1303SOL    HW1 4808   4.083   0.657   1.314
 1303SOL    HW2 4809   4.168   0.788   1.361
 1304SOL     OW 4810   1.433   0.277   0.935
 1304SOL    HW1 4811   1.465   0.302   1.026
 1304SOL    HW2 4812   1.398   0.183   0.937
 1305SOL     OW 4813   5.716   4.502   0.311
 1305SOL    HW1 4814   5.790   4.461   0.258
 1305SOL    HW2 4815   5.721   4.471   0.406
 1306SOL     OW 4816   1.464   5.940   4.283
 1306SOL    HW1 4817   1.407   6.022   4.278
 1306SOL    HW2 4818   1.466   5.895   4.194
 1307SOL     OW 4819   2.124   4.008   4.265
 1307SOL    HW1 4820   2.050   3.992   4.199
 1307SOL    HW2 4821   2.193   4.066   4.224
 1308SOL     OW 4822   0.119   6.945   5.654
 1308SOL    HW1 4823   0.038   6.886   5.655
 1308SOL    HW2 4824   0.199   6.891   5.628
 1309SOL     OW 4825   5.996   4.581   5.495
 1309SOL    HW1 4826   5.923   4.545   5.553
 1309SOL    HW2 4827   5.956   4.640   5.424
 1310SOL     OW 4828   7.013   3.557   2.940
 1310SOL    HW1 4829   0.080   3.524   2.929
 1310SOL    HW2 4830   6.950   3.497   2.891
 1311SOL     OW 4831   6.950   6.407   6.313
 1311SOL    HW1 4832   6.945   6.497   6.268
 1311SOL    HW2 4833   6.858   6.376   6.335
 1312SOL     OW 4834   1.613   6.879   0.018
 1312SOL    HW1 4835   1.622   6.792   0.067
 1312SOL    HW2 4836   1.704   6.916   0.001
 1313SOL     OW 4837   6.721   5.119   2.461
 1313SOL    HW1 4838   6.685   5.042   2.410
 1313SOL    HW2 4839   6.809   5.147   2.423
 1314SOL     OW 4840   3.509   1.913   4.634
 1314SOL    HW1 4841   3.472   1.897   4.726
 1314SOL    HW2 4842   3.490   2.007   4.606
 1315SOL     OW 4843   6.881   1.317   3.138
 1315SOL    HW1 4844   6.895   1.239   3.199
 1315SOL    HW2 4845   6.784   1.337   3.130
 1316SOL     OW 4846   3.348   0.008   5.323
 1316SOL    HW1 4847   3.335   0.054   5.411
 1316SOL    HW2 4848   3.389   0.072   5.258
 1317SOL     OW 4849   1.466   4.014   5.403
 1317SOL    HW1 4850   1.374   4.049   5.384
 1317SOL    HW2 4851   1.490   3.946   5.333
 1318SOL     OW 4852   1.362   2.950   0.365
 1318SOL    HW1 4853   1.295   3.019   0.337
 1318SOL    HW2 4854   1.402   2.907   0.284
 1319SOL     OW 4855   0.160   5.280   0.454
 1319SOL    HW1 4856   0.218   5.246   0.379
 1319SOL    HW2 4857   0.200   5.364   0.491
 1320SOL     OW 4858   3.414   3.802   6.899
 1320SOL    HW1 4859   3.419   3.742   6.819
 1320SOL    HW2 4860   3.505   3.816   6.936
 1321SOL     OW 4861   5.195   2.452   6.213
 1321SOL    HW1 4862   5.294   2.439   6.204
 1321SOL    HW2 4863   5.157   2.473   6.123
 1322SOL     OW 4864   3.881   1.845   4.642
 1322SOL    HW1 4865   3.803   1.843   4.580
 1322SOL    HW2 4866   3.963   1.874   4.592
 1323SOL     OW 4867   3.239   0.183   6.895
 1323SOL    HW1 4868   3.243   0.130   6.979
 1323SOL    HW2 4869   3.149   0.174   6.854
 1324SOL     OW 4870   0.373   3.222   0.121
 1324SOL    HW1 4871   0.320   3.191   0.201
 1324SOL    HW2 4872   0.315   3.280   0.064
 1325SOL     OW 4873   3.720   6.022   5.417
 1325SOL    HW1 4874   3.800   6.004   5.475
 1325SOL    HW2 4875   3.733   5.977   5.328
 1326SOL     OW 4876   4.849   3.707   5.336
 1326SOL    HW1 4877   4.783   3.724   5.409
 1326SOL    HW2 4878   4.801   3.680   5.253
 1327SOL     OW 4879   1.117   6.207   0.723
 1327SOL    HW1 4880   1.078   6.256   0.800
 1327SOL    HW2 4881   1.192   6.261   0.684
 1328SOL     OW 4882   2.300   3.267   0.249
 1328SOL    HW1 4883   2.360   3.335   0.289
 1328SOL    HW2 4884   2.352   3.184   0.229
 1329SOL     OW 4885   0.849   2.436   2.138
 1329SOL    HW1 4886   0.926   2.415   2.076
 1329SOL    HW2 4887   0.814   2.527   2.118
 1330SOL     OW 4888   1.371   1.913   1.439
 1330SOL    HW1 4889   1.444   1.974   1.470
 1330SOL    HW2 4890   1.294   1.967   1.405
 1331SOL     OW 4891   4.687   2.568   3.516
 1331SOL    HW1 4892   4.699   2.534   3.609
 1331SOL    HW2 4893   4.734   2.656   3.506
 1332SOL     OW 4894   2.986   7.004   0.778
 1332SOL    HW1 4895   2.923   0.056   0.773
 1332SOL    HW2 4896   3.000   6.980   0.874
 1333SOL     OW 4897   2.868   3.535   3.007
 1333SOL    HW1 4898   2.877   3.634   2.991
 1333SOL    HW2 4899   2.802   3.519   3.079
 1334SOL     OW 4900   6.896   1.029   3.979
 1334SOL    HW1 4901   6.880   0.961   3.908
 1334SOL    HW2 4902   6.810   1.074   4.002
 1335SOL     OW 4903   1.944   1.803   2.245
 1335SOL    HW1 4904   1.883   1.784   2.321
 1335SOL    HW2 4905   1.923   1.893   2.207
 1336SOL     OW 4906   3.271   1.859   4.797
 1336SOL    HW1 4907   3.216   1.796   4.851
 1336SOL    HW2 4908   3.258   1.952   4.830
 1337SOL     OW 4909   1.345   1.326   2.428
 1337SOL    HW1 4910   1.327   1.309   2.525
 1337SOL    HW2 4911   1.404   1.406   2.419
 1338SOL     OW 4912   6.843   2.898   4.641
 1338SOL    HW1 4913   6.927   2.893   4.588
 1338SOL    HW2 4914   6.857   2.855   4.730
 1339SOL     OW 4915   6.291   1.711   0.255
 1339SOL    HW1 4916   6.246   1.741   0.171
 1339SOL    HW2 4917   6.295   1.787   0.320
 1340SOL     OW 4918   5.277   1.619   2.748
 1340SOL    HW1 4919   5.345   1.689   2.728
 1340SOL    HW2 4920   5.311   1.559   2.820
 1341SOL     OW 4921   4.662   0.025   6.713
 1341SOL    HW1 4922   4.760   0.015   6.699
 1341SOL    HW2 4923   4.625   6.969   6.756
 1342SOL     OW 4924   2.788   5.528   6.667
 1342SOL    HW1 4925   2.709   5.474   6.697
 1342SOL    HW2 4926   2.762   5.624   6.660
 1343SOL     OW 4927   5.465   5.530   2.447
 1343SOL    HW1 4928   5.404   5.458   2.414
 1343SOL    HW2 4929   5.488   5.592   2.372
 1344SOL     OW 4930   0.576   6.263   4.233
 1344SOL    HW1 4931   0.593   6.201   4.309
 1344SOL    HW2 4932   0.508   6.223   4.172
 1345SOL     OW 4933   0.471   4.923   2.355
 1345SOL    HW1 4934   0.379   4.886   2.371
 1345SOL    HW2 4935   0.497   4.981   2.431
 1346SOL     OW 4936   1.864   5.572   5.706
 1346SOL    HW1 4937   1.779   5.614   5.674
 1346SOL    HW2 4938   1.851   5.473   5.715
 1347SOL     OW 4939   0.150   6.503   6.048
 1347SOL    HW1 4940   0.118   6.419   6.004
 1347SOL    HW2 4941   0.075   6.570   6.051
 1348SOL     OW 4942   6.747   6.226   4.800
 1348SOL    HW1 4943   6.685   6.148   4.805
 1348SOL    HW2 4944   6.830   6.199   4.750
 1349SOL     OW 4945   5.738   2.823   4.720
 1349SOL    HW1 4946   5.653   2.859   4.681
 1349SOL    HW2 4947   5.803   2.898   4.732
 1350SOL     OW 4948   5.437   5.108   5.239
 1350SOL    HW1 4949   5.508   5.071   5.179
 1350SOL    HW2 4950   5.393   5.033   5.288
 1351SOL     OW 4951   5.398   2.396   3.971
 1351SOL    HW1 4952   5.459   2.470   4.002
 1351SOL    HW2 4953   5.363   2.418   3.880
 1352SOL     OW 4954   6.184   5.828   4.728
 1352SOL    HW1 4955   6.271   5.870   4.753
 1352SOL    HW2 4956   6.123   5.898   4.691
 1353SOL     OW 4957   0.522   2.681   0.513
 1353SOL    HW1 4958   0.465   2.633   0.580
 1353SOL    HW2 4959   0.535   2.622   0.433
 1354SOL     OW 4960   0.171   4.655   1.670
 1354SOL    HW1 4961   0.125   4.718   1.608
 1354SOL    HW2 4962   0.117   4.570   1.676
 1355SOL     OW 4963   6.308   4.000   4.554
 1355SOL    HW1 4964   6.264   4.088   4.536
 1355SOL    HW2 4965   6.404   4.014   4.577
 1356SOL     OW 4966   3.703   3.093   2.058
 1356SOL    HW1 4967   3.659   3.004   2.070
 1356SOL    HW2 4968   3.737   3.125   2.146
 1357SOL     OW 4969   7.020   4.574   6.367
 1357SOL    HW1 4970   0.055   4.640   6.324
 1357SOL    HW2 4971   0.041   4.486   6.377
 1358SOL     OW 4972   6.006   6.265   6.657
 1358SOL    HW1 4973   5.982   6.177   6.614
 1358SOL    HW2 4974   6.001   6.338   6.589
 1359SOL     OW 4975   6.038   4.751   2.364
 1359SOL    HW1 4976   6.115   4.689   2.384
 1359SOL    HW2 4977   6.072   4.831   2.315
 1360SOL     OW 4978   2.533   3.784   0.787
 1360SOL    HW1 4979   2.616   3.751   0.741
 1360SOL    HW2 4980   2.471   3.823   0.720
 1361SOL     OW 4981   6.343   5.112   5.212
 1361SOL    HW1 4982   6.421   5.169   5.186
 1361SOL    HW2 4983   6.357   5.019   5.181
 1362SOL     OW 4984   4.088   3.440   3.435
 1362SOL    HW1 4985   4.027   3.517   3.452
 1362SOL    HW2 4986   4.168   3.446   3.494
 1363SOL     OW 4987   0.387   5.041   4.540
 1363SOL    HW1 4988   0.437   5.006   4.461
 1363SOL    HW2 4989   0.430   5.127   4.570
 1364SOL     OW 4990   5.498   3.900   0.384
 1364SOL    HW1 4991   5.521   3.844   0.304
 1364SOL    HW2 4992   5.422   3.961   0.360
 1365SOL     OW 4993   0.217   4.394   6.516
 1365SOL    HW1 4994   0.199   4.417   6.611
 1365SOL    HW2 4995   0.256   4.473   6.469
 1366SOL     OW 4996   1.323   6.002   6.163
 1366SOL    HW1 4997   1.357   6.049   6.082
 1366SOL    HW2 4998   1.227   5.978   6.151
 1367SOL     OW 4999   2.219   6.849   2.456
 1367SOL    HW1 5000   2.202   6.930   2.399
 1367SOL    HW2 5001   2.136   6.827   2.507
 1368SOL     OW 5002   5.180   7.025   4.254
 1368SOL    HW1 5003   5.271   0.004   4.294
 1368SOL    HW2 5004   5.118   6.982   4.319
 1369SOL     OW 5005   1.652   6.512   3.034
 1369SOL    HW1 5006   1.621   6.514   3.129
 1369SOL    HW2 5007   1.640   6.420   2.997
 1370SOL     OW 5008   3.734   1.009   2.123
 1370SOL    HW1 5009   3.656   0.967   2.078
 1370SOL    HW2 5010   3.773   1.080   2.064
 1371SOL     OW 5011   5.088   1.476   4.363
 1371SOL    HW1 5012   4.992   1.501   4.355
 1371SOL    HW2 5013   5.145   1.555   4.341
 1372SOL     OW 5014   1.698   2.899   0.690
 1372SOL    HW1 5015   1.788   2.869   0.718
 1372SOL    HW2 5016   1.673   2.855   0.603
 1373SOL     OW 5017   6.237   4.238   0.310
 1373SOL    HW1 5018   6.238   4.336   0.334
 1373SOL    HW2 5019   6.157   4.218   0.253
 1374SOL     OW 5020   3.725   2.418   0.654
 1374SOL    HW1 5021   3.724   2.401   0.753
 1374SOL    HW2 5022   3.754   2.334   0.607
 1375SOL     OW 5023   6.945   4.827   6.097
 1375SOL    HW1 5024   6.865   4.768   6.108
 1375SOL    HW2 5025   6.915   4.922   6.084
 1376SOL     OW 5026   5.265   3.205   3.513
 1376SOL    HW1 5027   5.174   3.217   3.553
 1376SOL    HW2 5028   5.256   3.195   3.413
 1377SOL     OW 5029   6.753   3.742   5.674
 1377SOL    HW1 5030   6.759   3.679   5.597
 1377SOL    HW2 5031   6.763   3.836   5.642
 1378SOL     OW 5032   6.388   2.004   5.016
 1378SOL    HW1 5033   6.443   2.051   4.946
 1378SOL    HW2 5034   6.425   2.026   5.107
 1379SOL     OW 5035   3.468   6.526   2.381
 1379SOL    HW1 5036   3.401   6.581   2.330
 1379SOL    HW2 5037   3.525   6.475   2.317
 1380SOL     OW 5038   6.952   6.886   2.463
 1380SOL    HW1 5039   0.006   6.944   2.455
 1380SOL    HW2 5040   6.956   6.835   2.549
 1381SOL     OW 5041   5.608   2.902   0.306
 1381SOL    HW1 5042   5.562   2.887   0.394
 1381SOL    HW2 5043   5.689   2.844   0.301
 1382SOL     OW 5044   6.130   5.391   6.946
 1382SOL    HW1 5045   6.117   5.352   0.011
 1382SOL    HW2 5046   6.061   5.354   6.884
 1383SOL     OW 5047   1.445   0.918   0.343
 1383SOL    HW1 5048   1.429   0.986   0.414
 1383SOL    HW2 5049   1.396   0.944   0.260
 1384SOL     OW 5050   3.882   1.608   3.249
 1384SOL    HW1 5051   3.868   1.530   3.187
 1384SOL    HW2 5052   3.852   1.692   3.205
 1385SOL     OW 5053   0.172   3.107   2.690
 1385SOL    HW1 5054   0.251   3.165   2.709
 1385SOL    HW2 5055   0.186   3.057   2.604
 1386SOL     OW 5056   2.115   2.459   4.391
 1386SOL    HW1 5057   2.089   2.389   4.457
 1386SOL    HW2 5058   2.074   2.546   4.417
 1387SOL     OW 5059   3.726   0.977   3.811
 1387SOL    HW1 5060   3.631   0.946   3.815
 1387SOL    HW2 5061   3.773   0.953   3.896
 1388SOL     OW 5062   6.613   6.701   4.382
 1388SOL    HW1 5063   6.626   6.740   4.473
 1388SOL    HW2 5064   6.659   6.613   4.377
 1389SOL     OW 5065   0.499   0.865   3.493
 1389SOL    HW1 5066   0.513   0.814   3.578
 1389SOL    HW2 5067   0.409   0.907   3.493
 1390SOL     OW 5068   4.438   1.354   6.969
 1390SOL    HW1 5069   4.341   1.377   6.974
 1390SOL    HW2 5070   4.492   1.425   7.013
 1391SOL     OW 5071   6.069   1.676   5.825
 1391SOL    HW1 5072   5.970   1.683   5.837
 1391SOL    HW2 5073   6.112   1.763   5.850
 1392SOL     OW 5074   4.724   5.802   6.092
 1392SOL    HW1 5075   4.677   5.714   6.103
 1392SOL    HW2 5076   4.718   5.854   6.177
 1393SOL     OW 5077   6.339   2.462   6.808
 1393SOL    HW1 5078   6.415   2.402   6.832
 1393SOL    HW2 5079   6.270   2.411   6.758
 1394SOL     OW 5080   4.461   6.682   4.192
 1394SOL    HW1 5081   4.484   6.730   4.107
 1394SOL    HW2 5082   4.429   6.748   4.260
 1395SOL     OW 5083   0.344   3.807   2.503
 1395SOL    HW1 5084   0.432   3.760   2.503
 1395SOL    HW2 5085   0.286   3.771   2.577
 1396SOL     OW 5086   1.766   0.513   4.270
 1396SOL    HW1 5087   1.842   0.457   4.237
 1396SOL    HW2 5088   1.694   0.454   4.305
 1397SOL     OW 5089   0.287   5.930   5.344
 1397SOL    HW1 5090   0.313   5.851   5.290
 1397SOL    HW2 5091   0.368   5.985   5.365
 1398SOL     OW 5092   1.735   1.134   0.459
 1398SOL    HW1 5093   1.734   1.037   0.433
 1398SOL    HW2 5094   1.809   1.149   0.525
 1399SOL     OW 5095   4.000   0.556   0.754
 1399SOL    HW1 5096   4.090   0.544   0.798
 1399SOL    HW2 5097   4.011   0.555   0.655
 1400SOL     OW 5098   6.817   0.805   4.375
 1400SOL    HW1 5099   6.812   0.730   4.441
 1400SOL    HW2 5100   6.897   0.794   4.317
 1401SOL     OW 5101   5.672   0.008   4.205
 1401SOL    HW1 5102   5.762   7.014   4.165
 1401SOL    HW2 5103   5.613   6.954   4.195
 1402SOL     OW 5104   5.921   4.038   0.486
 1402SOL    HW1 5105   5.928   3.940   0.499
 1402SOL    HW2 5106   6.013   4.078   0.481
 1403SOL     OW 5107   3.267   3.328   0.455
 1403SOL    HW1 5108   3.207   3.408   0.460
 1403SOL    HW2 5109   3.212   3.244   0.458
 1404SOL     OW 5110   4.854   0.244   1.278
 1404SOL    HW1 5111   4.817   0.167   1.226
 1404SOL    HW2 5112   4.936   0.215   1.327
 1405SOL     OW 5113   1.602   3.695   1.301
 1405SOL    HW1 5114   1.613   3.777   1.356
 1405SOL    HW2 5115   1.541   3.631   1.348
 1406SOL     OW 5116   2.143   3.810   1.503
 1406SOL    HW1 5117   2.211   3.779   1.569
 1406SOL    HW2 5118   2.085   3.880   1.545
 1407SOL     OW 5119   0.568   3.517   1.767
 1407SOL    HW1 5120   0.506   3.590   1.737
 1407SOL    HW2 5121   0.579   3.450   1.694
 1408SOL     OW 5122   6.319   6.057   6.996
 1408SOL    HW1 5123   6.273   5.983   6.948
 1408SOL    HW2 5124   6.410   6.026   7.025
 1409SOL     OW 5125   6.855   1.663   5.462
 1409SOL    HW1 5126   6.851   1.751   5.508
 1409SOL    HW2 5127   6.901   1.672   5.374
 1410SOL     OW 5128   2.225   3.213   6.152
 1410SOL    HW1 5129   2.242   3.147   6.224
 1410SOL    HW2 5130   2.291   3.200   6.078
 1411SOL     OW 5131   3.441   6.401   6.837
 1411SOL    HW1 5132   3.388   6.399   6.921
 1411SOL    HW2 5133   3.399   6.466   6.773
 1412SOL     OW 5134   0.655   3.262   0.849
 1412SOL    HW1 5135   0.727   3.300   0.791
 1412SOL    HW2 5136   0.588   3.215   0.792
 1413SOL     OW 5137   1.998   2.265   4.575
 1413SOL    HW1 5138   2.077   2.209   4.547
 1413SOL    HW2 5139   1.914   2.220   4.546
 1414SOL     OW 5140   1.188   3.281   1.829
 1414SOL    HW1 5141   1.210   3.213   1.760
 1414SOL    HW2 5142   1.249   3.359   1.821
 1415SOL     OW 5143   2.522   2.053   4.660
 1415SOL    HW1 5144   2.541   2.148   4.685
 1415SOL    HW2 5145   2.595   1.994   4.695
 1416SOL     OW 5146   3.941   0.377   4.942
 1416SOL    HW1 5147   4.023   0.371   4.885
 1416SOL    HW2 5148   3.875   0.440   4.900
 1417SOL     OW 5149   2.891   3.523   6.317
 1417SOL    HW1 5150   2.886   3.545   6.220
 1417SOL    HW2 5151   2.964   3.457   6.333
 1418SOL     OW 5152   3.591   3.937   0.180
 1418SOL    HW1 5153   3.495   3.911   0.167
 1418SOL    HW2 5154   3.600   4.036   0.164
 1419SOL     OW 5155   1.507   4.932   4.299
 1419SOL    HW1 5156   1.557   4.845   4.294
 1419SOL    HW2 5157   1.500   4.971   4.207
 1420SOL     OW 5158   4.032   5.111   2.477
 1420SOL    HW1 5159   4.113   5.054   2.490
 1420SOL    HW2 5160   3.993   5.135   2.566
 1421SOL     OW 5161   0.653   4.625   4.821
 1421SOL    HW1 5162   0.697   4.586   4.740
 1421SOL    HW2 5163   0.620   4.717   4.798
 1422SOL     OW 5164   2.594   4.205   5.644
 1422SOL    HW1 5165   2.617   4.277   5.579
 1422SOL    HW2 5166   2.555   4.245   5.727
 1423SOL     OW 5167   4.432   1.571   4.710
 1423SOL    HW1 5168   4.356   1.514   4.743
 1423SOL    HW2 5169   4.421   1.587   4.612
 1424SOL     OW 5170   6.294   3.271   6.264
 1424SOL    HW1 5171   6.300   3.248   6.167
 1424SOL    HW2 5172   6.386   3.278   6.302
 1425SOL     OW 5173   3.274   6.326   5.168
 1425SOL    HW1 5174   3.224   6.256   5.219
 1425SOL    HW2 5175   3.241   6.417   5.194
 1426SOL     OW 5176   2.102   1.458   6.780
 1426SOL    HW1 5177   2.197   1.475   6.754
 1426SOL    HW2 5178   2.050   1.433   6.698
 1427SOL     OW 5179   1.185   0.326   3.314
 1427SOL    HW1 5180   1.260   0.380   3.353
 1427SOL    HW2 5181   1.160   0.253   3.378
 1428SOL     OW 5182   0.521   2.410   2.007
 1428SOL    HW1 5183   0.471   2.451   2.083
 1428SOL    HW2 5184   0.571   2.481   1.957
 1429SOL     OW 5185   6.147   1.580   6.698
 1429SOL    HW1 5186   6.219   1.647   6.713
 1429SOL    HW2 5187   6.108   1.552   6.785
 1430SOL     OW 5188   2.783   4.721   4.082
 1430SOL    HW1 5189   2.723   4.796   4.106
 1430SOL    HW2 5190   2.779   4.650   4.153
 1431SOL     OW 5191   2.996   1.453   5.782
 1431SOL    HW1 5192   2.976   1.369   5.732
 1431SOL    HW2 5193   3.020   1.525   5.718
 1432SOL     OW 5194   2.506   1.525   0.573
 1432SOL    HW1 5195   2.534   1.553   0.481
 1432SOL    HW2 5196   2.555   1.442   0.600
 1433SOL     OW 5197   3.011   0.713   3.338
 1433SOL    HW1 5198   3.105   0.680   3.335
 1433SOL    HW2 5199   2.951   0.645   3.296
 1434SOL     OW 5200   0.209   2.444   6.981
 1434SOL    HW1 5201   0.169   2.360   7.017
 1434SOL    HW2 5202   0.239   2.429   6.887
 1435SOL     OW 5203   0.868   6.834   3.591
 1435SOL    HW1 5204   0.896   6.775   3.515
 1435SOL    HW2 5205   0.779   6.805   3.625
 1436SOL     OW 5206   5.918   3.328   0.710
 1436SOL    HW1 5207   5.838   3.269   0.718
 1436SOL    HW2 5208   6.000   3.272   0.706
 1437SOL     OW 5209   4.716   1.409   6.122
 1437SOL    HW1 5210   4.733   1.335   6.057
 1437SOL    HW2 5211   4.802   1.445   6.157
 1438SOL     OW 5212   2.716   0.952   1.383
 1438SOL    HW1 5213   2.714   1.028   1.448
 1438SOL    HW2 5214   2.683   0.869   1.427
 1439SOL     OW 5215   0.531   5.910   0.206
 1439SOL    HW1 5216   0.556   5.923   0.301
 1439SOL    HW2 5217   0.594   5.961   0.147
 1440SOL     OW 5218   3.226   3.486   3.954
 1440SOL    HW1 5219   3.151   3.515   4.014
 1440SOL    HW2 5220   3.198   3.499   3.859
 1441SOL     OW 5221   6.558   3.588   3.738
 1441SOL    HW1 5222   6.536   3.615   3.644
 1441SOL    HW2 5223   6.619   3.508   3.737
 1442SOL     OW 5224   5.568   4.568   0.674
 1442SOL    HW1 5225   5.470   4.551   0.672
 1442SOL    HW2 5226   5.617   4.485   0.649
 1443SOL     OW 5227   0.870   0.422   3.728
 1443SOL    HW1 5228   0.889   0.497   3.792
 1443SOL    HW2 5229   0.772   0.410   3.718
 1444SOL     OW 5230   4.508   6.383   3.121
 1444SOL    HW1 5231   4.499   6.325   3.202
 1444SOL    HW2 5232   4.582   6.449   3.136
 1445SOL     OW 5233   0.592   2.510   1.609
 1445SOL    HW1 5234   0.653   2.461   1.671
 1445SOL    HW2 5235   0.501   2.468   1.611
 1446SOL     OW 5236   4.495   2.062   0.377
 1446SOL    HW1 5237   4.588   2.072   0.342
 1446SOL    HW2 5238   4.430   2.088   0.305
 1447SOL     OW 5239   6.710   0.918   5.277
 1447SOL    HW1 5240   6.719   0.878   5.185
 1447SOL    HW2 5241   6.796   0.907   5.326
 1448SOL     OW 5242   6.175   1.759   0.599
 1448SOL    HW1 5243   6.151   1.665   0.576
 1448SOL    HW2 5244   6.148   1.779   0.693
 1449SOL     OW 5245   5.860   6.493   0.633
 1449SOL    HW1 5246   5.918   6.571   0.657
 1449SOL    HW2 5247   5.885   6.414   0.688
 1450SOL     OW 5248   5.935   2.883   2.864
 1450SOL    HW1 5249   5.933   2.819   2.940
 1450SOL    HW2 5250   5.863   2.861   2.798
 1451SOL     OW 5251   2.527   6.654   2.837
 1451SOL    HW1 5252   2.524   6.740   2.786
 1451SOL    HW2 5253   2.617   6.611   2.824
 1452SOL     OW 5254   5.330   0.452   4.743
 1452SOL    HW1 5255   5.270   0.452   4.823
 1452SOL    HW2 5256   5.286   0.404   4.668
 1453SOL     OW 5257   5.393   3.803   5.053
 1453SOL    HW1 5258   5.385   3.779   5.150
 1453SOL    HW2 5259   5.322   3.757   5.001
 1454SOL     OW 5260   5.382   2.633   1.932
 1454SOL    HW1 5261   5.289   2.602   1.915
 1454SOL    HW2 5262   5.380   2.718   1.985
 1455SOL     OW 5263   0.962   0.514   1.842
 1455SOL    HW1 5264   0.933   0.599   1.886
 1455SOL    HW2 5265   1.049   0.528   1.794
 1456SOL     OW 5266   0.011   6.712   5.120
 1456SOL    HW1 5267   0.013   6.636   5.055
 1456SOL    HW2 5268   0.104   6.737   5.145
 1457SOL     OW 5269   1.350   0.005   3.342
 1457SOL    HW1 5270   1.336   7.026   3.243
 1457SOL    HW2 5271   1.448   0.011   3.362
 1458SOL     OW 5272   4.984   0.113   5.148
 1458SOL    HW1 5273   4.981   0.013   5.143
 1458SOL    HW2 5274   4.998   0.141   5.243
 1459SOL     OW 5275   2.766   6.062   6.695
 1459SOL    HW1 5276   2.834   6.081   6.765
 1459SOL    HW2 5277   2.691   6.128   6.701
 1460SOL     OW 5278   0.174   6.507   6.874
 1460SOL    HW1 5279   0.099   6.571   6.888
 1460SOL    HW2 5280   0.139   6.413   6.877
 1461SOL     OW 5281   6.526   4.453   3.416
 1461SOL    HW1 5282   6.505   4.505   3.333
 1461SOL    HW2 5283   6.457   4.472   3.486
 1462SOL     OW 5284   6.591   1.388   0.424
 1462SOL    HW1 5285   6.613   1.457   0.493
 1462SOL    HW2 5286   6.624   1.299   0.455
 1463SOL     OW 5287   0.739   0.267   5.328
 1463SOL    HW1 5288   0.746   0.208   5.408
 1463SOL    HW2 5289   0.643   0.275   5.301
 1464SOL     OW 5290   0.330   6.919   0.343
 1464SOL    HW1 5291   0.287   6.869   0.267
 1464SOL    HW2 5292   0.388   6.992   0.306
 1465SOL     OW 5293   0.778   1.126   3.306
 1465SOL    HW1 5294   0.827   1.066   3.369
 1465SOL    HW2 5295   0.794   1.096   3.212
 1466SOL     OW 5296   6.979   6.251   2.536
 1466SOL    HW1 5297   6.985   6.326   2.602
 1466SOL    HW2 5298   7.026   6.170   2.573
 1467SOL     OW 5299   1.643   0.385   2.982
 1467SOL    HW1 5300   1.704   0.407   2.906
 1467SOL    HW2 5301   1.694   0.386   3.068
 1468SOL     OW 5302   5.660   5.871   3.200
 1468SOL    HW1 5303   5.732   5.805   3.181
 1468SOL    HW2 5304   5.605   5.839   3.277
 1469SOL     OW 5305   0.202   0.487   2.823
 1469SOL    HW1 5306   0.188   0.413   2.756
 1469SOL    HW2 5307   0.253   0.452   2.901
 1470SOL     OW 5308   1.419   0.578   2.696
 1470SOL    HW1 5309   1.431   0.624   2.784
 1470SOL    HW2 5310   1.508   0.547   2.662
 1471SOL     OW 5311   6.465   0.803   6.336
 1471SOL    HW1 5312   6.482   0.901   6.341
 1471SOL    HW2 5313   6.506   0.758   6.415
 1472SOL     OW 5314   4.732   6.233   4.671
 1472SOL    HW1 5315   4.810   6.211   4.729
 1472SOL    HW2 5316   4.692   6.148   4.635
 1473SOL     OW 5317   5.878   5.714   3.159
 1473SOL    HW1 5318   5.905   5.618   3.168
 1473SOL    HW2 5319   5.919   5.753   3.076
 1474SOL     OW 5320   5.916   5.586   4.039
 1474SOL    HW1 5321   5.933   5.567   3.943
 1474SOL    HW2 5322   5.911   5.685   4.053
 1475SOL     OW 5323   0.289   0.416   1.781
 1475SOL    HW1 5324   0.368   0.439   1.725
 1475SOL    HW2 5325   0.215   0.381   1.722
 1476SOL     OW 5326   1.142   0.989   1.811
 1476SOL    HW1 5327   1.159   0.906   1.864
 1476SOL    HW2 5328   1.133   1.067   1.873
 1477SOL     OW 5329   3.270   0.638   5.908
 1477SOL    HW1 5330   3.194   0.607   5.851
 1477SOL    HW2 5331   3.338   0.686   5.851
 1478SOL     OW 5332   6.064   4.702   0.904
 1478SOL    HW1 5333   6.047   4.796   0.875
 1478SOL    HW2 5334   6.047   4.640   0.827
 1479SOL     OW 5335   1.319   4.742   0.470
 1479SOL    HW1 5336   1.346   4.765   0.377
 1479SOL    HW2 5337   1.344   4.647   0.490
 1480SOL     OW 5338   2.223   1.182   6.681
 1480SOL    HW1 5339   2.261   1.260   6.729
 1480SOL    HW2 5340   2.264   1.174   6.590
 1481SOL     OW 5341   5.605   1.768   4.890
 1481SOL    HW1 5342   5.524   1.821   4.868
 1481SOL    HW2 5343   5.687   1.820   4.866
 1482SOL     OW 5344   6.004   1.508   1.262
 1482SOL    HW1 5345   6.076   1.565   1.302
 1482SOL    HW2 5346   6.002   1.521   1.163
 1483SOL     OW 5347   6.940   2.987   0.025
 1483SOL    HW1 5348   6.929   3.087   0.026
 1483SOL    HW2 5349   6.860   2.946   7.007
 1484SOL     OW 5350   6.615   4.147   3.058
 1484SOL    HW1 5351   6.526   4.165   3.014
 1484SOL    HW2 5352   6.675   4.226   3.046
 1485SOL     OW 5353   5.235   2.762   2.372
 1485SOL    HW1 5354   5.303   2.832   2.347
 1485SOL    HW2 5355   5.152   2.775   2.317
 1486SOL     OW 5356   4.685   2.263   3.486
 1486SOL    HW1 5357   4.607   2.267   3.424
 1486SOL    HW2 5358   4.755   2.328   3.455
 1487SOL     OW 5359   6.754   1.666   6.866
 1487SOL    HW1 5360   6.751   1.612   6.782
 1487SOL    HW2 5361   6.661   1.683   6.899
 1488SOL     OW 5362   4.761   2.040   2.956
 1488SOL    HW1 5363   4.749   1.951   2.913
 1488SOL    HW2 5364   4.671   2.079   2.979
 1489SOL     OW 5365   3.827   4.846   4.393
 1489SOL    HW1 5366   3.733   4.847   4.359
 1489SOL    HW2 5367   3.827   4.840   4.492
 1490SOL     OW 5368   1.179   1.821   0.660
 1490SOL    HW1 5369   1.143   1.728   0.671
 1490SOL    HW2 5370   1.133   1.883   0.723
 1491SOL     OW 5371   6.310   4.152   3.474
 1491SOL    HW1 5372   6.227   4.209   3.471
 1491SOL    HW2 5373   6.342   4.145   3.568
 1492SOL     OW 5374   5.203   2.068   1.951
 1492SOL    HW1 5375   5.111   2.050   1.916
 1492SOL    HW2 5376   5.233   1.990   2.007
 1493SOL     OW 5377   4.614   6.889   4.673
 1493SOL    HW1 5378   4.699   6.836   4.684
 1493SOL    HW2 5379   4.620   6.944   4.590
 1494SOL     OW 5380   3.594   2.794   5.391
 1494SOL    HW1 5381   3.649   2.818   5.311
 1494SOL    HW2 5382   3.536   2.716   5.369
 1495SOL     OW 5383   0.215   3.345   3.141
 1495SOL    HW1 5384   0.149   3.269   3.144
 1495SOL    HW2 5385   0.219   3.388   3.231
 1496SOL     OW 5386   0.472   0.595   1.548
 1496SOL    HW1 5387   0.414   0.663   1.592
 1496SOL    HW2 5388   0.558   0.586   1.599
 1497SOL     OW 5389   0.347   5.077   4.097
 1497SOL    HW1 5390   0.309   5.089   4.189
 1497SOL    HW2 5391   0.438   5.118   4.093
 1498SOL     OW 5392   2.399   4.826   6.426
 1498SOL    HW1 5393   2.491   4.791   6.410
 1498SOL    HW2 5394   2.341   4.803   6.348
 1499SOL     OW 5395   1.137   4.206   4.880
 1499SOL    HW1 5396   1.183   4.167   4.800
 1499SOL    HW2 5397   1.178   4.167   4.963
 1500SOL     OW 5398   6.040   7.004   1.027
 1500SOL    HW1 5399   5.948   7.026   1.060
 1500SOL    HW2 5400   6.078   0.057   0.979
 1501SOL     OW 5401   3.888   0.669   6.768
 1501SOL    HW1 5402   3.949   0.660   6.847
 1501SOL    HW2 5403   3.868   0.766   6.752
 1502SOL     OW 5404   6.614   6.625   0.149
 1502SOL    HW1 5405   6.517   6.643   0.134
 1502SOL    HW2 5406   6.653   6.580   0.069
 1503SOL     OW 5407   1.992   2.667   1.097
 1503SOL    HW1 5408   1.919   2.667   1.029
 1503SOL    HW2 5409   2.015   2.572   1.122
 1504SOL     OW 5410   2.492   0.186   4.668
 1504SOL    HW1 5411   2.487   0.178   4.768
 1504SOL    HW2 5412   2.406   0.221   4.633
 1505SOL     OW 5413   5.004   0.424   5.934
 1505SOL    HW1 5414   5.030   0.376   6.018
 1505SOL    HW2 5415   4.907   0.448   5.938
 1506SOL     OW 5416   1.212   4.807   3.563
 1506SOL    HW1 5417   1.133   4.766   3.609
 1506SOL    HW2 5418   1.287   4.818   3.628
 1507SOL     OW 5419   1.584   1.350   4.579
 1507SOL    HW1 5420   1.661   1.339   4.642
 1507SOL    HW2 5421   1.601   1.429   4.520
 1508SOL     OW 5422   4.782   0.055   0.766
 1508SOL    HW1 5423   4.687   0.033   0.745
 1508SOL    HW2 5424   4.843   7.015   0.722
 1509SOL     OW 5425   4.494   2.380   6.709
 1509SOL    HW1 5426   4.424   2.445   6.681
 1509SOL    HW2 5427   4.540   2.342   6.629
 1510SOL     OW 5428   6.415   2.616   4.187
 1510SOL    HW1 5429   6.370   2.568   4.263
 1510SOL    HW2 5430   6.431   2.711   4.212
 1511SOL     OW 5431   2.383   1.402   6.728
 1511SOL    HW1 5432   2.444   1.400   6.807
 1511SOL    HW2 5433   2.409   1.477   6.667
 1512SOL     OW 5434   6.591   6.794   2.111
 1512SOL    HW1 5435   6.528   6.718   2.127
 1512SOL    HW2 5436   6.640   6.816   2.195
 1513SOL     OW 5437   3.969   0.636   3.637
 1513SOL    HW1 5438   3.954   0.539   3.615
 1513SOL    HW2 5439   3.907   0.663   3.711
 1514SOL     OW 5440   5.234   1.719   5.144
 1514SOL    HW1 5441   5.260   1.706   5.239
 1514SOL    HW2 5442   5.225   1.630   5.100
 1515SOL     OW 5443   6.747   3.604   5.449
 1515SOL    HW1 5444   6.813   3.598   5.374
 1515SOL    HW2 5445   6.689   3.523   5.449
 1516SOL     OW 5446   0.935   1.012   1.024
 1516SOL    HW1 5447   0.910   0.993   0.929
 1516SOL    HW2 5448   0.915   0.932   1.081
 1517SOL     OW 5449   4.302   5.368   4.027
 1517SOL    HW1 5450   4.279   5.397   3.934
 1517SOL    HW2 5451   4.390   5.321   4.026
 1518SOL     OW 5452   6.838   4.133   6.866
 1518SOL    HW1 5453   6.806   4.051   6.915
 1518SOL    HW2 5454   6.825   4.213   6.923
 1519SOL     OW 5455   0.173   4.188   1.140
 1519SOL    HW1 5456   0.211   4.128   1.210
 1519SOL    HW2 5457   0.093   4.236   1.177
 1520SOL     OW 5458   2.127   3.295   2.426
 1520SOL    HW1 5459   2.134   3.308   2.525
 1520SOL    HW2 5460   2.165   3.207   2.400
 1521SOL     OW 5461   1.824   3.240   0.125
 1521SOL    HW1 5462   1.832   3.336   0.153
 1521SOL    HW2 5463   1.892   3.186   0.173
 1522SOL     OW 5464   6.725   1.812   6.193
 1522SOL    HW1 5465   6.719   1.898   6.243
 1522SOL    HW2 5466   6.752   1.831   6.098
 1523SOL     OW 5467   5.319   3.505   6.450
 1523SOL    HW1 5468   5.343   3.480   6.544
 1523SOL    HW2 5469   5.226   3.475   6.431
 1524SOL     OW 5470   1.169   1.638   1.732
 1524SOL    HW1 5471   1.091   1.700   1.745
 1524SOL    HW2 5472   1.195   1.638   1.635
 1525SOL     OW 5473   4.586   1.674   5.712
 1525SOL    HW1 5474   4.681   1.702   5.730
 1525SOL    HW2 5475   4.524   1.749   5.735
 1526SOL     OW 5476   0.435   1.061   0.873
 1526SOL    HW1 5477   0.501   1.116   0.923
 1526SOL    HW2 5478   0.455   0.964   0.888
 1527SOL     OW 5479   3.119   1.703   4.938
 1527SOL    HW1 5480   3.137   1.667   5.029
 1527SOL    HW2 5481   3.071   1.634   4.884
 1528SOL     OW 5482   5.014   6.151   2.499
 1528SOL    HW1 5483   5.109   6.144   2.467
 1528SOL    HW2 5484   4.971   6.061   2.494
 1529SOL     OW 5485   4.957   1.047   6.069
 1529SOL    HW1 5486   4.904   1.121   6.027
 1529SOL    HW2 5487   4.914   0.960   6.048
 1530SOL     OW 5488   2.918   6.665   1.441
 1530SOL    HW1 5489   2.862   6.699   1.366
 1530SOL    HW2 5490   2.887   6.573   1.467
 1531SOL     OW 5491   5.666   0.956   5.245
 1531SOL    HW1 5492   5.660   0.954   5.145
 1531SOL    HW2 5493   5.746   1.009   5.273
 1532SOL     OW 5494   2.969   2.151   4.703
 1532SOL    HW1 5495   3.046   2.184   4.648
 1532SOL    HW2 5496   2.889   2.139   4.645
 1533SOL     OW 5497   0.060   3.112   6.380
 1533SOL    HW1 5498   0.118   3.180   6.335
 1533SOL    HW2 5499   0.116   3.055   6.440
 1534SOL     OW 5500   2.055   5.375   0.236
 1534SOL    HW1 5501   1.989   5.324   0.181
 1534SOL    HW2 5502   2.089   5.317   0.310
 1535SOL     OW 5503   5.353   5.118   4.465
 1535SOL    HW1 5504   5.308   5.098   4.552
 1535SOL    HW2 5505   5.424   5.187   4.479
 1536SOL     OW 5506   3.176   5.200   4.256
 1536SOL    HW1 5507   3.199   5.113   4.299
 1536SOL    HW2 5508   3.256   5.259   4.255
 1537SOL     OW 5509   3.222   5.284   3.597
 1537SOL    HW1 5510   3.213   5.327   3.687
 1537SOL    HW2 5511   3.258   5.191   3.608
 1538SOL     OW 5512   3.191   4.983   6.329
 1538SOL    HW1 5513   3.238   5.068   6.308
 1538SOL    HW2 5514   3.146   4.948   6.247
 1539SOL     OW 5515   3.595   4.242   1.499
 1539SOL    HW1 5516   3.536   4.260   1.577
 1539SOL    HW2 5517   3.541   4.241   1.415
 1540SOL     OW 5518   1.344   0.221   4.573
 1540SOL    HW1 5519   1.292   0.306   4.562
 1540SOL    HW2 5520   1.302   0.149   4.517
 1541SOL     OW 5521   4.315   2.588   1.062
 1541SOL    HW1 5522   4.251   2.522   1.023
 1541SOL    HW2 5523   4.400   2.586   1.010
 1542SOL     OW 5524   6.917   5.852   2.138
 1542SOL    HW1 5525   7.000   5.881   2.089
 1542SOL    HW2 5526   6.911   5.753   2.137
 1543SOL     OW 5527   3.432   3.344   3.259
 1543SOL    HW1 5528   3.351   3.300   3.220
 1543SOL    HW2 5529   3.474   3.283   3.326
 1544SOL     OW 5530   3.148   3.928   2.152
 1544SOL    HW1 5531   3.076   3.911   2.219
 1544SOL    HW2 5532   3.213   3.995   2.189
 1545SOL     OW 5533   5.223   0.599   5.372
 1545SOL    HW1 5534   5.160   0.670   5.402
 1545SOL    HW2 5535   5.252   0.618   5.278
 1546SOL     OW 5536   5.684   0.493   6.326
 1546SOL    HW1 5537   5.670   0.551   6.406
 1546SOL    HW2 5538   5.606   0.502   6.265
 1547SOL     OW 5539   2.196   4.171   2.787
 1547SOL    HW1 5540   2.183   4.124   2.699
 1547SOL    HW2 5541   2.269   4.239   2.778
 1548SOL     OW 5542   4.183   4.279   5.838
 1548SOL    HW1 5543   4.124   4.199   5.852
 1548SOL    HW2 5544   4.207   4.319   5.927
 1549SOL     OW 5545   6.678   1.297   2.023
 1549SOL    HW1 5546   6.743   1.261   2.089
 1549SOL    HW2 5547   6.655   1.392   2.048
 1550SOL     OW 5548   2.884   6.801   5.624
 1550SOL    HW1 5549   2.863   6.714   5.669
 1550SOL    HW2 5550   2.982   6.818   5.628
 1551SOL     OW 5551   2.244   2.886   1.447
 1551SOL    HW1 5552   2.223   2.978   1.479
 1551SOL    HW2 5553   2.341   2.879   1.424
 1552SOL     OW 5554   1.075   7.025   0.931
 1552SOL    HW1 5555   1.023   0.071   0.886
 1552SOL    HW2 5556   1.016   6.946   0.947
 1553SOL     OW 5557   5.852   1.660   6.889
 1553SOL    HW1 5558   5.887   1.753   6.902
 1553SOL    HW2 5559   5.928   1.596   6.880
 1554SOL     OW 5560   4.165   2.208   2.846
 1554SOL    HW1 5561   4.136   2.140   2.779
 1554SOL    HW2 5562   4.238   2.264   2.807
 1555SOL     OW 5563   4.778   2.536   5.272
 1555SOL    HW1 5564   4.852   2.469   5.270
 1555SOL    HW2 5565   4.816   2.628   5.276
 1556SOL     OW 5566   3.439   0.114   0.882
 1556SOL    HW1 5567   3.374   0.186   0.856
 1556SOL    HW2 5568   3.488   0.143   0.964
 1557SOL     OW 5569   2.381   2.922   0.837
 1557SOL    HW1 5570   2.312   2.905   0.907
 1557SOL    HW2 5571   2.468   2.946   0.881
 1558SOL     OW 5572   5.823   2.308   5.298
 1558SOL    HW1 5573   5.922   2.291   5.295
 1558SOL    HW2 5574   5.775   2.230   5.258
 1559SOL     OW 5575   0.561   3.743   2.281
 1559SOL    HW1 5576   0.595   3.785   2.197
 1559SOL    HW2 5577   0.495   3.671   2.258
 1560SOL     OW 5578   3.694   1.338   0.312
 1560SOL    HW1 5579   3.729   1.247   0.334
 1560SOL    HW2 5580   3.771   1.400   0.294
 1561SOL     OW 5581   5.566   6.369   2.383
 1561SOL    HW1 5582   5.642   6.428   2.409
 1561SOL    HW2 5583   5.521   6.334   2.465
 1562SOL     OW 5584   2.573   6.393   2.136
 1562SOL    HW1 5585   2.595   6.353   2.225
 1562SOL    HW2 5586   2.657   6.408   2.084
 1563SOL     OW 5587   2.894   2.199   4.999
 1563SOL    HW1 5588   2.969   2.227   5.060
 1563SOL    HW2 5589   2.926   2.203   4.904
 1564SOL     OW 5590   1.291   1.147   2.249
 1564SOL    HW1 5591   1.335   1.219   2.303
 1564SOL    HW2 5592   1.247   1.082   2.310
 1565SOL     OW 5593   4.078   5.308   4.662
 1565SOL    HW1 5594   4.060   5.391   4.609
 1565SOL    HW2 5595   4.136   5.247   4.609
 1566SOL     OW 5596   5.526   4.623   3.630
 1566SOL    HW1 5597   5.475   4.541   3.653
 1566SOL    HW2 5598   5.478   4.703   3.665
 1567SOL     OW 5599   6.126   5.476   6.378
 1567SOL    HW1 5600   6.200   5.419   6.413
 1567SOL    HW2 5601   6.149   5.572   6.392
 1568SOL     OW 5602   2.324   6.435   3.851
 1568SOL    HW1 5603   2.367   6.451   3.763
 1568SOL    HW2 5604   2.337   6.515   3.910
 1569SOL     OW 5605   3.602   0.360   2.914
 1569SOL    HW1 5606   3.558   0.279   2.876
 1569SOL    HW2 5607   3.648   0.411   2.841
 1570SOL     OW 5608   2.867   6.844   6.583
 1570SOL    HW1 5609   2.858   6.818   6.486
 1570SOL    HW2 5610   2.795   6.801   6.636
 1571SOL     OW 5611   1.210   2.401   3.042
 1571SOL    HW1 5612   1.309   2.418   3.036
 1571SOL    HW2 5613   1.192   2.338   3.117
 1572SOL     OW 5614   1.671   5.617   1.808
 1572SOL    HW1 5615   1.659   5.699   1.754
 1572SOL    HW2 5616   1.717   5.640   1.894
 1573SOL     OW 5617   5.300   5.520   1.573
 1573SOL    HW1 5618   5.237   5.457   1.618
 1573SOL    HW2 5619   5.249   5.582   1.514
 1574SOL     OW 5620   6.093   3.197   2.108
 1574SOL    HW1 5621   6.034   3.192   2.189
 1574SOL    HW2 5622   6.185   3.166   2.132
 1575SOL     OW 5623   1.580   0.612   1.276
 1575SOL    HW1 5624   1.492   0.658   1.268
 1575SOL    HW2 5625   1.650   0.678   1.304
 1576SOL     OW 5626   0.801   6.133   2.664
 1576SOL    HW1 5627   0.814   6.199   2.591
 1576SOL    HW2 5628   0.792   6.181   2.751
 1577SOL     OW 5629   3.010   0.649   6.401
 1577SOL    HW1 5630   3.024   0.693   6.312
 1577SOL    HW2 5631   3.027   0.551   6.393
 1578SOL     OW 5632   4.925   0.876   6.792
 1578SOL    HW1 5633   4.905   0.814   6.868
 1578SOL    HW2 5634   4.840   0.899   6.745
 1579SOL     OW 5635   0.650   3.023   1.580
 1579SOL    HW1 5636   0.639   2.928   1.553
 1579SOL    HW2 5637   0.722   3.030   1.649
 1580SOL     OW 5638   3.282   4.168   3.341
 1580SOL    HW1 5639   3.370   4.192   3.299
 1580SOL    HW2 5640   3.210   4.174   3.272
 1581SOL     OW 5641   0.012   4.667   5.412
 1581SOL    HW1 5642   0.083   4.706   5.471
 1581SOL    HW2 5643   0.021   4.705   5.320
 1582SOL     OW 5644   3.785   5.704   5.002
 1582SOL    HW1 5645   3.842   5.772   4.956
 1582SOL    HW2 5646   3.723   5.662   4.935
 1583SOL     OW 5647   0.586   6.184   5.041
 1583SOL    HW1 5648   0.594   6.157   4.945
 1583SOL    HW2 5649   0.678   6.191   5.081
 1584SOL     OW 5650   1.576   4.590   6.832
 1584SOL    HW1 5651   1.597   4.580   6.929
 1584SOL    HW2 5652   1.659   4.615   6.782
 1585SOL     OW 5653   4.534   2.024   3.248
 1585SOL    HW1 5654   4.516   2.118   3.276
 1585SOL    HW2 5655   4.564   1.971   3.327
 1586SOL     OW 5656   3.429   4.909   3.060
 1586SOL    HW1 5657   3.421   4.848   3.139
 1586SOL    HW2 5658   3.379   4.994   3.079
 1587SOL     OW 5659   1.694   5.681   5.482
 1587SOL    HW1 5660   1.672   5.593   5.441
 1587SOL    HW2 5661   1.778   5.717   5.441
 1588SOL     OW 5662   4.518   0.039   2.583
 1588SOL    HW1 5663   4.426   0.018   2.616
 1588SOL    HW2 5664   4.585   0.010   2.652
 1589SOL     OW 5665   6.451   3.679   2.757
 1589SOL    HW1 5666   6.545   3.656   2.779
 1589SOL    HW2 5667   6.396   3.595   2.754
 1590SOL     OW 5668   5.659   2.043   3.543
 1590SOL    HW1 5669   5.616   2.122   3.500
 1590SOL    HW2 5670   5.745   2.022   3.496
 1591SOL     OW 5671   6.867   5.334   1.701
 1591SOL    HW1 5672   6.785   5.322   1.644
 1591SOL    HW2 5673   6.932   5.392   1.652
 1592SOL     OW 5674   1.610   4.555   0.082
 1592SOL    HW1 5675   1.603   4.534   0.179
 1592SOL    HW2 5676   1.705   4.567   0.057
 1593SOL     OW 5677   0.591   6.959   6.238
 1593SOL    HW1 5678   0.653   6.900   6.186
 1593SOL    HW2 5679   0.590   6.931   6.334
 1594SOL     OW 5680   6.612   6.931   1.586
 1594SOL    HW1 5681   6.606   0.004   1.585
 1594SOL    HW2 5682   6.664   6.902   1.667
 1595SOL     OW 5683   1.443   4.210   0.373
 1595SOL    HW1 5684   1.389   4.126   0.388
 1595SOL    HW2 5685   1.540   4.186   0.372
 1596SOL     OW 5686   6.094   3.513   2.969
 1596SOL    HW1 5687   6.095   3.414   2.961
 1596SOL    HW2 5688   6.000   3.546   2.974
 1597SOL     OW 5689   3.054   6.004   1.136
 1597SOL    HW1 5690   2.968   5.983   1.090
 1597SOL    HW2 5691   3.081   6.098   1.115
 1598SOL     OW 5692   1.230   5.330   6.593
 1598SOL    HW1 5693   1.228   5.354   6.496
 1598SOL    HW2 5694   1.144   5.358   6.636
 1599SOL     OW 5695   4.181   4.806   5.008
 1599SOL    HW1 5696   4.105   4.788   5.070
 1599SOL    HW2 5697   4.236   4.723   4.998
 1600SOL     OW 5698   2.840   0.163   2.304
 1600SOL    HW1 5699   2.834   0.226   2.227
 1600SOL    HW2 5700   2.794   0.204   2.383
 1601SOL     OW 5701   0.187   6.261   4.114
 1601SOL    HW1 5702   0.154   6.166   4.112
 1601SOL    HW2 5703   0.281   6.265   4.081
 1602SOL     OW 5704   5.081   5.252   3.964
 1602SOL    HW1 5705   5.056   5.323   4.030
 1602SOL    HW2 5706   5.128   5.178   4.012
 1603SOL     OW 5707   2.816   5.518   4.238
 1603SOL    HW1 5708   2.775   5.589   4.296
 1603SOL    HW2 5709   2.809   5.546   4.142
 1604SOL     OW 5710   4.047   4.923   1.449
 1604SOL    HW1 5711   3.978   4.992   1.425
 1604SOL    HW2 5712   4.024   4.881   1.536
 1605SOL     OW 5713   5.995   5.663   1.154
 1605SOL    HW1 5714   6.052   5.663   1.236
 1605SOL    HW2 5715   5.913   5.717   1.171
 1606SOL     OW 5716   4.144   5.261   5.448
 1606SOL    HW1 5717   4.116   5.330   5.381
 1606SOL    HW2 5718   4.200   5.192   5.402
 1607SOL     OW 5719   4.219   0.014   1.726
 1607SOL    HW1 5720   4.278   6.987   1.786
 1607SOL    HW2 5721   4.126   0.015   1.763
 1608SOL     OW 5722   6.539   0.547   3.413
 1608SOL    HW1 5723   6.611   0.615   3.426
 1608SOL    HW2 5724   6.516   0.505   3.501
 1609SOL     OW 5725   2.797   6.704   0.872
 1609SOL    HW1 5726   2.777   6.796   0.906
 1609SOL    HW2 5727   2.870   6.664   0.927
 1610SOL     OW 5728   4.639   6.442   0.686
 1610SOL    HW1 5729   4.661   6.356   0.730
 1610SOL    HW2 5730   4.693   6.452   0.602
 1611SOL     OW 5731   1.676   3.729   1.006
 1611SOL    HW1 5732   1.771   3.699   1.007
 1611SOL    HW2 5733   1.648   3.756   1.098
 1612SOL     OW 5734   2.929   6.225   1.331
 1612SOL    HW1 5735   2.879   6.149   1.374
 1612SOL    HW2 5736   3.000   6.188   1.272
 1613SOL     OW 5737   0.493   5.972   2.339
 1613SOL    HW1 5738   0.592   5.974   2.354
 1613SOL    HW2 5739   0.473   5.982   2.242
 1614SOL     OW 5740   5.492   2.057   6.122
 1614SOL    HW1 5741   5.517   2.119   6.048
 1614SOL    HW2 5742   5.573   2.035   6.176
 1615SOL     OW 5743   0.054   5.191   5.942
 1615SOL    HW1 5744   0.129   5.252   5.965
 1615SOL    HW2 5745   7.004   5.206   6.005
 1616SOL     OW 5746   3.994   0.983   4.574
 1616SOL    HW1 5747   4.074   0.954   4.626
 1616SOL    HW2 5748   3.939   0.903   4.551
 1617SOL     OW 5749   4.743   6.953   3.477
 1617SOL    HW1 5750   4.811   6.892   3.519
 1617SOL    HW2 5751   4.780   6.987   3.390
 1618SOL     OW 5752   1.415   5.805   2.330
 1618SOL    HW1 5753   1.356   5.810   2.410
 1618SOL    HW2 5754   1.399   5.718   2.282
 1619SOL     OW 5755   0.568   5.098   6.925
 1619SOL    HW1 5756   0.620   5.183   6.928
 1619SOL    HW2 5757   0.600   5.042   6.849
 1620SOL     OW 5758   3.015   5.362   1.484
 1620SOL    HW1 5759   3.003   5.460   1.495
 1620SOL    HW2 5760   3.110   5.338   1.500
 1621SOL     OW 5761   6.252   0.398   1.157
 1621SOL    HW1 5762   6.213   0.357   1.075
 1621SOL    HW2 5763   6.189   0.467   1.193
 1622SOL     OW 5764   0.015   4.006   5.814
 1622SOL    HW1 5765   0.108   3.992   5.848
 1622SOL    HW2 5766   6.979   3.942   5.859
 1623SOL     OW 5767   0.101   2.064   4.486
 1623SOL    HW1 5768   0.112   2.034   4.391
 1623SOL    HW2 5769   0.026   2.013   4.528
 1624SOL     OW 5770   4.335   1.618   6.594
 1624SOL    HW1 5771   4.363   1.649   6.685
 1624SOL    HW2 5772   4.372   1.526   6.578
 1625SOL     OW 5773   1.169   5.183   6.855
 1625SOL    HW1 5774   1.101   5.229   6.912
 1625SOL    HW2 5775   1.192   5.241   6.777
 1626SOL     OW 5776   2.862   1.386   2.073
 1626SOL    HW1 5777   2.908   1.462   2.118
 1626SOL    HW2 5778   2.779   1.418   2.027
 1627SOL     OW 5779   5.661   2.845   3.676
 1627SOL    HW1 5780   5.624   2.757   3.707
 1627SOL    HW2 5781   5.590   2.915   3.683
 1628SOL     OW 5782   4.646   5.917   6.675
 1628SOL    HW1 5783   4.627   5.921   6.773
 1628SOL    HW2 5784   4.642   6.009   6.637
 1629SOL     OW 5785   2.687   1.631   3.143
 1629SOL    HW1 5786   2.768   1.573   3.139
 1629SOL    HW2 5787   2.610   1.579   3.180
 1630SOL     OW 5788   6.629   4.241   5.660
 1630SOL    HW1 5789   6.575   4.173   5.709
 1630SOL    HW2 5790   6.634   4.216   5.563
 1631SOL     OW 5791   6.853   3.175   0.646
 1631SOL    HW1 5792   6.776   3.133   0.598
 1631SOL    HW2 5793   6.937   3.162   0.593
 1632SOL     OW 5794   4.861   4.642   2.619
 1632SOL    HW1 5795   4.799   4.656   2.542
 1632SOL    HW2 5796   4.808   4.616   2.700
 1633SOL     OW 5797   4.707   4.240   4.561
 1633SOL    HW1 5798   4.690   4.199   4.650
 1633SOL    HW2 5799   4.625   4.287   4.529
 1634SOL     OW 5800   4.447   1.034   4.315
 1634SOL    HW1 5801   4.508   0.959   4.343
 1634SOL    HW2 5802   4.450   1.044   4.216
 1635SOL     OW 5803   2.276   5.587   6.511
 1635SOL    HW1 5804   2.185   5.570   6.547
 1635SOL    HW2 5805   2.332   5.633   6.580
 1636SOL     OW 5806   3.676   5.282   1.085
 1636SOL    HW1 5807   3.656   5.320   1.175
 1636SOL    HW2 5808   3.775   5.267   1.076
 1637SOL     OW 5809   6.583   6.719   4.073
 1637SOL    HW1 5810   6.679   6.695   4.063
 1637SOL    HW2 5811   6.554   6.703   4.167
 1638SOL     OW 5812   0.270   3.034   1.505
 1638SOL    HW1 5813   0.253   3.113   1.563
 1638SOL    HW2 5814   0.331   3.061   1.430
 1639SOL     OW 5815   6.931   4.460   2.374
 1639SOL    HW1 5816   6.952   4.520   2.451
 1639SOL    HW2 5817   6.953   4.365   2.399
 1640SOL     OW 5818   6.771   0.070   0.434
 1640SOL    HW1 5819   6.823   0.126   0.370
 1640SOL    HW2 5820   6.755   7.006   0.393
 1641SOL     OW 5821   6.698   2.388   3.708
 1641SOL    HW1 5822   6.613   2.441   3.708
 1641SOL    HW2 5823   6.764   2.431   3.770
 1642SOL     OW 5824   0.355   2.785   6.345
 1642SOL    HW1 5825   0.313   2.713   6.400
 1642SOL    HW2 5826   0.454   2.779   6.351
 1643SOL     OW 5827   3.249   4.953   2.847
 1643SOL    HW1 5828   3.164   4.929   2.895
 1643SOL    HW2 5829   3.327   4.934   2.906
 1644SOL     OW 5830   5.967   2.726   6.717
 1644SOL    HW1 5831   6.010   2.793   6.778
 1644SOL    HW2 5832   5.869   2.724   6.733
 1645SOL     OW 5833   3.006   6.678   6.113
 1645SOL    HW1 5834   3.057   6.716   6.035
 1645SOL    HW2 5835   2.913   6.655   6.084
 1646SOL     OW 5836   2.186   6.312   0.486
 1646SOL    HW1 5837   2.286   6.301   0.484
 1646SOL    HW2 5838   2.145   6.257   0.414
 1647SOL     OW 5839   5.495   2.669   4.005
 1647SOL    HW1 5840   5.422   2.710   3.951
 1647SOL    HW2 5841   5.523   2.733   4.077
 1648SOL     OW 5842   5.395   6.394   0.282
 1648SOL    HW1 5843   5.431   6.301   0.288
 1648SOL    HW2 5844   5.375   6.427   0.374
 1649SOL     OW 5845   3.809   1.348   3.610
 1649SOL    HW1 5846   3.845   1.334   3.702
 1649SOL    HW2 5847   3.862   1.295   3.544
 1650SOL     OW 5848   1.144   5.324   5.685
 1650SOL    HW1 5849   1.193   5.399   5.640
 1650SOL    HW2 5850   1.167   5.323   5.783
 1651SOL     OW 5851   0.523   2.488   2.519
 1651SOL    HW1 5852   0.494   2.540   2.599
 1651SOL    HW2 5853   0.449   2.427   2.490
 1652SOL     OW 5854   1.089   3.518   2.539
 1652SOL    HW1 5855   1.010   3.481   2.491
 1652SOL    HW2 5856   1.071   3.518   2.638
 1653SOL     OW 5857   6.909   5.638   1.840
 1653SOL    HW1 5858   6.923   5.722   1.787
 1653SOL    HW2 5859   6.988   5.577   1.827
 1654SOL     OW 5860   0.214   3.292   1.261
 1654SOL    HW1 5861   0.130   3.267   1.310
 1654SOL    HW2 5862   0.255   3.210   1.223
 1655SOL     OW 5863   6.771   1.306   4.611
 1655SOL    HW1 5864   6.813   1.216   4.626
 1655SOL    HW2 5865   6.835   1.364   4.560
 1656SOL     OW 5866   2.681   5.670   3.863
 1656SOL    HW1 5867   2.727   5.642   3.947
 1656SOL    HW2 5868   2.582   5.663   3.876
 1657SOL     OW 5869   6.466   0.821   5.363
 1657SOL    HW1 5870   6.458   0.751   5.292
 1657SOL    HW2 5871   6.548   0.876   5.348
 1658SOL     OW 5872   0.123   0.706   0.803
 1658SOL    HW1 5873   0.177   0.672   0.726
 1658SOL    HW2 5874   0.026   0.707   0.778
 1659SOL     OW 5875   3.840   0.372   6.921
 1659SOL    HW1 5876   3.918   0.400   6.977
 1659SOL    HW2 5877   3.761   0.429   6.941
 1660SOL     OW 5878   1.611   0.074   2.257
 1660SOL    HW1 5879   1.575   7.015   2.295
 1660SOL    HW2 5880   1.560   0.151   2.294
 1661SOL     OW 5881   3.065   5.604   2.101
 1661SOL    HW1 5882   3.082   5.618   2.198
 1661SOL    HW2 5883   3.094   5.685   2.050
 1662SOL     OW 5884   6.324   0.461   5.472
 1662SOL    HW1 5885   6.333   0.450   5.571
 1662SOL    HW2 5886   6.266   0.539   5.451
 1663SOL     OW 5887   5.353   5.524   2.121
 1663SOL    HW1 5888   5.389   5.437   2.085
 1663SOL    HW2 5889   5.429   5.586   2.138
 1664SOL     OW 5890   1.903   6.833   5.614
 1664SOL    HW1 5891   1.870   6.815   5.707
 1664SOL    HW2 5892   1.994   6.794   5.603
 1665SOL     OW 5893   0.337   3.870   2.023
 1665SOL    HW1 5894   0.258   3.899   1.968
 1665SOL    HW2 5895   0.320   3.780   2.062
 1666SOL     OW 5896   6.008   0.234   0.195
 1666SOL    HW1 5897   6.049   0.299   0.131
 1666SOL    HW2 5898   6.079   0.197   0.256
 1667SOL     OW 5899   6.763   6.222   1.318
 1667SOL    HW1 5900   6.780   6.209   1.416
 1667SOL    HW2 5901   6.712   6.144   1.282
 1668SOL     OW 5902   4.838   4.699   3.065
 1668SOL    HW1 5903   4.755   4.727   3.017
 1668SOL    HW2 5904   4.919   4.729   3.013
 1669SOL     OW 5905   6.999   4.607   5.849
 1669SOL    HW1 5906   6.941   4.571   5.921
 1669SOL    HW2 5907   7.020   4.535   5.783
 1670SOL     OW 5908   0.632   4.475   5.293
 1670SOL    HW1 5909   0.635   4.384   5.251
 1670SOL    HW2 5910   0.638   4.545   5.222
 1671SOL     OW 5911   5.740   1.564   3.292
 1671SOL    HW1 5912   5.795   1.483   3.270
 1671SOL    HW2 5913   5.786   1.646   3.257
 1672SOL     OW 5914   1.351   4.512   5.963
 1672SOL    HW1 5915   1.264   4.537   5.922
 1672SOL    HW2 5916   1.411   4.472   5.893
 1673SOL     OW 5917   1.769   1.386   4.797
 1673SOL    HW1 5918   1.814   1.297   4.786
 1673SOL    HW2 5919   1.794   1.426   4.885
 1674SOL     OW 5920   6.429   2.648   2.184
 1674SOL    HW1 5921   6.404   2.688   2.272
 1674SOL    HW2 5922   6.368   2.683   2.113
 1675SOL     OW 5923   5.216   0.270   0.617
 1675SOL    HW1 5924   5.162   0.307   0.542
 1675SOL    HW2 5925   5.273   0.343   0.655
 1676SOL     OW 5926   2.497   2.075   2.215
 1676SOL    HW1 5927   2.443   2.148   2.257
 1676SOL    HW2 5928   2.462   1.986   2.244
 1677SOL     OW 5929   3.917   3.661   3.429
 1677SOL    HW1 5930   3.961   3.745   3.396
 1677SOL    HW2 5931   3.843   3.685   3.492
 1678SOL     OW 5932   0.061   5.908   1.721
 1678SOL    HW1 5933   0.069   5.909   1.621
 1678SOL    HW2 5934   0.006   5.987   1.750
 1679SOL     OW 5935   1.527   1.123   4.411
 1679SOL    HW1 5936   1.512   1.178   4.493
 1679SOL    HW2 5937   1.622   1.132   4.381
 1680SOL     OW 5938   5.472   3.504   5.516
 1680SOL    HW1 5939   5.571   3.505   5.526
 1680SOL    HW2 5940   5.446   3.549   5.431
 1681SOL     OW 5941   1.964   5.723   5.102
 1681SOL    HW1 5942   2.008   5.793   5.046
 1681SOL    HW2 5943   1.933   5.763   5.188
 1682SOL     OW 5944   2.198   1.040   5.947
 1682SOL    HW1 5945   2.206   0.967   6.015
 1682SOL    HW2 5946   2.182   1.001   5.857
 1683SOL     OW 5947   5.886   6.118   2.994
 1683SOL    HW1 5948   5.969   6.164   2.961
 1683SOL    HW2 5949   5.862   6.152   3.085
 1684SOL     OW 5950   0.519   5.033   2.094
 1684SOL    HW1 5951   0.485   4.995   2.180
 1684SOL    HW2 5952   0.559   4.960   2.038
 1685SOL     OW 5953   2.118   1.895   5.439
 1685SOL    HW1 5954   2.069   1.870   5.523
 1685SOL    HW2 5955   2.206   1.847   5.435
 1686SOL     OW 5956   3.434   5.787   4.030
 1686SOL    HW1 5957   3.390   5.803   4.118
 1686SOL    HW2 5958   3.486   5.868   4.003
 1687SOL     OW 5959   0.578   3.950   1.884
 1687SOL    HW1 5960   0.503   4.005   1.919
 1687SOL    HW2 5961   0.627   4.001   1.813
 1688SOL     OW 5962   1.776   2.473   3.593
 1688SOL    HW1 5963   1.853   2.419   3.624
 1688SOL    HW2 5964   1.764   2.552   3.653
 1689SOL     OW 5965   6.366   1.036   3.007
 1689SOL    HW1 5966   6.336   1.033   3.102
 1689SOL    HW2 5967   6.355   0.946   2.965
 1690SOL     OW 5968   0.428   3.046   4.544
 1690SOL    HW1 5969   0.441   3.136   4.502
 1690SOL    HW2 5970   0.471   2.976   4.486
 1691SOL     OW 5971   5.172   3.214   4.005
 1691SOL    HW1 5972   5.110   3.183   4.077
 1691SOL    HW2 5973   5.170   3.314   4.000
 1692SOL     OW 5974   5.271   5.388   1.276
 1692SOL    HW1 5975   5.174   5.404   1.291
 1692SOL    HW2 5976   5.325   5.457   1.324
 1693SOL     OW 5977   6.718   1.628   4.515
 1693SOL    HW1 5978   6.801   1.616   4.461
 1693SOL    HW2 5979   6.680   1.719   4.499
 1694SOL     OW 5980   6.469   0.599   4.472
 1694SOL    HW1 5981   6.433   0.507   4.453
 1694SOL    HW2 5982   6.499   0.641   4.386
 1695SOL     OW 5983   3.433   0.740   6.701
 1695SOL    HW1 5984   3.510   0.676   6.702
 1695SOL    HW2 5985   3.461   0.825   6.656
 1696SOL     OW 5986   3.821   6.140   0.750
 1696SOL    HW1 5987   3.834   6.189   0.837
 1696SOL    HW2 5988   3.910   6.114   0.713
 1697SOL     OW 5989   6.000   2.491   1.076
 1697SOL    HW1 5990   5.931   2.443   1.130
 1697SOL    HW2 5991   6.055   2.424   1.027
 1698SOL     OW 5992   3.610   1.090   1.497
 1698SOL    HW1 5993   3.558   1.154   1.554
 1698SOL    HW2 5994   3.644   1.016   1.554
 1699SOL     OW 5995   2.489   1.717   5.784
 1699SOL    HW1 5996   2.555   1.789   5.808
 1699SOL    HW2 5997   2.532   1.651   5.723
 1700SOL     OW 5998   5.842   3.479   3.397
 1700SOL    HW1 5999   5.807   3.498   3.489
 1700SOL    HW2 6000   5.775   3.509   3.329
 1701SOL     OW 6001   5.845   5.054   5.309
 1701SOL    HW1 6002   5.940   5.069   5.336
 1701SOL    HW2 6003   5.786   5.118   5.358
 1702SOL     OW 6004   1.440   1.263   6.725
 1702SOL    HW1 6005   1.540   1.268   6.715
 1702SOL    HW2 6006   1.414   1.298   6.815
 1703SOL     OW 6007   4.457   1.479   6.038
 1703SOL    HW1 6008   4.551   1.445   6.037
 1703SOL    HW2 6009   4.394   1.403   6.054
 1704SOL     OW 6010   1.229   1.957   6.788
 1704SOL    HW1 6011   1.183   1.984   6.873
 1704SOL    HW2 6012   1.310   1.903   6.809
 1705SOL     OW 6013   3.596   1.801   1.617
 1705SOL    HW1 6014   3.548   1.871   1.669
 1705SOL    HW2 6015   3.693   1.801   1.642
 1706SOL     OW 6016   4.542   1.684   1.278
 1706SOL    HW1 6017   4.514   1.711   1.186
 1706SOL    HW2 6018   4.574   1.589   1.277
 1707SOL     OW 6019   4.913   2.708   2.408
 1707SOL    HW1 6020   4.920   2.648   2.329
 1707SOL    HW2 6021   4.972   2.674   2.481
 1708SOL     OW 6022   4.185   5.217   1.364
 1708SOL    HW1 6023   4.163   5.121   1.347
 1708SOL    HW2 6024   4.113   5.258   1.419
 1709SOL     OW 6025   3.833   6.532   0.671
 1709SOL    HW1 6026   3.798   6.602   0.609
 1709SOL    HW2 6027   3.933   6.528   0.665
 1710SOL     OW 6028   3.934   4.847   3.371
 1710SOL    HW1 6029   3.994   4.825   3.294
 1710SOL    HW2 6030   3.841   4.859   3.339
 1711SOL     OW 6031   2.085   4.967   5.318
 1711SOL    HW1 6032   2.080   4.880   5.269
 1711SOL    HW2 6033   2.166   4.967   5.378
 1712SOL     OW 6034   6.774   1.973   4.706
 1712SOL    HW1 6035   6.690   1.979   4.760
 1712SOL    HW2 6036   6.822   1.888   4.728
 1713SOL     OW 6037   3.840   1.380   3.073
 1713SOL    HW1 6038   3.794   1.398   2.986
 1713SOL    HW2 6039   3.800   1.298   3.115
 1714SOL     OW 6040   3.895   1.707   0.021
 1714SOL    HW1 6041   3.836   1.699   0.101
 1714SOL    HW2 6042   3.908   1.616   7.006
 1715SOL     OW 6043   2.521   5.971   2.680
 1715SOL    HW1 6044   2.484   5.938   2.766
 1715SOL    HW2 6045   2.493   5.909   2.606
 1716SOL     OW 6046   4.528   0.278   3.900
 1716SOL    HW1 6047   4.437   0.310   3.873
 1716SOL    HW2 6048   4.532   0.270   4.000
 1717SOL     OW 6049   3.654   4.986   5.296
 1717SOL    HW1 6050   3.634   4.978   5.198
 1717SOL    HW2 6051   3.667   5.083   5.319
 1718SOL     OW 6052   2.557   1.910   2.496
 1718SOL    HW1 6053   2.549   1.828   2.440
 1718SOL    HW2 6054   2.600   1.887   2.583
 1719SOL     OW 6055   1.962   4.275   0.901
 1719SOL    HW1 6056   1.923   4.203   0.957
 1719SOL    HW2 6057   1.889   4.331   0.861
 1720SOL     OW 6058   0.047   2.529   5.696
 1720SOL    HW1 6059   0.101   2.559   5.617
 1720SOL    HW2 6060   7.003   2.464   5.665
 1721SOL     OW 6061   1.225   0.256   2.053
 1721SOL    HW1 6062   1.220   0.156   2.052
 1721SOL    HW2 6063   1.228   0.290   1.959
 1722SOL     OW 6064   4.167   1.725   3.019
 1722SOL    HW1 6065   4.103   1.795   3.051
 1722SOL    HW2 6066   4.188   1.740   2.923
 1723SOL     OW 6067   4.389   2.083   6.372
 1723SOL    HW1 6068   4.300   2.088   6.417
 1723SOL    HW2 6069   4.417   2.175   6.345
 1724SOL     OW 6070   6.730   2.224   2.024
 1724SOL    HW1 6071   6.645   2.273   2.040
 1724SOL    HW2 6072   6.740   2.203   1.927
 1725SOL     OW 6073   2.260   5.189   7.021
 1725SOL    HW1 6074   2.352   5.153   7.002
 1725SOL    HW2 6075   2.259   5.288   7.006
 1726SOL     OW 6076   5.473   3.743   3.842
 1726SOL    HW1 6077   5.500   3.839   3.849
 1726SOL    HW2 6078   5.388   3.728   3.893
 1727SOL     OW 6079   3.894   3.670   2.810
 1727SOL    HW1 6080   3.940   3.757   2.789
 1727SOL    HW2 6081   3.891   3.658   2.909
 1728SOL     OW 6082   4.999   4.289   5.254
 1728SOL    HW1 6083   5.067   4.335   5.312
 1728SOL    HW2 6084   5.019   4.309   5.158
 1729SOL     OW 6085   1.049   3.857   3.172
 1729SOL    HW1 6086   1.045   3.812   3.082
 1729SOL    HW2 6087   1.047   3.956   3.160
 1730SOL     OW 6088   2.872   6.460   5.242
 1730SOL    HW1 6089   2.792   6.400   5.241
 1730SOL    HW2 6090   2.846   6.549   5.279
 1731SOL     OW 6091   5.929   4.653   3.670
 1731SOL    HW1 6092   5.871   4.663   3.589
 1731SOL    HW2 6093   5.927   4.557   3.700
 1732SOL     OW 6094   1.601   4.460   6.419
 1732SOL    HW1 6095   1.699   4.465   6.398
 1732SOL    HW2 6096   1.551   4.439   6.335
 1733SOL     OW 6097   2.574   4.261   1.484
 1733SOL    HW1 6098   2.638   4.282   1.557
 1733SOL    HW2 6099   2.504   4.198   1.517
 1734SOL     OW 6100   6.050   3.311   1.043
 1734SOL    HW1 6101   6.072   3.272   0.953
 1734SOL    HW2 6102   5.968   3.266   1.079
 1735SOL     OW 6103   4.440   5.616   5.896
 1735SOL    HW1 6104   4.360   5.675   5.904
 1735SOL    HW2 6105   4.488   5.637   5.811
 1736SOL     OW 6106   4.029   4.075   0.660
 1736SOL    HW1 6107   3.952   4.059   0.722
 1736SOL    HW2 6108   4.109   4.102   0.713
 1737SOL     OW 6109   5.260   0.069   4.640
 1737SOL    HW1 6110   5.329   0.059   4.569
 1737SOL    HW2 6111   5.301   0.056   4.730
 1738SOL     OW 6112   1.568   3.587   4.273
 1738SOL    HW1 6113   1.596   3.543   4.358
 1738SOL    HW2 6114   1.469   3.595   4.270
 1739SOL     OW 6115   6.438   0.339   4.351
 1739SOL    HW1 6116   6.478   0.272   4.414
 1739SOL    HW2 6117   6.353   0.302   4.313
 1740SOL     OW 6118   6.828   1.737   4.945
 1740SOL    HW1 6119   6.767   1.685   4.884
 1740SOL    HW2 6120   6.794   1.732   5.039
 1741SOL     OW 6121   2.396   1.665   3.634
 1741SOL    HW1 6122   2.473   1.681   3.571
 1741SOL    HW2 6123   2.388   1.742   3.697
 1742SOL     OW 6124   5.788   1.254   6.302
 1742SOL    HW1 6125   5.766   1.320   6.373
 1742SOL    HW2 6126   5.760   1.162   6.331
 1743SOL     OW 6127   1.219   0.973   2.644
 1743SOL    HW1 6128   1.192   0.934   2.732
 1743SOL    HW2 6129   1.289   1.042   2.658
 1744SOL     OW 6130   5.008   2.531   2.908
 1744SOL    HW1 6131   4.973   2.440   2.884
 1744SOL    HW2 6132   5.075   2.522   2.982
 1745SOL     OW 6133   6.418   6.305   2.293
 1745SOL    HW1 6134   6.415   6.307   2.392
 1745SOL    HW2 6135   6.328   6.326   2.256
 1746SOL     OW 6136   2.014   3.604   4.078
 1746SOL    HW1 6137   1.931   3.548   4.087
 1746SOL    HW2 6138   2.090   3.557   4.124
 1747SOL     OW 6139   3.886   1.444   2.136
 1747SOL    HW1 6140   3.854   1.429   2.229
 1747SOL    HW2 6141   3.808   1.464   2.076
 1748SOL     OW 6142   6.238   1.346   4.604
 1748SOL    HW1 6143   6.218   1.252   4.629
 1748SOL    HW2 6144   6.326   1.349   4.557
 1749SOL     OW 6145   3.246   6.386   0.053
 1749SOL    HW1 6146   3.272   6.340   0.138
 1749SOL    HW2 6147   3.150   6.416   0.059
 1750SOL     OW 6148   4.170   0.360   4.781
 1750SOL    HW1 6149   4.162   0.264   4.807
 1750SOL    HW2 6150   4.265   0.389   4.792
 1751SOL     OW 6151   6.200   2.325   5.046
 1751SOL    HW1 6152   6.168   2.263   4.975
 1751SOL    HW2 6153   6.255   2.397   5.005
 1752SOL     OW 6154   6.487   1.055   1.229
 1752SOL    HW1 6155   6.485   1.136   1.171
 1752SOL    HW2 6156   6.521   0.977   1.177
 1753SOL     OW 6157   6.933   1.822   1.480
 1753SOL    HW1 6158   6.890   1.809   1.391
 1753SOL    HW2 6159   6.863   1.818   1.552
 1754SOL     OW 6160   2.038   6.093   6.117
 1754SOL    HW1 6161   1.975   6.027   6.158
 1754SOL    HW2 6162   1.987   6.173   6.086
 1755SOL     OW 6163   6.489   6.065   5.598
 1755SOL    HW1 6164   6.531   6.123   5.528
 1755SOL    HW2 6165   6.554   6.052   5.673
 1756SOL     OW 6166   3.971   6.708   6.314
 1756SOL    HW1 6167   3.905   6.783   6.309
 1756SOL    HW2 6168   4.062   6.743   6.289
 1757SOL     OW 6169   3.197   5.259   4.598
 1757SOL    HW1 6170   3.295   5.280   4.594
 1757SOL    HW2 6171   3.183   5.163   4.575
 1758SOL     OW 6172   1.534   6.945   4.802
 1758SOL    HW1 6173   1.569   6.938   4.708
 1758SOL    HW2 6174   1.491   0.008   4.816
 1759SOL     OW 6175   1.462   6.822   5.837
 1759SOL    HW1 6176   1.440   6.807   5.741
 1759SOL    HW2 6177   1.434   6.915   5.863
 1760SOL     OW 6178   6.172   1.186   4.894
 1760SOL    HW1 6179   6.247   1.217   4.952
 1760SOL    HW2 6180   6.157   1.088   4.909
 1761SOL     OW 6181   0.520   0.776   0.920
 1761SOL    HW1 6182   0.603   0.723   0.938
 1761SOL    HW2 6183   0.453   0.758   0.992
 1762SOL     OW 6184   0.630   0.915   4.725
 1762SOL    HW1 6185   0.565   0.971   4.778
 1762SOL    HW2 6186   0.611   0.818   4.740
 1763SOL     OW 6187   0.662   4.265   5.061
 1763SOL    HW1 6188   0.614   4.186   5.097
 1763SOL    HW2 6189   0.730   4.236   4.994
 1764SOL     OW 6190   0.878   3.574   2.174
 1764SOL    HW1 6191   0.963   3.608   2.135
 1764SOL    HW2 6192   0.802   3.597   2.113
 1765SOL     OW 6193   4.272   2.690   1.704
 1765SOL    HW1 6194   4.180   2.725   1.719
 1765SOL    HW2 6195   4.276   2.593   1.728
 1766SOL     OW 6196   5.062   4.480   4.236
 1766SOL    HW1 6197   5.056   4.561   4.178
 1766SOL    HW2 6198   5.159   4.456   4.249
 1767SOL     OW 6199   0.620   4.629   2.681
 1767SOL    HW1 6200   0.684   4.554   2.661
 1767SOL    HW2 6201   0.670   4.716   2.682
 1768SOL     OW 6202   4.532   0.414   0.659
 1768SOL    HW1 6203   4.600   0.349   0.623
 1768SOL    HW2 6204   4.461   0.428   0.590
 1769SOL     OW 6205   5.638   1.038   0.031
 1769SOL    HW1 6206   5.631   1.085   6.970
 1769SOL    HW2 6207   5.660   1.104   0.103
 1770SOL     OW 6208   0.361   4.020   5.705
 1770SOL    HW1 6209   0.336   4.008   5.801
 1770SOL    HW2 6210   0.332   3.940   5.653
 1771SOL     OW 6211   1.417   4.981   6.993
 1771SOL    HW1 6212   1.394   4.988   6.896
 1771SOL    HW2 6213   1.515   4.963   7.003
 1772SOL     OW 6214   3.713   5.204   4.343
 1772SOL    HW1 6215   3.809   5.182   4.358
 1772SOL    HW2 6216   3.664   5.122   4.311
 1773SOL     OW 6217   1.389   1.378   5.034
 1773SOL    HW1 6218   1.390   1.461   5.090
 1773SOL    HW2 6219   1.396   1.403   4.937
 1774SOL     OW 6220   5.873   6.705   2.129
 1774SOL    HW1 6221   5.912   6.778   2.072
 1774SOL    HW2 6222   5.775   6.697   2.110
 1775SOL     OW 6223   1.987   5.493   5.950
 1775SOL    HW1 6224   1.917   5.532   5.890
 1775SOL    HW2 6225   2.063   5.459   5.895
 1776SOL     OW 6226   4.772   0.545   5.660
 1776SOL    HW1 6227   4.836   0.469   5.676
 1776SOL    HW2 6228   4.679   0.510   5.656
 1777SOL     OW 6229   3.745   6.859   6.337
 1777SOL    HW1 6230   3.701   6.870   6.248
 1777SOL    HW2 6231   3.692   6.795   6.393
 1778SOL     OW 6232   5.160   1.215   4.358
 1778SOL    HW1 6233   5.127   1.310   4.367
 1778SOL    HW2 6234   5.111   1.170   4.284
 1779SOL     OW 6235   5.166   6.936   5.677
 1779SOL    HW1 6236   5.207   6.925   5.586
 1779SOL    HW2 6237   5.179   0.004   5.708
 1780SOL     OW 6238   1.286   4.849   4.450
 1780SOL    HW1 6239   1.371   4.895   4.423
 1780SOL    HW2 6240   1.250   4.796   4.374
 1781SOL     OW 6241   5.381   6.641   4.456
 1781SOL    HW1 6242   5.352   6.628   4.551
 1781SOL    HW2 6243   5.454   6.710   4.453
 1782SOL     OW 6244   2.087   1.661   2.843
 1782SOL    HW1 6245   2.031   1.744   2.834
 1782SOL    HW2 6246   2.184   1.686   2.833
 1783SOL     OW 6247   2.324   3.462   6.380
 1783SOL    HW1 6248   2.394   3.397   6.349
 1783SOL    HW2 6249   2.246   3.460   6.318
 1784SOL     OW 6250   2.397   1.168   1.555
 1784SOL    HW1 6251   2.358   1.182   1.464
 1784SOL    HW2 6252   2.418   1.257   1.597
 1785SOL     OW 6253   0.124   5.989   4.207
 1785SOL    HW1 6254   0.186   5.987   4.285
 1785SOL    HW2 6255   0.151   5.919   4.141
 1786SOL     OW 6256   1.748   5.366   0.670
 1786SOL    HW1 6257   1.741   5.282   0.616
 1786SOL    HW2 6258   1.812   5.429   0.626
 1787SOL     OW 6259   1.423   2.559   5.306
 1787SOL    HW1 6260   1.437   2.557   5.405
 1787SOL    HW2 6261   1.442   2.468   5.268
 1788SOL     OW 6262   4.992   3.665   0.111
 1788SOL    HW1 6263   5.073   3.653   0.170
 1788SOL    HW2 6264   4.967   3.577   0.072
 1789SOL     OW 6265   6.460   3.432   2.132
 1789SOL    HW1 6266   6.392   3.470   2.069
 1789SOL    HW2 6267   6.419   3.422   2.223
 1790SOL     OW 6268   3.210   1.451   4.423
 1790SOL    HW1 6269   3.231   1.395   4.503
 1790SOL    HW2 6270   3.212   1.548   4.449
 1791SOL     OW 6271   5.560   1.078   3.814
 1791SOL    HW1 6272   5.490   1.149   3.814
 1791SOL    HW2 6273   5.517   0.988   3.802
 1792SOL     OW 6274   6.836   1.428   5.176
 1792SOL    HW1 6275   6.737   1.437   5.187
 1792SOL    HW2 6276   6.859   1.423   5.079
 1793SOL     OW 6277   6.586   1.278   4.835
 1793SOL    HW1 6278   6.509   1.341   4.824
 1793SOL    HW2 6279   6.629   1.261   4.747
 1794SOL     OW 6280   6.422   0.381   6.497
 1794SOL    HW1 6281   6.409   0.480   6.510
 1794SOL    HW2 6282   6.456   0.340   6.581
 1795SOL     OW 6283   5.653   4.783   0.269
 1795SOL    HW1 6284   5.651   4.683   0.267
 1795SOL    HW2 6285   5.594   4.815   0.343
 1796SOL     OW 6286   1.766   1.036   5.664
 1796SOL    HW1 6287   1.814   0.955   5.697
 1796SOL    HW2 6288   1.702   1.068   5.734
 1797SOL     OW 6289   1.651   6.865   5.077
 1797SOL    HW1 6290   1.611   6.895   4.990
 1797SOL    HW2 6291   1.683   6.771   5.068
 1798SOL     OW 6292   3.830   3.214   4.252
 1798SOL    HW1 6293   3.744   3.176   4.218
 1798SOL    HW2 6294   3.811   3.299   4.301
 1799SOL     OW 6295   4.146   1.377   6.501
 1799SOL    HW1 6296   4.106   1.377   6.593
 1799SOL    HW2 6297   4.143   1.469   6.463
 1800SOL     OW 6298   4.914   4.381   3.927
 1800SOL    HW1 6299   4.959   4.446   3.988
 1800SOL    HW2 6300   4.837   4.425   3.881
 1801SOL     OW 6301   1.260   1.604   2.123
 1801SOL    HW1 6302   1.326   1.575   2.054
 1801SOL    HW2 6303   1.174   1.555   2.110
 1802SOL     OW 6304   6.333   5.225   3.796
 1802SOL    HW1 6305   6.315   5.127   3.811
 1802SOL    HW2 6306   6.249   5.277   3.811
 1803SOL     OW 6307   0.337   6.113   2.490
 1803SOL    HW1 6308   0.384   6.053   2.425
 1803SOL    HW2 6309   0.405   6.169   2.537
 1804SOL     OW 6310   3.167   3.616   6.051
 1804SOL    HW1 6311   3.118   3.683   5.994
 1804SOL    HW2 6312   3.164   3.527   6.006
 1805SOL     OW 6313   1.010   6.401   5.664
 1805SOL    HW1 6314   0.927   6.446   5.696
 1805SOL    HW2 6315   1.082   6.468   5.651
 1806SOL     OW 6316   6.617   2.002   2.485
 1806SOL    HW1 6317   6.681   1.955   2.425
 1806SOL    HW2 6318   6.625   2.101   2.471
 1807SOL     OW 6319   6.339   3.622   0.562
 1807SOL    HW1 6320   6.427   3.578   0.582
 1807SOL    HW2 6321   6.265   3.559   0.582
 1808SOL     OW 6322   5.365   2.981   4.889
 1808SOL    HW1 6323   5.443   2.956   4.947
 1808SOL    HW2 6324   5.306   3.045   4.939
 1809SOL     OW 6325   3.170   2.039   5.156
 1809SOL    HW1 6326   3.080   1.997   5.155
 1809SOL    HW2 6327   3.163   2.135   5.132
 1810SOL     OW 6328   0.550   0.433   4.033
 1810SOL    HW1 6329   0.576   0.340   4.061
 1810SOL    HW2 6330   0.451   0.445   4.046
 1811SOL     OW 6331   4.613   4.683   1.740
 1811SOL    HW1 6332   4.593   4.649   1.648
 1811SOL    HW2 6333   4.609   4.608   1.805
 1812SOL     OW 6334   4.410   0.094   5.867
 1812SOL    HW1 6335   4.329   0.137   5.908
 1812SOL    HW2 6336   4.382   0.039   5.788
 1813SOL     OW 6337   4.716   4.701   2.401
 1813SOL    HW1 6338   4.650   4.776   2.403
 1813SOL    HW2 6339   4.734   4.674   2.306
 1814SOL     OW 6340   6.750   0.267   0.857
 1814SOL    HW1 6341   6.706   0.207   0.923
 1814SOL    HW2 6342   6.844   0.236   0.841
 1815SOL     OW 6343   5.462   5.687   2.662
 1815SOL    HW1 6344   5.477   5.653   2.568
 1815SOL    HW2 6345   5.367   5.675   2.687
 1816SOL     OW 6346   3.934   5.977   5.621
 1816SOL    HW1 6347   4.014   5.946   5.570
 1816SOL    HW2 6348   3.962   6.045   5.688
 1817SOL     OW 6349   3.259   1.613   3.021
 1817SOL    HW1 6350   3.315   1.572   3.093
 1817SOL    HW2 6351   3.173   1.644   3.060
 1818SOL     OW 6352   1.856   6.688   0.271
 1818SOL    HW1 6353   1.953   6.674   0.287
 1818SOL    HW2 6354   1.832   6.658   0.179
 1819SOL     OW 6355   1.062   4.733   2.757
 1819SOL    HW1 6356   1.021   4.665   2.697
 1819SOL    HW2 6357   0.991   4.773   2.815
 1820SOL     OW 6358   3.501   0.195   2.715
 1820SOL    HW1 6359   3.585   0.147   2.690
 1820SOL    HW2 6360   3.441   0.133   2.765
 1821SOL     OW 6361   3.480   0.901   2.017
 1821SOL    HW1 6362   3.411   0.957   1.971
 1821SOL    HW2 6363   3.437   0.849   2.091
 1822SOL     OW 6364   1.161   3.574   2.058
 1822SOL    HW1 6365   1.228   3.607   1.991
 1822SOL    HW2 6366   1.087   3.527   2.010
 1823SOL     OW 6367   3.392   6.013   2.535
 1823SOL    HW1 6368   3.421   6.108   2.524
 1823SOL    HW2 6369   3.367   5.976   2.445
 1824SOL     OW 6370   4.442   3.647   0.702
 1824SOL    HW1 6371   4.372   3.672   0.768
 1824SOL    HW2 6372   4.517   3.600   0.749
 1825SOL     OW 6373   1.091   2.572   5.053
 1825SOL    HW1 6374   1.034   2.644   5.013
 1825SOL    HW2 6375   1.181   2.609   5.075
 1826SOL     OW 6376   3.722   1.557   1.377
 1826SOL    HW1 6377   3.662   1.622   1.423
 1826SOL    HW2 6378   3.805   1.603   1.346
 1827SOL     OW 6379   4.875   5.003   0.751
 1827SOL    HW1 6380   4.908   5.097   0.761
 1827SOL    HW2 6381   4.952   4.939   0.760
 1828SOL     OW 6382   1.087   3.640   6.200
 1828SOL    HW1 6383   1.075   3.587   6.284
 1828SOL    HW2 6384   1.116   3.578   6.126
 1829SOL     OW 6385   3.659   0.746   3.345
 1829SOL    HW1 6386   3.613   0.757   3.433
 1829SOL    HW2 6387   3.651   0.651   3.315
 1830SOL     OW 6388   5.636   6.684   5.095
 1830SOL    HW1 6389   5.696   6.631   5.035
 1830SOL    HW2 6390   5.582   6.622   5.152
 1831SOL     OW 6391   5.207   5.912   2.760
 1831SOL    HW1 6392   5.166   5.992   2.803
 1831SOL    HW2 6393   5.201   5.834   2.822
 1832SOL     OW 6394   2.766   4.129   0.447
 1832SOL    HW1 6395   2.727   4.094   0.362
 1832SOL    HW2 6396   2.852   4.177   0.427
 1833SOL     OW 6397   4.526   6.887   1.674
 1833SOL    HW1 6398   4.542   6.968   1.618
 1833SOL    HW2 6399   4.541   6.805   1.618
 1834SOL     OW 6400   2.781   2.871   0.712
 1834SOL    HW1 6401   2.737   2.792   0.670
 1834SOL    HW2 6402   2.726   2.953   0.693
 1835SOL     OW 6403   1.222   5.371   1.490
 1835SOL    HW1 6404   1.214   5.271   1.485
 1835SOL    HW2 6405   1.297   5.395   1.551
 1836SOL     OW 6406   4.888   1.446   2.266
 1836SOL    HW1 6407   4.969   1.481   2.219
 1836SOL    HW2 6408   4.916   1.385   2.340
 1837SOL     OW 6409   2.111   1.302   5.432
 1837SOL    HW1 6410   2.017   1.307   5.465
 1837SOL    HW2 6411   2.165   1.376   5.471
 1838SOL     OW 6412   6.701   1.038   7.015
 1838SOL    HW1 6413   6.769   0.966   7.000
 1838SOL    HW2 6414   6.742   1.128   6.997
 1839SOL     OW 6415   6.374   1.743   6.750
 1839SOL    HW1 6416   6.412   1.763   6.840
 1839SOL    HW2 6417   6.442   1.763   6.680
 1840SOL     OW 6418   3.429   0.093   3.132
 1840SOL    HW1 6419   3.472   0.157   3.196
 1840SOL    HW2 6420   3.498   0.027   3.101
 1841SOL     OW 6421   2.011   0.398   2.084
 1841SOL    HW1 6422   2.094   0.344   2.092
 1841SOL    HW2 6423   1.977   0.420   2.175
 1842SOL     OW 6424   1.674   4.703   0.555
 1842SOL    HW1 6425   1.689   4.800   0.568
 1842SOL    HW2 6426   1.582   4.679   0.588
 1843SOL     OW 6427   3.749   1.476   4.770
 1843SOL    HW1 6428   3.837   1.524   4.767
 1843SOL    HW2 6429   3.675   1.542   4.758
 1844SOL     OW 6430   4.855   1.683   5.746
 1844SOL    HW1 6431   4.909   1.665   5.828
 1844SOL    HW2 6432   4.915   1.687   5.667
 1845SOL     OW 6433   2.708   0.784   3.247
 1845SOL    HW1 6434   2.802   0.795   3.277
 1845SOL    HW2 6435   2.652   0.751   3.323
 1846SOL     OW 6436   4.473   1.169   3.112
 1846SOL    HW1 6437   4.468   1.079   3.154
 1846SOL    HW2 6438   4.550   1.173   3.048
 1847SOL     OW 6439   1.852   0.313   4.552
 1847SOL    HW1 6440   1.915   0.390   4.538
 1847SOL    HW2 6441   1.852   0.287   4.648
 1848SOL     OW 6442   2.290   5.981   4.126
 1848SOL    HW1 6443   2.343   5.988   4.211
 1848SOL    HW2 6444   2.251   6.071   4.104
 1849SOL     OW 6445   5.011   3.003   2.538
 1849SOL    HW1 6446   4.933   2.993   2.477
 1849SOL    HW2 6447   5.092   2.962   2.495
 1850SOL     OW 6448   4.832   2.132   2.143
 1850SOL    HW1 6449   4.891   2.210   2.122
 1850SOL    HW2 6450   4.869   2.082   2.222
 1851SOL     OW 6451   0.453   2.828   6.686
 1851SOL    HW1 6452   0.489   2.890   6.617
 1851SOL    HW2 6453   0.528   2.799   6.746
 1852SOL     OW 6454   0.938   3.958   2.008
 1852SOL    HW1 6455   0.905   3.864   2.013
 1852SOL    HW2 6456   0.978   3.984   2.096
 1853SOL     OW 6457   0.208   3.211   5.091
 1853SOL    HW1 6458   0.193   3.117   5.062
 1853SOL    HW2 6459   0.295   3.245   5.053
 1854SOL     OW 6460   1.069   5.695   3.586
 1854SOL    HW1 6461   1.124   5.697   3.502
 1854SOL    HW2 6462   1.004   5.620   3.581
 1855SOL     OW 6463   5.171   3.412   4.307
 1855SOL    HW1 6464   5.213   3.425   4.397
 1855SOL    HW2 6465   5.235   3.438   4.235
 1856SOL     OW 6466   3.719   2.915   6.673
 1856SOL    HW1 6467   3.812   2.930   6.640
 1856SOL    HW2 6468   3.673   2.848   6.615
 1857SOL     OW 6469   5.787   0.810   0.526
 1857SOL    HW1 6470   5.768   0.806   0.624
 1857SOL    HW2 6471   5.870   0.757   0.506
 1858SOL     OW 6472   4.992   2.125   4.375
 1858SOL    HW1 6473   4.948   2.189   4.437
 1858SOL    HW2 6474   4.984   2.032   4.411
 1859SOL     OW 6475   5.335   1.860   4.915
 1859SOL    HW1 6476   5.315   1.818   5.004
 1859SOL    HW2 6477   5.279   1.817   4.844
 1860SOL     OW 6478   0.479   1.658   4.631
 1860SOL    HW1 6479   0.558   1.625   4.579
 1860SOL    HW2 6480   0.413   1.701   4.568
 1861SOL     OW 6481   5.610   0.488   2.972
 1861SOL    HW1 6482   5.562   0.441   2.899
 1861SOL    HW2 6483   5.634   0.581   2.943
 1862SOL     OW 6484   1.804   6.424   6.702
 1862SOL    HW1 6485   1.766   6.505   6.748
 1862SOL    HW2 6486   1.795   6.435   6.603
 1863SOL     OW 6487   0.770   2.931   1.205
 1863SOL    HW1 6488   0.837   2.965   1.271
 1863SOL    HW2 6489   0.783   2.977   1.117
 1864SOL     OW 6490   3.129   6.018   4.541
 1864SOL    HW1 6491   3.117   6.083   4.465
 1864SOL    HW2 6492   3.216   5.970   4.531
 1865SOL     OW 6493   4.514   1.779   0.989
 1865SOL    HW1 6494   4.519   1.718   0.909
 1865SOL    HW2 6495   4.439   1.843   0.977
 1866SOL     OW 6496   6.630   3.969   4.285
 1866SOL    HW1 6497   6.595   3.894   4.341
 1866SOL    HW2 6498   6.564   3.991   4.214
 1867SOL     OW 6499   2.695   2.717   1.322
 1867SOL    HW1 6500   2.776   2.734   1.267
 1867SOL    HW2 6501   2.662   2.624   1.305
 1868SOL     OW 6502   4.831   4.069   4.827
 1868SOL    HW1 6503   4.811   3.989   4.883
 1868SOL    HW2 6504   4.918   4.056   4.780
 1869SOL     OW 6505   4.891   2.355   4.172
 1869SOL    HW1 6506   4.911   2.304   4.256
 1869SOL    HW2 6507   4.977   2.373   4.123
 1870SOL     OW 6508   0.677   3.350   4.217
 1870SOL    HW1 6509   0.664   3.316   4.124
 1870SOL    HW2 6510   0.731   3.284   4.269
 1871SOL     OW 6511   0.488   6.466   0.214
 1871SOL    HW1 6512   0.418   6.402   0.183
 1871SOL    HW2 6513   0.474   6.487   0.310
 1872SOL     OW 6514   3.207   2.736   0.430
 1872SOL    HW1 6515   3.164   2.663   0.377
 1872SOL    HW2 6516   3.262   2.696   0.503
 1873SOL     OW 6517   6.512   1.317   0.130
 1873SOL    HW1 6518   6.610   1.318   0.149
 1873SOL    HW2 6519   6.486   1.229   0.089
 1874SOL     OW 6520   1.204   0.320   5.830
 1874SOL    HW1 6521   1.127   0.265   5.796
 1874SOL    HW2 6522   1.287   0.295   5.780
 1875SOL     OW 6523   6.107   6.381   0.028
 1875SOL    HW1 6524   6.147   6.440   0.099
 1875SOL    HW2 6525   6.176   6.364   6.983
 1876SOL     OW 6526   5.396   6.522   5.960
 1876SOL    HW1 6527   5.311   6.570   5.979
 1876SOL    HW2 6528   5.445   6.504   6.045
 1877SOL     OW 6529   0.279   0.793   2.085
 1877SOL    HW1 6530   0.315   0.701   2.066
 1877SOL    HW2 6531   0.224   0.790   2.169
 1878SOL     OW 6532   0.559   4.201   3.276
 1878SOL    HW1 6533   0.557   4.153   3.188
 1878SOL    HW2 6534   0.595   4.139   3.347
 1879SOL     OW 6535   2.393   5.296   4.720
 1879SOL    HW1 6536   2.425   5.388   4.743
 1879SOL    HW2 6537   2.425   5.232   4.791
 1880SOL     OW 6538   6.850   2.468   3.223
 1880SOL    HW1 6539   6.914   2.397   3.252
 1880SOL    HW2 6540   6.807   2.509   3.303
 1881SOL     OW 6541   1.353   2.142   3.131
 1881SOL    HW1 6542   1.328   2.117   3.038
 1881SOL    HW2 6543   1.304   2.084   3.196
 1882SOL     OW 6544   0.937   5.832   0.264
 1882SOL    HW1 6545   0.982   5.787   0.186
 1882SOL    HW2 6546   1.006   5.869   0.325
 1883SOL     OW 6547   1.547   3.590   2.740
 1883SOL    HW1 6548   1.458   3.551   2.715
 1883SOL    HW2 6549   1.590   3.629   2.659
 1884SOL     OW 6550   3.999   0.981   0.472
 1884SOL    HW1 6551   4.052   0.897   0.480
 1884SOL    HW2 6552   4.043   1.055   0.523
 1885SOL     OW 6553   7.015   2.603   1.079
 1885SOL    HW1 6554   6.966   2.522   1.046
 1885SOL    HW2 6555   0.036   2.582   1.164
 1886SOL     OW 6556   1.979   1.781   6.460
 1886SOL    HW1 6557   1.943   1.871   6.484
 1886SOL    HW2 6558   1.996   1.729   6.544
 1887SOL     OW 6559   0.419   4.705   5.631
 1887SOL    HW1 6560   0.474   4.780   5.667
 1887SOL    HW2 6561   0.420   4.629   5.696
 1888SOL     OW 6562   1.988   1.868   4.972
 1888SOL    HW1 6563   2.042   1.939   4.926
 1888SOL    HW2 6564   2.036   1.839   5.055
 1889SOL     OW 6565   4.437   3.326   0.256
 1889SOL    HW1 6566   4.338   3.313   0.265
 1889SOL    HW2 6567   4.454   3.408   0.202
 1890SOL     OW 6568   1.060   6.038   5.782
 1890SOL    HW1 6569   0.992   5.986   5.835
 1890SOL    HW2 6570   1.060   6.133   5.813
 1891SOL     OW 6571   6.240   3.401   5.992
 1891SOL    HW1 6572   6.144   3.429   5.996
 1891SOL    HW2 6573   6.298   3.481   6.008
 1892SOL     OW 6574   3.946   6.005   1.061
 1892SOL    HW1 6575   3.908   6.093   1.031
 1892SOL    HW2 6576   3.902   5.977   1.146
 1893SOL     OW 6577   3.285   2.132   4.835
 1893SOL    HW1 6578   3.239   2.194   4.771
 1893SOL    HW2 6579   3.280   2.170   4.928
 1894SOL     OW 6580   4.352   4.051   1.426
 1894SOL    HW1 6581   4.437   4.100   1.409
 1894SOL    HW2 6582   4.354   4.011   1.518
 1895SOL     OW 6583   6.129   1.190   2.373
 1895SOL    HW1 6584   6.160   1.096   2.389
 1895SOL    HW2 6585   6.031   1.189   2.350
 1896SOL     OW 6586   6.250   1.156   4.184
 1896SOL    HW1 6587   6.324   1.089   4.185
 1896SOL    HW2 6588   6.181   1.131   4.251
 1897SOL     OW 6589   6.089   5.347   3.788
 1897SOL    HW1 6590   6.055   5.254   3.783
 1897SOL    HW2 6591   6.013   5.412   3.785
 1898SOL     OW 6592   5.142   5.987   1.529
 1898SOL    HW1 6593   5.240   5.997   1.518
 1898SOL    HW2 6594   5.099   6.077   1.536
 1899SOL     OW 6595   0.162   3.697   2.716
 1899SOL    HW1 6596   0.065   3.673   2.718
 1899SOL    HW2 6597   0.198   3.698   2.809
 1900SOL     OW 6598   1.385   0.046   6.685
 1900SOL    HW1 6599   1.476   0.006   6.673
 1900SOL    HW2 6600   1.390   0.120   6.751
 1901SOL     OW 6601   2.362   1.355   0.011
 1901SOL    HW1 6602   2.320   1.424   0.070
 1901SOL    HW2 6603   2.439   1.395   6.989
 1902SOL     OW 6604   1.375   2.259   4.567
 1902SOL    HW1 6605   1.459   2.232   4.614
 1902SOL    HW2 6606   1.299   2.203   4.600
 1903SOL     OW 6607   6.509   4.741   3.610
 1903SOL    HW1 6608   6.471   4.794   3.534
 1903SOL    HW2 6609   6.442   4.738   3.685
 1904SOL     OW 6610   0.453   6.976   4.449
 1904SOL    HW1 6611   0.466   6.877   4.457
 1904SOL    HW2 6612   0.539   7.023   4.468
 1905SOL     OW 6613   6.970   1.912   3.885
 1905SOL    HW1 6614   6.872   1.930   3.896
 1905SOL    HW2 6615   6.997   1.927   3.790
 1906SOL     OW 6616   3.039   0.297   5.598
 1906SOL    HW1 6617   3.000   0.205   5.599
 1906SOL    HW2 6618   3.095   0.310   5.680
 1907SOL     OW 6619   2.836   0.057   3.238
 1907SOL    HW1 6620   2.868   0.083   3.329
 1907SOL    HW2 6621   2.900   7.018   3.197
 1908SOL     OW 6622   4.808   1.264   5.648
 1908SOL    HW1 6623   4.801   1.166   5.668
 1908SOL    HW2 6624   4.739   1.314   5.701
 1909SOL     OW 6625   2.464   4.471   4.526
 1909SOL    HW1 6626   2.413   4.435   4.448
 1909SOL    HW2 6627   2.470   4.400   4.597
 1910SOL     OW 6628   5.256   2.324   6.562
 1910SOL    HW1 6629   5.345   2.280   6.545
 1910SOL    HW2 6630   5.191   2.294   6.493
 1911SOL     OW 6631   6.791   1.996   5.156
 1911SOL    HW1 6632   6.752   2.071   5.103
 1911SOL    HW2 6633   6.735   1.913   5.144
 1912SOL     OW 6634   3.469   6.704   2.628
 1912SOL    HW1 6635   3.488   6.656   2.542
 1912SOL    HW2 6636   3.458   6.801   2.610
 1913SOL     OW 6637   1.919   6.494   5.257
 1913SOL    HW1 6638   1.840   6.447   5.295
 1913SOL    HW2 6639   1.955   6.442   5.179
 1914SOL     OW 6640   2.277   2.996   6.656
 1914SOL    HW1 6641   2.273   3.095   6.669
 1914SOL    HW2 6642   2.185   2.960   6.643
 1915SOL     OW 6643   3.988   0.877   6.069
 1915SOL    HW1 6644   4.064   0.861   6.132
 1915SOL    HW2 6645   4.020   0.865   5.975
 1916SOL     OW 6646   4.094   5.688   0.876
 1916SOL    HW1 6647   4.118   5.785   0.865
 1916SOL    HW2 6648   4.061   5.653   0.788
 1917SOL     OW 6649   3.760   3.933   4.521
 1917SOL    HW1 6650   3.690   3.872   4.558
 1917SOL    HW2 6651   3.847   3.884   4.513
 1918SOL     OW 6652   6.071   6.837   5.813
 1918SOL    HW1 6653   5.994   6.806   5.757
 1918SOL    HW2 6654   6.067   6.936   5.823
 1919SOL     OW 6655   1.081   6.121   2.099
 1919SOL    HW1 6656   1.045   6.028   2.093
 1919SOL    HW2 6657   1.180   6.118   2.116
 1920SOL     OW 6658   0.951   4.093   3.856
 1920SOL    HW1 6659   1.015   4.020   3.835
 1920SOL    HW2 6660   0.983   4.179   3.817
 1921SOL     OW 6661   0.446   5.420   6.841
 1921SOL    HW1 6662   0.463   5.511   6.802
 1921SOL    HW2 6663   0.400   5.429   6.929
 1922SOL     OW 6664   4.329   3.235   1.284
 1922SOL    HW1 6665   4.242   3.259   1.242
 1922SOL    HW2 6666   4.321   3.243   1.384
 1923SOL     OW 6667   2.887   1.356   0.426
 1923SOL    HW1 6668   2.958   1.426   0.430
 1923SOL    HW2 6669   2.840   1.361   0.338
 1924SOL     OW 6670   6.810   4.440   1.557
 1924SOL    HW1 6671   6.765   4.376   1.621
 1924SOL    HW2 6672   6.909   4.425   1.559
 1925SOL     OW 6673   2.974   3.817   1.878
 1925SOL    HW1 6674   2.987   3.910   1.843
 1925SOL    HW2 6675   2.995   3.815   1.975
 1926SOL     OW 6676   1.465   0.513   4.519
 1926SOL    HW1 6677   1.490   0.507   4.422
 1926SOL    HW2 6678   1.373   0.475   4.532
 1927SOL     OW 6679   3.666   3.980   6.854
 1927SOL    HW1 6680   3.748   3.939   6.817
 1927SOL    HW2 6681   3.686   4.021   6.943
 1928SOL     OW 6682   6.619   2.995   5.855
 1928SOL    HW1 6683   6.618   2.964   5.950
 1928SOL    HW2 6684   6.526   3.017   5.826
 1929SOL     OW 6685   1.237   5.742   2.001
 1929SOL    HW1 6686   1.198   5.739   1.909
 1929SOL    HW2 6687   1.313   5.808   2.003
 1930SOL     OW 6688   5.956   4.370   0.229
 1930SOL    HW1 6689   6.026   4.428   0.187
 1930SOL    HW2 6690   5.887   4.347   0.160
 1931SOL     OW 6691   6.892   3.323   3.188
 1931SOL    HW1 6692   6.943   3.378   3.254
 1931SOL    HW2 6693   6.834   3.382   3.132
 1932SOL     OW 6694   5.253   3.813   2.911
 1932SOL    HW1 6695   5.338   3.761   2.922
 1932SOL    HW2 6696   5.178   3.760   2.950
 1933SOL     OW 6697   2.621   5.412   0.843
 1933SOL    HW1 6698   2.664   5.322   0.841
 1933SOL    HW2 6699   2.663   5.468   0.914
 1934SOL     OW 6700   1.439   6.979   5.450
 1934SOL    HW1 6701   1.536   6.973   5.429
 1934SOL    HW2 6702   1.426   0.008   5.533
 1935SOL     OW 6703   2.797   0.105   4.948
 1935SOL    HW1 6704   2.893   0.110   4.919
 1935SOL    HW2 6705   2.781   0.170   5.022
 1936SOL     OW 6706   5.425   5.493   4.983
 1936SOL    HW1 6707   5.405   5.460   5.075
 1936SOL    HW2 6708   5.420   5.592   4.981
 1937SOL     OW 6709   4.055   6.608   2.027
 1937SOL    HW1 6710   4.057   6.708   2.020
 1937SOL    HW2 6711   4.056   6.568   1.936
 1938SOL     OW 6712   4.144   1.727   3.305
 1938SOL    HW1 6713   4.166   1.724   3.207
 1938SOL    HW2 6714   4.074   1.659   3.326
 1939SOL     OW 6715   1.098   0.577   3.589
 1939SOL    HW1 6716   1.175   0.523   3.554
 1939SOL    HW2 6717   1.037   0.517   3.641
 1940SOL     OW 6718   4.968   5.679   6.638
 1940SOL    HW1 6719   5.039   5.674   6.709
 1940SOL    HW2 6720   4.885   5.634   6.671
 1941SOL     OW 6721   6.707   4.402   2.926
 1941SOL    HW1 6722   6.698   4.431   3.021
 1941SOL    HW2 6723   6.800   4.421   2.894
 1942SOL     OW 6724   5.504   6.038   2.230
 1942SOL    HW1 6725   5.441   6.067   2.158
 1942SOL    HW2 6726   5.599   6.047   2.198
 1943SOL     OW 6727   3.367   5.678   1.976
 1943SOL    HW1 6728   3.434   5.747   1.949
 1943SOL    HW2 6729   3.296   5.721   2.032
 1944SOL     OW 6730   5.058   1.985   6.623
 1944SOL    HW1 6731   5.016   1.901   6.587
 1944SOL    HW2 6732   5.127   2.018   6.560
 1945SOL     OW 6733   4.948   5.501   3.053
 1945SOL    HW1 6734   4.868   5.516   2.996
 1945SOL    HW2 6735   4.923   5.448   3.134
 1946SOL     OW 6736   0.574   0.908   0.556
 1946SOL    HW1 6737   0.660   0.873   0.593
 1946SOL    HW2 6738   0.574   0.896   0.456
 1947SOL     OW 6739   5.476   6.277   4.497
 1947SOL    HW1 6740   5.555   6.323   4.536
 1947SOL    HW2 6741   5.419   6.345   4.449
 1948SOL     OW 6742   6.579   5.332   4.628
 1948SOL    HW1 6743   6.481   5.354   4.622
 1948SOL    HW2 6744   6.623   5.358   4.542
 1949SOL     OW 6745   4.308   4.106   5.685
 1949SOL    HW1 6746   4.225   4.053   5.664
 1949SOL    HW2 6747   4.287   4.174   5.754
 1950SOL     OW 6748   3.807   3.810   0.521
 1950SOL    HW1 6749   3.856   3.831   0.436
 1950SOL    HW2 6750   3.869   3.761   0.583
 1951SOL     OW 6751   6.964   2.776   0.599
 1951SOL    HW1 6752   6.974   2.838   0.677
 1951SOL    HW2 6753   6.988   2.824   0.514
 1952SOL     OW 6754   3.546   2.670   0.142
 1952SOL    HW1 6755   3.550   2.598   0.211
 1952SOL    HW2 6756   3.475   2.735   0.166
 1953SOL     OW 6757   6.647   2.097   7.021
 1953SOL    HW1 6758   6.636   2.036   0.073
 1953SOL    HW2 6759   6.673   2.188   0.027
 1954SOL     OW 6760   5.804   2.036   3.942
 1954SOL    HW1 6761   5.899   2.028   3.911
 1954SOL    HW2 6762   5.802   2.036   4.042
 1955SOL     OW 6763   1.353   6.666   1.927
 1955SOL    HW1 6764   1.387   6.760   1.927
 1955SOL    HW2 6765   1.259   6.664   1.962
 1956SOL     OW 6766   5.591   6.415   2.669
 1956SOL    HW1 6767   5.642   6.331   2.688
 1956SOL    HW2 6768   5.655   6.487   2.641
 1957SOL     OW 6769   6.258   5.697   5.265
 1957SOL    HW1 6770   6.245   5.795   5.273
 1957SOL    HW2 6771   6.206   5.650   5.337
 1958SOL     OW 6772   6.109   3.409   4.192
 1958SOL    HW1 6773   6.180   3.342   4.215
 1958SOL    HW2 6774   6.152   3.499   4.178
 1959SOL     OW 6775   0.803   2.494   6.078
 1959SOL    HW1 6776   0.714   2.539   6.088
 1959SOL    HW2 6777   0.839   2.511   5.986
 1960SOL     OW 6778   6.852   4.707   1.205
 1960SOL    HW1 6779   6.890   4.615   1.210
 1960SOL    HW2 6780   6.803   4.727   1.291
 1961SOL     OW 6781   5.627   4.243   4.441
 1961SOL    HW1 6782   5.596   4.272   4.532
 1961SOL    HW2 6783   5.625   4.320   4.378
 1962SOL     OW 6784   1.320   6.237   3.471
 1962SOL    HW1 6785   1.336   6.327   3.511
 1962SOL    HW2 6786   1.387   6.221   3.398
 1963SOL     OW 6787   0.852   0.735   1.992
 1963SOL    HW1 6788   0.843   0.709   2.088
 1963SOL    HW2 6789   0.822   0.830   1.981
 1964SOL     OW 6790   4.575   2.854   1.392
 1964SOL    HW1 6791   4.649   2.792   1.363
 1964SOL    HW2 6792   4.499   2.799   1.428
 1965SOL     OW 6793   0.587   3.192   2.850
 1965SOL    HW1 6794   0.540   3.263   2.798
 1965SOL    HW2 6795   0.544   3.183   2.940
 1966SOL     OW 6796   0.144   5.066   5.209
 1966SOL    HW1 6797   0.197   5.148   5.234
 1966SOL    HW2 6798   0.090   5.085   5.128
 1967SOL     OW 6799   4.643   2.005   6.113
 1967SOL    HW1 6800   4.589   1.956   6.045
 1967SOL    HW2 6801   4.641   2.103   6.093
 1968SOL     OW 6802   3.351   6.270   0.283
 1968SOL    HW1 6803   3.351   6.329   0.364
 1968SOL    HW2 6804   3.346   6.174   0.312
 1969SOL     OW 6805   7.007   1.071   1.824
 1969SOL    HW1 6806   6.991   1.057   1.922
 1969SOL    HW2 6807   6.948   1.144   1.791
 1970SOL     OW 6808   2.558   1.097   6.101
 1970SOL    HW1 6809   2.486   1.060   6.160
 1970SOL    HW2 6810   2.631   1.029   6.092
 1971SOL     OW 6811   6.824   0.279   6.318
 1971SOL    HW1 6812   6.759   0.354   6.306
 1971SOL    HW2 6813   6.840   0.264   6.415
 1972SOL     OW 6814   0.074   2.799   2.851
 1972SOL    HW1 6815   0.136   2.815   2.927
 1972SOL    HW2 6816   0.022   2.883   2.831
 1973SOL     OW 6817   3.522   3.410   1.317
 1973SOL    HW1 6818   3.599   3.351   1.292
 1973SOL    HW2 6819   3.496   3.466   1.239
 1974SOL     OW 6820   6.244   6.247   3.990
 1974SOL    HW1 6821   6.286   6.307   4.057
 1974SOL    HW2 6822   6.277   6.154   4.003
 1975SOL     OW 6823   2.443   1.037   3.000
 1975SOL    HW1 6824   2.418   1.133   3.014
 1975SOL    HW2 6825   2.452   1.019   2.902
 1976SOL     OW 6826   0.538   6.122   6.984
 1976SOL    HW1 6827   0.621   6.127   0.014
 1976SOL    HW2 6828   0.564   6.109   6.889
 1977SOL     OW 6829   0.942   2.630   3.375
 1977SOL    HW1 6830   1.011   2.691   3.336
 1977SOL    HW2 6831   0.859   2.683   3.395
 1978SOL     OW 6832   1.574   0.679   4.117
 1978SOL    HW1 6833   1.555   0.620   4.039
 1978SOL    HW2 6834   1.648   0.639   4.172
 1979SOL     OW 6835   6.693   4.161   4.963
 1979SOL    HW1 6836   6.604   4.120   4.984
 1979SOL    HW2 6837   6.679   4.250   4.918
 1980SOL     OW 6838   3.087   0.500   0.335
 1980SOL    HW1 6839   3.177   0.507   0.293
 1980SOL    HW2 6840   3.076   0.572   0.404
 1981SOL     OW 6841   5.280   2.042   2.557
 1981SOL    HW1 6842   5.182   2.026   2.568
 1981SOL    HW2 6843   5.294   2.126   2.504
 1982SOL     OW 6844   6.301   4.356   5.749
 1982SOL    HW1 6845   6.220   4.302   5.730
 1982SOL    HW2 6846   6.374   4.297   5.783
 1983SOL     OW 6847   0.797   2.640   2.564
 1983SOL    HW1 6848   0.840   2.608   2.648
 1983SOL    HW2 6849   0.717   2.584   2.544
 1984SOL     OW 6850   5.360   1.328   5.621
 1984SOL    HW1 6851   5.260   1.324   5.625
 1984SOL    HW2 6852   5.397   1.235   5.617
 1985SOL     OW 6853   1.399   0.736   2.314
 1985SOL    HW1 6854   1.486   0.766   2.354
 1985SOL    HW2 6855   1.414   0.653   2.261
 1986SOL     OW 6856   1.379   1.426   6.956
 1986SOL    HW1 6857   1.449   1.493   6.982
 1986SOL    HW2 6858   1.293   1.473   6.937
 1987SOL     OW 6859   2.214   3.165   1.534
 1987SOL    HW1 6860   2.207   3.214   1.447
 1987SOL    HW2 6861   2.182   3.223   1.608
 1988SOL     OW 6862   4.962   4.049   0.945
 1988SOL    HW1 6863   4.901   4.127   0.929
 1988SOL    HW2 6864   5.015   4.032   0.862
 1989SOL     OW 6865   2.161   0.572   5.151
 1989SOL    HW1 6866   2.072   0.599   5.113
 1989SOL    HW2 6867   2.230   0.639   5.125
 1990SOL     OW 6868   3.516   0.180   1.351
 1990SOL    HW1 6869   3.602   0.222   1.382
 1990SOL    HW2 6870   3.484   0.116   1.420
 1991SOL     OW 6871   3.783   5.101   6.085
 1991SOL    HW1 6872   3.749   5.173   6.025
 1991SOL    HW2 6873   3.831   5.142   6.162
 1992SOL     OW 6874   2.449   6.507   6.626
 1992SOL    HW1 6875   2.372   6.462   6.672
 1992SOL    HW2 6876   2.516   6.536   6.694
 1993SOL     OW 6877   4.257   3.259   5.253
 1993SOL    HW1 6878   4.262   3.308   5.340
 1993SOL    HW2 6879   4.270   3.325   5.178
 1994SOL     OW 6880   1.601   2.322   1.590
 1994SOL    HW1 6881   1.605   2.392   1.519
 1994SOL    HW2 6882   1.505   2.303   1.613
 1995SOL     OW 6883   6.236   2.341   2.054
 1995SOL    HW1 6884   6.228   2.423   1.997
 1995SOL    HW2 6885   6.332   2.315   2.062
 1996SOL     OW 6886   2.860   3.828   0.932
 1996SOL    HW1 6887   2.885   3.751   0.990
 1996SOL    HW2 6888   2.814   3.794   0.850
 1997SOL     OW 6889   4.601   0.287   5.787
 1997SOL    HW1 6890   4.531   0.229   5.829
 1997SOL    HW2 6891   4.631   0.247   5.701
 1998SOL     OW 6892   2.963   3.828   5.925
 1998SOL    HW1 6893   2.990   3.922   5.945
 1998SOL    HW2 6894   2.884   3.828   5.863
 1999SOL     OW 6895   2.978   0.108   2.002
 1999SOL    HW1 6896   3.044   0.069   2.066
 1999SOL    HW2 6897   2.937   0.189   2.041
 2000SOL     OW 6898   4.114   1.788   5.490
 2000SOL    HW1 6899   4.192   1.850   5.493
 2000SOL    HW2 6900   4.056   1.810   5.412
 2001SOL     OW 6901   3.393   2.347   1.738
 2001SOL    HW1 6902   3.486   2.354   1.774
 2001SOL    HW2 6903   3.349   2.437   1.740
 2002SOL     OW 6904   1.038   5.720   6.275
 2002SOL    HW1 6905   1.006   5.740   6.368
 2002SOL    HW2 6906   1.103   5.643   6.278
 2003SOL     OW 6907   4.441   6.962   3.521
 2003SOL    HW1 6908   4.541   6.957   3.522
 2003SOL    HW2 6909   4.403   6.878   3.483
 2004SOL     OW 6910   5.019   1.060   4.782
 2004SOL    HW1 6911   4.930   1.073   4.737
 2004SOL    HW2 6912   5.004   1.019   4.872
 2005SOL     OW 6913   1.209   5.336   0.132
 2005SOL    HW1 6914   1.237   5.381   0.047
 2005SOL    HW2 6915   1.135   5.272   0.113
 2006SOL     OW 6916   5.335   4.097   3.354
 2006SOL    HW1 6917   5.318   4.029   3.425
 2006SOL    HW2 6918   5.258   4.101   3.291
 2007SOL     OW 6919   4.509   5.998   0.454
 2007SOL    HW1 6920   4.459   5.919   0.490
 2007SOL    HW2 6921   4.449   6.078   0.454
 2008SOL     OW 6922   0.906   5.324   3.295
 2008SOL    HW1 6923   0.918   5.418   3.327
 2008SOL    HW2 6924   0.995   5.285   3.274
 2009SOL     OW 6925   6.599   0.387   1.479
 2009SOL    HW1 6926   6.693   0.412   1.459
 2009SOL    HW2 6927   6.597   0.323   1.556
 2010SOL     OW 6928   1.498   1.000   0.720
 2010SOL    HW1 6929   1.448   1.002   0.806
 2010SOL    HW2 6930   1.434   1.007   0.643
 2011SOL     OW 6931   6.179   1.558   4.969
 2011SOL    HW1 6932   6.087   1.562   4.932
 2011SOL    HW2 6933   6.218   1.650   4.974
 2012SOL     OW 6934   0.968   3.506   0.952
 2012SOL    HW1 6935   0.939   3.436   1.017
 2012SOL    HW2 6936   0.998   3.587   1.002
 2013SOL     OW 6937   5.090   0.992   3.093
 2013SOL    HW1 6938   4.999   1.032   3.100
 2013SOL    HW2 6939   5.082   0.898   3.060
 2014SOL     OW 6940   1.597   5.290   3.190
 2014SOL    HW1 6941   1.658   5.365   3.163
 2014SOL    HW2 6942   1.652   5.208   3.208
 2015SOL     OW 6943   2.816   1.250   6.775
 2015SOL    HW1 6944   2.837   1.333   6.724
 2015SOL    HW2 6945   2.793   1.177   6.710
 2016SOL     OW 6946   0.502   6.069   5.431
 2016SOL    HW1 6947   0.571   6.002   5.456
 2016SOL    HW2 6948   0.546   6.155   5.403
 2017SOL     OW 6949   3.898   6.335   3.712
 2017SOL    HW1 6950   3.918   6.326   3.810
 2017SOL    HW2 6951   3.801   6.318   3.696
 2018SOL     OW 6952   6.648   5.798   6.074
 2018SOL    HW1 6953   6.725   5.851   6.039
 2018SOL    HW2 6954   6.597   5.854   6.139
 2019SOL     OW 6955   4.846   2.795   2.071
 2019SOL    HW1 6956   4.813   2.875   2.022
 2019SOL    HW2 6957   4.783   2.718   2.055
 2020SOL     OW 6958   1.016   4.669   4.747
 2020SOL    HW1 6959   0.964   4.734   4.690
 2020SOL    HW2 6960   1.034   4.586   4.695
 2021SOL     OW 6961   2.271   6.816   3.045
 2021SOL    HW1 6962   2.220   6.771   2.971
 2021SOL    HW2 6963   2.345   6.756   3.075
 2022SOL     OW 6964   1.981   3.707   2.460
 2022SOL    HW1 6965   1.886   3.710   2.493
 2022SOL    HW2 6966   1.984   3.661   2.372
 2023SOL     OW 6967   0.136   1.827   0.480
 2023SOL    HW1 6968   0.057   1.887   0.496
 2023SOL    HW2 6969   0.107   1.748   0.427
 2024SOL     OW 6970   6.971   0.788   2.791
 2024SOL    HW1 6971   7.024   0.742   2.862
 2024SOL    HW2 6972   6.915   0.860   2.832
 2025SOL     OW 6973   1.586   2.604   2.173
 2025SOL    HW1 6974   1.608   2.695   2.211
 2025SOL    HW2 6975   1.565   2.541   2.248
 2026SOL     OW 6976   1.612   2.177   5.941
 2026SOL    HW1 6977   1.551   2.161   6.018
 2026SOL    HW2 6978   1.561   2.220   5.866
 2027SOL     OW 6979   1.431   1.420   1.381
 2027SOL    HW1 6980   1.473   1.330   1.397
 2027SOL    HW2 6981   1.460   1.455   1.292
 2028SOL     OW 6982   3.498   1.490   6.410
 2028SOL    HW1 6983   3.506   1.523   6.504
 2028SOL    HW2 6984   3.402   1.488   6.383
 2029SOL     OW 6985   0.112   0.253   6.912
 2029SOL    HW1 6986   0.016   0.256   6.884
 2029SOL    HW2 6987   0.169   0.228   6.834
 2030SOL     OW 6988   1.951   1.399   4.119
 2030SOL    HW1 6989   1.867   1.429   4.165
 2030SOL    HW2 6990   1.938   1.306   4.085
 2031SOL     OW 6991   4.943   6.256   2.257
 2031SOL    HW1 6992   4.964   6.236   2.352
 2031SOL    HW2 6993   4.918   6.352   2.248
 2032SOL     OW 6994   5.501   5.873   1.271
 2032SOL    HW1 6995   5.486   5.936   1.348
 2032SOL    HW2 6996   5.454   5.908   1.190
 2033SOL     OW 6997   3.447   4.528   6.903
 2033SOL    HW1 6998   3.432   4.447   6.847
 2033SOL    HW2 6999   3.417   4.610   6.853
 2034SOL     OW 7000   2.471   0.221   4.387
 2034SOL    HW1 7001   2.479   0.174   4.475
 2034SOL    HW2 7002   2.562   0.232   4.346
 2035SOL     OW 7003   0.326   0.604   2.525
 2035SOL    HW1 7004   0.325   0.589   2.623
 2035SOL    HW2 7005   0.420   0.591   2.490
 2036SOL     OW 7006   0.454   5.898   3.094
 2036SOL    HW1 7007   0.474   5.996   3.095
 2036SOL    HW2 7008   0.453   5.866   3.000
 2037SOL     OW 7009   6.584   1.831   5.698
 2037SOL    HW1 7010   6.513   1.835   5.768
 2037SOL    HW2 7011   6.554   1.769   5.625
 2038SOL     OW 7012   0.925   1.545   6.682
 2038SOL    HW1 7013   0.951   1.626   6.629
 2038SOL    HW2 7014   0.912   1.467   6.621
 2039SOL     OW 7015   0.900   5.235   2.915
 2039SOL    HW1 7016   0.939   5.230   3.008
 2039SOL    HW2 7017   0.844   5.317   2.907
 2040SOL     OW 7018   3.249   3.091   5.024
 2040SOL    HW1 7019   3.179   3.081   5.095
 2040SOL    HW2 7020   3.268   3.002   4.982
 2041SOL     OW 7021   6.921   6.347   6.665
 2041SOL    HW1 7022   6.991   6.306   6.607
 2041SOL    HW2 7023   6.842   6.285   6.671
 2042SOL     OW 7024   6.097   5.659   0.020
 2042SOL    HW1 7025   6.167   5.651   0.090
 2042SOL    HW2 7026   6.086   5.572   6.999
 2043SOL     OW 7027   6.926   4.629   2.612
 2043SOL    HW1 7028   6.839   4.630   2.563
 2043SOL    HW2 7029   6.913   4.668   2.704
 2044SOL     OW 7030   5.009   0.422   2.226
 2044SOL    HW1 7031   4.971   0.359   2.158
 2044SOL    HW2 7032   5.099   0.390   2.255
 2045SOL     OW 7033   2.463   4.482   5.152
 2045SOL    HW1 7034   2.459   4.469   5.052
 2045SOL    HW2 7035   2.548   4.528   5.176
 2046SOL     OW 7036   0.017   0.187   4.594
 2046SOL    HW1 7037   0.048   0.103   4.549
 2046SOL    HW2 7038   0.096   0.233   4.635
 2047SOL     OW 7039   4.469   2.001   6.812
 2047SOL    HW1 7040   4.434   2.080   6.862
 2047SOL    HW2 7041   4.393   1.953   6.767
 2048SOL     OW 7042   3.546   6.212   0.092
 2048SOL    HW1 7043   3.499   6.259   0.167
 2048SOL    HW2 7044   3.609   6.144   0.130
 2049SOL     OW 7045   4.262   2.427   6.093
 2049SOL    HW1 7046   4.212   2.443   6.178
 2049SOL    HW2 7047   4.361   2.429   6.111
 2050SOL     OW 7048   6.178   2.940   4.184
 2050SOL    HW1 7049   6.136   2.910   4.269
 2050SOL    HW2 7050   6.226   3.026   4.199
 2051SOL     OW 7051   6.800   4.818   0.083
 2051SOL    HW1 7052   6.888   4.797   0.040
 2051SOL    HW2 7053   6.815   4.876   0.163
 2052SOL     OW 7054   0.364   4.174   0.258
 2052SOL    HW1 7055   0.457   4.211   0.259
 2052SOL    HW2 7056   0.365   4.082   0.297
 2053SOL     OW 7057   6.208   0.527   0.665
 2053SOL    HW1 7058   6.155   0.442   0.656
 2053SOL    HW2 7059   6.288   0.523   0.606
 2054SOL     OW 7060   4.885   2.600   1.786
 2054SOL    HW1 7061   4.817   2.667   1.817
 2054SOL    HW2 7062   4.914   2.623   1.694
 2055SOL     OW 7063   5.953   3.044   2.567
 2055SOL    HW1 7064   5.967   3.125   2.624
 2055SOL    HW2 7065   5.874   2.993   2.600
 2056SOL     OW 7066   2.333   1.286   3.039
 2056SOL    HW1 7067   2.378   1.368   3.006
 2056SOL    HW2 7068   2.246   1.274   2.991
 2057SOL     OW 7069   5.706   2.602   3.859
 2057SOL    HW1 7070   5.742   2.515   3.891
 2057SOL    HW2 7071   5.634   2.633   3.920
 2058SOL     OW 7072   1.232   1.886   3.479
 2058SOL    HW1 7073   1.324   1.924   3.469
 2058SOL    HW2 7074   1.237   1.787   3.474
 2059SOL     OW 7075   2.761   6.570   6.081
 2059SOL    HW1 7076   2.672   6.560   6.126
 2059SOL    HW2 7077   2.790   6.482   6.045
 2060SOL     OW 7078   6.802   3.883   0.968
 2060SOL    HW1 7079   6.845   3.873   0.878
 2060SOL    HW2 7080   6.846   3.821   1.034
 2061SOL     OW 7081   1.217   1.944   2.898
 2061SOL    HW1 7082   1.121   1.971   2.909
 2061SOL    HW2 7083   1.222   1.853   2.858
 2062SOL     OW 7084   5.577   6.998   3.010
 2062SOL    HW1 7085   5.602   6.902   2.994
 2062SOL    HW2 7086   5.561   0.017   2.922
 2063SOL     OW 7087   1.037   1.534   5.926
 2063SOL    HW1 7088   1.057   1.545   5.829
 2063SOL    HW2 7089   0.952   1.582   5.947
 2064SOL     OW 7090   0.803   1.590   5.444
 2064SOL    HW1 7091   0.886   1.535   5.436
 2064SOL    HW2 7092   0.726   1.531   5.467
 2065SOL     OW 7093   6.458   4.297   2.574
 2065SOL    HW1 7094   6.474   4.368   2.643
 2065SOL    HW2 7095   6.511   4.216   2.597
 2066SOL     OW 7096   0.480   5.643   4.216
 2066SOL    HW1 7097   0.395   5.593   4.235
 2066SOL    HW2 7098   0.473   5.686   4.126
 2067SOL     OW 7099   6.990   6.778   0.981
 2067SOL    HW1 7100   7.005   6.737   0.891
 2067SOL    HW2 7101   6.914   6.842   0.976
 2068SOL     OW 7102   1.024   1.442   5.399
 2068SOL    HW1 7103   1.106   1.492   5.427
 2068SOL    HW2 7104   1.018   1.442   5.299
 2069SOL     OW 7105   0.260   2.454   3.327
 2069SOL    HW1 7106   0.276   2.399   3.409
 2069SOL    HW2 7107   0.198   2.406   3.266
 2070SOL     OW 7108   1.889   6.980   2.276
 2070SOL    HW1 7109   1.916   6.932   2.193
 2070SOL    HW2 7110   1.800   7.024   2.262
 2071SOL     OW 7111   0.052   5.589   5.825
 2071SOL    HW1 7112   0.048   5.560   5.729
 2071SOL    HW2 7113   0.029   5.687   5.830
 2072SOL     OW 7114   4.696   6.394   1.545
 2072SOL    HW1 7115   4.676   6.302   1.512
 2072SOL    HW2 7116   4.708   6.392   1.644
 2073SOL     OW 7117   3.760   0.126   4.622
 2073SOL    HW1 7118   3.686   0.192   4.635
 2073SOL    HW2 7119   3.847   0.174   4.615
 2074SOL     OW 7120   1.043   3.194   0.011
 2074SOL    HW1 7121   0.964   3.145   7.000
 2074SOL    HW2 7122   1.013   3.281   0.050
 2075SOL     OW 7123   5.261   2.859   1.619
 2075SOL    HW1 7124   5.209   2.904   1.692
 2075SOL    HW2 7125   5.281   2.925   1.546
 2076SOL     OW 7126   5.407   6.856   0.021
 2076SOL    HW1 7127   5.475   6.857   0.094
 2076SOL    HW2 7128   5.330   6.798   0.048
 2077SOL     OW 7129   4.513   2.475   2.218
 2077SOL    HW1 7130   4.534   2.380   2.194
 2077SOL    HW2 7131   4.572   2.536   2.165
 2078SOL     OW 7132   1.815   6.611   6.498
 2078SOL    HW1 7133   1.745   6.668   6.454
 2078SOL    HW2 7134   1.860   6.555   6.429
 2079SOL     OW 7135   5.242   0.926   3.548
 2079SOL    HW1 7136   5.297   0.997   3.503
 2079SOL    HW2 7137   5.146   0.954   3.549
 2080SOL     OW 7138   1.538   0.605   4.753
 2080SOL    HW1 7139   1.507   0.700   4.761
 2080SOL    HW2 7140   1.535   0.578   4.656
 2081SOL     OW 7141   1.536   5.776   5.006
 2081SOL    HW1 7142   1.514   5.758   5.102
 2081SOL    HW2 7143   1.580   5.865   4.999
 2082SOL     OW 7144   6.652   0.518   2.814
 2082SOL    HW1 7145   6.714   0.512   2.736
 2082SOL    HW2 7146   6.698   0.564   2.890
 2083SOL     OW 7147   4.778   4.560   6.422
 2083SOL    HW1 7148   4.700   4.596   6.370
 2083SOL    HW2 7149   4.790   4.612   6.506
 2084SOL     OW 7150   6.914   4.371   3.512
 2084SOL    HW1 7151   6.852   4.319   3.571
 2084SOL    HW2 7152   7.005   4.373   3.554
 2085SOL     OW 7153   5.078   1.188   0.300
 2085SOL    HW1 7154   5.005   1.132   0.260
 2085SOL    HW2 7155   5.038   1.254   0.364
 2086SOL     OW 7156   3.026   6.388   5.506
 2086SOL    HW1 7157   2.964   6.409   5.430
 2086SOL    HW2 7158   3.118   6.420   5.483
 2087SOL     OW 7159   4.718   0.193   2.223
 2087SOL    HW1 7160   4.772   0.201   2.307
 2087SOL    HW2 7161   4.780   0.185   2.145
 2088SOL     OW 7162   2.760   5.846   0.652
 2088SOL    HW1 7163   2.780   5.933   0.696
 2088SOL    HW2 7164   2.827   5.777   0.681
 2089SOL     OW 7165   4.829   1.729   6.839
 2089SOL    HW1 7166   4.776   1.802   6.797
 2089SOL    HW2 7167   4.860   1.757   6.930
 2090SOL     OW 7168   3.923   3.701   5.390
 2090SOL    HW1 7169   3.904   3.799   5.387
 2090SOL    HW2 7170   3.845   3.650   5.355
 2091SOL     OW 7171   6.713   5.716   0.010
 2091SOL    HW1 7172   6.756   5.805   0.022
 2091SOL    HW2 7173   6.676   5.684   0.097
 2092SOL     OW 7174   4.693   5.948   0.031
 2092SOL    HW1 7175   4.601   5.981   0.007
 2092SOL    HW2 7176   4.756   5.968   6.982
 2093SOL     OW 7177   1.874   2.679   1.767
 2093SOL    HW1 7178   1.853   2.618   1.843
 2093SOL    HW2 7179   1.898   2.770   1.802
 2094SOL     OW 7180   5.408   1.927   1.576
 2094SOL    HW1 7181   5.340   1.861   1.607
 2094SOL    HW2 7182   5.414   2.003   1.641
 2095SOL     OW 7183   5.433   0.025   4.849
 2095SOL    HW1 7184   5.499   0.091   4.886
 2095SOL    HW2 7185   5.396   6.995   4.924
 2096SOL     OW 7186   4.563   4.512   2.547
 2096SOL    HW1 7187   4.501   4.474   2.478
 2096SOL    HW2 7188   4.623   4.580   2.504
 2097SOL     OW 7189   1.585   3.115   0.070
 2097SOL    HW1 7190   1.566   3.069   0.157
 2097SOL    HW2 7191   1.662   3.177   0.081
 2098SOL     OW 7192   4.527   5.382   3.546
 2098SOL    HW1 7193   4.533   5.310   3.477
 2098SOL    HW2 7194   4.588   5.458   3.519
 2099SOL     OW 7195   2.939   3.032   5.336
 2099SOL    HW1 7196   2.982   3.080   5.260
 2099SOL    HW2 7197   2.840   3.048   5.335
 2100SOL     OW 7198   4.004   3.589   5.609
 2100SOL    HW1 7199   3.987   3.643   5.526
 2100SOL    HW2 7200   3.984   3.493   5.591
 2101SOL     OW 7201   1.431   6.634   2.931
 2101SOL    HW1 7202   1.368   6.617   3.006
 2101SOL    HW2 7203   1.517   6.586   2.948
 2102SOL     OW 7204   6.808   5.381   2.384
 2102SOL    HW1 7205   6.767   5.365   2.474
 2102SOL    HW2 7206   6.779   5.309   2.321
 2103SOL     OW 7207   2.845   3.167   6.644
 2103SOL    HW1 7208   2.783   3.143   6.568
 2103SOL    HW2 7209   2.791   3.208   6.718
 2104SOL     OW 7210   1.060   3.790   6.674
 2104SOL    HW1 7211   1.121   3.764   6.749
 2104SOL    HW2 7212   1.003   3.867   6.704
 2105SOL     OW 7213   4.831   5.637   4.547
 2105SOL    HW1 7214   4.752   5.697   4.552
 2105SOL    HW2 7215   4.856   5.605   4.638
 2106SOL     OW 7216   5.098   3.877   0.448
 2106SOL    HW1 7217   5.015   3.822   0.444
 2106SOL    HW2 7218   5.078   3.970   0.417
 2107SOL     OW 7219   4.879   2.973   5.965
 2107SOL    HW1 7220   4.950   3.034   5.928
 2107SOL    HW2 7221   4.915   2.926   6.045
 2108SOL     OW 7222   6.940   6.434   5.584
 2108SOL    HW1 7223   6.955   6.514   5.526
 2108SOL    HW2 7224   6.897   6.362   5.531
 2109SOL     OW 7225   4.706   6.537   3.264
 2109SOL    HW1 7226   4.782   6.474   3.247
 2109SOL    HW2 7227   4.701   6.558   3.361
 2110SOL     OW 7228   2.543   2.610   5.803
 2110SOL    HW1 7229   2.471   2.601   5.872
 2110SOL    HW2 7230   2.586   2.700   5.812
 2111SOL     OW 7231   1.295   2.183   6.676
 2111SOL    HW1 7232   1.271   2.093   6.710
 2111SOL    HW2 7233   1.212   2.236   6.657
 2112SOL     OW 7234   5.110   2.325   1.096
 2112SOL    HW1 7235   5.205   2.296   1.109
 2112SOL    HW2 7236   5.106   2.390   1.020
 2113SOL     OW 7237   1.529   0.413   5.125
 2113SOL    HW1 7238   1.538   0.499   5.175
 2113SOL    HW2 7239   1.445   0.415   5.071
 2114SOL     OW 7240   1.647   3.035   0.976
 2114SOL    HW1 7241   1.569   2.996   1.025
 2114SOL    HW2 7242   1.667   2.980   0.896
 2115SOL     OW 7243   2.169   3.748   2.998
 2115SOL    HW1 7244   2.201   3.837   3.030
 2115SOL    HW2 7245   2.157   3.750   2.899
 2116SOL     OW 7246   0.305   5.013   3.349
 2116SOL    HW1 7247   0.350   5.097   3.381
 2116SOL    HW2 7248   0.213   5.035   3.317
 2117SOL     OW 7249   6.943   4.307   1.278
 2117SOL    HW1 7250   6.855   4.261   1.261
 2117SOL    HW2 7251   6.962   4.308   1.376
 2118SOL     OW 7252   6.638   3.635   2.230
 2118SOL    HW1 7253   6.698   3.688   2.171
 2118SOL    HW2 7254   6.618   3.547   2.186
 2119SOL     OW 7255   2.401   5.944   1.319
 2119SOL    HW1 7256   2.438   5.874   1.259
 2119SOL    HW2 7257   2.408   6.034   1.275
 2120SOL     OW 7258   0.585   4.889   4.371
 2120SOL    HW1 7259   0.661   4.872   4.308
 2120SOL    HW2 7260   0.552   4.802   4.407
 2121SOL     OW 7261   0.736   4.495   5.540
 2121SOL    HW1 7262   0.663   4.526   5.602
 2121SOL    HW2 7263   0.701   4.490   5.447
 2122SOL     OW 7264   5.747   4.511   5.993
 2122SOL    HW1 7265   5.800   4.438   5.951
 2122SOL    HW2 7266   5.670   4.472   6.044
 2123SOL     OW 7267   6.861   4.681   1.855
 2123SOL    HW1 7268   6.799   4.694   1.933
 2123SOL    HW2 7269   6.948   4.644   1.887
 2124SOL     OW 7270   2.768   1.876   2.006
 2124SOL    HW1 7271   2.755   1.970   1.974
 2124SOL    HW2 7272   2.753   1.873   2.105
 2125SOL     OW 7273   1.863   0.497   0.710
 2125SOL    HW1 7274   1.817   0.444   0.639
 2125SOL    HW2 7275   1.795   0.535   0.773
 2126SOL     OW 7276   3.701   0.882   0.693
 2126SOL    HW1 7277   3.667   0.938   0.618
 2126SOL    HW2 7278   3.779   0.927   0.736
 2127SOL     OW 7279   6.712   3.547   4.263
 2127SOL    HW1 7280   6.806   3.569   4.237
 2127SOL    HW2 7281   6.708   3.452   4.293
 2128SOL     OW 7282   6.475   3.751   3.992
 2128SOL    HW1 7283   6.475   3.739   3.892
 2128SOL    HW2 7284   6.402   3.696   4.032
 2129SOL     OW 7285   4.687   3.153   5.279
 2129SOL    HW1 7286   4.657   3.137   5.373
 2129SOL    HW2 7287   4.670   3.072   5.224
 2130SOL     OW 7288   3.430   0.296   2.464
 2130SOL    HW1 7289   3.446   0.254   2.554
 2130SOL    HW2 7290   3.365   0.372   2.474
 2131SOL     OW 7291   6.427   0.447   0.889
 2131SOL    HW1 7292   6.412   0.349   0.897
 2131SOL    HW2 7293   6.447   0.486   0.979
 2132SOL     OW 7294   3.871   2.045   1.383
 2132SOL    HW1 7295   3.949   2.105   1.401
 2132SOL    HW2 7296   3.869   1.971   1.450
 2133SOL     OW 7297   2.365   2.947   6.323
 2133SOL    HW1 7298   2.317   2.889   6.389
 2133SOL    HW2 7299   2.447   2.985   6.366
 2134SOL     OW 7300   0.631   2.419   0.225
 2134SOL    HW1 7301   0.693   2.494   0.201
 2134SOL    HW2 7302   0.592   2.380   0.142
 2135SOL     OW 7303   0.635   3.841   4.991
 2135SOL    HW1 7304   0.710   3.865   5.052
 2135SOL    HW2 7305   0.562   3.909   4.999
 2136SOL     OW 7306   1.998   4.328   2.917
 2136SOL    HW1 7307   2.045   4.397   2.972
 2136SOL    HW2 7308   2.065   4.282   2.857
 2137SOL     OW 7309   2.456   5.675   5.448
 2137SOL    HW1 7310   2.424   5.668   5.542
 2137SOL    HW2 7311   2.378   5.667   5.386
 2138SOL     OW 7312   6.369   6.581   3.359
 2138SOL    HW1 7313   6.304   6.641   3.404
 2138SOL    HW2 7314   6.448   6.567   3.418
 2139SOL     OW 7315   4.395   0.996   3.783
 2139SOL    HW1 7316   4.393   0.937   3.864
 2139SOL    HW2 7317   4.449   1.078   3.803
 2140SOL     OW 7318   2.861   0.040   4.367
 2140SOL    HW1 7319   2.845   7.007   4.288
 2140SOL    HW2 7320   2.864   7.011   4.450
 2141SOL     OW 7321   6.343   2.837   2.529
 2141SOL    HW1 7322   6.440   2.835   2.503
 2141SOL    HW2 7323   6.332   2.800   2.621
 2142SOL     OW 7324   1.475   1.653   2.884
 2142SOL    HW1 7325   1.568   1.617   2.893
 2142SOL    HW2 7326   1.438   1.674   2.974
 2143SOL     OW 7327   3.230   5.166   1.277
 2143SOL    HW1 7328   3.295   5.094   1.302
 2143SOL    HW2 7329   3.277   5.254   1.278
 2144SOL     OW 7330   0.123   5.617   4.763
 2144SOL    HW1 7331   0.100   5.692   4.826
 2144SOL    HW2 7332   0.190   5.649   4.697
 2145SOL     OW 7333   3.798   6.218   4.440
 2145SOL    HW1 7334   3.852   6.138   4.415
 2145SOL    HW2 7335   3.766   6.210   4.534
 2146SOL     OW 7336   2.307   3.126   1.097
 2146SOL    HW1 7337   2.260   3.038   1.103
 2146SOL    HW2 7338   2.288   3.180   1.178
 2147SOL     OW 7339   5.817   1.311   6.698
 2147SOL    HW1 7340   5.908   1.309   6.739
 2147SOL    HW2 7341   5.749   1.324   6.770
 2148SOL     OW 7342   5.980   3.246   6.297
 2148SOL    HW1 7343   5.927   3.243   6.213
 2148SOL    HW2 7344   6.077   3.236   6.276
 2149SOL     OW 7345   2.222   1.587   1.156
 2149SOL    HW1 7346   2.301   1.535   1.188
 2149SOL    HW2 7347   2.142   1.563   1.212
 2150SOL     OW 7348   2.361   2.626   2.420
 2150SOL    HW1 7349   2.288   2.559   2.405
 2150SOL    HW2 7350   2.364   2.650   2.517
 2151SOL     OW 7351   1.502   6.261   6.441
 2151SOL    HW1 7352   1.580   6.232   6.495
 2151SOL    HW2 7353   1.529   6.267   6.345
 2152SOL     OW 7354   4.350   4.783   2.246
 2152SOL    HW1 7355   4.284   4.850   2.213
 2152SOL    HW2 7356   4.304   4.695   2.262
 2153SOL     OW 7357   3.642   1.757   2.523
 2153SOL    HW1 7358   3.727   1.747   2.472
 2153SOL    HW2 7359   3.656   1.729   2.618
 2154SOL     OW 7360   3.838   0.010   4.172
 2154SOL    HW1 7361   3.797   6.961   4.223
 2154SOL    HW2 7362   3.900   7.000   4.103
 2155SOL     OW 7363   4.404   0.055   0.808
 2155SOL    HW1 7364   4.407   0.066   0.907
 2155SOL    HW2 7365   4.323   0.101   0.771
 2156SOL     OW 7366   0.242   0.320   4.689
 2156SOL    HW1 7367   0.340   0.304   4.676
 2156SOL    HW2 7368   0.215   0.289   4.779
 2157SOL     OW 7369   5.495   6.044   3.516
 2157SOL    HW1 7370   5.472   6.140   3.536
 2157SOL    HW2 7371   5.558   6.010   3.586
 2158SOL     OW 7372   3.635   5.946   0.459
 2158SOL    HW1 7373   3.648   5.867   0.519
 2158SOL    HW2 7374   3.710   6.011   0.472
 2159SOL     OW 7375   1.372   0.801   4.958
 2159SOL    HW1 7376   1.339   0.845   5.041
 2159SOL    HW2 7377   1.315   0.720   4.938
 2160SOL     OW 7378   4.866   4.351   0.010
 2160SOL    HW1 7379   4.816   4.414   6.976
 2160SOL    HW2 7380   4.873   4.262   6.992
 2161SOL     OW 7381   6.648   4.484   1.861
 2161SOL    HW1 7382   6.608   4.527   1.942
 2161SOL    HW2 7383   6.694   4.553   1.806
 2162SOL     OW 7384   3.201   0.202   2.224
 2162SOL    HW1 7385   3.156   0.126   2.272
 2162SOL    HW2 7386   3.299   0.186   2.221
 2163SOL     OW 7387   1.934   4.984   0.503
 2163SOL    HW1 7388   1.930   4.936   0.590
 2163SOL    HW2 7389   1.930   4.917   0.428
 2164SOL     OW 7390   1.890   2.067   6.325
 2164SOL    HW1 7391   1.968   2.057   6.264
 2164SOL    HW2 7392   1.921   2.074   6.420
 2165SOL     OW 7393   0.293   2.155   3.220
 2165SOL    HW1 7394   0.289   2.068   3.171
 2165SOL    HW2 7395   0.384   2.195   3.209
 2166SOL     OW 7396   0.813   3.585   4.256
 2166SOL    HW1 7397   0.765   3.499   4.239
 2166SOL    HW2 7398   0.892   3.569   4.315
 2167SOL     OW 7399   0.719   2.922   3.781
 2167SOL    HW1 7400   0.780   3.000   3.777
 2167SOL    HW2 7401   0.739   2.868   3.863
 2168SOL     OW 7402   1.201   1.680   2.786
 2168SOL    HW1 7403   1.148   1.599   2.762
 2168SOL    HW2 7404   1.295   1.652   2.807
 2169SOL     OW 7405   6.102   1.448   0.920
 2169SOL    HW1 7406   6.167   1.374   0.900
 2169SOL    HW2 7407   6.017   1.409   0.954
 2170SOL     OW 7408   6.845   3.809   5.050
 2170SOL    HW1 7409   6.894   3.876   4.995
 2170SOL    HW2 7410   6.749   3.809   5.026
 2171SOL     OW 7411   0.394   5.724   1.275
 2171SOL    HW1 7412   0.393   5.813   1.229
 2171SOL    HW2 7413   0.373   5.736   1.372
 2172SOL     OW 7414   2.228   1.911   6.408
 2172SOL    HW1 7415   2.150   1.860   6.444
 2172SOL    HW2 7416   2.201   1.957   6.323
 2173SOL     OW 7417   4.653   0.783   4.984
 2173SOL    HW1 7418   4.664   0.753   4.889
 2173SOL    HW2 7419   4.557   0.803   5.002
 2174SOL     OW 7420   6.596   5.873   4.871
 2174SOL    HW1 7421   6.565   5.780   4.891
 2174SOL    HW2 7422   6.695   5.872   4.857
 2175SOL     OW 7423   1.650   3.464   3.908
 2175SOL    HW1 7424   1.583   3.391   3.926
 2175SOL    HW2 7425   1.613   3.552   3.937
 2176SOL     OW 7426   5.270   1.992   1.330
 2176SOL    HW1 7427   5.337   1.986   1.404
 2176SOL    HW2 7428   5.197   1.925   1.346
 2177SOL     OW 7429   0.088   0.459   2.532
 2177SOL    HW1 7430   0.079   0.388   2.463
 2177SOL    HW2 7431   0.178   0.502   2.525
 2178SOL     OW 7432   1.658   1.497   2.005
 2178SOL    HW1 7433   1.614   1.570   2.058
 2178SOL    HW2 7434   1.660   1.413   2.059
 2179SOL     OW 7435   1.644   4.117   5.864
 2179SOL    HW1 7436   1.720   4.067   5.822
 2179SOL    HW2 7437   1.669   4.145   5.956
 2180SOL     OW 7438   1.399   3.513   2.305
 2180SOL    HW1 7439   1.357   3.440   2.359
 2180SOL    HW2 7440   1.389   3.492   2.208
 2181SOL     OW 7441   4.424   5.098   4.264
 2181SOL    HW1 7442   4.406   5.087   4.166
 2181SOL    HW2 7443   4.370   5.032   4.316
 2182SOL     OW 7444   1.850   4.635   3.570
 2182SOL    HW1 7445   1.790   4.683   3.506
 2182SOL    HW2 7446   1.933   4.605   3.522
 2183SOL     OW 7447   2.105   4.305   0.360
 2183SOL    HW1 7448   2.142   4.271   0.274
 2183SOL    HW2 7449   2.052   4.232   0.405
 2184SOL     OW 7450   4.217   0.138   6.026
 2184SOL    HW1 7451   4.239   0.161   6.121
 2184SOL    HW2 7452   4.139   0.075   6.025
 2185SOL     OW 7453   0.806   1.349   0.041
 2185SOL    HW1 7454   0.710   1.361   0.013
 2185SOL    HW2 7455   0.866   1.396   7.003
 2186SOL     OW 7456   6.502   5.474   0.449
 2186SOL    HW1 7457   6.567   5.409   0.489
 2186SOL    HW2 7458   6.431   5.495   0.516
 2187SOL     OW 7459   0.244   5.597   1.967
 2187SOL    HW1 7460   0.214   5.533   2.038
 2187SOL    HW2 7461   0.332   5.568   1.930
 2188SOL     OW 7462   1.198   5.488   5.030
 2188SOL    HW1 7463   1.297   5.492   5.020
 2188SOL    HW2 7464   1.167   5.394   5.015
 2189SOL     OW 7465   1.534   6.953   1.367
 2189SOL    HW1 7466   1.630   6.975   1.347
 2189SOL    HW2 7467   1.511   6.865   1.326
 2190SOL     OW 7468   6.584   3.237   1.924
 2190SOL    HW1 7469   6.678   3.273   1.925
 2190SOL    HW2 7470   6.529   3.287   1.991
 2191SOL     OW 7471   2.176   1.975   5.845
 2191SOL    HW1 7472   2.172   1.875   5.836
 2191SOL    HW2 7473   2.264   2.008   5.813
 2192SOL     OW 7474   5.602   0.968   2.449
 2192SOL    HW1 7475   5.551   0.971   2.535
 2192SOL    HW2 7476   5.578   0.885   2.399
 2193SOL     OW 7477   6.646   0.217   6.732
 2193SOL    HW1 7478   6.605   0.171   6.653
 2193SOL    HW2 7479   6.575   0.267   6.782
 2194SOL     OW 7480   1.905   4.078   6.667
 2194SOL    HW1 7481   1.952   4.160   6.634
 2194SOL    HW2 7482   1.814   4.073   6.625
 2195SOL     OW 7483   6.480   6.786   5.674
 2195SOL    HW1 7484   6.561   6.726   5.677
 2195SOL    HW2 7485   6.501   6.872   5.720
 2196SOL     OW 7486   3.063   0.049   4.859
 2196SOL    HW1 7487   3.039   6.995   4.804
 2196SOL    HW2 7488   3.163   0.058   4.863
 2197SOL     OW 7489   2.491   3.736   6.274
 2197SOL    HW1 7490   2.394   3.727   6.296
 2197SOL    HW2 7491   2.504   3.807   6.205
 2198SOL     OW 7492   5.843   0.003   1.776
 2198SOL    HW1 7493   5.772   0.054   1.728
 2198SOL    HW2 7494   5.922   0.063   1.793
 2199SOL     OW 7495   5.361   6.888   3.868
 2199SOL    HW1 7496   5.439   6.867   3.808
 2199SOL    HW2 7497   5.319   6.802   3.898
 2200SOL     OW 7498   1.584   2.088   4.314
 2200SOL    HW1 7499   1.560   2.075   4.218
 2200SOL    HW2 7500   1.591   2.186   4.333
 2201SOL     OW 7501   6.307   2.636   3.330
 2201SOL    HW1 7502   6.406   2.632   3.320
 2201SOL    HW2 7503   6.275   2.729   3.317
 2202SOL     OW 7504   4.056   5.925   1.897
 2202SOL    HW1 7505   4.022   5.929   1.803
 2202SOL    HW2 7506   4.098   6.012   1.921
 2203SOL     OW 7507   2.378   3.545   1.179
 2203SOL    HW1 7508   2.381   3.551   1.279
 2203SOL    HW2 7509   2.419   3.627   1.140
 2204SOL     OW 7510   4.821   2.308   1.093
 2204SOL    HW1 7511   4.763   2.321   1.013
 2204SOL    HW2 7512   4.909   2.269   1.064
 2205SOL     OW 7513   0.866   6.813   6.295
 2205SOL    HW1 7514   0.789   6.810   6.359
 2205SOL    HW2 7515   0.945   6.768   6.337
 2206SOL     OW 7516   3.337   4.587   5.656
 2206SOL    HW1 7517   3.289   4.666   5.618
 2206SOL    HW2 7518   3.270   4.516   5.681
 2207SOL     OW 7519   3.024   5.117   6.116
 2207SOL    HW1 7520   3.080   5.148   6.192
 2207SOL    HW2 7521   3.019   5.017   6.116
 2208SOL     OW 7522   1.696   5.201   3.618
 2208SOL    HW1 7523   1.673   5.298   3.617
 2208SOL    HW2 7524   1.746   5.177   3.535
 2209SOL     OW 7525   2.510   0.107   4.943
 2209SOL    HW1 7526   2.609   0.097   4.941
 2209SOL    HW2 7527   2.468   0.024   4.979
 2210SOL     OW 7528   0.414   4.460   4.025
 2210SOL    HW1 7529   0.392   4.528   3.955
 2210SOL    HW2 7530   0.513   4.453   4.035
 2211SOL     OW 7531   6.818   0.529   0.462
 2211SOL    HW1 7532   6.792   0.452   0.521
 2211SOL    HW2 7533   6.795   0.615   0.507
 2212SOL     OW 7534   2.322   5.973   0.371
 2212SOL    HW1 7535   2.364   5.899   0.425
 2212SOL    HW2 7536   2.393   6.029   0.330
 2213SOL     OW 7537   3.324   1.843   5.247
 2213SOL    HW1 7538   3.267   1.903   5.192
 2213SOL    HW2 7539   3.420   1.853   5.219
 2214SOL     OW 7540   2.976   3.725   4.696
 2214SOL    HW1 7541   3.023   3.645   4.731
 2214SOL    HW2 7542   2.919   3.765   4.768
 2215SOL     OW 7543   5.557   0.720   0.372
 2215SOL    HW1 7544   5.643   0.735   0.422
 2215SOL    HW2 7545   5.522   0.808   0.339
 2216SOL     OW 7546   1.355   1.000   6.684
 2216SOL    HW1 7547   1.376   1.094   6.713
 2216SOL    HW2 7548   1.340   0.943   6.764
 2217SOL     OW 7549   3.801   6.708   2.308
 2217SOL    HW1 7550   3.861   6.784   2.333
 2217SOL    HW2 7551   3.857   6.628   2.285
 2218SOL     OW 7552   7.020   5.168   0.168
 2218SOL    HW1 7553   6.930   5.143   0.202
 2218SOL    HW2 7554   0.063   5.109   0.210
 2219SOL     OW 7555   6.111   1.717   0.867
 2219SOL    HW1 7556   6.028   1.754   0.909
 2219SOL    HW2 7557   6.113   1.618   0.880
 2220SOL     OW 7558   2.181   6.136   5.326
 2220SOL    HW1 7559   2.209   6.043   5.352
 2220SOL    HW2 7560   2.257   6.180   5.278
 2221SOL     OW 7561   5.865   1.629   5.577
 2221SOL    HW1 7562   5.832   1.617   5.484
 2221SOL    HW2 7563   5.936   1.699   5.580
 2222SOL     OW 7564   5.859   0.630   1.444
 2222SOL    HW1 7565   5.896   0.667   1.529
 2222SOL    HW2 7566   5.788   0.563   1.464
 2223SOL     OW 7567   5.868   1.119   5.780
 2223SOL    HW1 7568   5.825   1.154   5.697
 2223SOL    HW2 7569   5.963   1.151   5.784
 2224SOL     OW 7570   6.346   3.904   0.539
 2224SOL    HW1 7571   6.359   3.805   0.532
 2224SOL    HW2 7572   6.261   3.930   0.494
 2225SOL     OW 7573   6.101   6.550   4.444
 2225SOL    HW1 7574   6.139   6.487   4.512
 2225SOL    HW2 7575   6.170   6.617   4.419
 2226SOL     OW 7576   3.973   5.299   0.872
 2226SOL    HW1 7577   4.064   5.319   0.836
 2226SOL    HW2 7578   3.978   5.285   0.971
 2227SOL     OW 7579   6.004   2.406   0.154
 2227SOL    HW1 7580   6.035   2.484   0.100
 2227SOL    HW2 7581   6.052   2.406   0.242
 2228SOL     OW 7582   4.577   5.210   1.028
 2228SOL    HW1 7583   4.510   5.231   1.100
 2228SOL    HW2 7584   4.575   5.281   0.958
 2229SOL     OW 7585   4.369   2.987   5.416
 2229SOL    HW1 7586   4.321   2.956   5.497
 2229SOL    HW2 7587   4.304   3.027   5.351
 2230SOL     OW 7588   6.153   6.118   0.719
 2230SOL    HW1 7589   6.181   6.089   0.627
 2230SOL    HW2 7590   6.235   6.132   0.775
 2231SOL     OW 7591   0.220   0.976   1.386
 2231SOL    HW1 7592   0.122   0.981   1.406
 2231SOL    HW2 7593   0.236   1.005   1.292
 2232SOL     OW 7594   0.785   1.560   4.419
 2232SOL    HW1 7595   0.810   1.651   4.452
 2232SOL    HW2 7596   0.779   1.562   4.319
 2233SOL     OW 7597   2.443   3.466   0.587
 2233SOL    HW1 7598   2.483   3.430   0.671
 2233SOL    HW2 7599   2.343   3.469   0.595
 2234SOL     OW 7600   4.285   1.537   1.092
 2234SOL    HW1 7601   4.370   1.520   1.043
 2234SOL    HW2 7602   4.249   1.628   1.068
 2235SOL     OW 7603   2.964   0.315   1.652
 2235SOL    HW1 7604   3.020   0.251   1.705
 2235SOL    HW2 7605   3.004   0.406   1.657
 2236SOL     OW 7606   1.855   4.077   6.059
 2236SOL    HW1 7607   1.896   4.031   5.980
 2236SOL    HW2 7608   1.788   4.017   6.102
 2237SOL     OW 7609   5.499   4.017   3.842
 2237SOL    HW1 7610   5.401   4.009   3.863
 2237SOL    HW2 7611   5.550   4.029   3.926
 2238SOL     OW 7612   4.772   5.278   1.478
 2238SOL    HW1 7613   4.735   5.370   1.462
 2238SOL    HW2 7614   4.698   5.212   1.477
 2239SOL     OW 7615   3.794   4.871   3.965
 2239SOL    HW1 7616   3.802   4.849   3.868
 2239SOL    HW2 7617   3.698   4.868   3.992
 2240SOL     OW 7618   3.459   5.340   3.146
 2240SOL    HW1 7619   3.482   5.321   3.050
 2240SOL    HW2 7620   3.370   5.386   3.149
 2241SOL     OW 7621   0.072   5.624   2.931
 2241SOL    HW1 7622   0.011   5.611   3.009
 2241SOL    HW2 7623   0.165   5.639   2.964
 2242SOL     OW 7624   5.138   3.048   2.859
 2242SOL    HW1 7625   5.181   2.959   2.848
 2242SOL    HW2 7626   5.061   3.056   2.795
 2243SOL     OW 7627   1.650   6.288   5.678
 2243SOL    HW1 7628   1.582   6.308   5.607
 2243SOL    HW2 7629   1.639   6.352   5.754
 2244SOL     OW 7630   2.157   0.005   0.936
 2244SOL    HW1 7631   2.190   0.030   0.844
 2244SOL    HW2 7632   2.201   0.064   1.004
 2245SOL     OW 7633   0.976   1.485   2.085
 2245SOL    HW1 7634   0.970   1.400   2.138
 2245SOL    HW2 7635   0.904   1.548   2.114
 2246SOL     OW 7636   1.782   0.932   4.238
 2246SOL    HW1 7637   1.801   1.023   4.275
 2246SOL    HW2 7638   1.684   0.922   4.224
 2247SOL     OW 7639   3.246   3.040   3.563
 2247SOL    HW1 7640   3.286   3.016   3.651
 2247SOL    HW2 7641   3.264   2.967   3.497
 2248SOL     OW 7642   6.474   4.101   5.106
 2248SOL    HW1 7643   6.435   4.009   5.109
 2248SOL    HW2 7644   6.401   4.169   5.103
 2249SOL     OW 7645   5.859   6.857   3.888
 2249SOL    HW1 7646   5.924   6.861   3.965
 2249SOL    HW2 7647   5.908   6.833   3.804
 2250SOL     OW 7648   3.816   3.577   4.926
 2250SOL    HW1 7649   3.823   3.501   4.862
 2250SOL    HW2 7650   3.719   3.595   4.947
 2251SOL     OW 7651   5.083   0.276   6.725
 2251SOL    HW1 7652   5.124   0.293   6.635
 2251SOL    HW2 7653   5.119   0.191   6.763
 2252SOL     OW 7654   4.589   2.185   2.704
 2252SOL    HW1 7655   4.569   2.092   2.672
 2252SOL    HW2 7656   4.564   2.193   2.800
 2253SOL     OW 7657   6.907   3.678   6.715
 2253SOL    HW1 7658   6.839   3.694   6.644
 2253SOL    HW2 7659   6.998   3.671   6.673
 2254SOL     OW 7660   3.496   3.038   4.606
 2254SOL    HW1 7661   3.496   3.129   4.647
 2254SOL    HW2 7662   3.580   2.990   4.630
 2255SOL     OW 7663   3.970   3.187   6.047
 2255SOL    HW1 7664   4.020   3.272   6.065
 2255SOL    HW2 7665   3.880   3.208   6.009
 2256SOL     OW 7666   4.888   6.523   2.356
 2256SOL    HW1 7667   4.818   6.589   2.329
 2256SOL    HW2 7668   4.920   6.544   2.449
 2257SOL     OW 7669   0.028   1.487   4.133
 2257SOL    HW1 7670   0.002   1.555   4.063
 2257SOL    HW2 7671   0.010   1.395   4.098
 2258SOL     OW 7672   1.472   5.297   4.347
 2258SOL    HW1 7673   1.421   5.215   4.370
 2258SOL    HW2 7674   1.408   5.372   4.326
 2259SOL     OW 7675   5.058   2.970   5.557
 2259SOL    HW1 7676   5.003   3.046   5.592
 2259SOL    HW2 7677   5.126   2.943   5.625
 2260SOL     OW 7678   0.515   4.688   1.332
 2260SOL    HW1 7679   0.548   4.606   1.379
 2260SOL    HW2 7680   0.592   4.748   1.313
 2261SOL     OW 7681   5.247   4.982   0.081
 2261SOL    HW1 7682   5.301   4.989   0.166
 2261SOL    HW2 7683   5.278   5.053   0.017
 2262SOL     OW 7684   5.927   0.574   3.724
 2262SOL    HW1 7685   5.891   0.487   3.689
 2262SOL    HW2 7686   5.859   0.616   3.784
 2263SOL     OW 7687   3.407   5.983   0.325
 2263SOL    HW1 7688   3.497   5.974   0.369
 2263SOL    HW2 7689   3.388   5.901   0.271
 2264SOL     OW 7690   3.037   5.635   6.823
 2264SOL    HW1 7691   3.025   5.626   6.921
 2264SOL    HW2 7692   2.949   5.624   6.777
 2265SOL     OW 7693   1.820   0.909   3.762
 2265SOL    HW1 7694   1.759   0.830   3.769
 2265SOL    HW2 7695   1.894   0.900   3.828
 2266SOL     OW 7696   5.516   1.340   0.380
 2266SOL    HW1 7697   5.469   1.415   0.426
 2266SOL    HW2 7698   5.475   1.253   0.406
 2267SOL     OW 7699   4.722   2.899   4.536
 2267SOL    HW1 7700   4.808   2.884   4.584
 2267SOL    HW2 7701   4.654   2.937   4.599
 2268SOL     OW 7702   5.932   4.076   6.626
 2268SOL    HW1 7703   5.899   3.993   6.582
 2268SOL    HW2 7704   5.905   4.156   6.572
 2269SOL     OW 7705   6.818   4.832   5.762
 2269SOL    HW1 7706   6.841   4.738   5.738
 2269SOL    HW2 7707   6.898   4.890   5.750
 2270SOL     OW 7708   2.991   2.578   5.777
 2270SOL    HW1 7709   2.945   2.656   5.819
 2270SOL    HW2 7710   3.078   2.609   5.739
 2271SOL     OW 7711   5.544   4.283   0.062
 2271SOL    HW1 7712   5.496   4.370   0.074
 2271SOL    HW2 7713   5.637   4.301   0.030
 2272SOL     OW 7714   6.245   1.999   6.369
 2272SOL    HW1 7715   6.260   1.934   6.294
 2272SOL    HW2 7716   6.219   1.949   6.451
 2273SOL     OW 7717   1.826   1.092   2.041
 2273SOL    HW1 7718   1.837   1.054   1.949
 2273SOL    HW2 7719   1.883   1.173   2.050
 2274SOL     OW 7720   1.080   2.255   6.015
 2274SOL    HW1 7721   1.113   2.196   6.089
 2274SOL    HW2 7722   1.092   2.351   6.040
 2275SOL     OW 7723   6.408   6.300   4.706
 2275SOL    HW1 7724   6.450   6.249   4.631
 2275SOL    HW2 7725   6.412   6.398   4.685
 2276SOL     OW 7726   2.468   5.727   1.820
 2276SOL    HW1 7727   2.479   5.822   1.851
 2276SOL    HW2 7728   2.551   5.699   1.771
 2277SOL     OW 7729   4.034   3.837   4.201
 2277SOL    HW1 7730   4.057   3.827   4.298
 2277SOL    HW2 7731   3.955   3.780   4.180
 2278SOL     OW 7732   6.118   4.556   4.341
 2278SOL    HW1 7733   6.197   4.538   4.400
 2278SOL    HW2 7734   6.108   4.482   4.274
 2279SOL     OW 7735   5.558   6.783   5.895
 2279SOL    HW1 7736   5.470   6.793   5.940
 2279SOL    HW2 7737   5.598   6.694   5.918
 2280SOL     OW 7738   6.923   0.131   4.964
 2280SOL    HW1 7739   6.852   0.186   5.009
 2280SOL    HW2 7740   6.915   0.036   4.994
 2281SOL     OW 7741   3.152   0.752   2.032
 2281SOL    HW1 7742   3.195   0.682   1.975
 2281SOL    HW2 7743   3.170   0.842   1.994
 2282SOL     OW 7744   5.618   0.125   5.204
 2282SOL    HW1 7745   5.707   0.081   5.207
 2282SOL    HW2 7746   5.628   0.224   5.218
 2283SOL     OW 7747   1.156   5.810   1.743
 2283SOL    HW1 7748   1.215   5.777   1.669
 2283SOL    HW2 7749   1.060   5.797   1.717
 2284SOL     OW 7750   1.795   2.642   0.066
 2284SOL    HW1 7751   1.783   2.726   0.013
 2284SOL    HW2 7752   1.854   2.661   0.144
 2285SOL     OW 7753   2.031   2.748   1.375
 2285SOL    HW1 7754   2.036   2.723   1.279
 2285SOL    HW2 7755   2.112   2.801   1.400
 2286SOL     OW 7756   6.017   0.089   3.690
 2286SOL    HW1 7757   5.947   0.049   3.749
 2286SOL    HW2 7758   5.988   0.083   3.595
 2287SOL     OW 7759   2.325   0.169   3.430
 2287SOL    HW1 7760   2.289   0.119   3.351
 2287SOL    HW2 7761   2.417   0.204   3.408
 2288SOL     OW 7762   5.750   4.776   4.181
 2288SOL    HW1 7763   5.754   4.852   4.117
 2288SOL    HW2 7764   5.727   4.809   4.273
 2289SOL     OW 7765   0.847   5.238   0.777
 2289SOL    HW1 7766   0.785   5.171   0.736
 2289SOL    HW2 7767   0.832   5.328   0.734
 2290SOL     OW 7768   0.729   3.805   0.652
 2290SOL    HW1 7769   0.684   3.788   0.565
 2290SOL    HW2 7770   0.661   3.835   0.719
 2291SOL     OW 7771   1.994   2.411   5.230
 2291SOL    HW1 7772   1.970   2.323   5.272
 2291SOL    HW2 7773   1.945   2.421   5.144
 2292SOL     OW 7774   0.572   1.971   4.369
 2292SOL    HW1 7775   0.489   1.951   4.420
 2292SOL    HW2 7776   0.605   2.063   4.393
 2293SOL     OW 7777   4.987   5.842   1.762
 2293SOL    HW1 7778   5.072   5.896   1.768
 2293SOL    HW2 7779   5.009   5.748   1.736
 2294SOL     OW 7780   3.443   0.506   6.932
 2294SOL    HW1 7781   3.353   0.485   6.894
 2294SOL    HW2 7782   3.511   0.512   6.859
 2295SOL     OW 7783   0.923   1.898   3.182
 2295SOL    HW1 7784   0.916   1.798   3.178
 2295SOL    HW2 7785   0.882   1.938   3.100
 2296SOL     OW 7786   4.604   5.175   0.464
 2296SOL    HW1 7787   4.605   5.087   0.510
 2296SOL    HW2 7788   4.692   5.189   0.418
 2297SOL     OW 7789   4.389   4.327   5.391
 2297SOL    HW1 7790   4.366   4.231   5.408
 2297SOL    HW2 7791   4.346   4.357   5.306
 2298SOL     OW 7792   4.140   2.842   1.252
 2298SOL    HW1 7793   4.152   2.940   1.260
 2298SOL    HW2 7794   4.206   2.794   1.309
 2299SOL     OW 7795   4.422   6.159   5.239
 2299SOL    HW1 7796   4.382   6.078   5.196
 2299SOL    HW2 7797   4.477   6.208   5.172
 2300SOL     OW 7798   2.169   5.436   2.599
 2300SOL    HW1 7799   2.191   5.430   2.696
 2300SOL    HW2 7800   2.251   5.415   2.545
 2301SOL     OW 7801   2.962   3.271   3.012
 2301SOL    HW1 7802   2.980   3.202   2.943
 2301SOL    HW2 7803   2.982   3.362   2.974
 2302SOL     OW 7804   3.570   0.133   0.604
 2302SOL    HW1 7805   3.508   0.076   0.658
 2302SOL    HW2 7806   3.608   0.205   0.662
 2303SOL     OW 7807   2.052   3.036   5.982
 2303SOL    HW1 7808   2.050   3.081   6.071
 2303SOL    HW2 7809   2.002   2.950   5.987
 2304SOL     OW 7810   4.379   6.690   3.751
 2304SOL    HW1 7811   4.423   6.644   3.674
 2304SOL    HW2 7812   4.445   6.699   3.826
 2305SOL     OW 7813   2.833   6.530   2.847
 2305SOL    HW1 7814   2.879   6.534   2.936
 2305SOL    HW2 7815   2.847   6.440   2.806
 2306SOL     OW 7816   2.428   5.195   2.140
 2306SOL    HW1 7817   2.437   5.295   2.139
 2306SOL    HW2 7818   2.390   5.164   2.052
 2307SOL     OW 7819   0.520   4.151   2.897
 2307SOL    HW1 7820   0.455   4.209   2.947
 2307SOL    HW2 7821   0.472   4.070   2.863
 2308SOL     OW 7822   1.531   6.361   0.309
 2308SOL    HW1 7823   1.445   6.412   0.318
 2308SOL    HW2 7824   1.528   6.280   0.368
 2309SOL     OW 7825   1.859   6.604   6.997
 2309SOL    HW1 7826   1.958   6.596   6.987
 2309SOL    HW2 7827   1.817   6.620   6.908
 2310SOL     OW 7828   5.676   6.353   1.204
 2310SOL    HW1 7829   5.639   6.405   1.281
 2310SOL    HW2 7830   5.601   6.325   1.144
 2311SOL     OW 7831   2.044   5.922   1.813
 2311SOL    HW1 7832   2.016   5.873   1.731
 2311SOL    HW2 7833   1.965   5.973   1.849
 2312SOL     OW 7834   3.638   6.585   4.077
 2312SOL    HW1 7835   3.617   6.526   3.999
 2312SOL    HW2 7836   3.721   6.638   4.058
 2313SOL     OW 7837   5.000   5.397   1.266
 2313SOL    HW1 7838   4.938   5.369   1.340
 2313SOL    HW2 7839   4.959   5.375   1.178
 2314SOL     OW 7840   5.409   0.303   5.151
 2314SOL    HW1 7841   5.480   0.346   5.207
 2314SOL    HW2 7842   5.446   0.281   5.061
 2315SOL     OW 7843   4.870   3.341   5.363
 2315SOL    HW1 7844   4.804   3.272   5.332
 2315SOL    HW2 7845   4.913   3.384   5.283
 2316SOL     OW 7846   3.024   0.577   4.269
 2316SOL    HW1 7847   2.992   0.544   4.358
 2316SOL    HW2 7848   3.011   0.506   4.200
 2317SOL     OW 7849   6.845   6.071   3.467
 2317SOL    HW1 7850   6.931   6.086   3.418
 2317SOL    HW2 7851   6.777   6.030   3.406
 2318SOL     OW 7852   2.279   2.702   4.433
 2318SOL    HW1 7853   2.343   2.701   4.511
 2318SOL    HW2 7854   2.267   2.609   4.399
 2319SOL     OW 7855   2.470   5.599   4.490
 2319SOL    HW1 7856   2.552   5.630   4.441
 2319SOL    HW2 7857   2.472   5.500   4.499
 2320SOL     OW 7858   0.975   3.198   5.008
 2320SOL    HW1 7859   0.950   3.175   4.914
 2320SOL    HW2 7860   1.053   3.261   5.008
 2321SOL     OW 7861   2.239   6.154   6.968
 2321SOL    HW1 7862   2.273   6.196   0.026
 2321SOL    HW2 7863   2.167   6.211   6.929
 2322SOL     OW 7864   1.630   3.458   3.308
 2322SOL    HW1 7865   1.716   3.490   3.347
 2322SOL    HW2 7866   1.570   3.536   3.291
 2323SOL     OW 7867   3.376   4.890   1.818
 2323SOL    HW1 7868   3.454   4.848   1.863
 2323SOL    HW2 7869   3.398   4.905   1.721
 2324SOL     OW 7870   6.725   5.795   0.847
 2324SOL    HW1 7871   6.748   5.735   0.770
 2324SOL    HW2 7872   6.758   5.755   0.932
 2325SOL     OW 7873   0.924   4.622   1.373
 2325SOL    HW1 7874   0.961   4.580   1.290
 2325SOL    HW2 7875   0.905   4.719   1.357
 2326SOL     OW 7876   3.824   5.533   6.383
 2326SOL    HW1 7877   3.897   5.509   6.446
 2326SOL    HW2 7878   3.785   5.621   6.409
 2327SOL     OW 7879   6.609   1.502   4.223
 2327SOL    HW1 7880   6.699   1.466   4.197
 2327SOL    HW2 7881   6.620   1.569   4.297
 2328SOL     OW 7882   1.838   2.010   3.073
 2328SOL    HW1 7883   1.887   1.998   3.160
 2328SOL    HW2 7884   1.740   2.018   3.091
 2329SOL     OW 7885   1.436   4.532   4.473
 2329SOL    HW1 7886   1.495   4.602   4.513
 2329SOL    HW2 7887   1.370   4.501   4.541
 2330SOL     OW 7888   0.968   3.888   1.293
 2330SOL    HW1 7889   1.055   3.933   1.309
 2330SOL    HW2 7890   0.932   3.851   1.379
 2331SOL     OW 7891   4.133   5.757   6.645
 2331SOL    HW1 7892   4.108   5.804   6.560
 2331SOL    HW2 7893   4.225   5.721   6.637
 2332SOL     OW 7894   5.357   1.401   5.351
 2332SOL    HW1 7895   5.378   1.422   5.446
 2332SOL    HW2 7896   5.263   1.427   5.330
 2333SOL     OW 7897   0.255   4.442   3.043
 2333SOL    HW1 7898   0.225   4.526   2.998
 2333SOL    HW2 7899   0.187   4.371   3.030
 2334SOL     OW 7900   2.143   0.946   0.051
 2334SOL    HW1 7901   2.083   0.960   6.998
 2334SOL    HW2 7902   2.213   1.017   0.052
 2335SOL     OW 7903   6.141   1.306   3.358
 2335SOL    HW1 7904   6.093   1.305   3.446
 2335SOL    HW2 7905   6.228   1.353   3.368
 2336SOL     OW 7906   4.447   2.414   4.919
 2336SOL    HW1 7907   4.350   2.426   4.938
 2336SOL    HW2 7908   4.501   2.464   4.988
 2337SOL     OW 7909   4.703   1.103   1.835
 2337SOL    HW1 7910   4.800   1.123   1.846
 2337SOL    HW2 7911   4.664   1.078   1.924
 2338SOL     OW 7912   1.055   3.007   5.835
 2338SOL    HW1 7913   1.053   2.925   5.891
 2338SOL    HW2 7914   1.048   3.088   5.893
 2339SOL     OW 7915   3.163   3.509   4.397
 2339SOL    HW1 7916   3.068   3.518   4.425
 2339SOL    HW2 7917   3.193   3.594   4.352
 2340SOL     OW 7918   5.985   4.335   0.530
 2340SOL    HW1 7919   6.017   4.242   0.548
 2340SOL    HW2 7920   6.010   4.362   0.436
 2341SOL     OW 7921   3.981   4.532   1.746
 2341SOL    HW1 7922   4.044   4.513   1.671
 2341SOL    HW2 7923   3.899   4.476   1.736
 2342SOL     OW 7924   0.578   0.292   4.846
 2342SOL    HW1 7925   0.560   0.316   4.751
 2342SOL    HW2 7926   0.664   0.334   4.876
 2343SOL     OW 7927   2.077   5.544   3.523
 2343SOL    HW1 7928   2.111   5.629   3.564
 2343SOL    HW2 7929   1.980   5.554   3.500
 2344SOL     OW 7930   1.901   6.246   0.125
 2344SOL    HW1 7931   1.831   6.295   0.177
 2344SOL    HW2 7932   1.961   6.197   0.188
 2345SOL     OW 7933   3.627   5.691   4.764
 2345SOL    HW1 7934   3.649   5.730   4.675
 2345SOL    HW2 7935   3.642   5.592   4.761
 2346SOL     OW 7936   4.137   3.043   5.589
 2346SOL    HW1 7937   4.113   2.947   5.599
 2346SOL    HW2 7938   4.164   3.080   5.677
 2347SOL     OW 7939   2.895   2.914   1.763
 2347SOL    HW1 7940   2.884   3.011   1.785
 2347SOL    HW2 7941   2.837   2.890   1.686
 2348SOL     OW 7942   2.517   0.380   3.618
 2348SOL    HW1 7943   2.483   0.402   3.710
 2348SOL    HW2 7944   2.547   0.285   3.615
 2349SOL     OW 7945   0.683   4.363   6.713
 2349SOL    HW1 7946   0.703   4.435   6.647
 2349SOL    HW2 7947   0.735   4.380   6.797
 2350SOL     OW 7948   4.352   6.719   6.432
 2350SOL    HW1 7949   4.321   6.724   6.527
 2350SOL    HW2 7950   4.326   6.631   6.393
 2351SOL     OW 7951   2.877   5.119   3.833
 2351SOL    HW1 7952   2.971   5.129   3.865
 2351SOL    HW2 7953   2.877   5.098   3.735
 2352SOL     OW 7954   1.186   4.832   2.524
 2352SOL    HW1 7955   1.136   4.914   2.495
 2352SOL    HW2 7956   1.137   4.790   2.601
 2353SOL     OW 7957   2.779   4.418   6.300
 2353SOL    HW1 7958   2.716   4.435   6.225
 2353SOL    HW2 7959   2.865   4.467   6.282
 2354SOL     OW 7960   3.373   1.377   5.747
 2354SOL    HW1 7961   3.408   1.285   5.728
 2354SOL    HW2 7962   3.407   1.409   5.835
 2355SOL     OW 7963   2.319   5.642   0.453
 2355SOL    HW1 7964   2.339   5.550   0.486
 2355SOL    HW2 7965   2.404   5.696   0.453
 2356SOL     OW 7966   1.364   3.754   6.822
 2356SOL    HW1 7967   1.343   3.830   6.884
 2356SOL    HW2 7968   1.350   3.667   6.870
 2357SOL     OW 7969   4.449   6.697   2.875
 2357SOL    HW1 7970   4.449   6.733   2.969
 2357SOL    HW2 7971   4.538   6.714   2.833
 2358SOL     OW 7972   4.359   4.991   5.280
 2358SOL    HW1 7973   4.304   4.908   5.292
 2358SOL    HW2 7974   4.310   5.054   5.220
 2359SOL     OW 7975   6.072   0.940   5.975
 2359SOL    HW1 7976   6.122   0.854   5.985
 2359SOL    HW2 7977   5.974   0.921   5.968
 2360SOL     OW 7978   5.524   4.925   6.891
 2360SOL    HW1 7979   5.465   4.845   6.890
 2360SOL    HW2 7980   5.591   4.916   6.965
 2361SOL     OW 7981   2.107   0.888   4.803
 2361SOL    HW1 7982   2.180   0.955   4.786
 2361SOL    HW2 7983   2.132   0.800   4.763
 2362SOL     OW 7984   2.116   0.087   4.887
 2362SOL    HW1 7985   2.124   0.085   4.788
 2362SOL    HW2 7986   2.163   0.168   4.922
 2363SOL     OW 7987   4.515   2.244   5.245
 2363SOL    HW1 7988   4.569   2.216   5.166
 2363SOL    HW2 7989   4.557   2.209   5.328
 2364SOL     OW 7990   0.953   1.513   2.692
 2364SOL    HW1 7991   0.862   1.552   2.705
 2364SOL    HW2 7992   0.987   1.537   2.601
 2365SOL     OW 7993   6.867   2.977   6.564
 2365SOL    HW1 7994   6.954   3.014   6.532
 2365SOL    HW2 7995   6.883   2.889   6.611
 2366SOL     OW 7996   1.541   5.541   6.275
 2366SOL    HW1 7997   1.526   5.639   6.263
 2366SOL    HW2 7998   1.620   5.513   6.219
 2367SOL     OW 7999   3.018   4.573   0.721
 2367SOL    HW1 8000   2.967   4.585   0.807
 2367SOL    HW2 8001   2.960   4.527   0.654
 2368SOL     OW 8002   4.486   0.300   3.546
 2368SOL    HW1 8003   4.387   0.283   3.541
 2368SOL    HW2 8004   4.512   0.363   3.472
 2369SOL     OW 8005   0.867   2.602   5.846
 2369SOL    HW1 8006   0.923   2.593   5.764
 2369SOL    HW2 8007   0.790   2.663   5.828
 2370SOL     OW 8008   5.289   3.439   6.991
 2370SOL    HW1 8009   5.338   3.403   0.045
 2370SOL    HW2 8010   5.209   3.382   6.973
 2371SOL     OW 8011   0.567   0.514   2.197
 2371SOL    HW1 8012   0.615   0.431   2.169
 2371SOL    HW2 8013   0.481   0.521   2.146
 2372SOL     OW 8014   6.891   2.321   2.211
 2372SOL    HW1 8015   6.862   2.292   2.302
 2372SOL    HW2 8016   6.829   2.284   2.143
 2373SOL     OW 8017   0.407   1.322   0.367
 2373SOL    HW1 8018   0.447   1.271   0.444
 2373SOL    HW2 8019   0.455   1.409   0.356
 2374SOL     OW 8020   5.843   1.138   3.876
 2374SOL    HW1 8021   5.835   1.232   3.910
 2374SOL    HW2 8022   5.756   1.111   3.834
 2375SOL     OW 8023   2.665   6.955   4.710
 2375SOL    HW1 8024   2.572   6.992   4.718
 2375SOL    HW2 8025   2.723   7.021   4.662
 2376SOL     OW 8026   6.397   2.917   3.980
 2376SOL    HW1 8027   6.309   2.949   4.014
 2376SOL    HW2 8028   6.384   2.834   3.926
 2377SOL     OW 8029   3.517   4.175   3.206
 2377SOL    HW1 8030   3.561   4.151   3.293
 2377SOL    HW2 8031   3.588   4.194   3.138
 2378SOL     OW 8032   5.256   2.448   0.237
 2378SOL    HW1 8033   5.284   2.385   0.164
 2378SOL    HW2 8034   5.336   2.501   0.266
 2379SOL     OW 8035   5.617   2.287   6.762
 2379SOL    HW1 8036   5.544   2.219   6.773
 2379SOL    HW2 8037   5.628   2.339   6.846
 2380SOL     OW 8038   0.825   0.193   6.021
 2380SOL    HW1 8039   0.875   0.162   5.939
 2380SOL    HW2 8040   0.882   0.177   6.102
 2381SOL     OW 8041   2.108   3.837   4.639
 2381SOL    HW1 8042   2.171   3.907   4.603
 2381SOL    HW2 8043   2.119   3.832   4.738
 2382SOL     OW 8044   2.474   4.415   3.798
 2382SOL    HW1 8045   2.468   4.391   3.895
 2382SOL    HW2 8046   2.460   4.334   3.742
 2383SOL     OW 8047   5.945   6.611   1.341
 2383SOL    HW1 8048   5.855   6.586   1.378
 2383SOL    HW2 8049   6.011   6.616   1.416
 2384SOL     OW 8050   6.255   6.951   2.727
 2384SOL    HW1 8051   6.319   6.947   2.650
 2384SOL    HW2 8052   6.303   6.983   2.809
 2385SOL     OW 8053   0.645   6.208   1.119
 2385SOL    HW1 8054   0.639   6.202   1.218
 2385SOL    HW2 8055   0.573   6.269   1.085
 2386SOL     OW 8056   5.299   4.759   4.276
 2386SOL    HW1 8057   5.327   4.855   4.280
 2386SOL    HW2 8058   5.301   4.728   4.182
 2387SOL     OW 8059   1.497   1.527   3.728
 2387SOL    HW1 8060   1.530   1.433   3.722
 2387SOL    HW2 8061   1.503   1.558   3.823
 2388SOL     OW 8062   1.505   2.408   3.628
 2388SOL    HW1 8063   1.604   2.412   3.615
 2388SOL    HW2 8064   1.466   2.346   3.561
 2389SOL     OW 8065   4.924   3.802   2.818
 2389SOL    HW1 8066   5.022   3.782   2.811
 2389SOL    HW2 8067   4.905   3.891   2.778
 2390SOL     OW 8068   4.075   3.793   3.049
 2390SOL    HW1 8069   4.000   3.737   3.082
 2390SOL    HW2 8070   4.162   3.757   3.084
 2391SOL     OW 8071   4.605   4.512   5.745
 2391SOL    HW1 8072   4.664   4.509   5.826
 2391SOL    HW2 8073   4.582   4.419   5.718
 2392SOL     OW 8074   3.610   6.681   5.697
 2392SOL    HW1 8075   3.683   6.620   5.727
 2392SOL    HW2 8076   3.565   6.642   5.617
 2393SOL     OW 8077   4.998   3.712   6.040
 2393SOL    HW1 8078   4.926   3.766   6.084
 2393SOL    HW2 8079   4.958   3.635   5.992
 2394SOL     OW 8080   1.530   3.061   4.332
 2394SOL    HW1 8081   1.508   3.025   4.241
 2394SOL    HW2 8082   1.464   3.132   4.357
 2395SOL     OW 8083   6.163   2.591   0.017
 2395SOL    HW1 8084   6.204   2.604   0.107
 2395SOL    HW2 8085   6.229   2.545   6.984
 2396SOL     OW 8086   4.526   4.802   1.079
 2396SOL    HW1 8087   4.588   4.862   1.029
 2396SOL    HW2 8088   4.454   4.768   1.018
 2397SOL     OW 8089   0.600   4.047   0.018
 2397SOL    HW1 8090   0.686   4.004   7.018
 2397SOL    HW2 8091   0.535   4.041   6.969
 2398SOL     OW 8092   2.843   3.839   6.800
 2398SOL    HW1 8093   2.942   3.858   6.797
 2398SOL    HW2 8094   2.826   3.745   6.771
 2399SOL     OW 8095   4.321   1.446   2.369
 2399SOL    HW1 8096   4.273   1.449   2.281
 2399SOL    HW2 8097   4.261   1.409   2.439
 2400SOL     OW 8098   3.040   4.856   0.046
 2400SOL    HW1 8099   3.099   4.858   0.126
 2400SOL    HW2 8100   3.073   4.785   7.009
 2401SOL     OW 8101   3.775   6.509   6.238
 2401SOL    HW1 8102   3.692   6.557   6.213
 2401SOL    HW2 8103   3.839   6.572   6.281
 2402SOL     OW 8104   0.104   0.856   3.633
 2402SOL    HW1 8105   0.152   0.768   3.633
 2402SOL    HW2 8106   0.164   0.926   3.594
 2403SOL     OW 8107   2.098   2.616   0.792
 2403SOL    HW1 8108   2.195   2.637   0.789
 2403SOL    HW2 8109   2.083   2.533   0.846
 2404SOL     OW 8110   4.605   0.828   1.186
 2404SOL    HW1 8111   4.652   0.751   1.229
 2404SOL    HW2 8112   4.566   0.799   1.098
 2405SOL     OW 8113   3.892   3.407   2.742
 2405SOL    HW1 8114   3.876   3.392   2.840
 2405SOL    HW2 8115   3.924   3.501   2.727
 2406SOL     OW 8116   2.906   6.576   3.115
 2406SOL    HW1 8117   2.938   6.661   3.157
 2406SOL    HW2 8118   2.953   6.498   3.157
 2407SOL     OW 8119   5.033   1.967   2.553
 2407SOL    HW1 8120   4.987   2.056   2.555
 2407SOL    HW2 8121   4.995   1.907   2.623
 2408SOL     OW 8122   4.333   4.952   3.592
 2408SOL    HW1 8123   4.278   4.993   3.665
 2408SOL    HW2 8124   4.273   4.896   3.534
 2409SOL     OW 8125   1.244   3.906   2.150
 2409SOL    HW1 8126   1.307   3.872   2.221
 2409SOL    HW2 8127   1.274   3.872   2.060
 2410SOL     OW 8128   4.942   2.484   5.666
 2410SOL    HW1 8129   4.912   2.418   5.597
 2410SOL    HW2 8130   4.889   2.568   5.657
 2411SOL     OW 8131   4.481   5.116   5.488
 2411SOL    HW1 8132   4.575   5.089   5.506
 2411SOL    HW2 8133   4.450   5.077   5.402
 2412SOL     OW 8134   4.696   4.623   1.232
 2412SOL    HW1 8135   4.671   4.530   1.208
 2412SOL    HW2 8136   4.631   4.687   1.190
 2413SOL     OW 8137   6.364   2.456   1.026
 2413SOL    HW1 8138   6.349   2.531   0.962
 2413SOL    HW2 8139   6.293   2.387   1.015
 2414SOL     OW 8140   4.824   4.210   2.489
 2414SOL    HW1 8141   4.790   4.270   2.417
 2414SOL    HW2 8142   4.848   4.121   2.450
 2415SOL     OW 8143   6.957   6.800   1.795
 2415SOL    HW1 8144   6.992   6.858   1.869
 2415SOL    HW2 8145   6.859   6.789   1.804
 2416SOL     OW 8146   4.290   2.071   5.128
 2416SOL    HW1 8147   4.297   2.075   5.028
 2416SOL    HW2 8148   4.315   1.979   5.159
 2417SOL     OW 8149   3.719   3.662   6.254
 2417SOL    HW1 8150   3.766   3.749   6.247
 2417SOL    HW2 8151   3.682   3.636   6.165
 2418SOL     OW 8152   3.120   3.981   3.779
 2418SOL    HW1 8153   3.206   3.935   3.757
 2418SOL    HW2 8154   3.129   4.027   3.867
 2419SOL     OW 8155   0.849   6.238   4.640
 2419SOL    HW1 8156   0.917   6.312   4.629
 2419SOL    HW2 8157   0.879   6.177   4.713
 2420SOL     OW 8158   3.105   1.220   2.043
 2420SOL    HW1 8159   3.187   1.220   2.100
 2420SOL    HW2 8160   3.036   1.279   2.083
 2421SOL     OW 8161   2.684   1.575   4.704
 2421SOL    HW1 8162   2.752   1.551   4.773
 2421SOL    HW2 8163   2.730   1.593   4.616
 2422SOL     OW 8164   5.952   0.770   1.695
 2422SOL    HW1 8165   6.015   0.821   1.635
 2422SOL    HW2 8166   6.000   0.693   1.736
 2423SOL     OW 8167   0.926   6.052   3.449
 2423SOL    HW1 8168   1.001   6.004   3.403
 2423SOL    HW2 8169   0.861   5.986   3.486
 2424SOL     OW 8170   6.191   6.625   6.500
 2424SOL    HW1 8171   6.230   6.542   6.539
 2424SOL    HW2 8172   6.139   6.674   6.570
 2425SOL     OW 8173   6.276   0.244   4.134
 2425SOL    HW1 8174   6.326   0.160   4.153
 2425SOL    HW2 8175   6.247   0.244   4.038
 2426SOL     OW 8176   1.181   5.532   4.448
 2426SOL    HW1 8177   1.132   5.447   4.430
 2426SOL    HW2 8178   1.222   5.528   4.539
 2427SOL     OW 8179   5.693   5.201   5.489
 2427SOL    HW1 8180   5.603   5.244   5.500
 2427SOL    HW2 8181   5.762   5.257   5.536
 2428SOL     OW 8182   6.277   0.052   3.656
 2428SOL    HW1 8183   6.290   0.007   3.568
 2428SOL    HW2 8184   6.181   0.081   3.665
 2429SOL     OW 8185   5.432   5.412   3.577
 2429SOL    HW1 8186   5.488   5.477   3.526
 2429SOL    HW2 8187   5.342   5.454   3.596
 2430SOL     OW 8188   6.279   1.980   1.251
 2430SOL    HW1 8189   6.274   1.897   1.196
 2430SOL    HW2 8190   6.358   2.034   1.223
 2431SOL     OW 8191   4.493   0.797   2.739
 2431SOL    HW1 8192   4.420   0.762   2.797
 2431SOL    HW2 8193   4.563   0.726   2.728
 2432SOL     OW 8194   3.592   6.499   2.811
 2432SOL    HW1 8195   3.614   6.517   2.906
 2432SOL    HW2 8196   3.555   6.582   2.768
 2433SOL     OW 8197   3.517   0.615   1.461
 2433SOL    HW1 8198   3.587   0.575   1.521
 2433SOL    HW2 8199   3.441   0.551   1.451
 2434SOL     OW 8200   4.495   0.367   5.134
 2434SOL    HW1 8201   4.427   0.441   5.137
 2434SOL    HW2 8202   4.543   0.369   5.046
 2435SOL     OW 8203   4.332   4.748   6.426
 2435SOL    HW1 8204   4.232   4.759   6.425
 2435SOL    HW2 8205   4.365   4.762   6.520
 2436SOL     OW 8206   1.654   5.799   1.580
 2436SOL    HW1 8207   1.617   5.881   1.623
 2436SOL    HW2 8208   1.597   5.774   1.502
 2437SOL     OW 8209   4.892   5.919   6.880
 2437SOL    HW1 8210   4.915   6.013   6.854
 2437SOL    HW2 8211   4.972   5.861   6.871
 2438SOL     OW 8212   3.765   1.146   6.115
 2438SOL    HW1 8213   3.846   1.165   6.172
 2438SOL    HW2 8214   3.761   1.048   6.097
 2439SOL     OW 8215   1.035   4.812   6.399
 2439SOL    HW1 8216   0.973   4.852   6.467
 2439SOL    HW2 8217   0.984   4.795   6.314
 2440SOL     OW 8218   4.902   5.653   5.709
 2440SOL    HW1 8219   5.001   5.662   5.710
 2440SOL    HW2 8220   4.861   5.730   5.757
 2441SOL     OW 8221   0.490   0.547   6.818
 2441SOL    HW1 8222   0.567   0.488   6.844
 2441SOL    HW2 8223   0.416   0.536   6.884
 2442SOL     OW 8224   6.942   4.603   4.878
 2442SOL    HW1 8225   6.845   4.600   4.903
 2442SOL    HW2 8226   6.950   4.631   4.782
 2443SOL     OW 8227   4.329   5.902   5.652
 2443SOL    HW1 8228   4.420   5.927   5.620
 2443SOL    HW2 8229   4.266   5.896   5.575
 2444SOL     OW 8230   2.838   4.149   6.274
 2444SOL    HW1 8231   2.880   4.157   6.184
 2444SOL    HW2 8232   2.802   4.238   6.302
 2445SOL     OW 8233   0.337   0.521   2.051
 2445SOL    HW1 8234   0.263   0.494   2.114
 2445SOL    HW2 8235   0.317   0.486   1.960
 2446SOL     OW 8236   0.249   4.969   3.877
 2446SOL    HW1 8237   0.278   4.994   3.969
 2446SOL    HW2 8238   0.291   5.031   3.811
 2447SOL     OW 8239   2.186   2.386   0.980
 2447SOL    HW1 8240   2.120   2.391   1.055
 2447SOL    HW2 8241   2.265   2.444   1.001
 2448SOL     OW 8242   0.555   0.144   4.128
 2448SOL    HW1 8243   0.613   0.073   4.168
 2448SOL    HW2 8244   0.474   0.157   4.184
 2449SOL     OW 8245   0.237   5.037   0.790
 2449SOL    HW1 8246   0.160   5.069   0.736
 2449SOL    HW2 8247   0.306   5.109   0.796
 2450SOL     OW 8248   2.423   5.099   3.161
 2450SOL    HW1 8249   2.421   5.027   3.091
 2450SOL    HW2 8250   2.391   5.185   3.121
 2451SOL     OW 8251   0.682   0.291   3.107
 2451SOL    HW1 8252   0.691   0.388   3.132
 2451SOL    HW2 8253   0.746   0.237   3.160
 2452SOL     OW 8254   1.507   3.150   2.710
 2452SOL    HW1 8255   1.505   3.219   2.637
 2452SOL    HW2 8256   1.427   3.091   2.702
 2453SOL     OW 8257   6.122   4.126   1.093
 2453SOL    HW1 8258   6.063   4.045   1.086
 2453SOL    HW2 8259   6.073   4.206   1.059
 2454SOL     OW 8260   2.849   1.207   0.673
 2454SOL    HW1 8261   2.886   1.274   0.607
 2454SOL    HW2 8262   2.788   1.254   0.736
 2455SOL     OW 8263   5.473   6.138   0.310
 2455SOL    HW1 8264   5.565   6.107   0.334
 2455SOL    HW2 8265   5.406   6.070   0.340
 2456SOL     OW 8266   5.733   6.583   1.009
 2456SOL    HW1 8267   5.697   6.490   1.012
 2456SOL    HW2 8268   5.831   6.581   1.028
 2457SOL     OW 8269   6.410   6.320   0.296
 2457SOL    HW1 8270   6.442   6.360   0.381
 2457SOL    HW2 8271   6.472   6.246   0.268
 2458SOL     OW 8272   2.778   5.773   3.304
 2458SOL    HW1 8273   2.850   5.820   3.354
 2458SOL    HW2 8274   2.745   5.695   3.357
 2459SOL     OW 8275   2.410   6.891   0.738
 2459SOL    HW1 8276   2.344   6.873   0.811
 2459SOL    HW2 8277   2.360   6.920   0.655
 2460SOL     OW 8278   1.839   0.829   1.043
 2460SOL    HW1 8279   1.901   0.755   1.017
 2460SOL    HW2 8280   1.884   0.888   1.110
 2461SOL     OW 8281   4.795   0.772   3.128
 2461SOL    HW1 8282   4.729   0.825   3.075
 2461SOL    HW2 8283   4.791   0.800   3.224
 2462SOL     OW 8284   2.482   5.631   0.047
 2462SOL    HW1 8285   2.465   5.694   6.997
 2462SOL    HW2 8286   2.403   5.631   0.108
 2463SOL     OW 8287   6.050   2.627   3.935
 2463SOL    HW1 8288   5.973   2.565   3.922
 2463SOL    HW2 8289   6.024   2.719   3.905
 2464SOL     OW 8290   1.048   5.373   1.798
 2464SOL    HW1 8291   1.122   5.372   1.865
 2464SOL    HW2 8292   1.001   5.461   1.802
 2465SOL     OW 8293   0.083   5.533   1.229
 2465SOL    HW1 8294   0.161   5.583   1.267
 2465SOL    HW2 8295   0.085   5.539   1.129
 2466SOL     OW 8296   3.302   0.539   1.858
 2466SOL    HW1 8297   3.386   0.580   1.823
 2466SOL    HW2 8298   3.240   0.518   1.782
 2467SOL     OW 8299   5.656   0.733   5.774
 2467SOL    HW1 8300   5.644   0.777   5.685
 2467SOL    HW2 8301   5.572   0.742   5.827
 2468SOL     OW 8302   6.637   6.229   2.155
 2468SOL    HW1 8303   6.553   6.258   2.201
 2468SOL    HW2 8304   6.619   6.147   2.102
 2469SOL     OW 8305   3.816   4.285   5.550
 2469SOL    HW1 8306   3.915   4.286   5.563
 2469SOL    HW2 8307   3.793   4.328   5.463
 2470SOL     OW 8308   2.515   3.935   6.055
 2470SOL    HW1 8309   2.479   3.879   5.980
 2470SOL    HW2 8310   2.609   3.961   6.035
 2471SOL     OW 8311   1.469   6.969   0.952
 2471SOL    HW1 8312   1.562   6.939   0.933
 2471SOL    HW2 8313   1.450   6.962   1.050
 2472SOL     OW 8314   5.410   1.133   4.449
 2472SOL    HW1 8315   5.340   1.180   4.395
 2472SOL    HW2 8316   5.416   1.174   4.540
 2473SOL     OW 8317   2.222   4.277   4.947
 2473SOL    HW1 8318   2.266   4.289   4.857
 2473SOL    HW2 8319   2.265   4.201   4.995
 2474SOL     OW 8320   6.963   4.856   0.327
 2474SOL    HW1 8321   0.027   4.896   0.310
 2474SOL    HW2 8322   6.964   4.760   0.299
 2475SOL     OW 8323   4.118   2.093   0.592
 2475SOL    HW1 8324   4.218   2.091   0.595
 2475SOL    HW2 8325   4.082   2.140   0.672
 2476SOL     OW 8326   0.670   2.556   3.007
 2476SOL    HW1 8327   0.570   2.564   3.009
 2476SOL    HW2 8328   0.700   2.497   3.082
 2477SOL     OW 8329   6.021   6.899   1.965
 2477SOL    HW1 8330   6.033   6.979   2.023
 2477SOL    HW2 8331   5.944   6.914   1.903
 2478SOL     OW 8332   5.411   6.918   2.636
 2478SOL    HW1 8333   5.444   7.012   2.642
 2478SOL    HW2 8334   5.362   6.895   2.721
 2479SOL     OW 8335   0.544   3.659   1.302
 2479SOL    HW1 8336   0.511   3.568   1.329
 2479SOL    HW2 8337   0.550   3.664   1.203
 2480SOL     OW 8338   0.161   2.862   1.086
 2480SOL    HW1 8339   0.095   2.796   1.050
 2480SOL    HW2 8340   0.136   2.885   1.180
 2481SOL     OW 8341   3.413   6.200   0.570
 2481SOL    HW1 8342   3.473   6.280   0.563
 2481SOL    HW2 8343   3.466   6.120   0.598
 2482SOL     OW 8344   4.534   3.239   6.036
 2482SOL    HW1 8345   4.630   3.258   6.060
 2482SOL    HW2 8346   4.518   3.264   5.941
 2483SOL     OW 8347   2.232   1.471   0.623
 2483SOL    HW1 8348   2.165   1.542   0.647
 2483SOL    HW2 8349   2.324   1.508   0.629
 2484SOL     OW 8350   2.047   0.629   0.967
 2484SOL    HW1 8351   2.057   0.601   1.062
 2484SOL    HW2 8352   2.091   0.562   0.907
 2485SOL     OW 8353   5.065   5.322   2.586
 2485SOL    HW1 8354   5.111   5.397   2.634
 2485SOL    HW2 8355   5.087   5.235   2.630
 2486SOL     OW 8356   1.860   5.821   3.280
 2486SOL    HW1 8357   1.960   5.818   3.281
 2486SOL    HW2 8358   1.829   5.884   3.208
 2487SOL     OW 8359   4.167   6.228   0.266
 2487SOL    HW1 8360   4.087   6.289   0.258
 2487SOL    HW2 8361   4.181   6.181   0.179
 2488SOL     OW 8362   2.777   4.323   1.670
 2488SOL    HW1 8363   2.829   4.254   1.620
 2488SOL    HW2 8364   2.834   4.362   1.742
 2489SOL     OW 8365   2.238   5.272   4.103
 2489SOL    HW1 8366   2.153   5.316   4.132
 2489SOL    HW2 8367   2.309   5.341   4.090
 2490SOL     OW 8368   6.620   5.030   0.889
 2490SOL    HW1 8369   6.614   4.947   0.944
 2490SOL    HW2 8370   6.716   5.053   0.874
 2491SOL     OW 8371   3.040   5.845   2.757
 2491SOL    HW1 8372   3.134   5.830   2.785
 2491SOL    HW2 8373   2.991   5.894   2.829
 2492SOL     OW 8374   4.256   2.961   6.319
 2492SOL    HW1 8375   4.262   3.006   6.230
 2492SOL    HW2 8376   4.187   3.006   6.375
 2493SOL     OW 8377   5.991   6.972   2.750
 2493SOL    HW1 8378   6.089   6.974   2.730
 2493SOL    HW2 8379   5.970   6.894   2.808
 2494SOL     OW 8380   4.837   3.014   2.748
 2494SOL    HW1 8381   4.846   2.933   2.806
 2494SOL    HW2 8382   4.891   3.002   2.665
 2495SOL     OW 8383   5.030   1.247   5.076
 2495SOL    HW1 8384   4.948   1.291   5.040
 2495SOL    HW2 8385   5.061   1.297   5.158
 2496SOL     OW 8386   1.227   5.049   0.340
 2496SOL    HW1 8387   1.243   5.122   0.273
 2496SOL    HW2 8388   1.282   4.969   0.316
 2497SOL     OW 8389   0.087   1.598   0.355
 2497SOL    HW1 8390   0.088   1.534   0.278
 2497SOL    HW2 8391   0.101   1.547   0.440
 2498SOL     OW 8392   2.305   2.971   3.738
 2498SOL    HW1 8393   2.357   2.946   3.656
 2498SOL    HW2 8394   2.321   2.902   3.809
 2499SOL     OW 8395   5.614   0.459   4.763
 2499SOL    HW1 8396   5.645   0.456   4.668
 2499SOL    HW2 8397   5.514   0.455   4.765
 2500SOL     OW 8398   4.740   3.780   6.170
 2500SOL    HW1 8399   4.654   3.735   6.147
 2500SOL    HW2 8400   4.768   3.754   6.262
 2501SOL     OW 8401   5.933   4.171   6.908
 2501SOL    HW1 8402   5.984   4.115   6.973
 2501SOL    HW2 8403   5.964   4.151   6.815
 2502SOL     OW 8404   2.567   6.950   3.802
 2502SOL    HW1 8405   2.495   6.981   3.739
 2502SOL    HW2 8406   2.530   6.879   3.862
 2503SOL     OW 8407   3.975   5.753   5.922
 2503SOL    HW1 8408   3.897   5.751   5.859
 2503SOL    HW2 8409   4.006   5.659   5.939
 2504SOL     OW 8410   2.283   4.975   4.852
 2504SOL    HW1 8411   2.200   5.026   4.830
 2504SOL    HW2 8412   2.291   4.896   4.790
 2505SOL     OW 8413   3.740   5.947   4.706
 2505SOL    HW1 8414   3.644   5.935   4.732
 2505SOL    HW2 8415   3.797   5.946   4.789
 2506SOL     OW 8416   6.506   3.380   5.800
 2506SOL    HW1 8417   6.570   3.303   5.797
 2506SOL    HW2 8418   6.428   3.361   5.741
 2507SOL     OW 8419   6.031   5.022   0.657
 2507SOL    HW1 8420   6.030   5.116   0.621
 2507SOL    HW2 8421   6.053   5.024   0.754
 2508SOL     OW 8422   3.036   2.234   1.729
 2508SOL    HW1 8423   3.001   2.301   1.795
 2508SOL    HW2 8424   3.058   2.281   1.643
 2509SOL     OW 8425   5.838   1.932   2.425
 2509SOL    HW1 8426   5.871   1.853   2.374
 2509SOL    HW2 8427   5.815   2.006   2.362
 2510SOL     OW 8428   3.171   4.715   0.536
 2510SOL    HW1 8429   3.206   4.647   0.471
 2510SOL    HW2 8430   3.132   4.669   0.615
 2511SOL     OW 8431   1.356   1.138   4.690
 2511SOL    HW1 8432   1.399   1.212   4.742
 2511SOL    HW2 8433   1.307   1.177   4.612
 2512SOL     OW 8434   5.320   4.235   4.237
 2512SOL    HW1 8435   5.349   4.165   4.302
 2512SOL    HW2 8436   5.336   4.326   4.276
 2513SOL     OW 8437   0.687   2.616   6.615
 2513SOL    HW1 8438   0.668   2.667   6.699
 2513SOL    HW2 8439   0.783   2.589   6.613
 2514SOL     OW 8440   0.318   1.762   4.424
 2514SOL    HW1 8441   0.310   1.692   4.352
 2514SOL    HW2 8442   0.302   1.852   4.385
 2515SOL     OW 8443   1.222   6.653   0.581
 2515SOL    HW1 8444   1.220   6.682   0.676
 2515SOL    HW2 8445   1.153   6.703   0.529
 2516SOL     OW 8446   6.024   5.464   3.174
 2516SOL    HW1 8447   6.121   5.485   3.159
 2516SOL    HW2 8448   6.009   5.366   3.166
 2517SOL     OW 8449   2.190   4.276   6.189
 2517SOL    HW1 8450   2.208   4.335   6.111
 2517SOL    HW2 8451   2.266   4.211   6.200
 2518SOL     OW 8452   2.055   2.826   6.941
 2518SOL    HW1 8453   2.114   2.752   6.911
 2518SOL    HW2 8454   2.101   2.878   7.014
 2519SOL     OW 8455   4.793   5.439   4.342
 2519SOL    HW1 8456   4.782   5.522   4.396
 2519SOL    HW2 8457   4.879   5.445   4.289
 2520SOL     OW 8458   1.529   3.627   0.767
 2520SOL    HW1 8459   1.543   3.660   0.861
 2520SOL    HW2 8460   1.581   3.543   0.754
 2521SOL     OW 8461   1.068   0.120   5.467
 2521SOL    HW1 8462   1.094   0.209   5.429
 2521SOL    HW2 8463   1.075   0.050   5.396
 2522SOL     OW 8464   1.445   3.305   4.340
 2522SOL    HW1 8465   1.499   3.353   4.410
 2522SOL    HW2 8466   1.396   3.372   4.285
 2523SOL     OW 8467   6.505   3.155   0.913
 2523SOL    HW1 8468   6.464   3.233   0.866
 2523SOL    HW2 8469   6.603   3.171   0.925
 2524SOL     OW 8470   0.425   6.015   4.118
 2524SOL    HW1 8471   0.502   5.958   4.145
 2524SOL    HW2 8472   0.401   5.995   4.023
 2525SOL     OW 8473   0.627   4.316   4.205
 2525SOL    HW1 8474   0.645   4.360   4.293
 2525SOL    HW2 8475   0.664   4.223   4.206
 2526SOL     OW 8476   0.427   2.683   5.129
 2526SOL    HW1 8477   0.416   2.782   5.141
 2526SOL    HW2 8478   0.524   2.662   5.117
 2527SOL     OW 8479   5.789   6.552   5.528
 2527SOL    HW1 8480   5.772   6.506   5.615
 2527SOL    HW2 8481   5.704   6.558   5.475
 2528SOL     OW 8482   5.469   4.741   0.480
 2528SOL    HW1 8483   5.371   4.735   0.501
 2528SOL    HW2 8484   5.517   4.664   0.522
 2529SOL     OW 8485   4.909   5.165   5.589
 2529SOL    HW1 8486   4.917   5.252   5.639
 2529SOL    HW2 8487   5.000   5.136   5.558
 2530SOL     OW 8488   0.899   6.079   3.874
 2530SOL    HW1 8489   0.989   6.115   3.849
 2530SOL    HW2 8490   0.887   5.988   3.834
 2531SOL     OW 8491   5.235   6.933   5.092
 2531SOL    HW1 8492   5.191   6.864   5.149
 2531SOL    HW2 8493   5.332   6.939   5.116
 2532SOL     OW 8494   0.747   5.716   1.010
 2532SOL    HW1 8495   0.815   5.767   1.062
 2532SOL    HW2 8496   0.763   5.730   0.912
 2533SOL     OW 8497   5.496   6.472   4.877
 2533SOL    HW1 8498   5.406   6.443   4.912
 2533SOL    HW2 8499   5.491   6.481   4.778
 2534SOL     OW 8500   2.733   0.300   3.140
 2534SOL    HW1 8501   2.650   0.304   3.084
 2534SOL    HW2 8502   2.735   0.212   3.189
 2535SOL     OW 8503   1.779   2.222   4.976
 2535SOL    HW1 8504   1.872   2.246   4.950
 2535SOL    HW2 8505   1.750   2.279   5.052
 2536SOL     OW 8506   6.684   1.227   3.968
 2536SOL    HW1 8507   6.746   1.288   3.919
 2536SOL    HW2 8508   6.702   1.231   4.066
 2537SOL     OW 8509   4.909   6.704   0.998
 2537SOL    HW1 8510   4.914   6.654   0.911
 2537SOL    HW2 8511   4.821   6.751   1.004
 2538SOL     OW 8512   1.478   4.712   4.953
 2538SOL    HW1 8513   1.504   4.803   4.986
 2538SOL    HW2 8514   1.444   4.657   5.029
 2539SOL     OW 8515   4.565   6.952   5.351
 2539SOL    HW1 8516   4.517   6.870   5.381
 2539SOL    HW2 8517   4.499   7.026   5.337
 2540SOL     OW 8518   5.471   0.656   1.559
 2540SOL    HW1 8519   5.463   0.654   1.460
 2540SOL    HW2 8520   5.416   0.730   1.596
 2541SOL     OW 8521   1.878   0.219   5.355
 2541SOL    HW1 8522   1.971   0.219   5.392
 2541SOL    HW2 8523   1.862   0.133   5.306
 2542SOL     OW 8524   4.484   1.982   4.543
 2542SOL    HW1 8525   4.464   2.044   4.468
 2542SOL    HW2 8526   4.517   2.034   4.622
 2543SOL     OW 8527   0.914   0.441   3.211
 2543SOL    HW1 8528   1.002   0.403   3.183
 2543SOL    HW2 8529   0.898   0.420   3.307
 2544SOL     OW 8530   0.196   4.784   1.353
 2544SOL    HW1 8531   0.101   4.808   1.332
 2544SOL    HW2 8532   0.257   4.844   1.300
 2545SOL     OW 8533   1.818   1.941   1.185
 2545SOL    HW1 8534   1.880   1.930   1.108
 2545SOL    HW2 8535   1.724   1.932   1.154
 2546SOL     OW 8536   6.510   3.751   1.812
 2546SOL    HW1 8537   6.417   3.744   1.846
 2546SOL    HW2 8538   6.545   3.659   1.790
 2547SOL     OW 8539   5.532   5.385   1.029
 2547SOL    HW1 8540   5.454   5.325   1.014
 2547SOL    HW2 8541   5.500   5.479   1.044
 2548SOL     OW 8542   1.579   6.946   4.525
 2548SOL    HW1 8543   1.600   0.007   4.481
 2548SOL    HW2 8544   1.601   6.871   4.462
 2549SOL     OW 8545   1.973   2.929   1.840
 2549SOL    HW1 8546   2.062   2.945   1.796
 2549SOL    HW2 8547   1.987   2.906   1.936
 2550SOL     OW 8548   5.468   0.065   6.911
 2550SOL    HW1 8549   5.479   0.153   6.958
 2550SOL    HW2 8550   5.461   7.018   6.979
 2551SOL     OW 8551   3.725   4.550   6.937
 2551SOL    HW1 8552   3.765   4.473   6.987
 2551SOL    HW2 8553   3.628   4.532   6.921
 2552SOL     OW 8554   2.541   5.127   6.528
 2552SOL    HW1 8555   2.498   5.048   6.484
 2552SOL    HW2 8556   2.488   5.209   6.507
 2553SOL     OW 8557   3.911   2.304   6.321
 2553SOL    HW1 8558   3.883   2.265   6.233
 2553SOL    HW2 8559   3.927   2.231   6.387
 2554SOL     OW 8560   2.159   5.629   6.981
 2554SOL    HW1 8561   2.191   5.618   0.049
 2554SOL    HW2 8562   2.157   5.726   6.956
 2555SOL     OW 8563   6.778   6.028   6.386
 2555SOL    HW1 8564   6.808   6.010   6.480
 2555SOL    HW2 8565   6.736   6.119   6.381
 2556SOL     OW 8566   4.150   0.170   0.799
 2556SOL    HW1 8567   4.180   0.265   0.810
 2556SOL    HW2 8568   4.053   0.168   0.773
 2557SOL     OW 8569   3.203   0.806   6.822
 2557SOL    HW1 8570   3.140   0.844   6.754
 2557SOL    HW2 8571   3.285   0.772   6.776
 2558SOL     OW 8572   5.629   3.989   5.885
 2558SOL    HW1 8573   5.610   3.893   5.908
 2558SOL    HW2 8574   5.559   4.047   5.926
 2559SOL     OW 8575   6.692   3.316   3.481
 2559SOL    HW1 8576   6.756   3.316   3.405
 2559SOL    HW2 8577   6.723   3.380   3.552
 2560SOL     OW 8578   5.108   3.503   3.407
 2560SOL    HW1 8579   5.069   3.447   3.481
 2560SOL    HW2 8580   5.035   3.551   3.359
 2561SOL     OW 8581   3.773   1.045   3.523
 2561SOL    HW1 8582   3.754   1.042   3.621
 2561SOL    HW2 8583   3.859   0.996   3.504
 2562SOL     OW 8584   3.602   6.595   3.088
 2562SOL    HW1 8585   3.504   6.608   3.106
 2562SOL    HW2 8586   3.639   6.529   3.154
 2563SOL     OW 8587   3.301   1.573   6.674
 2563SOL    HW1 8588   3.329   1.525   6.756
 2563SOL    HW2 8589   3.293   1.671   6.693
 2564SOL     OW 8590   2.052   0.292   0.489
 2564SOL    HW1 8591   1.997   0.312   0.407
 2564SOL    HW2 8592   2.012   0.216   0.539
 2565SOL     OW 8593   0.634   1.604   6.445
 2565SOL    HW1 8594   0.678   1.690   6.421
 2565SOL    HW2 8595   0.697   1.548   6.499
 2566SOL     OW 8596   2.299   6.671   1.294
 2566SOL    HW1 8597   2.335   6.763   1.280
 2566SOL    HW2 8598   2.253   6.641   1.210
 2567SOL     OW 8599   1.515   1.326   0.438
 2567SOL    HW1 8600   1.525   1.300   0.343
 2567SOL    HW2 8601   1.585   1.281   0.493
 2568SOL     OW 8602   2.798   6.951   1.067
 2568SOL    HW1 8603   2.880   6.998   1.098
 2568SOL    HW2 8604   2.749   7.008   1.001
 2569SOL     OW 8605   2.842   1.311   1.345
 2569SOL    HW1 8606   2.940   1.311   1.328
 2569SOL    HW2 8607   2.822   1.255   1.426
 2570SOL     OW 8608   5.760   5.725   6.173
 2570SOL    HW1 8609   5.772   5.627   6.193
 2570SOL    HW2 8610   5.729   5.772   6.256
 2571SOL     OW 8611   3.718   2.925   4.689
 2571SOL    HW1 8612   3.791   2.992   4.684
 2571SOL    HW2 8613   3.754   2.834   4.668
 2572SOL     OW 8614   3.208   5.795   1.634
 2572SOL    HW1 8615   3.259   5.727   1.687
 2572SOL    HW2 8616   3.267   5.875   1.618
 2573SOL     OW 8617   6.298   2.701   3.867
 2573SOL    HW1 8618   6.352   2.630   3.820
 2573SOL    HW2 8619   6.210   2.662   3.895
 2574SOL     OW 8620   6.361   2.915   1.009
 2574SOL    HW1 8621   6.414   2.997   0.987
 2574SOL    HW2 8622   6.271   2.942   1.044
 2575SOL     OW 8623   5.116   3.491   0.779
 2575SOL    HW1 8624   5.041   3.434   0.744
 2575SOL    HW2 8625   5.166   3.531   0.702
 2576SOL     OW 8626   3.277   6.713   3.348
 2576SOL    HW1 8627   3.282   6.809   3.321
 2576SOL    HW2 8628   3.292   6.656   3.267
 2577SOL     OW 8629   3.972   0.503   3.981
 2577SOL    HW1 8630   3.921   0.422   3.952
 2577SOL    HW2 8631   3.984   0.500   4.081
 2578SOL     OW 8632   5.008   2.805   5.161
 2578SOL    HW1 8633   5.048   2.895   5.145
 2578SOL    HW2 8634   4.944   2.809   5.238
 2579SOL     OW 8635   0.851   1.777   5.645
 2579SOL    HW1 8636   0.938   1.825   5.637
 2579SOL    HW2 8637   0.839   1.715   5.568
 2580SOL     OW 8638   1.516   2.475   5.561
 2580SOL    HW1 8639   1.436   2.415   5.558
 2580SOL    HW2 8640   1.600   2.420   5.561
 2581SOL     OW 8641   5.667   5.020   1.797
 2581SOL    HW1 8642   5.756   5.021   1.752
 2581SOL    HW2 8643   5.595   5.034   1.729
 2582SOL     OW 8644   2.292   5.351   3.072
 2582SOL    HW1 8645   2.351   5.421   3.113
 2582SOL    HW2 8646   2.226   5.320   3.140
 2583SOL     OW 8647   1.279   1.017   1.302
 2583SOL    HW1 8648   1.277   1.076   1.383
 2583SOL    HW2 8649   1.221   1.056   1.231
 2584SOL     OW 8650   3.723   6.666   1.202
 2584SOL    HW1 8651   3.783   6.660   1.121
 2584SOL    HW2 8652   3.630   6.640   1.176
 2585SOL     OW 8653   3.351   0.386   1.031
 2585SOL    HW1 8654   3.340   0.485   1.034
 2585SOL    HW2 8655   3.445   0.362   1.055
 2586SOL     OW 8656   5.524   1.510   4.848
 2586SOL    HW1 8657   5.558   1.603   4.868
 2586SOL    HW2 8658   5.533   1.454   4.930
 2587SOL     OW 8659   6.787   0.048   4.648
 2587SOL    HW1 8660   6.838   0.131   4.670
 2587SOL    HW2 8661   6.844   7.015   4.590
 2588SOL     OW 8662   5.775   0.036   1.124
 2588SOL    HW1 8663   5.681   0.012   1.103
 2588SOL    HW2 8664   5.798   0.124   1.081
 2589SOL     OW 8665   6.877   0.096   5.743
 2589SOL    HW1 8666   6.825   0.084   5.659
 2589SOL    HW2 8667   6.890   0.194   5.761
 2590SOL     OW 8668   3.962   6.917   2.347
 2590SOL    HW1 8669   3.921   6.991   2.401
 2590SOL    HW2 8670   4.061   6.918   2.358
 2591SOL     OW 8671   5.531   5.928   0.793
 2591SOL    HW1 8672   5.568   6.018   0.815
 2591SOL    HW2 8673   5.585   5.886   0.720
 2592SOL     OW 8674   2.785   6.043   1.491
 2592SOL    HW1 8675   2.686   6.036   1.485
 2592SOL    HW2 8676   2.827   5.974   1.432
 2593SOL     OW 8677   4.256   6.852   2.545
 2593SOL    HW1 8678   4.181   6.790   2.569
 2593SOL    HW2 8679   4.260   6.926   2.612
 2594SOL     OW 8680   0.477   0.068   6.039
 2594SOL    HW1 8681   0.468   0.015   6.123
 2594SOL    HW2 8682   0.493   0.164   6.062
 2595SOL     OW 8683   0.539   2.143   4.909
 2595SOL    HW1 8684   0.506   2.060   4.863
 2595SOL    HW2 8685   0.485   2.159   4.992
 2596SOL     OW 8686   3.677   2.586   1.713
 2596SOL    HW1 8687   3.683   2.503   1.768
 2596SOL    HW2 8688   3.616   2.652   1.757
 2597SOL     OW 8689   1.801   3.881   0.738
 2597SOL    HW1 8690   1.900   3.882   0.755
 2597SOL    HW2 8691   1.759   3.807   0.791
 2598SOL     OW 8692   6.442   2.713   4.645
 2598SOL    HW1 8693   6.361   2.666   4.610
 2598SOL    HW2 8694   6.424   2.811   4.649
 2599SOL     OW 8695   3.902   5.930   6.690
 2599SOL    HW1 8696   3.947   5.840   6.693
 2599SOL    HW2 8697   3.837   5.932   6.613
 2600SOL     OW 8698   4.946   3.685   4.081
 2600SOL    HW1 8699   4.894   3.624   4.141
 2600SOL    HW2 8700   4.933   3.780   4.111
 2601SOL     OW 8701   2.959   2.473   6.788
 2601SOL    HW1 8702   3.053   2.504   6.772
 2601SOL    HW2 8703   2.906   2.548   6.827
 2602SOL     OW 8704   0.336   4.687   3.893
 2602SOL    HW1 8705   0.307   4.633   3.813
 2602SOL    HW2 8706   0.290   4.776   3.891
 2603SOL     OW 8707   2.749   2.735   1.604
 2603SOL    HW1 8708   2.721   2.722   1.509
 2603SOL    HW2 8709   2.803   2.657   1.634
 2604SOL     OW 8710   5.401   0.766   0.799
 2604SOL    HW1 8711   5.388   0.702   0.723
 2604SOL    HW2 8712   5.369   0.857   0.772
 2605SOL     OW 8713   4.676   5.048   3.103
 2605SOL    HW1 8714   4.774   5.058   3.089
 2605SOL    HW2 8715   4.657   4.963   3.151
 2606SOL     OW 8716   7.026   4.579   0.311
 2606SOL    HW1 8717   6.928   4.568   0.297
 2606SOL    HW2 8718   0.048   4.498   0.279
 2607SOL     OW 8719   0.546   1.654   4.887
 2607SOL    HW1 8720   0.539   1.648   4.788
 2607SOL    HW2 8721   0.497   1.577   4.929
 2608SOL     OW 8722   5.009   6.596   2.595
 2608SOL    HW1 8723   4.987   6.521   2.657
 2608SOL    HW2 8724   4.955   6.677   2.619
 2609SOL     OW 8725   0.777   1.980   1.930
 2609SOL    HW1 8726   0.814   1.988   2.023
 2609SOL    HW2 8727   0.713   2.054   1.913
 2610SOL     OW 8728   6.778   5.351   4.984
 2610SOL    HW1 8729   6.866   5.336   5.028
 2610SOL    HW2 8730   6.789   5.345   4.885
 2611SOL     OW 8731   6.147   6.629   1.520
 2611SOL    HW1 8732   6.094   6.658   1.599
 2611SOL    HW2 8733   6.243   6.654   1.533
 2612SOL     OW 8734   6.055   5.915   5.000
 2612SOL    HW1 8735   6.132   5.978   4.992
 2612SOL    HW2 8736   6.087   5.824   5.025
 2613SOL     OW 8737   2.985   6.306   2.322
 2613SOL    HW1 8738   3.058   6.288   2.388
 2613SOL    HW2 8739   3.003   6.393   2.276
 2614SOL     OW 8740   6.336   6.087   5.925
 2614SOL    HW1 8741   6.272   6.044   5.989
 2614SOL    HW2 8742   6.288   6.107   5.839
 2615SOL     OW 8743   5.565   5.460   3.236
 2615SOL    HW1 8744   5.609   5.470   3.325
 2615SOL    HW2 8745   5.635   5.440   3.167
 2616SOL     OW 8746   4.154   3.702   3.975
 2616SOL    HW1 8747   4.156   3.618   4.030
 2616SOL    HW2 8748   4.137   3.780   4.034
 2617SOL     OW 8749   2.991   5.707   1.035
 2617SOL    HW1 8750   3.013   5.615   1.067
 2617SOL    HW2 8751   3.034   5.774   1.096
 2618SOL     OW 8752   6.959   6.343   3.616
 2618SOL    HW1 8753   6.889   6.388   3.560
 2618SOL    HW2 8754   6.998   6.267   3.565
 2619SOL     OW 8755   3.910   1.714   2.372
 2619SOL    HW1 8756   3.860   1.766   2.304
 2619SOL    HW2 8757   3.910   1.617   2.348
 2620SOL     OW 8758   1.651   5.903   3.734
 2620SOL    HW1 8759   1.697   5.821   3.699
 2620SOL    HW2 8760   1.556   5.882   3.755
 2621SOL     OW 8761   1.627   5.978   3.399
 2621SOL    HW1 8762   1.725   5.957   3.395
 2621SOL    HW2 8763   1.607   6.026   3.485
 2622SOL     OW 8764   1.714   3.006   6.082
 2622SOL    HW1 8765   1.697   3.071   6.008
 2622SOL    HW2 8766   1.676   3.041   6.167
 2623SOL     OW 8767   4.102   1.183   4.904
 2623SOL    HW1 8768   4.014   1.138   4.886
 2623SOL    HW2 8769   4.104   1.216   4.998
 2624SOL     OW 8770   6.503   2.828   3.015
 2624SOL    HW1 8771   6.603   2.839   3.015
 2624SOL    HW2 8772   6.480   2.736   3.045
 2625SOL     OW 8773   1.236   3.081   5.248
 2625SOL    HW1 8774   1.227   2.984   5.228
 2625SOL    HW2 8775   1.294   3.125   5.179
 2626SOL     OW 8776   0.387   5.959   3.852
 2626SOL    HW1 8777   0.319   5.936   3.783
 2626SOL    HW2 8778   0.465   6.005   3.808
 2627SOL     OW 8779   0.498   0.657   4.748
 2627SOL    HW1 8780   0.535   0.612   4.829
 2627SOL    HW2 8781   0.403   0.684   4.764
 2628SOL     OW 8782   3.612   5.459   6.919
 2628SOL    HW1 8783   3.690   5.484   6.861
 2628SOL    HW2 8784   3.529   5.498   6.880
 2629SOL     OW 8785   3.853   3.978   1.745
 2629SOL    HW1 8786   3.892   3.890   1.772
 2629SOL    HW2 8787   3.810   3.969   1.655
 2630SOL     OW 8788   3.425   1.942   2.387
 2630SOL    HW1 8789   3.456   1.964   2.295
 2630SOL    HW2 8790   3.493   1.973   2.454
 2631SOL     OW 8791   4.133   6.851   3.694
 2631SOL    HW1 8792   4.231   6.837   3.705
 2631SOL    HW2 8793   4.092   6.770   3.653
 2632SOL     OW 8794   3.176   2.083   5.789
 2632SOL    HW1 8795   3.136   2.172   5.767
 2632SOL    HW2 8796   3.276   2.088   5.777
 2633SOL     OW 8797   6.317   2.289   6.169
 2633SOL    HW1 8798   6.327   2.253   6.261
 2633SOL    HW2 8799   6.225   2.270   6.135
 2634SOL     OW 8800   1.913   4.055   2.900
 2634SOL    HW1 8801   1.927   4.148   2.934
 2634SOL    HW2 8802   1.927   4.052   2.801
 2635SOL     OW 8803   5.369   5.762   3.775
 2635SOL    HW1 8804   5.338   5.854   3.800
 2635SOL    HW2 8805   5.314   5.694   3.824
 2636SOL     OW 8806   5.267   0.419   6.536
 2636SOL    HW1 8807   5.362   0.399   6.561
 2636SOL    HW2 8808   5.244   0.371   6.452
 2637SOL     OW 8809   6.254   0.991   3.663
 2637SOL    HW1 8810   6.297   0.938   3.736
 2637SOL    HW2 8811   6.156   0.975   3.663
 2638SOL     OW 8812   6.542   0.045   2.494
 2638SOL    HW1 8813   6.486   7.021   2.428
 2638SOL    HW2 8814   6.604   7.008   2.540
 2639SOL     OW 8815   6.738   6.780   2.334
 2639SOL    HW1 8816   6.804   6.842   2.377
 2639SOL    HW2 8817   6.782   6.693   2.314
 2640SOL     OW 8818   6.859   6.367   5.881
 2640SOL    HW1 8819   6.780   6.428   5.882
 2640SOL    HW2 8820   6.923   6.398   5.811
 2641SOL     OW 8821   6.304   3.355   1.176
 2641SOL    HW1 8822   6.338   3.449   1.165
 2641SOL    HW2 8823   6.218   3.345   1.127
 2642SOL     OW 8824   5.176   0.319   4.555
 2642SOL    HW1 8825   5.205   0.327   4.460
 2642SOL    HW2 8826   5.188   0.224   4.586
 2643SOL     OW 8827   0.681   4.824   3.138
 2643SOL    HW1 8828   0.674   4.732   3.098
 2643SOL    HW2 8829   0.776   4.841   3.164
 2644SOL     OW 8830   0.293   4.275   5.621
 2644SOL    HW1 8831   0.328   4.193   5.666
 2644SOL    HW2 8832   0.332   4.284   5.530
 2645SOL     OW 8833   4.247   6.458   5.081
 2645SOL    HW1 8834   4.202   6.507   5.006
 2645SOL    HW2 8835   4.186   6.455   5.160
 2646SOL     OW 8836   6.546   6.872   6.353
 2646SOL    HW1 8837   6.636   6.876   6.310
 2646SOL    HW2 8838   6.549   6.813   6.434
 2647SOL     OW 8839   5.540   0.493   1.247
 2647SOL    HW1 8840   5.549   0.592   1.248
 2647SOL    HW2 8841   5.589   0.455   1.326
 2648SOL     OW 8842   6.213   6.497   3.721
 2648SOL    HW1 8843   6.267   6.567   3.767
 2648SOL    HW2 8844   6.274   6.435   3.671
 2649SOL     OW 8845   4.048   1.803   5.794
 2649SOL    HW1 8846   4.056   1.796   5.695
 2649SOL    HW2 8847   4.117   1.745   5.837
 2650SOL     OW 8848   1.098   4.278   4.141
 2650SOL    HW1 8849   1.091   4.180   4.119
 2650SOL    HW2 8850   1.068   4.293   4.235
 2651SOL     OW 8851   1.424   1.636   0.834
 2651SOL    HW1 8852   1.450   1.731   0.850
 2651SOL    HW2 8853   1.469   1.603   0.750
 2652SOL     OW 8854   2.959   3.396   3.626
 2652SOL    HW1 8855   2.903   3.396   3.709
 2652SOL    HW2 8856   3.042   3.448   3.642
 2653SOL     OW 8857   4.815   6.866   5.231
 2653SOL    HW1 8858   4.749   6.904   5.295
 2653SOL    HW2 8859   4.772   6.795   5.175
 2654SOL     OW 8860   5.014   3.091   0.423
 2654SOL    HW1 8861   4.983   3.001   0.395
 2654SOL    HW2 8862   5.001   3.156   0.348
 2655SOL     OW 8863   4.770   4.732   4.276
 2655SOL    HW1 8864   4.770   4.682   4.189
 2655SOL    HW2 8865   4.834   4.808   4.270
 2656SOL     OW 8866   4.437   4.703   4.170
 2656SOL    HW1 8867   4.507   4.739   4.108
 2656SOL    HW2 8868   4.479   4.636   4.232
 2657SOL     OW 8869   2.685   4.442   6.543
 2657SOL    HW1 8870   2.719   4.421   6.451
 2657SOL    HW2 8871   2.763   4.452   6.606
 2658SOL     OW 8872   5.800   4.623   6.900
 2658SOL    HW1 8873   5.771   4.678   6.978
 2658SOL    HW2 8874   5.876   4.668   6.854
 2659SOL     OW 8875   6.663   2.432   4.287
 2659SOL    HW1 8876   6.668   2.471   4.195
 2659SOL    HW2 8877   6.613   2.345   4.283
 2660SOL     OW 8878   0.711   1.955   1.272
 2660SOL    HW1 8879   0.685   2.012   1.351
 2660SOL    HW2 8880   0.810   1.961   1.259
 2661SOL     OW 8881   1.844   6.393   2.040
 2661SOL    HW1 8882   1.801   6.466   2.094
 2661SOL    HW2 8883   1.802   6.306   2.064
 2662SOL     OW 8884   4.492   6.996   4.923
 2662SOL    HW1 8885   4.564   0.015   4.977
 2662SOL    HW2 8886   4.529   6.970   4.834
 2663SOL     OW 8887   2.272   5.062   1.160
 2663SOL    HW1 8888   2.267   5.157   1.189
 2663SOL    HW2 8889   2.368   5.034   1.154
 2664SOL     OW 8890   3.555   3.793   3.434
 2664SOL    HW1 8891   3.578   3.741   3.352
 2664SOL    HW2 8892   3.566   3.891   3.416
 2665SOL     OW 8893   3.567   1.883   5.091
 2665SOL    HW1 8894   3.559   1.945   5.013
 2665SOL    HW2 8895   3.597   1.793   5.060
 2666SOL     OW 8896   4.886   3.300   0.912
 2666SOL    HW1 8897   4.796   3.257   0.918
 2666SOL    HW2 8898   4.944   3.249   0.849
 2667SOL     OW 8899   1.323   6.044   5.069
 2667SOL    HW1 8900   1.297   6.127   5.119
 2667SOL    HW2 8901   1.246   5.979   5.070
 2668SOL     OW 8902   6.494   3.514   3.391
 2668SOL    HW1 8903   6.408   3.463   3.389
 2668SOL    HW2 8904   6.570   3.452   3.373
 2669SOL     OW 8905   2.964   4.800   5.588
 2669SOL    HW1 8906   3.012   4.766   5.507
 2669SOL    HW2 8907   3.011   4.881   5.623
 2670SOL     OW 8908   6.256   1.385   6.544
 2670SOL    HW1 8909   6.217   1.299   6.577
 2670SOL    HW2 8910   6.204   1.461   6.583
 2671SOL     OW 8911   2.853   4.436   0.011
 2671SOL    HW1 8912   2.765   4.482   0.019
 2671SOL    HW2 8913   2.840   4.340   7.014
 2672SOL     OW 8914   0.869   5.560   7.011
 2672SOL    HW1 8915   0.814   5.633   0.025
 2672SOL    HW2 8916   0.966   5.586   7.012
 2673SOL     OW 8917   5.276   2.487   3.750
 2673SOL    HW1 8918   5.292   2.586   3.752
 2673SOL    HW2 8919   5.185   2.469   3.713
 2674SOL     OW 8920   2.259   4.174   4.094
 2674SOL    HW1 8921   2.218   4.178   4.003
 2674SOL    HW2 8922   2.318   4.253   4.108
 2675SOL     OW 8923   0.888   4.385   5.156
 2675SOL    HW1 8924   0.795   4.358   5.132
 2675SOL    HW2 8925   0.902   4.374   5.254
 2676SOL     OW 8926   4.394   1.303   2.625
 2676SOL    HW1 8927   4.407   1.249   2.708
 2676SOL    HW2 8928   4.481   1.306   2.574
 2677SOL     OW 8929   3.535   5.014   1.555
 2677SOL    HW1 8930   3.532   5.054   1.463
 2677SOL    HW2 8931   3.552   5.086   1.622
 2678SOL     OW 8932   0.377   4.675   0.646
 2678SOL    HW1 8933   0.314   4.737   0.599
 2678SOL    HW2 8934   0.324   4.607   0.697
 2679SOL     OW 8935   4.320   5.778   1.203
 2679SOL    HW1 8936   4.376   5.858   1.185
 2679SOL    HW2 8937   4.224   5.800   1.186
 2680SOL     OW 8938   1.578   1.318   1.158
 2680SOL    HW1 8939   1.673   1.292   1.176
 2680SOL    HW2 8940   1.527   1.237   1.130
 2681SOL     OW 8941   1.376   2.894   4.173
 2681SOL    HW1 8942   1.411   2.902   4.080
 2681SOL    HW2 8943   1.434   2.832   4.226
 2682SOL     OW 8944   5.309   3.089   2.499
 2682SOL    HW1 8945   5.220   3.135   2.500
 2682SOL    HW2 8946   5.324   3.047   2.410
 2683SOL     OW 8947   1.412   3.941   1.177
 2683SOL    HW1 8948   1.402   3.849   1.139
 2683SOL    HW2 8949   1.436   4.005   1.104
 2684SOL     OW 8950   4.133   5.363   2.398
 2684SOL    HW1 8951   4.105   5.409   2.314
 2684SOL    HW2 8952   4.095   5.271   2.399
 2685SOL     OW 8953   6.395   6.683   4.988
 2685SOL    HW1 8954   6.314   6.680   4.929
 2685SOL    HW2 8955   6.377   6.742   5.066
 2686SOL     OW 8956   1.639   2.348   4.386
 2686SOL    HW1 8957   1.705   2.398   4.442
 2686SOL    HW2 8958   1.652   2.371   4.289
 2687SOL     OW 8959   4.302   4.698   2.778
 2687SOL    HW1 8960   4.367   4.774   2.770
 2687SOL    HW2 8961   4.233   4.706   2.706
 2688SOL     OW 8962   4.281   6.216   6.235
 2688SOL    HW1 8963   4.223   6.214   6.317
 2688SOL    HW2 8964   4.237   6.164   6.162
 2689SOL     OW 8965   2.321   1.922   3.769
 2689SOL    HW1 8966   2.421   1.927   3.776
 2689SOL    HW2 8967   2.282   1.916   3.861
 2690SOL     OW 8968   3.251   3.519   3.665
 2690SOL    HW1 8969   3.227   3.601   3.613
 2690SOL    HW2 8970   3.325   3.470   3.619
 2691SOL     OW 8971   1.875   5.385   2.349
 2691SOL    HW1 8972   1.835   5.381   2.257
 2691SOL    HW2 8973   1.819   5.331   2.412
 2692SOL     OW 8974   5.673   6.067   4.167
 2692SOL    HW1 8975   5.613   6.021   4.233
 2692SOL    HW2 8976   5.730   6.135   4.214
 2693SOL     OW 8977   2.248   4.091   3.047
 2693SOL    HW1 8978   2.315   4.158   3.078
 2693SOL    HW2 8979   2.238   4.097   2.947
 2694SOL     OW 8980   3.556   0.702   2.946
 2694SOL    HW1 8981   3.599   0.637   3.009
 2694SOL    HW2 8982   3.620   0.727   2.874
 2695SOL     OW 8983   5.409   1.876   2.754
 2695SOL    HW1 8984   5.509   1.871   2.750
 2695SOL    HW2 8985   5.374   1.914   2.668
 2696SOL     OW 8986   3.220   2.669   5.302
 2696SOL    HW1 8987   3.289   2.644   5.370
 2696SOL    HW2 8988   3.178   2.586   5.265
 2697SOL     OW 8989   4.449   2.107   4.193
 2697SOL    HW1 8990   4.486   2.064   4.111
 2697SOL    HW2 8991   4.353   2.131   4.177
 2698SOL     OW 8992   1.939   4.957   0.776
 2698SOL    HW1 8993   1.928   5.049   0.815
 2698SOL    HW2 8994   1.900   4.890   0.839
 2699SOL     OW 8995   3.553   5.116   7.002
 2699SOL    HW1 8996   3.592   5.196   0.021
 2699SOL    HW2 8997   3.627   5.055   6.972
 2700SOL     OW 8998   2.108   3.200   2.023
 2700SOL    HW1 8999   2.139   3.295   2.031
 2700SOL    HW2 9000   2.008   3.197   2.020
 2701SOL     OW 9001   3.910   6.941   6.814
 2701SOL    HW1 9002   3.874   7.019   6.866
 2701SOL    HW2 9003   4.009   6.940   6.820
 2702SOL     OW 9004   7.016   1.195   2.948
 2702SOL    HW1 9005   6.978   1.202   2.855
 2702SOL    HW2 9006   6.965   1.254   3.010
 2703SOL     OW 9007   2.232   0.847   2.871
 2703SOL    HW1 9008   2.317   0.797   2.888
 2703SOL    HW2 9009   2.210   0.904   2.950
 2704SOL     OW 9010   1.126   5.523   0.841
 2704SOL    HW1 9011   1.201   5.588   0.851
 2704SOL    HW2 9012   1.048   5.569   0.799
 2705SOL     OW 9013   0.760   5.193   4.063
 2705SOL    HW1 9014   0.752   5.117   4.128
 2705SOL    HW2 9015   0.672   5.239   4.055
 2706SOL     OW 9016   0.479   0.757   1.810
 2706SOL    HW1 9017   0.546   0.826   1.784
 2706SOL    HW2 9018   0.390   0.781   1.770
 2707SOL     OW 9019   2.294   0.990   5.674
 2707SOL    HW1 9020   2.269   0.897   5.701
 2707SOL    HW2 9021   2.394   0.999   5.677
 2708SOL     OW 9022   1.776   3.092   1.657
 2708SOL    HW1 9023   1.794   3.124   1.565
 2708SOL    HW2 9024   1.850   3.032   1.687
 2709SOL     OW 9025   5.449   6.590   1.050
 2709SOL    HW1 9026   5.549   6.591   1.052
 2709SOL    HW2 9027   5.415   6.680   1.078
 2710SOL     OW 9028   6.400   3.966   2.709
 2710SOL    HW1 9029   6.488   4.006   2.733
 2710SOL    HW2 9030   6.401   3.868   2.732
 2711SOL     OW 9031   2.532   0.141   2.492
 2711SOL    HW1 9032   2.590   0.173   2.567
 2711SOL    HW2 9033   2.447   0.106   2.529
 2712SOL     OW 9034   3.923   4.801   0.253
 2712SOL    HW1 9035   3.874   4.806   0.166
 2712SOL    HW2 9036   3.978   4.884   0.265
 2713SOL     OW 9037   1.609   2.810   4.386
 2713SOL    HW1 9038   1.588   2.908   4.396
 2713SOL    HW2 9039   1.608   2.766   4.476
 2714SOL     OW 9040   4.783   2.139   0.337
 2714SOL    HW1 9041   4.871   2.094   0.320
 2714SOL    HW2 9042   4.729   2.138   0.253
 2715SOL     OW 9043   6.152   0.411   0.039
 2715SOL    HW1 9044   6.199   0.469   6.999
 2715SOL    HW2 9045   6.152   0.455   0.129
 2716SOL     OW 9046   6.287   4.887   1.985
 2716SOL    HW1 9047   6.337   4.929   1.910
 2716SOL    HW2 9048   6.200   4.852   1.951
 2717SOL     OW 9049   0.962   5.312   2.093
 2717SOL    HW1 9050   1.020   5.263   2.158
 2717SOL    HW2 9051   0.869   5.275   2.097
 2718SOL     OW 9052   1.812   3.427   4.159
 2718SOL    HW1 9053   1.770   3.400   4.246
 2718SOL    HW2 9054   1.744   3.422   4.086
 2719SOL     OW 9055   4.936   4.721   1.327
 2719SOL    HW1 9056   4.846   4.693   1.293
 2719SOL    HW2 9057   5.007   4.694   1.262
 2720SOL     OW 9058   2.047   6.564   3.914
 2720SOL    HW1 9059   2.108   6.487   3.893
 2720SOL    HW2 9060   2.021   6.560   4.010
 2721SOL     OW 9061   2.820   0.295   5.161
 2721SOL    HW1 9062   2.838   0.381   5.114
 2721SOL    HW2 9063   2.902   0.266   5.209
 2722SOL     OW 9064   6.233   5.084   2.757
 2722SOL    HW1 9065   6.314   5.125   2.715
 2722SOL    HW2 9066   6.249   5.075   2.856
 2723SOL     OW 9067   1.876   0.842   6.665
 2723SOL    HW1 9068   1.852   0.882   6.753
 2723SOL    HW2 9069   1.858   0.908   6.592
 2724SOL     OW 9070   3.331   6.765   5.451
 2724SOL    HW1 9071   3.276   6.812   5.520
 2724SOL    HW2 9072   3.364   6.831   5.383
 2725SOL     OW 9073   6.003   5.188   3.145
 2725SOL    HW1 9074   6.025   5.131   3.066
 2725SOL    HW2 9075   5.930   5.145   3.199
 2726SOL     OW 9076   6.276   4.215   1.636
 2726SOL    HW1 9077   6.236   4.126   1.658
 2726SOL    HW2 9078   6.218   4.287   1.674
 2727SOL     OW 9079   0.347   4.610   2.714
 2727SOL    HW1 9080   0.444   4.593   2.697
 2727SOL    HW2 9081   0.292   4.575   2.637
 2728SOL     OW 9082   3.271   0.651   4.825
 2728SOL    HW1 9083   3.342   0.609   4.768
 2728SOL    HW2 9084   3.195   0.588   4.838
 2729SOL     OW 9085   0.125   5.486   1.743
 2729SOL    HW1 9086   0.163   5.533   1.824
 2729SOL    HW2 9087   0.154   5.390   1.744
 2730SOL     OW 9088   1.287   6.714   0.902
 2730SOL    HW1 9089   1.307   6.812   0.893
 2730SOL    HW2 9090   1.361   6.670   0.952
 2731SOL     OW 9091   3.141   3.446   1.239
 2731SOL    HW1 9092   3.209   3.483   1.303
 2731SOL    HW2 9093   3.052   3.486   1.258
 2732SOL     OW 9094   5.766   3.398   2.387
 2732SOL    HW1 9095   5.670   3.383   2.412
 2732SOL    HW2 9096   5.808   3.459   2.454
 2733SOL     OW 9097   0.517   6.955   5.148
 2733SOL    HW1 9098   0.566   7.005   5.077
 2733SOL    HW2 9099   0.495   7.016   5.224
 2734SOL     OW 9100   2.251   5.497   2.854
 2734SOL    HW1 9101   2.258   5.446   2.940
 2734SOL    HW2 9102   2.343   5.521   2.822
 2735SOL     OW 9103   0.681   3.042   2.634
 2735SOL    HW1 9104   0.660   3.103   2.710
 2735SOL    HW2 9105   0.779   3.025   2.632
 2736SOL     OW 9106   5.112   0.675   4.345
 2736SOL    HW1 9107   5.034   0.654   4.286
 2736SOL    HW2 9108   5.170   0.744   4.301
 2737SOL     OW 9109   3.336   3.409   5.454
 2737SOL    HW1 9110   3.258   3.347   5.458
 2737SOL    HW2 9111   3.421   3.355   5.454
 2738SOL     OW 9112   4.990   5.780   4.739
 2738SOL    HW1 9113   5.062   5.835   4.783
 2738SOL    HW2 9114   4.996   5.790   4.640
 2739SOL     OW 9115   5.857   3.869   0.253
 2739SOL    HW1 9116   5.836   3.773   0.237
 2739SOL    HW2 9117   5.957   3.882   0.249
 2740SOL     OW 9118   5.346   1.830   2.326
 2740SOL    HW1 9119   5.302   1.904   2.377
 2740SOL    HW2 9120   5.444   1.831   2.345
 2741SOL     OW 9121   0.321   1.644   6.267
 2741SOL    HW1 9122   0.248   1.627   6.200
 2741SOL    HW2 9123   0.376   1.561   6.277
 2742SOL     OW 9124   1.522   5.822   6.251
 2742SOL    HW1 9125   1.596   5.888   6.243
 2742SOL    HW2 9126   1.441   5.857   6.205
 2743SOL     OW 9127   6.057   5.207   1.878
 2743SOL    HW1 9128   6.131   5.275   1.877
 2743SOL    HW2 9129   5.975   5.246   1.837
 2744SOL     OW 9130   3.775   2.884   0.068
 2744SOL    HW1 9131   3.780   2.847   7.001
 2744SOL    HW2 9132   3.756   2.810   0.132
 2745SOL     OW 9133   2.245   6.495   0.061
 2745SOL    HW1 9134   2.206   6.551   0.135
 2745SOL    HW2 9135   2.184   6.498   7.008
 2746SOL     OW 9136   1.872   3.039   4.807
 2746SOL    HW1 9137   1.848   3.103   4.734
 2746SOL    HW2 9138   1.927   2.965   4.769
 2747SOL     OW 9139   5.711   4.333   4.955
 2747SOL    HW1 9140   5.805   4.366   4.946
 2747SOL    HW2 9141   5.657   4.399   5.007
 2748SOL     OW 9142   3.335   1.213   2.251
 2748SOL    HW1 9143   3.401   1.262   2.195
 2748SOL    HW2 9144   3.359   1.222   2.347
 2749SOL     OW 9145   5.410   4.953   3.884
 2749SOL    HW1 9146   5.491   4.991   3.929
 2749SOL    HW2 9147   5.328   4.999   3.919
 2750SOL     OW 9148   0.818   5.491   1.375
 2750SOL    HW1 9149   0.740   5.459   1.428
 2750SOL    HW2 9150   0.812   5.590   1.364
 2751SOL     OW 9151   1.809   0.292   6.959
 2751SOL    HW1 9152   1.729   0.237   6.985
 2751SOL    HW2 9153   1.867   0.306   0.013
 2752SOL     OW 9154   5.178   5.691   5.668
 2752SOL    HW1 9155   5.241   5.670   5.593
 2752SOL    HW2 9156   5.218   5.663   5.755
 2753SOL     OW 9157   2.164   6.397   6.651
 2753SOL    HW1 9158   2.074   6.361   6.676
 2753SOL    HW2 9159   2.182   6.377   6.555
 2754SOL     OW 9160   6.412   0.369   4.683
 2754SOL    HW1 9161   6.461   0.314   4.615
 2754SOL    HW2 9162   6.470   0.446   4.710
 2755SOL     OW 9163   3.341   6.514   3.135
 2755SOL    HW1 9164   3.316   6.426   3.176
 2755SOL    HW2 9165   3.297   6.522   3.046
 2756SOL     OW 9166   5.811   4.302   3.879
 2756SOL    HW1 9167   5.844   4.312   3.785
 2756SOL    HW2 9168   5.829   4.386   3.930
 2757SOL     OW 9169   2.830   1.489   6.607
 2757SOL    HW1 9170   2.922   1.497   6.569
 2757SOL    HW2 9171   2.763   1.517   6.539
 2758SOL     OW 9172   5.122   5.939   3.395
 2758SOL    HW1 9173   5.182   5.889   3.332
 2758SOL    HW2 9174   5.076   5.875   3.456
 2759SOL     OW 9175   3.484   4.630   5.381
 2759SOL    HW1 9176   3.438   4.689   5.448
 2759SOL    HW2 9177   3.465   4.535   5.402
 2760SOL     OW 9178   6.009   5.978   2.653
 2760SOL    HW1 9179   5.944   5.916   2.698
 2760SOL    HW2 9180   6.101   5.940   2.660
 2761SOL     OW 9181   1.366   3.576   3.700
 2761SOL    HW1 9182   1.447   3.634   3.708
 2761SOL    HW2 9183   1.390   3.493   3.648
 2762SOL     OW 9184   1.279   2.181   7.019
 2762SOL    HW1 9185   1.265   2.097   0.046
 2762SOL    HW2 9186   1.361   2.172   6.963
 2763SOL     OW 9187   5.518   1.890   5.640
 2763SOL    HW1 9188   5.611   1.857   5.625
 2763SOL    HW2 9189   5.452   1.820   5.612
 2764SOL     OW 9190   0.467   4.878   2.739
 2764SOL    HW1 9191   0.394   4.904   2.802
 2764SOL    HW2 9192   0.453   4.783   2.709
 2765SOL     OW 9193   0.377   0.170   1.114
 2765SOL    HW1 9194   0.407   0.094   1.172
 2765SOL    HW2 9195   0.381   0.142   1.018
 2766SOL     OW 9196   4.294   1.148   6.728
 2766SOL    HW1 9197   4.234   1.224   6.704
 2766SOL    HW2 9198   4.388   1.181   6.736
 2767SOL     OW 9199   5.828   5.890   6.675
 2767SOL    HW1 9200   5.877   5.946   6.742
 2767SOL    HW2 9201   5.876   5.803   6.664
 2768SOL     OW 9202   4.342   1.039   0.611
 2768SOL    HW1 9203   4.358   1.018   0.707
 2768SOL    HW2 9204   4.410   0.993   0.554
 2769SOL     OW 9205   1.339   4.410   6.217
 2769SOL    HW1 9206   1.350   4.432   6.120
 2769SOL    HW2 9207   1.247   4.435   6.246
 2770SOL     OW 9208   3.378   6.406   5.982
 2770SOL    HW1 9209   3.323   6.435   5.905
 2770SOL    HW2 9210   3.358   6.310   6.004
 2771SOL     OW 9211   5.623   6.774   4.515
 2771SOL    HW1 9212   5.695   6.779   4.446
 2771SOL    HW2 9213   5.659   6.732   4.599
 2772SOL     OW 9214   3.475   0.923   2.713
 2772SOL    HW1 9215   3.531   0.971   2.780
 2772SOL    HW2 9216   3.535   0.871   2.651
 2773SOL     OW 9217   0.149   2.324   3.570
 2773SOL    HW1 9218   0.172   2.231   3.541
 2773SOL    HW2 9219   0.062   2.351   3.528
 2774SOL     OW 9220   4.902   2.798   2.924
 2774SOL    HW1 9221   4.917   2.700   2.910
 2774SOL    HW2 9222   4.955   2.829   3.003
 2775SOL     OW 9223   6.885   3.909   3.805
 2775SOL    HW1 9224   6.953   3.934   3.736
 2775SOL    HW2 9225   6.813   3.977   3.808
 2776SOL     OW 9226   5.005   5.807   6.414
 2776SOL    HW1 9227   4.984   5.756   6.497
 2776SOL    HW2 9228   5.070   5.754   6.359
 2777SOL     OW 9229   2.436   2.144   5.993
 2777SOL    HW1 9230   2.389   2.068   6.038
 2777SOL    HW2 9231   2.412   2.145   5.896
 2778SOL     OW 9232   1.829   5.927   6.250
 2778SOL    HW1 9233   1.897   5.868   6.294
 2778SOL    HW2 9234   1.802   5.888   6.162
 2779SOL     OW 9235   5.765   6.026   2.224
 2779SOL    HW1 9236   5.790   6.011   2.128
 2779SOL    HW2 9237   5.849   6.036   2.279
 2780SOL     OW 9238   0.255   0.322   6.119
 2780SOL    HW1 9239   0.256   0.235   6.169
 2780SOL    HW2 9240   0.164   0.363   6.125
 2781SOL     OW 9241   6.026   0.568   2.797
 2781SOL    HW1 9242   6.034   0.489   2.857
 2781SOL    HW2 9243   6.117   0.601   2.773
 2782SOL     OW 9244   4.521   1.246   5.510
 2782SOL    HW1 9245   4.484   1.169   5.561
 2782SOL    HW2 9246   4.619   1.254   5.530
 2783SOL     OW 9247   6.213   3.155   1.368
 2783SOL    HW1 9248   6.271   3.200   1.300
 2783SOL    HW2 9249   6.203   3.058   1.345
 2784SOL     OW 9250   2.778   1.840   2.294
 2784SOL    HW1 9251   2.878   1.849   2.291
 2784SOL    HW2 9252   2.742   1.895   2.369
 2785SOL     OW 9253   4.977   2.340   1.493
 2785SOL    HW1 9254   4.913   2.374   1.424
 2785SOL    HW2 9255   4.931   2.270   1.548
 2786SOL     OW 9256   6.324   6.008   1.344
 2786SOL    HW1 9257   6.241   6.057   1.315
 2786SOL    HW2 9258   6.302   5.911   1.357
 2787SOL     OW 9259   6.631   5.860   5.439
 2787SOL    HW1 9260   6.689   5.825   5.513
 2787SOL    HW2 9261   6.553   5.909   5.479
 2788SOL     OW 9262   3.140   5.910   6.425
 2788SOL    HW1 9263   3.100   5.901   6.516
 2788SOL    HW2 9264   3.151   5.820   6.384
 2789SOL     OW 9265   0.986   2.547   3.632
 2789SOL    HW1 9266   0.983   2.588   3.723
 2789SOL    HW2 9267   0.968   2.616   3.563
 2790SOL     OW 9268   2.896   4.878   0.655
 2790SOL    HW1 9269   2.809   4.848   0.692
 2790SOL    HW2 9270   2.963   4.804   0.661
 2791SOL     OW 9271   0.662   4.271   2.275
 2791SOL    HW1 9272   0.606   4.201   2.231
 2791SOL    HW2 9273   0.638   4.277   2.372
 2792SOL     OW 9274   3.423   0.637   4.521
 2792SOL    HW1 9275   3.427   0.539   4.504
 2792SOL    HW2 9276   3.327   0.668   4.518
 2793SOL     OW 9277   5.084   4.064   1.370
 2793SOL    HW1 9278   5.136   4.137   1.415
 2793SOL    HW2 9279   5.066   3.991   1.435
 2794SOL     OW 9280   0.131   1.270   6.183
 2794SOL    HW1 9281   0.034   1.290   6.171
 2794SOL    HW2 9282   0.164   1.311   6.268
 2795SOL     OW 9283   0.941   5.179   1.203
 2795SOL    HW1 9284   0.954   5.259   1.145
 2795SOL    HW2 9285   0.854   5.186   1.251
 2796SOL     OW 9286   0.847   5.287   5.155
 2796SOL    HW1 9287   0.925   5.279   5.093
 2796SOL    HW2 9288   0.763   5.296   5.103
 2797SOL     OW 9289   5.375   4.982   5.882
 2797SOL    HW1 9290   5.282   5.020   5.879
 2797SOL    HW2 9291   5.440   5.052   5.851
 2798SOL     OW 9292   6.752   5.812   2.744
 2798SOL    HW1 9293   6.712   5.824   2.653
 2798SOL    HW2 9294   6.847   5.784   2.736
 2799SOL     OW 9295   4.615   5.375   5.384
 2799SOL    HW1 9296   4.551   5.326   5.443
 2799SOL    HW2 9297   4.670   5.438   5.439
 2800SOL     OW 9298   5.770   0.798   0.135
 2800SOL    HW1 9299   5.707   0.734   0.092
 2800SOL    HW2 9300   5.721   0.882   0.160
 2801SOL     OW 9301   0.919   5.584   5.956
 2801SOL    HW1 9302   0.867   5.633   6.026
 2801SOL    HW2 9303   0.902   5.626   5.867
 2802SOL     OW 9304   0.105   6.313   5.010
 2802SOL    HW1 9305   0.164   6.243   5.049
 2802SOL    HW2 9306   0.040   6.345   5.080
 2803SOL     OW 9307   3.387   3.936   5.770
 2803SOL    HW1 9308   3.317   3.894   5.713
 2803SOL    HW2 9309   3.373   3.910   5.865
 2804SOL     OW 9310   0.452   2.798   4.193
 2804SOL    HW1 9311   0.410   2.708   4.202
 2804SOL    HW2 9312   0.388   2.862   4.150
 2805SOL     OW 9313   5.252   3.790   1.943
 2805SOL    HW1 9314   5.305   3.714   1.980
 2805SOL    HW2 9315   5.188   3.822   2.012
 2806SOL     OW 9316   2.187   4.474   6.366
 2806SOL    HW1 9317   2.178   4.398   6.302
 2806SOL    HW2 9318   2.251   4.449   6.439
 2807SOL     OW 9319   2.770   0.589   2.781
 2807SOL    HW1 9320   2.788   0.495   2.749
 2807SOL    HW2 9321   2.715   0.585   2.865
 2808SOL     OW 9322   5.669   5.559   0.795
 2808SOL    HW1 9323   5.571   5.560   0.818
 2808SOL    HW2 9324   5.704   5.652   0.796
 2809SOL     OW 9325   5.631   3.156   1.814
 2809SOL    HW1 9326   5.648   3.101   1.732
 2809SOL    HW2 9327   5.551   3.215   1.799
 2810SOL     OW 9328   2.432   6.036   3.164
 2810SOL    HW1 9329   2.457   5.967   3.097
 2810SOL    HW2 9330   2.425   6.125   3.120
 2811SOL     OW 9331   0.980   0.714   2.868
 2811SOL    HW1 9332   0.984   0.617   2.846
 2811SOL    HW2 9333   0.921   0.728   2.947
 2812SOL     OW 9334   0.449   3.142   0.664
 2812SOL    HW1 9335   0.426   3.186   0.577
 2812SOL    HW2 9336   0.493   3.054   0.647
 2813SOL     OW 9337   0.973   1.721   1.367
 2813SOL    HW1 9338   1.044   1.651   1.376
 2813SOL    HW2 9339   0.896   1.685   1.314
 2814SOL     OW 9340   2.783   3.962   6.546
 2814SOL    HW1 9341   2.764   3.877   6.496
 2814SOL    HW2 9342   2.754   3.951   6.641
 2815SOL     OW 9343   0.040   5.882   5.847
 2815SOL    HW1 9344   0.136   5.894   5.820
 2815SOL    HW2 9345   7.016   5.966   5.826
 2816SOL     OW 9346   6.884   6.107   5.260
 2816SOL    HW1 9347   6.943   6.170   5.210
 2816SOL    HW2 9348   6.914   6.103   5.356
 2817SOL     OW 9349   3.891   0.813   2.007
 2817SOL    HW1 9350   3.852   0.862   2.085
 2817SOL    HW2 9351   3.888   0.872   1.926
 2818SOL     OW 9352   0.798   0.891   0.831
 2818SOL    HW1 9353   0.704   0.869   0.855
 2818SOL    HW2 9354   0.826   0.835   0.753
 2819SOL     OW 9355   0.870   0.709   0.615
 2819SOL    HW1 9356   0.844   0.676   0.524
 2819SOL    HW2 9357   0.951   0.767   0.608
 2820SOL     OW 9358   1.519   1.867   2.240
 2820SOL    HW1 9359   1.511   1.858   2.141
 2820SOL    HW2 9360   1.589   1.936   2.262
 2821SOL     OW 9361   3.476   4.964   6.087
 2821SOL    HW1 9362   3.407   4.894   6.099
 2821SOL    HW2 9363   3.516   4.956   5.995
 2822SOL     OW 9364   3.768   3.071   0.388
 2822SOL    HW1 9365   3.791   3.128   0.308
 2822SOL    HW2 9366   3.726   2.986   0.357
 2823SOL     OW 9367   5.307   0.999   0.676
 2823SOL    HW1 9368   5.209   0.984   0.686
 2823SOL    HW2 9369   5.327   1.021   0.581
 2824SOL     OW 9370   1.754   3.802   5.227
 2824SOL    HW1 9371   1.750   3.710   5.187
 2824SOL    HW2 9372   1.838   3.811   5.280
 2825SOL     OW 9373   5.219   0.641   6.981
 2825SOL    HW1 9374   5.224   0.711   6.911
 2825SOL    HW2 9375   5.211   0.551   6.938
 2826SOL     OW 9376   1.458   3.460   6.123
 2826SOL    HW1 9377   1.433   3.364   6.112
 2826SOL    HW2 9378   1.557   3.470   6.119
 2827SOL     OW 9379   0.375   0.667   6.323
 2827SOL    HW1 9380   0.399   0.722   6.243
 2827SOL    HW2 9381   0.420   0.578   6.318
 2828SOL     OW 9382   1.819   3.504   1.359
 2828SOL    HW1 9383   1.871   3.529   1.441
 2828SOL    HW2 9384   1.752   3.576   1.339
 2829SOL     OW 9385   3.575   3.759   2.815
 2829SOL    HW1 9386   3.533   3.695   2.879
 2829SOL    HW2 9387   3.586   3.848   2.860
 2830SOL     OW 9388   3.806   4.377   5.293
 2830SOL    HW1 9389   3.902   4.403   5.278
 2830SOL    HW2 9390   3.747   4.455   5.272
 2831SOL     OW 9391   0.084   1.634   2.563
 2831SOL    HW1 9392   0.183   1.636   2.551
 2831SOL    HW2 9393   0.052   1.727   2.583
 2832SOL     OW 9394   0.945   3.512   1.412
 2832SOL    HW1 9395   0.948   3.455   1.494
 2832SOL    HW2 9396   0.897   3.597   1.433
 2833SOL     OW 9397   2.531   0.751   1.844
 2833SOL    HW1 9398   2.566   0.693   1.770
 2833SOL    HW2 9399   2.534   0.847   1.815
 2834SOL     OW 9400   4.460   6.374   4.671
 2834SOL    HW1 9401   4.429   6.309   4.602
 2834SOL    HW2 9402   4.530   6.332   4.729
 2835SOL     OW 9403   1.301   6.522   0.337
 2835SOL    HW1 9404   1.248   6.574   0.270
 2835SOL    HW2 9405   1.279   6.555   0.429
 2836SOL     OW 9406   4.122   6.550   3.229
 2836SOL    HW1 9407   4.188   6.505   3.288
 2836SOL    HW2 9408   4.151   6.541   3.133
 2837SOL     OW 9409   5.703   4.007   2.047
 2837SOL    HW1 9410   5.782   4.069   2.041
 2837SOL    HW2 9411   5.620   4.056   2.021
 2838SOL     OW 9412   5.178   4.164   6.280
 2838SOL    HW1 9413   5.130   4.190   6.364
 2838SOL    HW2 9414   5.268   4.128   6.304
 2839SOL     OW 9415   6.411   3.213   3.803
 2839SOL    HW1 9416   6.457   3.209   3.891
 2839SOL    HW2 9417   6.364   3.301   3.793
 2840SOL     OW 9418   1.518   5.657   2.914
 2840SOL    HW1 9419   1.456   5.579   2.925
 2840SOL    HW2 9420   1.503   5.722   2.988
 2841SOL     OW 9421   6.083   2.621   0.565
 2841SOL    HW1 9422   6.142   2.697   0.541
 2841SOL    HW2 9423   6.069   2.619   0.664
 2842SOL     OW 9424   1.288   5.513   4.760
 2842SOL    HW1 9425   1.202   5.516   4.810
 2842SOL    HW2 9426   1.364   5.504   4.825
 2843SOL     OW 9427   2.413   2.585   2.915
 2843SOL    HW1 9428   2.497   2.532   2.903
 2843SOL    HW2 9429   2.383   2.621   2.827
 2844SOL     OW 9430   4.607   4.204   1.513
 2844SOL    HW1 9431   4.526   4.248   1.550
 2844SOL    HW2 9432   4.645   4.140   1.580
 2845SOL     OW 9433   5.067   3.048   3.734
 2845SOL    HW1 9434   4.977   3.083   3.710
 2845SOL    HW2 9435   5.082   3.058   3.833
 2846SOL     OW 9436   4.007   0.714   7.022
 2846SOL    HW1 9437   4.091   0.765   0.017
 2846SOL    HW2 9438   3.928   0.774   0.008
 2847SOL     OW 9439   4.755   4.290   2.222
 2847SOL    HW1 9440   4.662   4.302   2.188
 2847SOL    HW2 9441   4.794   4.206   2.184
 2848SOL     OW 9442   1.086   2.548   5.374
 2848SOL    HW1 9443   1.170   2.496   5.356
 2848SOL    HW2 9444   1.025   2.541   5.296
 2849SOL     OW 9445   3.742   0.653   1.628
 2849SOL    HW1 9446   3.681   0.688   1.699
 2849SOL    HW2 9447   3.834   0.643   1.665
 2850SOL     OW 9448   2.029   6.974   3.404
 2850SOL    HW1 9449   1.966   0.022   3.383
 2850SOL    HW2 9450   2.028   6.957   3.503
 2851SOL     OW 9451   4.060   3.162   6.393
 2851SOL    HW1 9452   4.048   3.216   6.476
 2851SOL    HW2 9453   4.001   3.199   6.321
 2852SOL     OW 9454   6.430   4.030   6.849
 2852SOL    HW1 9455   6.356   4.079   6.805
 2852SOL    HW2 9456   6.448   4.069   6.939
 2853SOL     OW 9457   0.195   3.430   7.011
 2853SOL    HW1 9458   0.126   3.501   7.000
 2853SOL    HW2 9459   0.284   3.465   6.980
 2854SOL     OW 9460   3.343   1.012   6.286
 2854SOL    HW1 9461   3.315   1.031   6.380
 2854SOL    HW2 9462   3.266   1.026   6.224
 2855SOL     OW 9463   0.799   2.444   4.363
 2855SOL    HW1 9464   0.867   2.497   4.413
 2855SOL    HW2 9465   0.747   2.386   4.426
 2856SOL     OW 9466   1.531   3.268   2.969
 2856SOL    HW1 9467   1.513   3.226   2.881
 2856SOL    HW2 9468   1.585   3.352   2.957
 2857SOL     OW 9469   0.270   3.514   0.389
 2857SOL    HW1 9470   0.207   3.498   0.465
 2857SOL    HW2 9471   0.307   3.427   0.357
 2858SOL     OW 9472   5.720   6.164   2.772
 2858SOL    HW1 9473   5.621   6.163   2.783
 2858SOL    HW2 9474   5.764   6.150   2.861
 2859SOL     OW 9475   5.549   5.724   0.566
 2859SOL    HW1 9476   5.504   5.726   0.476
 2859SOL    HW2 9477   5.492   5.673   0.630
 2860SOL     OW 9478   1.582   6.047   1.376
 2860SOL    HW1 9479   1.576   5.951   1.347
 2860SOL    HW2 9480   1.676   6.078   1.367
 2861SOL     OW 9481   3.034   5.070   5.686
 2861SOL    HW1 9482   3.039   5.169   5.700
 2861SOL    HW2 9483   2.967   5.031   5.748
 2862SOL     OW 9484   4.337   2.706   1.418
 2862SOL    HW1 9485   4.287   2.627   1.381
 2862SOL    HW2 9486   4.328   2.707   1.517
 2863SOL     OW 9487   5.343   0.906   6.175
 2863SOL    HW1 9488   5.298   0.987   6.213
 2863SOL    HW2 9489   5.421   0.881   6.233
 2864SOL     OW 9490   4.622   2.832   1.105
 2864SOL    HW1 9491   4.560   2.817   1.183
 2864SOL    HW2 9492   4.577   2.803   1.021
 2865SOL     OW 9493   4.371   6.249   4.204
 2865SOL    HW1 9494   4.348   6.304   4.284
 2865SOL    HW2 9495   4.311   6.275   4.128
 2866SOL     OW 9496   5.790   4.359   0.011
 2866SOL    HW1 9497   5.843   4.288   6.992
 2866SOL    HW2 9498   5.780   4.437   6.975
 2867SOL     OW 9499   6.769   6.549   2.155
 2867SOL    HW1 9500   6.730   6.627   2.105
 2867SOL    HW2 9501   6.695   6.494   2.192
 2868SOL     OW 9502   0.945   1.256   5.583
 2868SOL    HW1 9503   1.018   1.266   5.650
 2868SOL    HW2 9504   0.967   1.311   5.502
 2869SOL     OW 9505   6.000   6.895   4.426
 2869SOL    HW1 9506   5.937   6.973   4.424
 2869SOL    HW2 9507   6.047   6.894   4.514
 2870SOL     OW 9508   1.407   1.955   0.269
 2870SOL    HW1 9509   1.328   1.916   0.317
 2870SOL    HW2 9510   1.486   1.957   0.331
 2871SOL     OW 9511   6.991   0.807   1.039
 2871SOL    HW1 9512   7.003   0.727   0.980
 2871SOL    HW2 9513   6.955   0.777   1.128
 2872SOL     OW 9514   2.630   1.461   1.970
 2872SOL    HW1 9515   2.577   1.452   2.054
 2872SOL    HW2 9516   2.636   1.557   1.945
 2873SOL     OW 9517   0.584   5.422   1.529
 2873SOL    HW1 9518   0.525   5.370   1.467
 2873SOL    HW2 9519   0.594   5.372   1.615
 2874SOL     OW 9520   3.370   7.017   2.546
 2874SOL    HW1 9521   3.287   0.047   2.536
 2874SOL    HW2 9522   3.393   7.009   2.643
 2875SOL     OW 9523   3.294   6.770   2.971
 2875SOL    HW1 9524   3.302   6.827   3.053
 2875SOL    HW2 9525   3.204   6.728   2.967
 2876SOL     OW 9526   1.151   6.408   1.687
 2876SOL    HW1 9527   1.176   6.502   1.665
 2876SOL    HW2 9528   1.169   6.391   1.784
 2877SOL     OW 9529   2.072   1.943   6.134
 2877SOL    HW1 9530   2.083   1.844   6.139
 2877SOL    HW2 9531   2.071   1.972   6.038
 2878SOL     OW 9532   3.235   2.976   4.619
 2878SOL    HW1 9533   3.189   3.003   4.534
 2878SOL    HW2 9534   3.329   3.010   4.619
 2879SOL     OW 9535   4.455   5.286   5.909
 2879SOL    HW1 9536   4.409   5.233   5.838
 2879SOL    HW2 9537   4.414   5.377   5.914
 2880SOL     OW 9538   0.735   2.254   3.470
 2880SOL    HW1 9539   0.721   2.239   3.372
 2880SOL    HW2 9540   0.828   2.228   3.494
 2881SOL     OW 9541   3.227   5.301   6.987
 2881SOL    HW1 9542   3.283   5.292   0.044
 2881SOL    HW2 9543   3.152   5.235   6.990
 2882SOL     OW 9544   5.771   6.341   0.427
 2882SOL    HW1 9545   5.787   6.244   0.412
 2882SOL    HW2 9546   5.813   6.370   0.513
 2883SOL     OW 9547   6.543   6.693   3.082
 2883SOL    HW1 9548   6.475   6.656   3.145
 2883SOL    HW2 9549   6.632   6.649   3.099
 2884SOL     OW 9550   0.037   4.963   2.610
 2884SOL    HW1 9551   0.046   5.058   2.578
 2884SOL    HW2 9552   6.972   4.930   2.589
 2885SOL     OW 9553   1.276   2.512   4.161
 2885SOL    HW1 9554   1.236   2.590   4.208
 2885SOL    HW2 9555   1.369   2.535   4.133
 2886SOL     OW 9556   2.674   4.595   0.383
 2886SOL    HW1 9557   2.726   4.574   0.466
 2886SOL    HW2 9558   2.711   4.678   0.341
 2887SOL     OW 9559   0.217   5.823   4.013
 2887SOL    HW1 9560   0.189   5.730   3.990
 2887SOL    HW2 9561   0.307   5.842   3.974
 2888SOL     OW 9562   0.248   5.690   6.715
 2888SOL    HW1 9563   0.217   5.658   6.805
 2888SOL    HW2 9564   0.177   5.674   6.647
 2889SOL     OW 9565   3.306   6.447   2.867
 2889SOL    HW1 9566   3.397   6.488   2.860
 2889SOL    HW2 9567   3.244   6.495   2.805
 2890SOL     OW 9568   2.388   6.125   0.823
 2890SOL    HW1 9569   2.335   6.091   0.746
 2890SOL    HW2 9570   2.388   6.056   0.896
 2891SOL     OW 9571   0.926   2.979   2.588
 2891SOL    HW1 9572   1.009   2.952   2.540
 2891SOL    HW2 9573   0.924   2.936   2.679
 2892SOL     OW 9574   6.414   3.600   1.101
 2892SOL    HW1 9575   6.353   3.676   1.081
 2892SOL    HW2 9576   6.476   3.626   1.176
 2893SOL     OW 9577   1.001   5.280   4.729
 2893SOL    HW1 9578   0.995   5.185   4.758
 2893SOL    HW2 9579   0.923   5.331   4.764
 2894SOL     OW 9580   2.090   4.308   1.926
 2894SOL    HW1 9581   2.173   4.316   1.871
 2894SOL    HW2 9582   2.022   4.374   1.894
 2895SOL     OW 9583   3.642   0.614   6.212
 2895SOL    HW1 9584   3.693   0.550   6.270
 2895SOL    HW2 9585   3.551   0.577   6.195
 2896SOL     OW 9586   5.945   0.020   5.670
 2896SOL    HW1 9587   6.002   0.102   5.675
 2896SOL    HW2 9588   5.944   7.012   5.576
 2897SOL     OW 9589   3.663   5.131   2.710
 2897SOL    HW1 9590   3.670   5.193   2.633
 2897SOL    HW2 9591   3.592   5.063   2.692
 2898SOL     OW 9592   5.995   3.954   3.162
 2898SOL    HW1 9593   5.962   3.943   3.256
 2898SOL    HW2 9594   6.076   4.012   3.161
 2899SOL     OW 9595   0.031   2.412   1.470
 2899SOL    HW1 9596   6.995   2.409   1.549
 2899SOL    HW2 9597   0.055   2.507   1.450
 2900SOL     OW 9598   3.595   4.402   6.614
 2900SOL    HW1 9599   3.502   4.381   6.643
 2900SOL    HW2 9600   3.594   4.477   6.548
 2901SOL     OW 9601   1.701   4.807   3.872
 2901SOL    HW1 9602   1.721   4.902   3.895
 2901SOL    HW2 9603   1.624   4.775   3.928
 2902SOL     OW 9604   6.973   5.940   3.685
 2902SOL    HW1 9605   6.897   5.886   3.721
 2902SOL    HW2 9606   6.940   5.999   3.611
 2903SOL     OW 9607   4.317   6.249   0.959
 2903SOL    HW1 9608   4.356   6.204   1.039
 2903SOL    HW2 9609   4.375   6.231   0.879
 2904SOL     OW 9610   2.878   4.901   5.140
 2904SOL    HW1 9611   2.831   4.828   5.090
 2904SOL    HW2 9612   2.976   4.883   5.141
 2905SOL     OW 9613   1.149   4.180   3.111
 2905SOL    HW1 9614   1.127   4.201   3.016
 2905SOL    HW2 9615   1.212   4.249   3.148
 2906SOL     OW 9616   5.471   6.119   2.888
 2906SOL    HW1 9617   5.396   6.158   2.941
 2906SOL    HW2 9618   5.466   6.020   2.890
 2907SOL     OW 9619   0.871   0.759   4.160
 2907SOL    HW1 9620   0.778   0.789   4.182
 2907SOL    HW2 9621   0.936   0.824   4.199
 2908SOL     OW 9622   5.211   0.346   3.659
 2908SOL    HW1 9623   5.189   0.249   3.666
 2908SOL    HW2 9624   5.138   0.400   3.702
 2909SOL     OW 9625   1.154   6.505   3.073
 2909SOL    HW1 9626   1.084   6.467   3.013
 2909SOL    HW2 9627   1.232   6.443   3.077
 2910SOL     OW 9628   6.707   0.728   4.090
 2910SOL    HW1 9629   6.803   0.704   4.101
 2910SOL    HW2 9630   6.697   0.791   4.013
 2911SOL     OW 9631   1.293   4.898   3.867
 2911SOL    HW1 9632   1.342   4.828   3.813
 2911SOL    HW2 9633   1.261   4.971   3.806
 2912SOL     OW 9634   6.890   6.428   0.750
 2912SOL    HW1 9635   6.978   6.397   0.714
 2912SOL    HW2 9636   6.874   6.385   0.839
 2913SOL     OW 9637   2.257   4.558   2.114
 2913SOL    HW1 9638   2.294   4.505   2.190
 2913SOL    HW2 9639   2.162   4.583   2.134
 2914SOL     OW 9640   5.304   5.212   1.059
 2914SOL    HW1 9641   5.223   5.202   1.002
 2914SOL    HW2 9642   5.291   5.288   1.123
 2915SOL     OW 9643   3.034   2.266   3.174
 2915SOL    HW1 9644   3.074   2.293   3.086
 2915SOL    HW2 9645   2.942   2.230   3.159
 2916SOL     OW 9646   2.542   5.334   0.048
 2916SOL    HW1 9647   2.541   5.434   0.047
 2916SOL    HW2 9648   2.618   5.301   7.018
 2917SOL     OW 9649   2.449   0.468   3.854
 2917SOL    HW1 9650   2.447   0.394   3.922
 2917SOL    HW2 9651   2.485   0.551   3.896
 2918SOL     OW 9652   6.308   3.285   0.744
 2918SOL    HW1 9653   6.295   3.373   0.789
 2918SOL    HW2 9654   6.326   3.300   0.647
 2919SOL     OW 9655   6.601   5.871   4.283
 2919SOL    HW1 9656   6.674   5.891   4.217
 2919SOL    HW2 9657   6.632   5.894   4.375
 2920SOL     OW 9658   2.308   0.312   2.014
 2920SOL    HW1 9659   2.369   0.312   2.093
 2920SOL    HW2 9660   2.284   0.406   1.989
 2921SOL     OW 9661   6.695   6.758   5.406
 2921SOL    HW1 9662   6.613   6.701   5.410
 2921SOL    HW2 9663   6.688   6.820   5.328
 2922SOL     OW 9664   4.425   0.198   2.341
 2922SOL    HW1 9665   4.444   0.169   2.435
 2922SOL    HW2 9666   4.460   0.291   2.328
 2923SOL     OW 9667   6.462   4.941   4.464
 2923SOL    HW1 9668   6.497   5.031   4.439
 2923SOL    HW2 9669   6.435   4.892   4.381
 2924SOL     OW 9670   6.881   1.415   4.908
 2924SOL    HW1 9671   6.790   1.394   4.874
 2924SOL    HW2 9672   6.936   1.455   4.834
 2925SOL     OW 9673   5.343   0.956   6.947
 2925SOL    HW1 9674   5.287   0.910   6.878
 2925SOL    HW2 9675   5.299   0.947   0.011
 2926SOL     OW 9676   0.027   1.959   5.211
 2926SOL    HW1 9677   0.094   2.028   5.183
 2926SOL    HW2 9678   6.963   1.984   5.176
 2927SOL     OW 9679   2.198   3.484   0.980
 2927SOL    HW1 9680   2.118   3.463   1.037
 2927SOL    HW2 9681   2.274   3.512   1.039
 2928SOL     OW 9682   6.296   1.298   0.389
 2928SOL    HW1 9683   6.386   1.342   0.381
 2928SOL    HW2 9684   6.225   1.369   0.394
 2929SOL     OW 9685   1.171   2.787   5.306
 2929SOL    HW1 9686   1.135   2.695   5.317
 2929SOL    HW2 9687   1.205   2.820   5.395
 2930SOL     OW 9688   5.899   5.795   5.693
 2930SOL    HW1 9689   5.889   5.781   5.792
 2930SOL    HW2 9690   5.839   5.732   5.644
 2931SOL     OW 9691   4.249   4.838   0.325
 2931SOL    HW1 9692   4.273   4.918   0.270
 2931SOL    HW2 9693   4.195   4.867   0.404
 2932SOL     OW 9694   0.019   5.401   2.263
 2932SOL    HW1 9695   6.966   5.408   2.324
 2932SOL    HW2 9696   0.089   5.466   2.292
 2933SOL     OW 9697   0.215   0.113   1.838
 2933SOL    HW1 9698   0.315   0.108   1.840
 2933SOL    HW2 9699   0.186   0.175   1.765
 2934SOL     OW 9700   4.293   2.883   0.969
 2934SOL    HW1 9701   4.234   2.835   1.033
 2934SOL    HW2 9702   4.333   2.818   0.905
 2935SOL     OW 9703   1.276   2.630   6.486
 2935SOL    HW1 9704   1.274   2.663   6.392
 2935SOL    HW2 9705   1.348   2.562   6.497
 2936SOL     OW 9706   4.665   0.269   0.464
 2936SOL    HW1 9707   4.597   0.196   0.462
 2936SOL    HW2 9708   4.682   0.302   0.371
 2937SOL     OW 9709   4.859   4.676   0.921
 2937SOL    HW1 9710   4.762   4.659   0.905
 2937SOL    HW2 9711   4.906   4.588   0.932
 2938SOL     OW 9712   6.290   5.652   0.260
 2938SOL    HW1 9713   6.270   5.709   0.340
 2938SOL    HW2 9714   6.320   5.562   0.290
 2939SOL     OW 9715   0.330   6.747   1.768
 2939SOL    HW1 9716   0.359   6.808   1.694
 2939SOL    HW2 9717   0.399   6.676   1.781
 2940SOL     OW 9718   5.791   5.731   4.487
 2940SOL    HW1 9719   5.829   5.676   4.562
 2940SOL    HW2 9720   5.694   5.709   4.475
 2941SOL     OW 9721   1.936   2.782   3.076
 2941SOL    HW1 9722   2.029   2.814   3.095
 2941SOL    HW2 9723   1.937   2.729   2.991
 2942SOL     OW 9724   3.019   2.585   0.314
 2942SOL    HW1 9725   2.988   2.535   0.233
 2942SOL    HW2 9726   2.943   2.635   0.354
 2943SOL     OW 9727   6.127   4.832   4.203
 2943SOL    HW1 9728   6.072   4.872   4.130
 2943SOL    HW2 9729   6.090   4.743   4.228
 2944SOL     OW 9730   2.741   6.223   3.942
 2944SOL    HW1 9731   2.794   6.202   3.859
 2944SOL    HW2 9732   2.646   6.197   3.928
 2945SOL     OW 9733   5.167   3.446   1.479
 2945SOL    HW1 9734   5.182   3.363   1.533
 2945SOL    HW2 9735   5.171   3.526   1.538
 2946SOL     OW 9736   2.482   4.339   5.824
 2946SOL    HW1 9737   2.395   4.291   5.814
 2946SOL    HW2 9738   2.476   4.429   5.781
 2947SOL     OW 9739   0.166   6.037   0.435
 2947SOL    HW1 9740   0.222   5.955   0.445
 2947SOL    HW2 9741   0.163   6.064   0.338
 2948SOL     OW 9742   5.742   4.947   3.311
 2948SOL    HW1 9743   5.812   4.896   3.261
 2948SOL    HW2 9744   5.655   4.900   3.303
 2949SOL     OW 9745   0.934   6.652   0.178
 2949SOL    HW1 9746   1.029   6.674   0.155
 2949SOL    HW2 9747   0.903   6.576   0.121
 2950SOL     OW 9748   5.832   4.851   2.848
 2950SOL    HW1 9749   5.762   4.920   2.833
 2950SOL    HW2 9750   5.857   4.809   2.761
 2951SOL     OW 9751   6.130   0.903   1.525
 2951SOL    HW1 9752   6.209   0.958   1.496
 2951SOL    HW2 9753   6.152   0.806   1.514
 2952SOL     OW 9754   6.133   0.646   5.425
 2952SOL    HW1 9755   6.102   0.654   5.331
 2952SOL    HW2 9756   6.061   0.677   5.487
 2953SOL     OW 9757   6.474   4.713   3.262
 2953SOL    HW1 9758   6.412   4.780   3.304
 2953SOL    HW2 9759   6.568   4.738   3.284
 2954SOL     OW 9760   0.597   4.869   6.741
 2954SOL    HW1 9761   0.695   4.859   6.723
 2954SOL    HW2 9762   0.545   4.828   6.666
 2955SOL     OW 9763   1.272   4.318   0.172
 2955SOL    HW1 9764   1.232   4.237   0.129
 2955SOL    HW2 9765   1.362   4.296   0.209
 2956SOL     OW 9766   6.964   5.347   4.118
 2956SOL    HW1 9767   6.968   5.250   4.093
 2956SOL    HW2 9768   0.002   5.399   4.061
 2957SOL     OW 9769   4.337   4.950   1.203
 2957SOL    HW1 9770   4.411   4.902   1.156
 2957SOL    HW2 9771   4.257   4.891   1.209
 2958SOL     OW 9772   2.125   5.057   3.337
 2958SOL    HW1 9773   2.139   4.971   3.386
 2958SOL    HW2 9774   2.174   5.130   3.385
 2959SOL     OW 9775   5.324   2.842   2.853
 2959SOL    HW1 9776   5.287   2.801   2.769
 2959SOL    HW2 9777   5.423   2.825   2.857
 2960SOL     OW 9778   3.462   0.905   6.976
 2960SOL    HW1 9779   3.413   0.892   0.036
 2960SOL    HW2 9780   3.436   0.834   6.911
 2961SOL     OW 9781   6.026   4.969   2.985
 2961SOL    HW1 9782   6.025   4.915   3.069
 2961SOL    HW2 9783   5.963   4.929   2.919
 2962SOL     OW 9784   5.079   6.628   3.763
 2962SOL    HW1 9785   5.154   6.683   3.727
 2962SOL    HW2 9786   5.104   6.589   3.852
 2963SOL     OW 9787   1.479   1.225   6.271
 2963SOL    HW1 9788   1.431   1.227   6.359
 2963SOL    HW2 9789   1.413   1.207   6.197
 2964SOL     OW 9790   0.652   2.731   6.856
 2964SOL    HW1 9791   0.609   2.691   6.937
 2964SOL    HW2 9792   0.742   2.765   6.879
 2965SOL     OW 9793   1.166   0.740   4.388
 2965SOL    HW1 9794   1.205   0.811   4.329
 2965SOL    HW2 9795   1.203   0.750   4.481
 2966SOL     OW 9796   4.674   5.832   4.051
 2966SOL    HW1 9797   4.678   5.891   3.970
 2966SOL    HW2 9798   4.747   5.858   4.114
 2967SOL     OW 9799   6.843   1.150   6.304
 2967SOL    HW1 9800   6.812   1.168   6.210
 2967SOL    HW2 9801   6.847   1.236   6.355
 2968SOL     OW 9802   2.298   3.241   0.846
 2968SOL    HW1 9803   2.312   3.185   0.928
 2968SOL    HW2 9804   2.260   3.330   0.873
 2969SOL     OW 9805   4.887   3.801   4.636
 2969SOL    HW1 9806   4.819   3.835   4.572
 2969SOL    HW2 9807   4.943   3.877   4.669
 2970SOL     OW 9808   3.010   2.800   5.449
 2970SOL    HW1 9809   2.964   2.871   5.396
 2970SOL    HW2 9810   3.087   2.763   5.397
 2971SOL     OW 9811   5.671   4.022   0.109
 2971SOL    HW1 9812   5.740   3.960   0.147
 2971SOL    HW2 9813   5.663   4.103   0.167
 2972SOL     OW 9814   5.550   5.042   0.320
 2972SOL    HW1 9815   5.597   4.964   0.279
 2972SOL    HW2 9816   5.606   5.124   0.310
 2973SOL     OW 9817   4.805   6.740   2.732
 2973SOL    HW1 9818   4.748   6.822   2.738
 2973SOL    HW2 9819   4.747   6.659   2.718
 2974SOL     OW 9820   6.065   4.300   3.194
 2974SOL    HW1 9821   6.133   4.228   3.208
 2974SOL    HW2 9822   6.004   4.273   3.119
 2975SOL     OW 9823   4.965   4.801   3.825
 2975SOL    HW1 9824   4.949   4.766   3.733
 2975SOL    HW2 9825   4.978   4.901   3.820
 2976SOL     OW 9826   4.685   1.717   2.993
 2976SOL    HW1 9827   4.591   1.743   3.015
 2976SOL    HW2 9828   4.684   1.632   2.941
 2977SOL     OW 9829   0.888   0.439   2.408
 2977SOL    HW1 9830   0.912   0.365   2.346
 2977SOL    HW2 9831   0.910   0.527   2.366
 2978SOL     OW 9832   4.096   4.024   6.809
 2978SOL    HW1 9833   4.071   3.985   6.897
 2978SOL    HW2 9834   4.131   4.117   6.822
 2979SOL     OW 9835   3.486   1.398   4.469
 2979SOL    HW1 9836   3.398   1.417   4.427
 2979SOL    HW2 9837   3.510   1.472   4.533
 2980SOL     OW 9838   2.813   4.782   6.122
 2980SOL    HW1 9839   2.716   4.794   6.143
 2980SOL    HW2 9840   2.853   4.717   6.186
 2981SOL     OW 9841   2.317   1.991   6.660
 2981SOL    HW1 9842   2.295   1.972   6.564
 2981SOL    HW2 9843   2.414   2.012   6.668
 2982SOL     OW 9844   2.040   6.484   2.424
 2982SOL    HW1 9845   1.963   6.421   2.433
 2982SOL    HW2 9846   2.005   6.578   2.423
 2983SOL     OW 9847   0.069   2.661   0.202
 2983SOL    HW1 9848   0.016   2.577   0.196
 2983SOL    HW2 9849   0.120   2.663   0.288
 2984SOL     OW 9850   6.582   4.747   6.797
 2984SOL    HW1 9851   6.510   4.754   6.728
 2984SOL    HW2 9852   6.639   4.829   6.795
 2985SOL     OW 9853   0.950   0.192   4.570
 2985SOL    HW1 9854   0.905   0.274   4.605
 2985SOL    HW2 9855   1.010   0.155   4.641
 2986SOL     OW 9856   3.315   4.103   2.280
 2986SOL    HW1 9857   3.328   4.153   2.366
 2986SOL    HW2 9858   3.384   4.131   2.214
 2987SOL     OW 9859   1.267   2.003   3.732
 2987SOL    HW1 9860   1.262   1.990   3.633
 2987SOL    HW2 9861   1.361   2.027   3.758
 2988SOL     OW 9862   1.064   0.335   1.603
 2988SOL    HW1 9863   1.054   0.434   1.606
 2988SOL    HW2 9864   1.096   0.308   1.512
 2989SOL     OW 9865   5.285   3.830   5.670
 2989SOL    HW1 9866   5.200   3.782   5.649
 2989SOL    HW2 9867   5.291   3.847   5.768
 2990SOL     OW 9868   5.515   2.258   4.263
 2990SOL    HW1 9869   5.530   2.168   4.223
 2990SOL    HW2 9870   5.417   2.270   4.282
 2991SOL     OW 9871   5.975   3.558   0.279
 2991SOL    HW1 9872   5.880   3.563   0.310
 2991SOL    HW2 9873   5.982   3.594   0.186
 2992SOL     OW 9874   0.765   4.531   4.590
 2992SOL    HW1 9875   0.756   4.431   4.591
 2992SOL    HW2 9876   0.855   4.556   4.555
 2993SOL     OW 9877   0.183   4.956   0.291
 2993SOL    HW1 9878   0.248   4.881   0.277
 2993SOL    HW2 9879   0.233   5.042   0.295
 2994SOL     OW 9880   4.686   6.468   6.907
 2994SOL    HW1 9881   4.639   6.406   6.970
 2994SOL    HW2 9882   4.677   6.562   6.941
 2995SOL     OW 9883   4.827   0.440   0.264
 2995SOL    HW1 9884   4.834   0.540   0.255
 2995SOL    HW2 9885   4.782   0.403   0.183
 2996SOL     OW 9886   1.561   2.151   4.789
 2996SOL    HW1 9887   1.633   2.172   4.854
 2996SOL    HW2 9888   1.579   2.062   4.746
 2997SOL     OW 9889   4.187   0.790   3.151
 2997SOL    HW1 9890   4.099   0.808   3.194
 2997SOL    HW2 9891   4.250   0.865   3.170
 2998SOL     OW 9892   3.036   0.680   4.000
 2998SOL    HW1 9893   3.058   0.654   4.094
 2998SOL    HW2 9894   2.966   0.750   4.000
 2999SOL     OW 9895   2.961   4.874   6.482
 2999SOL    HW1 9896   2.906   4.953   6.510
 2999SOL    HW2 9897   3.042   4.906   6.432
 3000SOL     OW 9898   2.842   3.620   5.597
 3000SOL    HW1 9899   2.938   3.590   5.594
 3000SOL    HW2 9900   2.800   3.587   5.682
 3001SOL     OW 9901   6.012   1.701   0.163
 3001SOL    HW1 9902   5.922   1.708   0.207
 3001SOL    HW2 9903   6.059   1.789   0.169
 3002SOL     OW 9904   2.873   1.441   1.073
 3002SOL    HW1 9905   2.857   1.386   1.155
 3002SOL    HW2 9906   2.787   1.481   1.043
 3003SOL     OW 9907   0.758   6.574   1.223
 3003SOL    HW1 9908   0.761   6.498   1.158
 3003SOL    HW2 9909   0.816   6.552   1.302
 3004SOL     OW 9910   1.875   4.285   4.350
 3004SOL    HW1 9911   1.965   4.272   4.310
 3004SOL    HW2 9912   1.811   4.314   4.279
 3005SOL     OW 9913   0.714   3.449   5.486
 3005SOL    HW1 9914   0.621   3.469   5.518
 3005SOL    HW2 9915   0.735   3.353   5.502
 3006SOL     OW 9916   5.598   2.088   5.417
 3006SOL    HW1 9917   5.569   1.995   5.438
 3006SOL    HW2 9918   5.647   2.090   5.330
 3007SOL     OW 9919   4.878   5.631   0.039
 3007SOL    HW1 9920   4.961   5.604   7.017
 3007SOL    HW2 9921   4.838   5.551   0.084
 3008SOL     OW 9922   3.870   2.389   5.978
 3008SOL    HW1 9923   3.919   2.463   5.932
 3008SOL    HW2 9924   3.856   2.313   5.914
 3009SOL     OW 9925   6.684   2.346   2.998
 3009SOL    HW1 9926   6.713   2.402   2.920
 3009SOL    HW2 9927   6.734   2.376   3.079
 3010SOL     OW 9928   3.483   5.731   5.972
 3010SOL    HW1 9929   3.423   5.658   6.004
 3010SOL    HW2 9930   3.576   5.714   6.004
 3011SOL     OW 9931   6.339   0.315   1.913
 3011SOL    HW1 9932   6.378   0.223   1.907
 3011SOL    HW2 9933   6.329   0.341   2.009
 3012SOL     OW 9934   2.691   3.366   6.814
 3012SOL    HW1 9935   2.733   3.423   6.744
 3012SOL    HW2 9936   2.599   3.338   6.785
 3013SOL     OW 9937   6.280   5.174   3.292
 3013SOL    HW1 9938   6.204   5.172   3.227
 3013SOL    HW2 9939   6.366   5.185   3.241
 3014SOL     OW 9940   5.186   1.094   6.545
 3014SOL    HW1 9941   5.230   1.172   6.589
 3014SOL    HW2 9942   5.106   1.066   6.598
 3015SOL     OW 9943   2.504   1.084   0.725
 3015SOL    HW1 9944   2.567   1.032   0.669
 3015SOL    HW2 9945   2.412   1.044   0.719
 3016SOL     OW 9946   3.398   0.132   4.156
 3016SOL    HW1 9947   3.416   0.073   4.077
 3016SOL    HW2 9948   3.438   0.090   4.238
 3017SOL     OW 9949   5.893   4.578   2.163
 3017SOL    HW1 9950   5.913   4.519   2.241
 3017SOL    HW2 9951   5.844   4.660   2.194
 3018SOL     OW 9952   3.771   6.704   6.865
 3018SOL    HW1 9953   3.672   6.716   6.873
 3018SOL    HW2 9954   3.817   6.792   6.875
 3019SOL     OW 9955   1.148   6.918   0.097
 3019SOL    HW1 9956   1.099   6.991   0.145
 3019SOL    HW2 9957   1.128   6.923   7.026
 3020SOL     OW 9958   5.096   3.425   6.752
 3020SOL    HW1 9959   5.115   3.523   6.746
 3020SOL    HW2 9960   5.007   3.406   6.710
 3021SOL     OW 9961   2.511   6.760   4.305
 3021SOL    HW1 9962   2.532   6.801   4.394
 3021SOL    HW2 9963   2.425   6.709   4.311
 3022SOL     OW 9964   3.824   5.953   4.026
 3022SOL    HW1 9965   3.832   5.980   3.930
 3022SOL    HW2 9966   3.727   5.946   4.050
 3023SOL     OW 9967   3.746   0.055   2.687
 3023SOL    HW1 9968   3.777   0.084   2.597
 3023SOL    HW2 9969   3.822   0.061   2.752
 3024SOL     OW 9970   6.257   5.971   5.276
 3024SOL    HW1 9971   6.332   5.986   5.212
 3024SOL    HW2 9972   6.223   6.060   5.308
 3025SOL     OW 9973   4.214   5.939   0.723
 3025SOL    HW1 9974   4.198   5.936   0.822
 3025SOL    HW2 9975   4.149   6.003   0.681
 3026SOL     OW 9976   6.857   1.269   6.981
 3026SOL    HW1 9977   6.951   1.238   6.989
 3026SOL    HW2 9978   6.825   1.304   0.043
 3027SOL     OW 9979   4.157   1.433   2.158
 3027SOL    HW1 9980   4.062   1.434   2.187
 3027SOL    HW2 9981   4.169   1.366   2.084
 3028SOL     OW 9982   1.711   4.081   6.449
 3028SOL    HW1 9983   1.737   4.163   6.398
 3028SOL    HW2 9984   1.614   4.085   6.472
 3029SOL     OW 9985   0.569   2.243   3.705
 3029SOL    HW1 9986   0.601   2.178   3.775
 3029SOL    HW2 9987   0.629   2.237   3.625
 3030SOL     OW 9988   1.473   4.118   0.987
 3030SOL    HW1 9989   1.503   4.104   0.893
 3030SOL    HW2 9990   1.501   4.209   1.018
 3031SOL     OW 9991   1.421   5.510   1.629
 3031SOL    HW1 9992   1.494   5.526   1.696
 3031SOL    HW2 9993   1.413   5.590   1.569
 3032SOL     OW 9994   1.482   6.162   3.253
 3032SOL    HW1 9995   1.512   6.074   3.291
 3032SOL    HW2 9996   1.548   6.192   3.184
 3033SOL     OW 9997   6.509   2.577   3.555
 3033SOL    HW1 9998   6.412   2.574   3.580
 3033SOL    HW2 9999   6.536   2.672   3.538
 3034SOL     OW10000   1.230   5.622   3.794
 3034SOL    HW110001   1.201   5.643   3.887
 3034SOL    HW210002   1.154   5.640   3.731
 3035SOL     OW10003   1.159   2.857   6.354
 3035SOL    HW110004   1.122   2.928   6.414
 3035SOL    HW210005   1.088   2.789   6.334
 3036SOL     OW10006   1.422   2.234   5.695
 3036SOL    HW110007   1.356   2.289   5.745
 3036SOL    HW210008   1.374   2.167   5.639
 3037SOL     OW10009   0.084   5.454   5.572
 3037SOL    HW110010   0.096   5.370   5.625
 3037SOL    HW210011   0.174   5.486   5.541
 3038SOL     OW10012   5.009   5.447   5.999
 3038SOL    HW110013   5.036   5.543   5.988
 3038SOL    HW210014   4.972   5.413   5.912
 3039SOL     OW10015   6.760   3.187   6.743
 3039SOL    HW110016   6.671   3.143   6.755
 3039SOL    HW210017   6.812   3.138   6.672
 3040SOL     OW10018   3.469   4.263   5.907
 3040SOL    HW110019   3.500   4.197   5.838
 3040SOL    HW210020   3.456   4.216   5.994
 3041SOL     OW10021   0.947   4.030   5.661
 3041SOL    HW110022   1.019   4.023   5.731
 3041SOL    HW210023   0.939   4.125   5.631
 3042SOL     OW10024   6.869   5.580   2.147
 3042SOL    HW110025   6.939   5.510   2.163
 3042SOL    HW210026   6.844   5.580   2.050
 3043SOL     OW10027   3.056   3.781   0.295
 3043SOL    HW110028   2.993   3.817   0.227
 3043SOL    HW210029   3.036   3.822   0.384
 3044SOL     OW10030   3.279   4.173   5.637
 3044SOL    HW110031   3.315   4.117   5.711
 3044SOL    HW210032   3.218   4.118   5.580
 3045SOL     OW10033   4.153   0.523   3.342
 3045SOL    HW110034   4.199   0.535   3.430
 3045SOL    HW210035   4.162   0.607   3.288
 3046SOL     OW10036   4.472   6.057   6.916
 3046SOL    HW110037   4.455   6.139   6.862
 3046SOL    HW210038   4.386   6.020   6.950
 3047SOL     OW10039   6.273   6.697   0.648
 3047SOL    HW110040   6.351   6.751   0.679
 3047SOL    HW210041   6.200   6.701   0.717
 3048SOL     OW10042   4.633   2.959   0.749
 3048SOL    HW110043   4.548   3.010   0.736
 3048SOL    HW210044   4.694   3.009   0.810
 3049SOL     OW10045   0.877   0.475   4.665
 3049SOL    HW110046   0.939   0.553   4.659
 3049SOL    HW210047   0.794   0.493   4.612
 3050SOL     OW10048   2.306   2.514   1.504
 3050SOL    HW110049   2.225   2.518   1.562
 3050SOL    HW210050   2.343   2.606   1.492
 3051SOL     OW10051   2.798   0.133   6.110
 3051SOL    HW110052   2.795   0.087   6.021
 3051SOL    HW210053   2.722   0.100   6.166
 3052SOL     OW10054   5.820   6.229   2.508
 3052SOL    HW110055   5.800   6.191   2.598
 3052SOL    HW210056   5.800   6.161   2.438
 3053SOL     OW10057   1.223   4.342   0.877
 3053SOL    HW110058   1.304   4.360   0.934
 3053SOL    HW210059   1.246   4.274   0.808
 3054SOL     OW10060   5.457   1.070   3.438
 3054SOL    HW110061   5.515   0.992   3.414
 3054SOL    HW210062   5.428   1.116   3.354
 3055SOL     OW10063   6.486   0.055   6.137
 3055SOL    HW110064   6.418   7.012   6.111
 3055SOL    HW210065   6.519   0.037   6.230
 3056SOL     OW10066   5.690   1.571   5.789
 3056SOL    HW110067   5.744   1.583   5.705
 3056SOL    HW210068   5.718   1.487   5.835
 3057SOL     OW10069   5.652   6.214   3.722
 3057SOL    HW110070   5.693   6.263   3.799
 3057SOL    HW210071   5.669   6.266   3.638
 3058SOL     OW10072   6.603   4.279   1.118
 3058SOL    HW110073   6.507   4.266   1.091
 3058SOL    HW210074   6.615   4.247   1.212
 3059SOL     OW10075   2.127   2.410   4.122
 3059SOL    HW110076   2.130   2.385   4.219
 3059SOL    HW210077   2.114   2.327   4.067
 3060SOL     OW10078   2.948   5.300   6.647
 3060SOL    HW110079   2.892   5.217   6.644
 3060SOL    HW210080   2.901   5.369   6.703
 3061SOL     OW10081   5.926   5.144   6.036
 3061SOL    HW110082   5.941   5.226   5.980
 3061SOL    HW210083   5.958   5.161   6.129
 3062SOL     OW10084   4.149   5.093   1.054
 3062SOL    HW110085   4.138   5.040   0.970
 3062SOL    HW210086   4.224   5.055   1.108
 3063SOL     OW10087   0.730   5.061   0.610
 3063SOL    HW110088   0.752   4.964   0.599
 3063SOL    HW210089   0.634   5.076   0.587
 3064SOL     OW10090   4.792   2.942   0.300
 3064SOL    HW110091   4.718   3.009   0.309
 3064SOL    HW210092   4.793   2.884   0.381
 3065SOL     OW10093   0.873   1.368   6.450
 3065SOL    HW110094   0.882   1.326   6.359
 3065SOL    HW210095   0.798   1.325   6.499
 3066SOL     OW10096   4.732   5.319   5.982
 3066SOL    HW110097   4.739   5.399   6.042
 3066SOL    HW210098   4.640   5.313   5.945
 3067SOL     OW10099   2.002   1.774   0.315
 3067SOL    HW110100   2.029   1.795   0.222
 3067SOL    HW210101   1.954   1.687   0.317
 3068SOL     OW10102   0.492   0.948   1.426
 3068SOL    HW110103   0.396   0.919   1.429
 3068SOL    HW210104   0.498   1.047   1.433
 3069SOL     OW10105   6.126   6.771   3.423
 3069SOL    HW110106   6.208   6.827   3.416
 3069SOL    HW210107   6.061   6.797   3.352
 3070SOL     OW10108   3.099   1.264   6.873
 3070SOL    HW110109   3.115   1.173   6.911
 3070SOL    HW210110   3.003   1.289   6.886
 3071SOL     OW10111   6.863   4.521   3.970
 3071SOL    HW110112   6.929   4.446   3.976
 3071SOL    HW210113   6.784   4.492   3.917
 3072SOL     OW10114   2.151   5.896   0.124
 3072SOL    HW110115   2.234   5.920   0.174
 3072SOL    HW210116   2.112   5.978   0.082
 3073SOL     OW10117   0.499   4.519   1.097
 3073SOL    HW110118   0.499   4.580   1.175
 3073SOL    HW210119   0.571   4.546   1.032
 3074SOL     OW10120   1.208   4.003   1.325
 3074SOL    HW110121   1.177   4.083   1.275
 3074SOL    HW210122   1.291   3.966   1.282
 3075SOL     OW10123   2.279   5.100   3.910
 3075SOL    HW110124   2.240   5.011   3.933
 3075SOL    HW210125   2.248   5.168   3.976
 3076SOL     OW10126   0.050   0.885   5.096
 3076SOL    HW110127   0.102   0.970   5.091
 3076SOL    HW210128   6.979   0.906   5.099
 3077SOL     OW10129   6.085   3.959   1.942
 3077SOL    HW110130   6.180   3.955   1.911
 3077SOL    HW210131   6.066   4.050   1.979
 3078SOL     OW10132   6.566   3.183   2.339
 3078SOL    HW110133   6.541   3.142   2.251
 3078SOL    HW210134   6.489   3.236   2.373
 3079SOL     OW10135   2.715   2.383   4.167
 3079SOL    HW110136   2.622   2.396   4.133
 3079SOL    HW210137   2.780   2.406   4.094
 3080SOL     OW10138   4.784   4.224   1.799
 3080SOL    HW110139   4.844   4.174   1.862
 3080SOL    HW210140   4.691   4.226   1.836
 3081SOL     OW10141   0.807   4.464   0.162
 3081SOL    HW110142   0.897   4.444   0.201
 3081SOL    HW210143   0.751   4.513   0.229
 3082SOL     OW10144   2.784   5.401   4.821
 3082SOL    HW110145   2.687   5.380   4.804
 3082SOL    HW210146   2.838   5.376   4.741
 3083SOL     OW10147   2.732   5.480   2.323
 3083SOL    HW110148   2.724   5.448   2.418
 3083SOL    HW210149   2.821   5.452   2.286
 3084SOL     OW10150   0.810   3.769   2.729
 3084SOL    HW110151   0.843   3.691   2.782
 3084SOL    HW210152   0.791   3.741   2.636
 3085SOL     OW10153   5.262   4.480   0.565
 3085SOL    HW110154   5.181   4.509   0.513
 3085SOL    HW210155   5.334   4.453   0.501
 3086SOL     OW10156   4.985   1.303   0.549
 3086SOL    HW110157   5.028   1.388   0.579
 3086SOL    HW210158   4.889   1.321   0.525
 3087SOL     OW10159   2.314   6.225   2.182
 3087SOL    HW110160   2.358   6.293   2.123
 3087SOL    HW210161   2.323   6.255   2.277
 3088SOL     OW10162   0.692   3.311   5.939
 3088SOL    HW110163   0.700   3.379   6.012
 3088SOL    HW210164   0.769   3.320   5.877
 3089SOL     OW10165   5.315   1.192   5.033
 3089SOL    HW110166   5.322   1.117   5.098
 3089SOL    HW210167   5.219   1.222   5.027
 3090SOL     OW10168   1.637   1.251   2.169
 3090SOL    HW110169   1.666   1.181   2.104
 3090SOL    HW210170   1.600   1.208   2.251
 3091SOL     OW10171   1.321   1.095   0.493
 3091SOL    HW110172   1.380   1.176   0.490
 3091SOL    HW210173   1.237   1.113   0.443
 3092SOL     OW10174   5.162   0.054   2.052
 3092SOL    HW110175   5.140   7.005   2.114
 3092SOL    HW210176   5.180   0.018   1.960
 3093SOL     OW10177   5.641   6.163   6.017
 3093SOL    HW110178   5.573   6.176   6.089
 3093SOL    HW210179   5.730   6.148   6.058
 3094SOL     OW10180   2.809   0.829   4.044
 3094SOL    HW110181   2.828   0.915   3.997
 3094SOL    HW210182   2.758   0.848   4.128
 3095SOL     OW10183   2.683   3.090   5.330
 3095SOL    HW110184   2.696   3.178   5.376
 3095SOL    HW210185   2.606   3.097   5.267
 3096SOL     OW10186   0.460   3.281   5.029
 3096SOL    HW110187   0.473   3.320   5.120
 3096SOL    HW210188   0.549   3.265   4.986
 3097SOL     OW10189   5.850   2.983   6.996
 3097SOL    HW110190   5.918   2.924   6.953
 3097SOL    HW210191   5.765   2.932   7.009
 3098SOL     OW10192   1.815   2.362   2.315
 3098SOL    HW110193   1.820   2.271   2.358
 3098SOL    HW210194   1.812   2.432   2.387
 3099SOL     OW10195   0.896   5.820   3.769
 3099SOL    HW110196   0.978   5.794   3.718
 3099SOL    HW210197   0.858   5.740   3.815
 3100SOL     OW10198   6.873   6.020   2.967
 3100SOL    HW110199   6.779   6.029   3.001
 3100SOL    HW210200   6.872   5.981   2.875
 3101SOL     OW10201   4.899   6.985   5.545
 3101SOL    HW110202   4.945   7.021   5.464
 3101SOL    HW210203   4.966   6.967   5.617
 3102SOL     OW10204   0.027   5.653   0.276
 3102SOL    HW110205   0.010   5.694   0.365
 3102SOL    HW210206   0.111   5.690   0.237
 3103SOL     OW10207   4.252   0.458   1.124
 3103SOL    HW110208   4.317   0.512   1.178
 3103SOL    HW210209   4.171   0.437   1.180
 3104SOL     OW10210   4.486   0.168   6.570
 3104SOL    HW110211   4.550   0.116   6.626
 3104SOL    HW210212   4.503   0.148   6.473
 3105SOL     OW10213   5.220   3.043   0.783
 3105SOL    HW110214   5.220   3.057   0.882
 3105SOL    HW210215   5.126   3.041   0.750
 3106SOL     OW10216   5.042   0.956   5.664
 3106SOL    HW110217   5.098   1.019   5.610
 3106SOL    HW210218   5.085   0.943   5.754
 3107SOL     OW10219   4.303   1.802   4.439
 3107SOL    HW110220   4.380   1.859   4.467
 3107SOL    HW210221   4.336   1.720   4.393
 3108SOL     OW10222   2.323   4.732   4.660
 3108SOL    HW110223   2.243   4.689   4.702
 3108SOL    HW210224   2.380   4.661   4.617
 3109SOL     OW10225   6.280   0.474   5.031
 3109SOL    HW110226   6.220   0.394   5.036
 3109SOL    HW210227   6.311   0.498   5.123
 3110SOL     OW10228   2.477   4.682   3.741
 3110SOL    HW110229   2.397   4.712   3.688
 3110SOL    HW210230   2.472   4.584   3.757
 3111SOL     OW10231   6.388   4.811   4.211
 3111SOL    HW110232   6.290   4.805   4.190
 3111SOL    HW210233   6.440   4.812   4.126
 3112SOL     OW10234   3.491   3.183   6.710
 3112SOL    HW110235   3.540   3.264   6.679
 3112SOL    HW210236   3.458   3.131   6.631
 3113SOL     OW10237   3.366   5.682   2.443
 3113SOL    HW110238   3.430   5.642   2.377
 3113SOL    HW210239   3.405   5.766   2.480
 3114SOL     OW10240   3.773   1.085   0.365
 3114SOL    HW110241   3.705   1.091   0.438
 3114SOL    HW210242   3.857   1.045   0.399
 3115SOL     OW10243   4.077   4.457   5.302
 3115SOL    HW110244   4.094   4.400   5.382
 3115SOL    HW210245   4.156   4.453   5.241
 3116SOL     OW10246   0.933   1.971   0.755
 3116SOL    HW110247   0.921   1.942   0.660
 3116SOL    HW210248   0.923   2.070   0.762
 3117SOL     OW10249   4.664   2.507   5.851
 3117SOL    HW110250   4.758   2.516   5.884
 3117SOL    HW210251   4.610   2.585   5.884
 3118SOL     OW10252   1.426   0.246   2.918
 3118SOL    HW110253   1.347   0.302   2.894
 3118SOL    HW210254   1.499   0.304   2.953
 3119SOL     OW10255   2.929   2.483   5.508
 3119SOL    HW110256   2.904   2.483   5.604
 3119SOL    HW210257   2.972   2.571   5.484
 3120SOL     OW10258   3.410   0.466   5.194
 3120SOL    HW110259   3.410   0.558   5.154
 3120SOL    HW210260   3.330   0.456   5.253
 3121SOL     OW10261   5.000   1.849   4.508
 3121SOL    HW110262   5.022   1.799   4.592
 3121SOL    HW210263   5.068   1.828   4.438
 3122SOL     OW10264   4.507   4.695   4.876
 3122SOL    HW110265   4.481   4.721   4.783
 3122SOL    HW210266   4.432   4.646   4.920
 3123SOL     OW10267   2.114   0.300   3.529
 3123SOL    HW110268   2.202   0.261   3.504
 3123SOL    HW210269   2.104   0.390   3.485
 3124SOL     OW10270   5.321   6.427   4.286
 3124SOL    HW110271   5.401   6.426   4.227
 3124SOL    HW210272   5.312   6.517   4.330
 3125SOL     OW10273   0.535   3.010   5.821
 3125SOL    HW110274   0.563   3.021   5.916
 3125SOL    HW210275   0.596   3.064   5.762
 3126SOL     OW10276   5.656   4.922   5.561
 3126SOL    HW110277   5.638   5.008   5.609
 3126SOL    HW210278   5.677   4.940   5.465
 3127SOL     OW10279   1.298   2.351   5.436
 3127SOL    HW110280   1.225   2.319   5.496
 3127SOL    HW210281   1.327   2.277   5.375
 3128SOL     OW10282   3.436   0.855   0.752
 3128SOL    HW110283   3.407   0.926   0.817
 3128SOL    HW210284   3.536   0.847   0.754
 3129SOL     OW10285   5.483   3.001   0.783
 3129SOL    HW110286   5.388   3.029   0.766
 3129SOL    HW210287   5.492   2.969   0.877
 3130SOL     OW10288   1.522   4.375   1.334
 3130SOL    HW110289   1.539   4.435   1.413
 3130SOL    HW210290   1.592   4.391   1.265
 3131SOL     OW10291   0.010   3.616   2.371
 3131SOL    HW110292   0.094   3.565   2.391
 3131SOL    HW210293   0.032   3.713   2.359
 3132SOL     OW10294   4.344   4.575   6.738
 3132SOL    HW110295   4.244   4.564   6.736
 3132SOL    HW210296   4.367   4.671   6.724
 3133SOL     OW10297   3.756   1.156   3.213
 3133SOL    HW110298   3.838   1.170   3.269
 3133SOL    HW210299   3.681   1.124   3.270
 3134SOL     OW10300   3.712   5.016   1.925
 3134SOL    HW110301   3.809   5.023   1.949
 3134SOL    HW210302   3.682   4.921   1.936
 3135SOL     OW10303   5.869   6.763   6.387
 3135SOL    HW110304   5.904   6.848   6.347
 3135SOL    HW210305   5.789   6.732   6.334
 3136SOL     OW10306   5.823   0.748   2.460
 3136SOL    HW110307   5.855   0.814   2.392
 3136SOL    HW210308   5.731   0.773   2.491
 3137SOL     OW10309   0.140   0.154   2.140
 3137SOL    HW110310   0.175   0.130   2.050
 3137SOL    HW210311   0.053   0.107   2.156
 3138SOL     OW10312   5.715   5.510   3.465
 3138SOL    HW110313   5.679   5.574   3.533
 3138SOL    HW210314   5.815   5.512   3.466
 3139SOL     OW10315   3.644   4.899   1.163
 3139SOL    HW110316   3.618   4.805   1.183
 3139SOL    HW210317   3.717   4.900   1.094
 3140SOL     OW10318   6.941   6.159   5.503
 3140SOL    HW110319   6.891   6.132   5.585
 3140SOL    HW210320   0.013   6.151   5.520
 3141SOL     OW10321   6.809   1.938   0.540
 3141SOL    HW110322   6.728   1.990   0.513
 3141SOL    HW210323   6.882   2.001   0.567
 3142SOL     OW10324   4.076   0.750   2.783
 3142SOL    HW110325   4.160   0.706   2.815
 3142SOL    HW210326   4.087   0.776   2.687
 3143SOL     OW10327   6.627   1.922   0.210
 3143SOL    HW110328   6.538   1.964   0.228
 3143SOL    HW210329   6.639   1.842   0.269
 3144SOL     OW10330   4.126   3.719   6.823
 3144SOL    HW110331   4.081   3.780   6.888
 3144SOL    HW210332   4.186   3.772   6.763
 3145SOL     OW10333   1.737   6.596   2.188
 3145SOL    HW110334   1.681   6.678   2.193
 3145SOL    HW210335   1.824   6.612   2.234
 3146SOL     OW10336   1.066   1.102   4.890
 3146SOL    HW110337   1.141   1.049   4.852
 3146SOL    HW210338   1.045   1.179   4.830
 3147SOL     OW10339   3.370   5.226   6.743
 3147SOL    HW110340   3.436   5.170   6.792
 3147SOL    HW210341   3.331   5.294   6.805
 3148SOL     OW10342   0.216   0.179   3.452
 3148SOL    HW110343   0.195   0.277   3.451
 3148SOL    HW210344   0.132   0.127   3.436
 3149SOL     OW10345   2.979   1.283   6.387
 3149SOL    HW110346   3.034   1.272   6.470
 3149SOL    HW210347   2.894   1.232   6.396
 3150SOL     OW10348   6.284   5.244   6.025
 3150SOL    HW110349   6.227   5.167   6.054
 3150SOL    HW210350   6.311   5.231   5.930
 3151SOL     OW10351   6.918   2.115   6.093
 3151SOL    HW110352   6.908   2.045   6.022
 3151SOL    HW210353   6.834   2.169   6.098
 3152SOL     OW10354   0.855   4.413   6.920
 3152SOL    HW110355   0.889   4.499   6.882
 3152SOL    HW210356   0.824   4.428   7.014
 3153SOL     OW10357   6.129   4.711   0.543
 3153SOL    HW110358   6.102   4.777   0.473
 3153SOL    HW210359   6.217   4.739   0.582
 3154SOL     OW10360   5.803   0.876   1.281
 3154SOL    HW110361   5.785   0.944   1.353
 3154SOL    HW210362   5.820   0.787   1.323
 3155SOL     OW10363   6.604   4.677   0.757
 3155SOL    HW110364   6.693   4.718   0.775
 3155SOL    HW210365   6.615   4.578   0.744
 3156SOL     OW10366   3.526   4.122   1.979
 3156SOL    HW110367   3.509   4.198   1.917
 3156SOL    HW210368   3.471   4.043   1.950
 3157SOL     OW10369   1.460   2.392   4.885
 3157SOL    HW110370   1.490   2.469   4.828
 3157SOL    HW210371   1.501   2.308   4.851
 3158SOL     OW10372   2.595   2.020   5.378
 3158SOL    HW110373   2.689   2.044   5.400
 3158SOL    HW210374   2.533   2.089   5.418
 3159SOL     OW10375   5.283   0.069   0.199
 3159SOL    HW110376   5.244   0.018   0.276
 3159SOL    HW210377   5.212   0.087   0.131
 3160SOL     OW10378   2.039   6.754   5.243
 3160SOL    HW110379   2.033   6.654   5.243
 3160SOL    HW210380   2.091   6.784   5.163
 3161SOL     OW10381   1.855   2.763   2.658
 3161SOL    HW110382   1.759   2.789   2.662
 3161SOL    HW210383   1.880   2.715   2.742
 3162SOL     OW10384   2.231   5.570   0.202
 3162SOL    HW110385   2.264   5.586   0.295
 3162SOL    HW210386   2.147   5.515   0.206
 3163SOL     OW10387   3.681   3.496   0.354
 3163SOL    HW110388   3.630   3.581   0.368
 3163SOL    HW210389   3.682   3.445   0.440
 3164SOL     OW10390   3.611   5.882   2.184
 3164SOL    HW110391   3.672   5.872   2.105
 3164SOL    HW210392   3.577   5.792   2.212
 3165SOL     OW10393   1.241   5.292   1.029
 3165SOL    HW110394   1.219   5.363   0.962
 3165SOL    HW210395   1.168   5.224   1.032
 3166SOL     OW10396   4.494   1.111   4.061
 3166SOL    HW110397   4.504   1.019   4.023
 3166SOL    HW210398   4.479   1.177   3.987
 3167SOL     OW10399   5.810   4.425   0.938
 3167SOL    HW110400   5.748   4.496   0.969
 3167SOL    HW210401   5.877   4.464   0.875
 3168SOL     OW10402   5.830   2.270   1.193
 3168SOL    HW110403   5.757   2.322   1.150
 3168SOL    HW210404   5.796   2.182   1.222
 3169SOL     OW10405   2.131   4.513   3.077
 3169SOL    HW110406   2.184   4.437   3.116
 3169SOL    HW210407   2.119   4.584   3.146
 3170SOL     OW10408   4.334   6.064   2.301
 3170SOL    HW110409   4.237   6.064   2.279
 3170SOL    HW210410   4.348   6.103   2.392
 3171SOL     OW10411   5.619   2.316   1.851
 3171SOL    HW110412   5.533   2.270   1.827
 3171SOL    HW210413   5.691   2.248   1.863
 3172SOL     OW10414   0.278   5.407   0.047
 3172SOL    HW110415   0.181   5.427   0.062
 3172SOL    HW210416   0.331   5.439   0.126
 3173SOL     OW10417   2.623   2.700   6.879
 3173SOL    HW110418   2.623   2.750   6.792
 3173SOL    HW210419   2.585   2.758   6.951
 3174SOL     OW10420   2.432   2.798   6.090
 3174SOL    HW110421   2.371   2.858   6.142
 3174SOL    HW210422   2.394   2.706   6.086
 3175SOL     OW10423   5.925   1.294   2.029
 3175SOL    HW110424   5.947   1.229   1.957
 3175SOL    HW210425   6.007   1.316   2.082
 3176SOL     OW10426   0.289   2.975   5.443
 3176SOL    HW110427   0.329   3.059   5.407
 3176SOL    HW210428   0.320   2.961   5.537
 3177SOL     OW10429   5.069   4.111   4.122
 3177SOL    HW110430   5.109   4.104   4.213
 3177SOL    HW210431   4.979   4.068   4.121
 3178SOL     OW10432   6.399   2.058   0.265
 3178SOL    HW110433   6.318   2.027   0.316
 3178SOL    HW210434   6.378   2.144   0.219
 3179SOL     OW10435   1.542   1.777   1.981
 3179SOL    HW110436   1.494   1.710   1.924
 3179SOL    HW210437   1.615   1.820   1.927
 3180SOL     OW10438   5.645   6.428   0.179
 3180SOL    HW110439   5.702   6.397   0.256
 3180SOL    HW210440   5.549   6.413   0.201
 3181SOL     OW10441   6.809   1.273   4.236
 3181SOL    HW110442   6.773   1.184   4.264
 3181SOL    HW210443   6.840   1.323   4.317
 3182SOL     OW10444   2.706   0.765   6.233
 3182SOL    HW110445   2.786   0.709   6.255
 3182SOL    HW210446   2.654   0.782   6.317
 3183SOL     OW10447   4.546   5.030   2.167
 3183SOL    HW110448   4.559   4.972   2.087
 3183SOL    HW210449   4.609   5.108   2.162
 3184SOL     OW10450   0.421   2.307   2.832
 3184SOL    HW110451   0.345   2.246   2.855
 3184SOL    HW210452   0.402   2.353   2.745
 3185SOL     OW10453   6.259   6.879   6.084
 3185SOL    HW110454   6.214   6.838   6.005
 3185SOL    HW210455   6.341   6.827   6.107
 3186SOL     OW10456   2.775   1.738   0.415
 3186SOL    HW110457   2.727   1.662   0.371
 3186SOL    HW210458   2.804   1.711   0.506
 3187SOL     OW10459   3.681   5.134   2.199
 3187SOL    HW110460   3.591   5.157   2.162
 3187SOL    HW210461   3.681   5.038   2.229
 3188SOL     OW10462   2.004   5.774   4.663
 3188SOL    HW110463   1.928   5.752   4.725
 3188SOL    HW210464   2.019   5.698   4.599
 3189SOL     OW10465   1.981   1.428   0.240
 3189SOL    HW110466   1.904   1.373   0.206
 3189SOL    HW210467   1.962   1.456   0.334
 3190SOL     OW10468   6.531   5.693   6.824
 3190SOL    HW110469   6.590   5.699   6.904
 3190SOL    HW210470   6.579   5.642   6.752
 3191SOL     OW10471   4.716   5.521   1.801
 3191SOL    HW110472   4.783   5.448   1.813
 3191SOL    HW210473   4.649   5.494   1.732
 3192SOL     OW10474   0.302   2.686   0.904
 3192SOL    HW110475   0.233   2.654   0.969
 3192SOL    HW210476   0.269   2.768   0.859
 3193SOL     OW10477   4.120   1.273   5.179
 3193SOL    HW110478   4.199   1.287   5.239
 3193SOL    HW210479   4.052   1.344   5.196
 3194SOL     OW10480   0.803   1.005   5.285
 3194SOL    HW110481   0.818   1.022   5.187
 3194SOL    HW210482   0.879   1.044   5.337
 3195SOL     OW10483   0.640   1.295   1.679
 3195SOL    HW110484   0.682   1.384   1.658
 3195SOL    HW210485   0.680   1.258   1.762
 3196SOL     OW10486   6.695   0.671   6.473
 3196SOL    HW110487   6.646   0.669   6.560
 3196SOL    HW210488   6.791   0.692   6.489
 3197SOL     OW10489   2.331   6.984   5.378
 3197SOL    HW110490   2.277   6.927   5.439
 3197SOL    HW210491   2.386   0.021   5.432
 3198SOL     OW10492   6.249   2.356   3.266
 3198SOL    HW110493   6.275   2.448   3.295
 3198SOL    HW210494   6.328   2.312   3.222
 3199SOL     OW10495   5.474   4.883   3.031
 3199SOL    HW110496   5.502   4.962   3.085
 3199SOL    HW210497   5.449   4.809   3.093
 3200SOL     OW10498   6.121   3.245   2.975
 3200SOL    HW110499   6.144   3.157   2.932
 3200SOL    HW210500   6.107   3.231   3.073
 3201SOL     OW10501   6.309   4.921   3.432
 3201SOL    HW110502   6.337   5.002   3.380
 3201SOL    HW210503   6.219   4.936   3.471
 3202SOL     OW10504   0.938   5.633   0.684
 3202SOL    HW110505   1.007   5.616   0.614
 3202SOL    HW210506   0.849   5.602   0.652
 3203SOL     OW10507   5.598   1.404   1.389
 3203SOL    HW110508   5.659   1.434   1.462
 3203SOL    HW210509   5.628   1.443   1.302
 3204SOL     OW10510   2.952   0.767   2.981
 3204SOL    HW110511   2.865   0.769   2.931
 3204SOL    HW210512   2.975   0.672   3.004
 3205SOL     OW10513   4.902   2.745   5.760
 3205SOL    HW110514   4.866   2.798   5.837
 3205SOL    HW210515   4.973   2.797   5.714
 3206SOL     OW10516   2.648   3.856   1.269
 3206SOL    HW110517   2.589   3.920   1.220
 3206SOL    HW210518   2.627   3.762   1.241
 3207SOL     OW10519   1.166   0.878   6.501
 3207SOL    HW110520   1.194   0.786   6.472
 3207SOL    HW210521   1.244   0.923   6.546
 3208SOL     OW10522   5.363   5.863   6.556
 3208SOL    HW110523   5.311   5.844   6.640
 3208SOL    HW210524   5.332   5.801   6.484
 3209SOL     OW10525   3.100   4.991   4.641
 3209SOL    HW110526   3.082   5.058   4.714
 3209SOL    HW210527   3.017   4.938   4.624
 3210SOL     OW10528   1.207   5.075   1.457
 3210SOL    HW110529   1.183   5.056   1.553
 3210SOL    HW210530   1.157   5.013   1.397
 3211SOL     OW10531   1.977   4.753   0.320
 3211SOL    HW110532   1.933   4.663   0.317
 3211SOL    HW210533   2.073   4.743   0.292
 3212SOL     OW10534   3.053   6.822   2.353
 3212SOL    HW110535   3.129   6.851   2.295
 3212SOL    HW210536   2.968   6.866   2.322
 3213SOL     OW10537   1.790   0.648   6.472
 3213SOL    HW110538   1.830   0.706   6.543
 3213SOL    HW210539   1.800   0.552   6.498
 3214SOL     OW10540   4.721   6.475   2.703
 3214SOL    HW110541   4.648   6.425   2.749
 3214SOL    HW210542   4.810   6.437   2.729
 3215SOL     OW10543   1.143   3.741   0.960
 3215SOL    HW110544   1.156   3.773   0.866
 3215SOL    HW210545   1.230   3.712   0.998
 3216SOL     OW10546   5.792   5.169   0.943
 3216SOL    HW110547   5.715   5.112   0.971
 3216SOL    HW210548   5.769   5.216   0.857
 3217SOL     OW10549   0.322   5.393   2.159
 3217SOL    HW110550   0.416   5.413   2.185
 3217SOL    HW210551   0.298   5.301   2.191
 3218SOL     OW10552   5.885   2.327   3.460
 3218SOL    HW110553   5.915   2.423   3.462
 3218SOL    HW210554   5.952   2.272   3.410
 3219SOL     OW10555   6.881   0.601   4.902
 3219SOL    HW110556   6.791   0.559   4.917
 3219SOL    HW210557   6.903   0.598   4.805
 3220SOL     OW10558   0.457   5.822   6.042
 3220SOL    HW110559   0.361   5.837   6.020
 3220SOL    HW210560   0.508   5.907   6.028
 3221SOL     OW10561   3.214   6.604   2.623
 3221SOL    HW110562   3.309   6.630   2.608
 3221SOL    HW210563   3.158   6.687   2.635
 3222SOL     OW10564   3.151   0.859   2.386
 3222SOL    HW110565   3.175   0.910   2.303
 3222SOL    HW210566   3.200   0.899   2.464
 3223SOL     OW10567   2.803   6.946   0.097
 3223SOL    HW110568   2.805   6.990   0.008
 3223SOL    HW210569   2.874   6.985   0.156
 3224SOL     OW10570   4.896   2.443   4.961
 3224SOL    HW110571   4.832   2.389   4.906
 3224SOL    HW210572   4.935   2.386   5.033
 3225SOL     OW10573   4.482   1.453   5.094
 3225SOL    HW110574   4.543   1.374   5.100
 3225SOL    HW210575   4.392   1.427   5.132
 3226SOL     OW10576   1.779   0.378   1.540
 3226SOL    HW110577   1.720   0.374   1.620
 3226SOL    HW210578   1.746   0.449   1.477
 3227SOL     OW10579   3.340   3.049   6.461
 3227SOL    HW110580   3.343   3.038   6.362
 3227SOL    HW210581   3.245   3.056   6.491
 3228SOL     OW10582   6.865   3.938   0.659
 3228SOL    HW110583   6.953   3.894   0.642
 3228SOL    HW210584   6.792   3.880   0.622
 3229SOL     OW10585   3.763   0.803   5.493
 3229SOL    HW110586   3.666   0.785   5.512
 3229SOL    HW210587   3.817   0.784   5.575
 3230SOL     OW10588   1.793   5.708   6.057
 3230SOL    HW110589   1.892   5.721   6.058
 3230SOL    HW210590   1.771   5.614   6.084
 3231SOL     OW10591   2.551   1.014   2.767
 3231SOL    HW110592   2.629   1.071   2.742
 3231SOL    HW210593   2.573   0.918   2.748
 3232SOL     OW10594   3.997   5.764   4.114
 3232SOL    HW110595   3.936   5.830   4.071
 3232SOL    HW210596   4.091   5.798   4.111
 3233SOL     OW10597   0.227   2.915   0.530
 3233SOL    HW110598   0.249   2.910   0.627
 3233SOL    HW210599   0.221   2.822   0.492
 3234SOL     OW10600   1.190   2.695   0.454
 3234SOL    HW110601   1.245   2.615   0.476
 3234SOL    HW210602   1.236   2.778   0.487
 3235SOL     OW10603   6.397   0.037   1.873
 3235SOL    HW110604   6.353   7.001   1.808
 3235SOL    HW210605   6.490   0.007   1.891
 3236SOL     OW10606   1.161   4.619   0.737
 3236SOL    HW110607   1.138   4.686   0.808
 3236SOL    HW210608   1.081   4.605   0.678
 3237SOL     OW10609   6.222   1.272   2.957
 3237SOL    HW110610   6.124   1.255   2.968
 3237SOL    HW210611   6.274   1.193   2.988
 3238SOL     OW10612   6.119   5.281   0.165
 3238SOL    HW110613   6.095   5.185   0.148
 3238SOL    HW210614   6.217   5.288   0.184
 3239SOL     OW10615   7.008   7.024   3.448
 3239SOL    HW110616   6.983   7.017   3.545
 3239SOL    HW210617   6.926   0.006   3.392
 3240SOL     OW10618   0.664   0.520   5.686
 3240SOL    HW110619   0.619   0.598   5.731
 3240SOL    HW210620   0.721   0.472   5.753
 3241SOL     OW10621   5.407   1.591   5.707
 3241SOL    HW110622   5.496   1.607   5.749
 3241SOL    HW210623   5.398   1.495   5.683
 3242SOL     OW10624   4.620   3.713   5.756
 3242SOL    HW110625   4.680   3.641   5.721
 3242SOL    HW210626   4.525   3.682   5.753
 3243SOL     OW10627   4.644   5.503   0.244
 3243SOL    HW110628   4.697   5.489   0.327
 3243SOL    HW210629   4.601   5.416   0.217
 3244SOL     OW10630   5.682   6.183   0.030
 3244SOL    HW110631   5.632   6.261   0.067
 3244SOL    HW210632   5.758   6.160   0.091
 3245SOL     OW10633   5.041   1.676   4.760
 3245SOL    HW110634   4.972   1.614   4.723
 3245SOL    HW210635   5.132   1.647   4.729
 3246SOL     OW10636   6.278   0.249   2.731
 3246SOL    HW110637   6.314   0.336   2.697
 3246SOL    HW210638   6.301   0.176   2.667
 3247SOL     OW10639   6.693   4.673   2.078
 3247SOL    HW110640   6.596   4.697   2.076
 3247SOL    HW210641   6.712   4.618   2.159
 3248SOL     OW10642   5.369   2.224   2.796
 3248SOL    HW110643   5.375   2.193   2.890
 3248SOL    HW210644   5.391   2.149   2.734
 3249SOL     OW10645   3.424   4.166   3.590
 3249SOL    HW110646   3.374   4.249   3.563
 3249SOL    HW210647   3.360   4.089   3.595
 3250SOL     OW10648   5.435   0.362   2.795
 3250SOL    HW110649   5.445   0.423   2.716
 3250SOL    HW210650   5.351   0.385   2.844
 3251SOL     OW10651   3.170   1.043   4.067
 3251SOL    HW110652   3.162   1.142   4.053
 3251SOL    HW210653   3.108   0.995   4.005
 3252SOL     OW10654   2.674   0.779   2.643
 3252SOL    HW110655   2.705   0.689   2.671
 3252SOL    HW210656   2.748   0.826   2.594
 3253SOL     OW10657   4.597   3.555   0.295
 3253SOL    HW110658   4.688   3.524   0.323
 3253SOL    HW210659   4.529   3.485   0.317
 3254SOL     OW10660   5.213   6.855   6.305
 3254SOL    HW110661   5.143   6.788   6.333
 3254SOL    HW210662   5.292   6.847   6.366
 3255SOL     OW10663   5.247   6.268   1.262
 3255SOL    HW110664   5.195   6.182   1.256
 3255SOL    HW210665   5.184   6.345   1.258
 3256SOL     OW10666   3.725   2.025   0.973
 3256SOL    HW110667   3.686   1.997   1.061
 3256SOL    HW210668   3.729   2.125   0.968
 3257SOL     OW10669   2.201   1.908   1.966
 3257SOL    HW110670   2.104   1.926   1.945
 3257SOL    HW210671   2.241   1.989   2.010
 3258SOL     OW10672   4.003   5.555   3.437
 3258SOL    HW110673   4.011   5.537   3.339
 3258SOL    HW210674   3.912   5.590   3.456
 3259SOL     OW10675   5.036   5.448   4.177
 3259SOL    HW110676   5.128   5.428   4.212
 3259SOL    HW210677   5.009   5.540   4.204
 3260SOL     OW10678   1.635   3.590   1.622
 3260SOL    HW110679   1.654   3.587   1.720
 3260SOL    HW210680   1.657   3.682   1.587
 3261SOL     OW10681   5.134   0.604   1.196
 3261SOL    HW110682   5.035   0.610   1.184
 3261SOL    HW210683   5.178   0.677   1.143
 3262SOL     OW10684   3.888   2.010   1.905
 3262SOL    HW110685   3.821   2.065   1.954
 3262SOL    HW210686   3.895   1.920   1.948
 3263SOL     OW10687   3.209   1.137   3.040
 3263SOL    HW110688   3.307   1.116   3.034
 3263SOL    HW210689   3.164   1.069   3.098
 3264SOL     OW10690   1.892   5.410   1.109
 3264SOL    HW110691   1.908   5.346   1.185
 3264SOL    HW210692   1.976   5.460   1.090
 3265SOL     OW10693   5.845   6.868   6.638
 3265SOL    HW110694   5.765   6.910   6.681
 3265SOL    HW210695   5.828   6.857   6.540
 3266SOL     OW10696   3.094   4.350   6.669
 3266SOL    HW110697   3.068   4.445   6.651
 3266SOL    HW210698   3.017   4.290   6.648
 3267SOL     OW10699   2.561   6.939   2.322
 3267SOL    HW110700   2.550   6.853   2.371
 3267SOL    HW210701   2.558   7.016   2.386
 3268SOL     OW10702   1.708   4.397   1.085
 3268SOL    HW110703   1.725   4.429   0.992
 3268SOL    HW210704   1.777   4.434   1.146
 3269SOL     OW10705   6.659   5.326   1.931
 3269SOL    HW110706   6.721   5.280   1.868
 3269SOL    HW210707   6.626   5.410   1.889
 3270SOL     OW10708   1.652   3.411   6.673
 3270SOL    HW110709   1.639   3.433   6.770
 3270SOL    HW210710   1.729   3.463   6.637
 3271SOL     OW10711   6.553   3.155   1.487
 3271SOL    HW110712   6.551   3.129   1.390
 3271SOL    HW210713   6.459   3.163   1.521
 3272SOL     OW10714   2.830   4.543   6.780
 3272SOL    HW110715   2.916   4.593   6.774
 3272SOL    HW210716   2.831   4.485   6.862
 3273SOL     OW10717   6.427   4.975   6.970
 3273SOL    HW110718   6.502   4.969   6.904
 3273SOL    HW210719   6.384   5.064   6.964
 3274SOL     OW10720   5.987   0.385   0.987
 3274SOL    HW110721   5.962   0.423   1.076
 3274SOL    HW210722   5.905   0.348   0.943
 3275SOL     OW10723   4.722   1.135   7.015
 3275SOL    HW110724   4.660   1.062   6.989
 3275SOL    HW210725   4.773   1.166   6.935
 3276SOL     OW10726   4.095   6.577   6.902
 3276SOL    HW110727   4.099   6.489   6.950
 3276SOL    HW210728   4.002   6.592   6.868
 3277SOL     OW10729   3.495   1.381   1.021
 3277SOL    HW110730   3.530   1.475   1.023
 3277SOL    HW210731   3.421   1.372   1.088
 3278SOL     OW10732   1.137   0.678   5.913
 3278SOL    HW110733   1.147   0.586   5.953
 3278SOL    HW210734   1.073   0.674   5.836
 3279SOL     OW10735   5.358   6.877   0.681
 3279SOL    HW110736   5.432   6.832   0.731
 3279SOL    HW210737   5.273   6.870   0.733
 3280SOL     OW10738   4.845   4.578   4.554
 3280SOL    HW110739   4.886   4.668   4.568
 3280SOL    HW210740   4.833   4.561   4.456
 3281SOL     OW10741   1.038   4.938   1.300
 3281SOL    HW110742   1.046   5.034   1.274
 3281SOL    HW210743   1.029   4.882   1.218
 3282SOL     OW10744   6.562   4.506   5.078
 3282SOL    HW110745   6.591   4.479   5.170
 3282SOL    HW210746   6.610   4.450   5.010
 3283SOL     OW10747   3.393   0.888   1.505
 3283SOL    HW110748   3.422   0.963   1.446
 3283SOL    HW210749   3.443   0.805   1.481
 3284SOL     OW10750   0.927   6.030   5.276
 3284SOL    HW110751   0.909   5.956   5.340
 3284SOL    HW210752   1.025   6.036   5.259
 3285SOL     OW10753   5.081   2.208   4.726
 3285SOL    HW110754   5.149   2.275   4.758
 3285SOL    HW210755   4.991   2.251   4.724
 3286SOL     OW10756   3.306   2.588   1.431
 3286SOL    HW110757   3.289   2.682   1.403
 3286SOL    HW210758   3.362   2.588   1.514
 3287SOL     OW10759   0.672   0.474   0.054
 3287SOL    HW110760   0.751   0.533   0.068
 3287SOL    HW210761   0.590   0.517   0.092
 3288SOL     OW10762   1.867   7.020   0.006
 3288SOL    HW110763   1.941   6.988   0.066
 3288SOL    HW210764   1.904   0.015   6.942
 3289SOL     OW10765   2.527   1.632   6.056
 3289SOL    HW110766   2.620   1.607   6.028
 3289SOL    HW210767   2.480   1.678   5.981
 3290SOL     OW10768   6.841   5.271   0.832
 3290SOL    HW110769   6.757   5.305   0.791
 3290SOL    HW210770   6.825   5.248   0.928
 3291SOL     OW10771   2.574   1.045   5.722
 3291SOL    HW110772   2.609   1.138   5.714
 3291SOL    HW210773   2.649   0.980   5.705
 3292SOL     OW10774   0.133   1.200   0.534
 3292SOL    HW110775   0.213   1.250   0.501
 3292SOL    HW210776   0.135   1.194   0.634
 3293SOL     OW10777   6.439   4.818   1.420
 3293SOL    HW110778   6.495   4.739   1.396
 3293SOL    HW210779   6.344   4.788   1.430
 3294SOL     OW10780   4.863   2.242   6.068
 3294SOL    HW110781   4.941   2.195   6.109
 3294SOL    HW210782   4.856   2.218   5.972
 3295SOL     OW10783   0.978   3.414   1.925
 3295SOL    HW110784   0.933   3.351   1.988
 3295SOL    HW210785   1.060   3.371   1.887
 3296SOL     OW10786   0.680   0.693   3.386
 3296SOL    HW110787   0.654   0.596   3.380
 3296SOL    HW210788   0.602   0.747   3.416
 3297SOL     OW10789   2.757   1.202   5.375
 3297SOL    HW110790   2.691   1.220   5.302
 3297SOL    HW210791   2.774   1.104   5.382
 3298SOL     OW10792   6.672   2.200   5.494
 3298SOL    HW110793   6.596   2.218   5.557
 3298SOL    HW210794   6.637   2.181   5.403
 3299SOL     OW10795   3.981   5.875   3.021
 3299SOL    HW110796   3.971   5.794   3.078
 3299SOL    HW210797   3.891   5.918   3.008
 3300SOL     OW10798   1.906   0.732   6.171
 3300SOL    HW110799   1.885   0.829   6.163
 3300SOL    HW210800   1.895   0.702   6.265
 3301SOL     OW10801   2.088   3.133   3.743
 3301SOL    HW110802   2.172   3.080   3.739
 3301SOL    HW210803   2.107   3.223   3.781
 3302SOL     OW10804   0.912   5.283   5.443
 3302SOL    HW110805   0.906   5.192   5.485
 3302SOL    HW210806   0.879   5.278   5.349
 3303SOL     OW10807   3.107   3.648   6.957
 3303SOL    HW110808   3.120   3.745   6.980
 3303SOL    HW210809   3.124   3.635   6.859
 3304SOL     OW10810   1.695   5.172   5.945
 3304SOL    HW110811   1.655   5.099   5.889
 3304SOL    HW210812   1.742   5.131   6.024
 3305SOL     OW10813   2.922   1.023   1.941
 3305SOL    HW110814   2.877   1.012   2.030
 3305SOL    HW210815   2.996   1.090   1.950
 3306SOL     OW10816   1.272   4.810   4.730
 3306SOL    HW110817   1.265   4.829   4.633
 3306SOL    HW210818   1.221   4.727   4.752
 3307SOL     OW10819   0.987   0.073   5.056
 3307SOL    HW110820   0.925   0.013   5.107
 3307SOL    HW210821   1.071   0.024   5.036
 3308SOL     OW10822   3.057   5.443   1.119
 3308SOL    HW110823   3.117   5.437   1.199
 3308SOL    HW210824   3.107   5.412   1.038
 3309SOL     OW10825   6.395   4.534   4.452
 3309SOL    HW110826   6.479   4.480   4.445
 3309SOL    HW210827   6.406   4.619   4.399
 3310SOL     OW10828   6.850   4.338   4.653
 3310SOL    HW110829   6.932   4.386   4.621
 3310SOL    HW210830   6.840   4.253   4.602
 3311SOL     OW10831   3.016   4.226   0.399
 3311SOL    HW110832   3.060   4.242   0.487
 3311SOL    HW210833   2.983   4.312   0.361
 3312SOL     OW10834   4.179   3.113   5.856
 3312SOL    HW110835   4.098   3.113   5.914
 3312SOL    HW210836   4.190   3.203   5.815
 3313SOL     OW10837   1.267   6.690   3.530
 3313SOL    HW110838   1.266   6.785   3.560
 3313SOL    HW210839   1.337   6.678   3.459
 3314SOL     OW10840   2.698   0.575   1.680
 3314SOL    HW110841   2.776   0.569   1.742
 3314SOL    HW210842   2.731   0.580   1.586
 3315SOL     OW10843   0.504   4.050   5.135
 3315SOL    HW110844   0.431   4.044   5.203
 3315SOL    HW210845   0.464   4.050   5.043
 3316SOL     OW10846   4.388   0.892   5.014
 3316SOL    HW110847   4.424   0.949   5.088
 3316SOL    HW210848   4.316   0.942   4.965
 3317SOL     OW10849   5.007   2.356   2.467
 3317SOL    HW110850   4.989   2.269   2.513
 3317SOL    HW210851   5.012   2.429   2.536
 3318SOL     OW10852   1.750   1.283   0.212
 3318SOL    HW110853   1.756   1.244   0.304
 3318SOL    HW210854   1.656   1.312   0.195
 3319SOL     OW10855   5.438   0.851   3.726
 3319SOL    HW110856   5.417   0.778   3.791
 3319SOL    HW210857   5.368   0.854   3.655
 3320SOL     OW10858   6.018   0.822   0.041
 3320SOL    HW110859   5.922   0.803   0.060
 3320SOL    HW210860   6.059   0.869   0.119
 3321SOL     OW10861   5.670   1.624   0.840
 3321SOL    HW110862   5.711   1.666   0.921
 3321SOL    HW210863   5.596   1.563   0.867
 3322SOL     OW10864   0.389   2.673   1.303
 3322SOL    HW110865   0.479   2.644   1.269
 3322SOL    HW210866   0.392   2.771   1.323
 3323SOL     OW10867   2.483   2.459   0.863
 3323SOL    HW110868   2.444   2.530   0.803
 3323SOL    HW210869   2.517   2.384   0.807
 3324SOL     OW10870   4.290   5.281   6.118
 3324SOL    HW110871   4.365   5.302   6.054
 3324SOL    HW210872   4.229   5.214   6.077
 3325SOL     OW10873   0.320   3.819   0.003
 3325SOL    HW110874   0.359   3.825   6.937
 3325SOL    HW210875   0.240   3.879   0.009
 3326SOL     OW10876   4.426   1.349   1.629
 3326SOL    HW110877   4.344   1.406   1.630
 3326SOL    HW210878   4.399   1.253   1.632
 3327SOL     OW10879   2.699   5.868   1.226
 3327SOL    HW110880   2.638   5.814   1.167
 3327SOL    HW210881   2.763   5.919   1.169
 3328SOL     OW10882   3.966   1.709   0.855
 3328SOL    HW110883   4.065   1.701   0.841
 3328SOL    HW210884   3.923   1.741   0.771
 3329SOL     OW10885   5.498   0.308   5.585
 3329SOL    HW110886   5.399   0.297   5.584
 3329SOL    HW210887   5.541   0.218   5.587
 3330SOL     OW10888   6.146   3.684   1.785
 3330SOL    HW110889   6.164   3.758   1.720
 3330SOL    HW210890   6.094   3.719   1.863
 3331SOL     OW10891   2.516   3.220   1.424
 3331SOL    HW110892   2.461   3.256   1.499
 3331SOL    HW210893   2.500   3.121   1.415
 3332SOL     OW10894   5.942   5.376   0.349
 3332SOL    HW110895   5.973   5.349   0.440
 3332SOL    HW210896   6.008   5.345   0.281
 3333SOL     OW10897   3.879   5.829   6.178
 3333SOL    HW110898   3.880   5.730   6.195
 3333SOL    HW210899   3.920   5.848   6.089
 3334SOL     OW10900   3.398   3.684   1.239
 3334SOL    HW110901   3.463   3.747   1.196
 3334SOL    HW210902   3.313   3.683   1.186
 3335SOL     OW10903   4.869   5.166   5.296
 3335SOL    HW110904   4.826   5.080   5.268
 3335SOL    HW210905   4.849   5.183   5.393
 3336SOL     OW10906   3.136   4.859   4.969
 3336SOL    HW110907   3.045   4.853   4.930
 3336SOL    HW210908   3.193   4.920   4.914
 3337SOL     OW10909   3.246   2.987   1.756
 3337SOL    HW110910   3.345   2.983   1.747
 3337SOL    HW210911   3.204   2.924   1.691
 3338SOL     OW10912   6.259   3.785   0.809
 3338SOL    HW110913   6.178   3.840   0.828
 3338SOL    HW210914   6.284   3.793   0.713
 3339SOL     OW10915   6.873   0.016   6.551
 3339SOL    HW110916   6.969   0.014   6.521
 3339SOL    HW210917   6.843   0.111   6.559
 3340SOL     OW10918   3.854   0.089   1.420
 3340SOL    HW110919   3.943   0.124   1.393
 3340SOL    HW210920   3.792   0.165   1.438
 3341SOL     OW10921   1.695   6.152   3.641
 3341SOL    HW110922   1.768   6.203   3.686
 3341SOL    HW210923   1.689   6.060   3.679
 3342SOL     OW10924   2.293   6.601   4.334
 3342SOL    HW110925   2.195   6.582   4.335
 3342SOL    HW210926   2.342   6.518   4.309
 3343SOL     OW10927   5.252   2.799   0.241
 3343SOL    HW110928   5.337   2.749   0.257
 3343SOL    HW210929   5.238   2.866   0.315
 3344SOL     OW10930   5.714   3.635   4.844
 3344SOL    HW110931   5.615   3.626   4.837
 3344SOL    HW210932   5.737   3.708   4.909
 3345SOL     OW10933   1.919   3.971   5.770
 3345SOL    HW110934   2.014   3.975   5.738
 3345SOL    HW210935   1.880   3.881   5.750
 3346SOL     OW10936   1.712   0.991   1.583
 3346SOL    HW110937   1.767   1.014   1.663
 3346SOL    HW210938   1.624   1.039   1.588
 3347SOL     OW10939   0.610   5.031   3.826
 3347SOL    HW110940   0.672   5.091   3.775
 3347SOL    HW210941   0.649   4.939   3.829
 3348SOL     OW10942   2.897   3.365   3.270
 3348SOL    HW110943   2.903   3.334   3.175
 3348SOL    HW210944   2.920   3.289   3.331
 3349SOL     OW10945   0.532   4.613   4.437
 3349SOL    HW110946   0.605   4.580   4.497
 3349SOL    HW210947   0.443   4.585   4.475
 3350SOL     OW10948   1.298   2.164   6.411
 3350SOL    HW110949   1.199   2.152   6.402
 3350SOL    HW210950   1.322   2.169   6.508
 3351SOL     OW10951   5.260   0.244   2.589
 3351SOL    HW110952   5.315   0.283   2.662
 3351SOL    HW210953   5.314   0.176   2.539
 3352SOL     OW10954   0.046   3.436   0.556
 3352SOL    HW110955   6.998   3.499   0.531
 3352SOL    HW210956   0.032   3.349   0.508
 3353SOL     OW10957   0.903   6.498   1.730
 3353SOL    HW110958   0.820   6.443   1.730
 3353SOL    HW210959   0.983   6.438   1.733
 3354SOL     OW10960   6.032   2.550   4.207
 3354SOL    HW110961   6.074   2.576   4.120
 3354SOL    HW210962   5.939   2.589   4.211
 3355SOL     OW10963   1.489   1.256   0.180
 3355SOL    HW110964   1.425   1.326   0.148
 3355SOL    HW210965   1.478   1.173   0.125
 3356SOL     OW10966   2.042   3.118   0.257
 3356SOL    HW110967   2.055   3.117   0.356
 3356SOL    HW210968   2.127   3.150   0.213
 3357SOL     OW10969   2.303   5.143   1.875
 3357SOL    HW110970   2.298   5.061   1.817
 3357SOL    HW210971   2.365   5.209   1.833
 3358SOL     OW10972   4.547   0.162   1.839
 3358SOL    HW110973   4.510   0.226   1.907
 3358SOL    HW210974   4.491   0.165   1.756
 3359SOL     OW10975   6.629   0.105   3.986
 3359SOL    HW110976   6.684   0.063   4.059
 3359SOL    HW210977   6.659   0.200   3.973
 3360SOL     OW10978   0.040   1.078   1.052
 3360SOL    HW110979   7.009   1.132   1.114
 3360SOL    HW210980   0.001   0.986   1.043
 3361SOL     OW10981   0.394   4.666   2.079
 3361SOL    HW110982   0.452   4.584   2.081
 3361SOL    HW210983   0.428   4.729   2.008
 3362SOL     OW10984   3.780   1.386   4.483
 3362SOL    HW110985   3.682   1.372   4.469
 3362SOL    HW210986   3.797   1.403   4.580
 3363SOL     OW10987   0.986   0.633   6.362
 3363SOL    HW110988   1.078   0.618   6.400
 3363SOL    HW210989   0.993   0.690   6.281
 3364SOL     OW10990   1.502   4.679   4.010
 3364SOL    HW110991   1.526   4.672   4.107
 3364SOL    HW210992   1.411   4.641   3.995
 3365SOL     OW10993   0.905   2.433   4.865
 3365SOL    HW110994   0.964   2.413   4.943
 3365SOL    HW210995   0.881   2.530   4.865
 3366SOL     OW10996   6.488   0.555   5.256
 3366SOL    HW110997   6.424   0.541   5.331
 3366SOL    HW210998   6.582   0.556   5.292
 3367SOL     OW10999   2.102   2.605   2.069
 3367SOL    HW111000   2.060   2.696   2.073
 3367SOL    HW211001   2.195   2.613   2.034
 3368SOL     OW11002   0.831   6.016   6.578
 3368SOL    HW111003   0.916   6.061   6.551
 3368SOL    HW211004   0.767   6.085   6.612
 3369SOL     OW11005   3.436   2.138   5.746
 3369SOL    HW111006   3.510   2.138   5.813
 3369SOL    HW211007   3.467   2.180   5.662
 3370SOL     OW11008   6.617   6.199   5.389
 3370SOL    HW111009   6.573   6.245   5.312
 3370SOL    HW211010   6.711   6.177   5.365
 3371SOL     OW11011   0.820   4.669   2.293
 3371SOL    HW111012   0.799   4.767   2.294
 3371SOL    HW211013   0.752   4.622   2.237
 3372SOL     OW11014   1.168   0.817   2.420
 3372SOL    HW111015   1.247   0.777   2.374
 3372SOL    HW211016   1.196   0.851   2.510
 3373SOL     OW11017   6.390   1.239   3.692
 3373SOL    HW111018   6.333   1.293   3.754
 3373SOL    HW211019   6.340   1.157   3.664
 3374SOL     OW11020   2.680   5.722   4.367
 3374SOL    HW111021   2.665   5.768   4.279
 3374SOL    HW211022   2.752   5.769   4.417
 3375SOL     OW11023   4.683   5.107   4.784
 3375SOL    HW111024   4.706   5.017   4.821
 3375SOL    HW211025   4.693   5.105   4.684
 3376SOL     OW11026   3.983   3.408   3.161
 3376SOL    HW111027   3.958   3.313   3.145
 3376SOL    HW211028   4.006   3.420   3.258
 3377SOL     OW11029   0.001   6.139   4.680
 3377SOL    HW111030   0.077   6.202   4.696
 3377SOL    HW211031   0.021   6.081   4.601
 3378SOL     OW11032   6.484   0.558   1.142
 3378SOL    HW111033   6.414   0.492   1.169
 3378SOL    HW211034   6.485   0.634   1.207
 3379SOL     OW11035   6.944   5.055   6.381
 3379SOL    HW111036   6.952   5.155   6.376
 3379SOL    HW211037   6.860   5.026   6.336
 3380SOL     OW11038   5.926   6.181   6.062
 3380SOL    HW111039   5.946   6.129   5.979
 3380SOL    HW211040   6.012   6.203   6.110
 3381SOL     OW11041   1.971   2.250   0.577
 3381SOL    HW111042   2.055   2.280   0.621
 3381SOL    HW211043   1.982   2.156   0.546
 3382SOL     OW11044   1.052   1.275   0.522
 3382SOL    HW111045   0.978   1.288   0.587
 3382SOL    HW211046   1.052   1.181   0.489
 3383SOL     OW11047   4.901   5.333   2.836
 3383SOL    HW111048   4.929   5.402   2.903
 3383SOL    HW211049   4.880   5.378   2.749
 3384SOL     OW11050   3.012   3.134   4.757
 3384SOL    HW111051   2.942   3.070   4.789
 3384SOL    HW211052   3.093   3.084   4.730
 3385SOL     OW11053   0.231   3.601   3.949
 3385SOL    HW111054   0.227   3.658   4.030
 3385SOL    HW211055   0.241   3.505   3.976
 3386SOL     OW11056   6.241   2.886   5.262
 3386SOL    HW111057   6.311   2.956   5.246
 3386SOL    HW211058   6.201   2.899   5.353
 3387SOL     OW11059   2.434   0.652   2.635
 3387SOL    HW111060   2.520   0.700   2.622
 3387SOL    HW211061   2.361   0.702   2.588
 3388SOL     OW11062   6.017   3.321   1.415
 3388SOL    HW111063   6.103   3.275   1.396
 3388SOL    HW211064   6.034   3.400   1.474
 3389SOL     OW11065   4.517   5.147   4.982
 3389SOL    HW111066   4.558   5.195   5.059
 3389SOL    HW211067   4.579   5.151   4.903
 3390SOL     OW11068   5.527   4.422   5.774
 3390SOL    HW111069   5.465   4.400   5.849
 3390SOL    HW211070   5.522   4.521   5.755
 3391SOL     OW11071   5.960   2.322   4.489
 3391SOL    HW111072   5.912   2.405   4.459
 3391SOL    HW211073   6.035   2.348   4.550
 3392SOL     OW11074   2.586   1.063   3.488
 3392SOL    HW111075   2.620   1.000   3.559
 3392SOL    HW211076   2.647   1.142   3.482
 3393SOL     OW11077   0.234   6.312   0.462
 3393SOL    HW111078   0.227   6.218   0.497
 3393SOL    HW211079   0.142   6.345   0.438
 3394SOL     OW11080   6.230   3.520   0.842
 3394SOL    HW111081   6.260   3.611   0.813
 3394SOL    HW211082   6.215   3.519   0.941
 3395SOL     OW11083   6.810   3.648   3.837
 3395SOL    HW111084   6.856   3.737   3.832
 3395SOL    HW211085   6.712   3.660   3.821
 3396SOL     OW11086   6.957   1.964   3.453
 3396SOL    HW111087   6.917   2.043   3.500
 3396SOL    HW211088   7.006   1.908   3.520
 3397SOL     OW11089   2.935   1.306   5.545
 3397SOL    HW111090   2.991   1.375   5.499
 3397SOL    HW211091   2.889   1.249   5.477
 3398SOL     OW11092   0.901   6.640   4.106
 3398SOL    HW111093   0.824   6.672   4.051
 3398SOL    HW211094   0.934   6.553   4.069
 3399SOL     OW11095   4.817   4.361   4.228
 3399SOL    HW111096   4.828   4.274   4.276
 3399SOL    HW211097   4.896   4.420   4.246
 3400SOL     OW11098   3.958   1.472   5.232
 3400SOL    HW111099   3.975   1.562   5.192
 3400SOL    HW211100   3.864   1.444   5.211
 3401SOL     OW11101   6.975   3.253   1.105
 3401SOL    HW111102   6.964   3.259   1.205
 3401SOL    HW211103   0.045   3.238   1.083
 3402SOL     OW11104   4.120   6.428   0.750
 3402SOL    HW111105   4.204   6.468   0.713
 3402SOL    HW211106   4.130   6.412   0.848
 3403SOL     OW11107   3.436   0.367   4.497
 3403SOL    HW111108   3.464   0.354   4.592
 3403SOL    HW211109   3.514   0.347   4.437
 3404SOL     OW11110   4.924   1.406   0.061
 3404SOL    HW111111   4.940   1.459   7.004
 3404SOL    HW211112   4.902   1.312   0.036
 3405SOL     OW11113   6.238   3.666   4.108
 3405SOL    HW111114   6.148   3.699   4.079
 3405SOL    HW211115   6.260   3.704   4.198
 3406SOL     OW11116   1.328   4.250   1.864
 3406SOL    HW111117   1.422   4.259   1.833
 3406SOL    HW211118   1.319   4.289   1.956
 3407SOL     OW11119   1.594   5.254   0.110
 3407SOL    HW111120   1.584   5.313   0.030
 3407SOL    HW211121   1.538   5.172   0.099
 3408SOL     OW11122   5.366   4.325   4.886
 3408SOL    HW111123   5.271   4.294   4.890
 3408SOL    HW211124   5.373   4.417   4.924
 3409SOL     OW11125   3.243   6.531   5.758
 3409SOL    HW111126   3.235   6.537   5.658
 3409SOL    HW211127   3.246   6.623   5.796
 3410SOL     OW11128   5.984   5.852   0.322
 3410SOL    HW111129   5.942   5.813   0.240
 3410SOL    HW211130   5.983   5.784   0.396
 3411SOL     OW11131   0.349   2.713   1.962
 3411SOL    HW111132   0.346   2.786   1.893
 3411SOL    HW211133   0.362   2.625   1.916
 3412SOL     OW11134   4.585   2.521   6.910
 3412SOL    HW111135   4.624   2.610   6.887
 3412SOL    HW211136   4.550   2.477   6.827
 3413SOL     OW11137   4.866   1.189   2.908
 3413SOL    HW111138   4.932   1.264   2.907
 3413SOL    HW211139   4.879   1.132   2.827
 3414SOL     OW11140   2.334   1.718   5.475
 3414SOL    HW111141   2.292   1.637   5.514
 3414SOL    HW211142   2.391   1.763   5.544
 3415SOL     OW11143   2.287   4.333   4.377
 3415SOL    HW111144   2.211   4.396   4.364
 3415SOL    HW211145   2.252   4.244   4.407
 3416SOL     OW11146   6.702   5.597   0.268
 3416SOL    HW111147   6.784   5.551   0.302
 3416SOL    HW211148   6.621   5.553   0.307
 3417SOL     OW11149   6.472   5.772   3.499
 3417SOL    HW111150   6.391   5.715   3.484
 3417SOL    HW211151   6.507   5.756   3.591
 3418SOL     OW11152   4.031   6.901   4.859
 3418SOL    HW111153   4.099   6.974   4.873
 3418SOL    HW211154   3.976   6.922   4.778
 3419SOL     OW11155   3.458   5.472   5.100
 3419SOL    HW111156   3.448   5.471   5.001
 3419SOL    HW211157   3.383   5.419   5.141
 3420SOL     OW11158   5.141   2.809   3.077
 3420SOL    HW111159   5.205   2.836   3.005
 3420SOL    HW211160   5.132   2.709   3.077
 3421SOL     OW11161   6.077   0.482   6.230
 3421SOL    HW111162   6.138   0.559   6.212
 3421SOL    HW211163   6.118   0.424   6.300
 3422SOL     OW11164   2.152   6.511   1.088
 3422SOL    HW111165   2.211   6.432   1.073
 3422SOL    HW211166   2.115   6.542   1.000
 3423SOL     OW11167   1.924   0.050   0.489
 3423SOL    HW111168   1.889   7.013   0.421
 3423SOL    HW211169   1.847   0.091   0.539
 3424SOL     OW11170   2.768   6.490   2.519
 3424SOL    HW111171   2.807   6.440   2.441
 3424SOL    HW211172   2.813   6.460   2.603
 3425SOL     OW11173   5.268   3.961   1.728
 3425SOL    HW111174   5.197   3.937   1.662
 3425SOL    HW211175   5.271   3.892   1.800
 3426SOL     OW11176   2.910   2.770   6.812
 3426SOL    HW111177   2.917   2.777   6.712
 3426SOL    HW211178   2.819   2.739   6.838
 3427SOL     OW11179   6.845   6.915   6.307
 3427SOL    HW111180   6.841   6.968   6.223
 3427SOL    HW211181   6.860   6.976   6.385
 3428SOL     OW11182   3.546   5.105   1.281
 3428SOL    HW111183   3.573   5.015   1.248
 3428SOL    HW211184   3.566   5.174   1.211
 3429SOL     OW11185   1.027   1.421   6.897
 3429SOL    HW111186   0.979   1.452   6.815
 3429SOL    HW211187   1.044   1.323   6.890
 3430SOL     OW11188   0.266   6.746   5.213
 3430SOL    HW111189   0.338   6.680   5.236
 3430SOL    HW211190   0.273   6.825   5.273
 3431SOL     OW11191   1.996   0.157   1.195
 3431SOL    HW111192   2.093   0.142   1.175
 3431SOL    HW211193   1.980   0.255   1.209
 3432SOL     OW11194   2.659   2.746   6.585
 3432SOL    HW111195   2.744   2.754   6.533
 3432SOL    HW211196   2.597   2.682   6.539
 3433SOL     OW11197   1.352   7.010   6.396
 3433SOL    HW111198   1.365   7.007   6.495
 3433SOL    HW211199   1.428   0.033   6.353
 3434SOL     OW11200   3.758   2.557   1.028
 3434SOL    HW111201   3.774   2.575   1.125
 3434SOL    HW211202   3.704   2.632   0.989
 3435SOL     OW11203   1.080   1.971   1.420
 3435SOL    HW111204   1.029   2.000   1.501
 3435SOL    HW211205   1.048   1.880   1.392
 3436SOL     OW11206   3.942   6.373   5.643
 3436SOL    HW111207   4.031   6.398   5.606
 3436SOL    HW211208   3.904   6.451   5.694
 3437SOL     OW11209   3.798   0.433   6.361
 3437SOL    HW111210   3.870   0.467   6.422
 3437SOL    HW211211   3.824   0.343   6.325
 3438SOL     OW11212   1.288   2.557   0.106
 3438SOL    HW111213   1.255   2.651   0.099
 3438SOL    HW211214   1.320   2.526   0.016
 3439SOL     OW11215   2.073   6.922   5.972
 3439SOL    HW111216   2.082   6.949   6.068
 3439SOL    HW211217   2.155   6.950   5.922
 3440SOL     OW11218   4.232   3.229   1.546
 3440SOL    HW111219   4.152   3.278   1.512
 3440SOL    HW211220   4.209   3.133   1.561
 3441SOL     OW11221   4.991   0.420   4.016
 3441SOL    HW111222   4.908   0.371   3.990
 3441SOL    HW211223   5.068   0.355   4.021
 3442SOL     OW11224   3.204   4.838   2.603
 3442SOL    HW111225   3.106   4.838   2.580
 3442SOL    HW211226   3.217   4.883   2.691
 3443SOL     OW11227   5.535   0.743   2.224
 3443SOL    HW111228   5.582   0.695   2.150
 3443SOL    HW211229   5.443   0.768   2.195
 3444SOL     OW11230   5.025   5.043   6.875
 3444SOL    HW111231   5.097   5.023   6.941
 3444SOL    HW211232   5.058   5.022   6.782
 3445SOL     OW11233   5.757   5.170   4.342
 3445SOL    HW111234   5.698   5.236   4.389
 3445SOL    HW211235   5.720   5.078   4.353
 3446SOL     OW11236   6.220   1.065   3.294
 3446SOL    HW111237   6.183   1.157   3.294
 3446SOL    HW211238   6.258   1.044   3.385
 3447SOL     OW11239   5.693   4.157   0.931
 3447SOL    HW111240   5.760   4.107   0.876
 3447SOL    HW211241   5.709   4.255   0.922
 3448SOL     OW11242   2.908   0.438   1.049
 3448SOL    HW111243   2.961   0.516   1.018
 3448SOL    HW211244   2.818   0.468   1.082
 3449SOL     OW11245   6.103   6.472   4.184
 3449SOL    HW111246   6.089   6.477   4.283
 3449SOL    HW211247   6.168   6.542   4.155
 3450SOL     OW11248   0.827   2.583   0.156
 3450SOL    HW111249   0.895   2.555   0.224
 3450SOL    HW211250   0.859   2.559   0.065
 3451SOL     OW11251   1.178   5.502   3.169
 3451SOL    HW111252   1.180   5.404   3.185
 3451SOL    HW211253   1.262   5.544   3.203
 3452SOL     OW11254   5.497   2.062   0.192
 3452SOL    HW111255   5.452   1.974   0.173
 3452SOL    HW211256   5.509   2.073   0.290
 3453SOL     OW11257   6.759   6.063   6.098
 3453SOL    HW111258   6.716   6.066   6.188
 3453SOL    HW211259   6.839   6.122   6.097
 3454SOL     OW11260   1.643   1.031   6.209
 3454SOL    HW111261   1.605   0.967   6.143
 3454SOL    HW211262   1.581   1.109   6.219
 3455SOL     OW11263   2.006   3.043   4.537
 3455SOL    HW111264   2.044   2.953   4.516
 3455SOL    HW211265   2.074   3.096   4.588
 3456SOL     OW11266   5.715   6.590   2.492
 3456SOL    HW111267   5.688   6.662   2.556
 3456SOL    HW211268   5.801   6.615   2.447
 3457SOL     OW11269   2.383   5.495   4.013
 3457SOL    HW111270   2.480   5.475   4.022
 3457SOL    HW211271   2.356   5.560   4.084
 3458SOL     OW11272   5.303   6.907   0.394
 3458SOL    HW111273   5.342   6.900   0.486
 3458SOL    HW211274   5.376   6.892   0.327
 3459SOL     OW11275   6.063   3.927   2.765
 3459SOL    HW111276   5.973   3.914   2.807
 3459SOL    HW211277   6.115   3.994   2.817
 3460SOL     OW11278   2.844   3.860   0.132
 3460SOL    HW111279   2.803   3.769   0.126
 3460SOL    HW211280   2.772   3.928   0.149
 3461SOL     OW11281   4.362   5.729   4.455
 3461SOL    HW111282   4.345   5.739   4.357
 3461SOL    HW211283   4.303   5.657   4.492
 3462SOL     OW11284   0.110   3.903   2.383
 3462SOL    HW111285   0.192   3.876   2.432
 3462SOL    HW211286   0.035   3.917   2.448
 3463SOL     OW11287   0.958   3.297   3.172
 3463SOL    HW111288   0.980   3.273   3.077
 3463SOL    HW211289   1.036   3.276   3.230
 3464SOL     OW11290   6.580   2.331   6.817
 3464SOL    HW111291   6.630   2.381   6.745
 3464SOL    HW211292   6.645   2.290   6.881
 3465SOL     OW11293   0.507   2.998   1.890
 3465SOL    HW111294   0.462   3.060   1.826
 3465SOL    HW211295   0.532   3.048   1.973
 3466SOL     OW11296   6.772   4.529   6.451
 3466SOL    HW111297   6.749   4.462   6.520
 3466SOL    HW211298   6.870   4.548   6.454
 3467SOL     OW11299   2.292   1.868   0.569
 3467SOL    HW111300   2.355   1.814   0.626
 3467SOL    HW211301   2.223   1.911   0.628
 3468SOL     OW11302   5.317   1.224   3.262
 3468SOL    HW111303   5.355   1.304   3.216
 3468SOL    HW211304   5.220   1.240   3.281
 3469SOL     OW11305   4.314   0.489   4.440
 3469SOL    HW111306   4.327   0.568   4.500
 3469SOL    HW211307   4.374   0.415   4.469
 3470SOL     OW11308   0.583   2.178   1.883
 3470SOL    HW111309   0.562   2.262   1.932
 3470SOL    HW211310   0.585   2.197   1.785
 3471SOL     OW11311   4.643   4.373   3.637
 3471SOL    HW111312   4.604   4.459   3.606
 3471SOL    HW211313   4.595   4.342   3.719
 3472SOL     OW11314   2.780   0.914   1.709
 3472SOL    HW111315   2.824   0.972   1.777
 3472SOL    HW211316   2.680   0.924   1.716
 3473SOL     OW11317   6.661   3.190   2.733
 3473SOL    HW111318   6.645   3.267   2.671
 3473SOL    HW211319   6.573   3.148   2.756
 3474SOL     OW11320   0.187   4.589   2.482
 3474SOL    HW111321   0.106   4.598   2.539
 3474SOL    HW211322   0.203   4.674   2.431
 3475SOL     OW11323   1.282   4.525   4.091
 3475SOL    HW111324   1.328   4.523   4.180
 3475SOL    HW211325   1.207   4.458   4.090
 3476SOL     OW11326   2.490   2.145   2.553
 3476SOL    HW111327   2.517   2.050   2.533
 3476SOL    HW211328   2.542   2.207   2.495
 3477SOL     OW11329   1.799   4.769   0.944
 3477SOL    HW111330   1.727   4.795   1.008
 3477SOL    HW211331   1.835   4.680   0.968
 3478SOL     OW11332   2.026   5.794   6.389
 3478SOL    HW111333   2.086   5.869   6.360
 3478SOL    HW211334   2.027   5.722   6.319
 3479SOL     OW11335   0.812   0.695   3.124
 3479SOL    HW111336   0.840   0.601   3.147
 3479SOL    HW211337   0.732   0.720   3.178
 3480SOL     OW11338   6.875   5.779   4.951
 3480SOL    HW111339   6.925   5.860   4.919
 3480SOL    HW211340   6.854   5.790   5.048
 3481SOL     OW11341   5.124   0.654   0.472
 3481SOL    HW111342   5.217   0.625   0.494
 3481SOL    HW211343   5.079   0.688   0.555
 3482SOL     OW11344   6.604   0.980   2.007
 3482SOL    HW111345   6.617   0.896   2.060
 3482SOL    HW211346   6.638   1.058   2.059
 3483SOL     OW11347   5.296   2.211   2.167
 3483SOL    HW111348   5.378   2.158   2.188
 3483SOL    HW211349   5.260   2.184   2.078
 3484SOL     OW11350   0.987   2.673   0.630
 3484SOL    HW111351   1.060   2.623   0.677
 3484SOL    HW211352   1.023   2.716   0.548
 3485SOL     OW11353   2.127   1.478   4.509
 3485SOL    HW111354   2.061   1.550   4.529
 3485SOL    HW211355   2.212   1.519   4.478
 3486SOL     OW11356   2.511   0.300   2.977
 3486SOL    HW111357   2.491   0.316   2.881
 3486SOL    HW211358   2.426   0.302   3.030
 3487SOL     OW11359   0.262   2.010   0.654
 3487SOL    HW111360   0.175   2.055   0.675
 3487SOL    HW211361   0.244   1.922   0.608
 3488SOL     OW11362   5.914   1.056   5.317
 3488SOL    HW111363   5.943   1.146   5.349
 3488SOL    HW211364   5.976   1.025   5.245
 3489SOL     OW11365   3.752   0.278   2.126
 3489SOL    HW111366   3.713   0.213   2.191
 3489SOL    HW211367   3.688   0.355   2.114
 3490SOL     OW11368   4.008   4.311   1.253
 3490SOL    HW111369   4.085   4.369   1.280
 3490SOL    HW211370   3.958   4.282   1.335
 3491SOL     OW11371   4.466   2.139   5.839
 3491SOL    HW111372   4.522   2.165   5.760
 3491SOL    HW211373   4.496   2.191   5.919
 3492SOL     OW11374   6.834   4.155   1.036
 3492SOL    HW111375   6.810   4.061   1.013
 3492SOL    HW211376   6.750   4.209   1.046
 3493SOL     OW11377   4.820   3.975   4.153
 3493SOL    HW111378   4.745   4.013   4.099
 3493SOL    HW211379   4.823   4.020   4.242
 3494SOL     OW11380   2.821   1.147   1.571
 3494SOL    HW111381   2.842   1.051   1.591
 3494SOL    HW211382   2.801   1.196   1.656
 3495SOL     OW11383   6.011   4.648   1.713
 3495SOL    HW111384   5.981   4.625   1.620
 3495SOL    HW211385   6.110   4.653   1.716
 3496SOL     OW11386   6.297   5.012   1.103
 3496SOL    HW111387   6.342   5.010   1.014
 3496SOL    HW211388   6.302   4.921   1.145
 3497SOL     OW11389   2.963   1.793   3.597
 3497SOL    HW111390   2.978   1.843   3.683
 3497SOL    HW211391   2.903   1.715   3.614
 3498SOL     OW11392   3.243   1.629   1.363
 3498SOL    HW111393   3.162   1.674   1.323
 3498SOL    HW211394   3.219   1.590   1.452
 3499SOL     OW11395   5.796   4.085   4.026
 3499SOL    HW111396   5.813   4.156   3.958
 3499SOL    HW211397   5.803   3.995   3.982
 3500SOL     OW11398   1.856   3.164   3.606
 3500SOL    HW111399   1.882   3.241   3.549
 3500SOL    HW211400   1.931   3.144   3.670
 3501SOL     OW11401   2.925   5.966   5.909
 3501SOL    HW111402   2.936   5.932   6.003
 3501SOL    HW211403   2.993   6.037   5.891
 3502SOL     OW11404   6.804   2.064   1.165
 3502SOL    HW111405   6.771   2.062   1.071
 3502SOL    HW211406   6.743   2.012   1.225
 3503SOL     OW11407   6.082   5.638   5.065
 3503SOL    HW111408   6.159   5.643   5.128
 3503SOL    HW211409   5.999   5.669   5.111
 3504SOL     OW11410   2.393   0.214   1.790
 3504SOL    HW111411   2.373   0.242   1.884
 3504SOL    HW211412   2.429   0.121   1.790
 3505SOL     OW11413   5.221   4.354   6.054
 3505SOL    HW111414   5.221   4.316   6.147
 3505SOL    HW211415   5.127   4.354   6.018
 3506SOL     OW11416   5.139   5.215   5.144
 3506SOL    HW111417   5.077   5.180   5.213
 3506SOL    HW211418   5.219   5.156   5.136
 3507SOL     OW11419   2.765   0.805   0.983
 3507SOL    HW111420   2.830   0.730   0.972
 3507SOL    HW211421   2.808   0.891   0.954
 3508SOL     OW11422   2.022   2.233   5.907
 3508SOL    HW111423   2.072   2.267   5.987
 3508SOL    HW211424   2.083   2.174   5.853
 3509SOL     OW11425   5.034   0.142   0.081
 3509SOL    HW111426   5.063   0.119   7.014
 3509SOL    HW211427   4.943   0.184   0.079
 3510SOL     OW11428   1.430   0.887   2.043
 3510SOL    HW111429   1.412   0.860   2.138
 3510SOL    HW211430   1.460   0.807   1.991
 3511SOL     OW11431   2.022   4.443   1.484
 3511SOL    HW111432   2.026   4.344   1.472
 3511SOL    HW211433   2.105   4.475   1.529
 3512SOL     OW11434   0.470   5.124   0.566
 3512SOL    HW111435   0.432   5.184   0.637
 3512SOL    HW211436   0.436   5.031   0.580
 3513SOL     OW11437   5.723   2.119   0.564
 3513SOL    HW111438   5.675   2.205   0.547
 3513SOL    HW211439   5.796   2.108   0.498
 3514SOL     OW11440   0.241   0.953   1.851
 3514SOL    HW111441   0.170   1.018   1.879
 3514SOL    HW211442   0.263   0.893   1.929
 3515SOL     OW11443   4.617   6.053   2.864
 3515SOL    HW111444   4.711   6.026   2.845
 3515SOL    HW211445   4.573   5.983   2.921
 3516SOL     OW11446   5.149   6.838   0.875
 3516SOL    HW111447   5.060   6.812   0.911
 3516SOL    HW211448   5.202   6.756   0.853
 3517SOL     OW11449   0.758   1.850   1.616
 3517SOL    HW111450   0.843   1.817   1.576
 3517SOL    HW211451   0.704   1.772   1.648
 3518SOL     OW11452   4.888   3.065   4.988
 3518SOL    HW111453   4.949   3.005   4.937
 3518SOL    HW211454   4.927   3.082   5.079
 3519SOL     OW11455   1.655   0.874   5.970
 3519SOL    HW111456   1.636   0.792   5.916
 3519SOL    HW211457   1.754   0.891   5.972
 3520SOL     OW11458   3.389   5.751   6.960
 3520SOL    HW111459   3.349   5.678   6.903
 3520SOL    HW211460   3.462   5.796   6.908
 3521SOL     OW11461   5.009   2.476   0.386
 3521SOL    HW111462   4.922   2.496   0.340
 3521SOL    HW211463   5.084   2.481   0.319
 3522SOL     OW11464   0.491   4.891   0.882
 3522SOL    HW111465   0.573   4.835   0.882
 3522SOL    HW211466   0.415   4.840   0.840
 3523SOL     OW11467   1.380   4.501   5.439
 3523SOL    HW111468   1.422   4.558   5.510
 3523SOL    HW211469   1.430   4.414   5.433
 3524SOL     OW11470   5.058   1.379   1.909
 3524SOL    HW111471   5.044   1.291   1.862
 3524SOL    HW211472   4.970   1.417   1.936
 3525SOL     OW11473   6.782   4.657   3.581
 3525SOL    HW111474   6.687   4.685   3.568
 3525SOL    HW211475   6.798   4.572   3.531
 3526SOL     OW11476   2.494   6.768   3.999
 3526SOL    HW111477   2.570   6.708   3.973
 3526SOL    HW211478   2.481   6.763   4.098
 3527SOL     OW11479   5.573   3.071   6.162
 3527SOL    HW111480   5.531   3.114   6.242
 3527SOL    HW211481   5.585   3.138   6.090
 3528SOL     OW11482   1.338   6.686   5.113
 3528SOL    HW111483   1.304   6.627   5.186
 3528SOL    HW211484   1.383   6.766   5.152
 3529SOL     OW11485   4.048   0.228   0.465
 3529SOL    HW111486   4.107   0.193   0.392
 3529SOL    HW211487   4.023   0.153   0.527
 3530SOL     OW11488   6.262   5.997   2.326
 3530SOL    HW111489   6.305   5.908   2.314
 3530SOL    HW211490   6.295   6.059   2.255
 3531SOL     OW11491   5.355   2.733   1.096
 3531SOL    HW111492   5.260   2.753   1.120
 3531SOL    HW211493   5.414   2.807   1.127
 3532SOL     OW11494   2.605   6.764   1.820
 3532SOL    HW111495   2.538   6.708   1.869
 3532SOL    HW211496   2.697   6.741   1.851
 3533SOL     OW11497   0.897   1.724   2.883
 3533SOL    HW111498   0.988   1.760   2.866
 3533SOL    HW211499   0.897   1.670   2.967
 3534SOL     OW11500   6.938   2.042   0.777
 3534SOL    HW111501   6.860   1.994   0.816
 3534SOL    HW211502   6.940   2.136   0.811
 3535SOL     OW11503   1.885   5.504   6.535
 3535SOL    HW111504   1.937   5.575   6.582
 3535SOL    HW211505   1.915   5.498   6.440
 3536SOL     OW11506   3.442   1.810   2.947
 3536SOL    HW111507   3.355   1.762   2.959
 3536SOL    HW211508   3.448   1.886   3.011
 3537SOL     OW11509   2.925   5.899   2.519
 3537SOL    HW111510   2.864   5.979   2.525
 3537SOL    HW211511   2.970   5.884   2.607
 3538SOL     OW11512   2.331   6.888   6.280
 3538SOL    HW111513   2.314   6.808   6.338
 3538SOL    HW211514   2.248   6.943   6.274
 3539SOL     OW11515   3.766   2.991   5.530
 3539SOL    HW111516   3.857   2.951   5.537
 3539SOL    HW211517   3.699   2.919   5.512
 3540SOL     OW11518   1.870   2.741   5.368
 3540SOL    HW111519   1.829   2.750   5.459
 3540SOL    HW211520   1.814   2.680   5.312
 3541SOL     OW11521   1.873   2.810   5.999
 3541SOL    HW111522   1.801   2.867   6.037
 3541SOL    HW211523   1.836   2.751   5.927
 3542SOL     OW11524   1.825   5.542   3.386
 3542SOL    HW111525   1.893   5.504   3.322
 3542SOL    HW211526   1.779   5.620   3.343
 3543SOL     OW11527   0.707   2.284   4.723
 3543SOL    HW111528   0.638   2.254   4.789
 3543SOL    HW211529   0.776   2.340   4.770
 3544SOL     OW11530   1.901   4.420   6.022
 3544SOL    HW111531   2.000   4.427   6.035
 3544SOL    HW211532   1.872   4.325   6.035
 3545SOL     OW11533   3.859   5.402   0.509
 3545SOL    HW111534   3.780   5.421   0.567
 3545SOL    HW211535   3.852   5.309   0.472
 3546SOL     OW11536   1.649   3.961   4.270
 3546SOL    HW111537   1.692   4.007   4.348
 3546SOL    HW211538   1.555   3.937   4.293
 3547SOL     OW11539   6.997   4.595   3.752
 3547SOL    HW111540   6.934   4.578   3.828
 3547SOL    HW211541   6.945   4.621   3.671
 3548SOL     OW11542   5.688   1.854   5.852
 3548SOL    HW111543   5.592   1.885   5.846
 3548SOL    HW211544   5.691   1.755   5.849
 3549SOL     OW11545   6.388   5.065   6.338
 3549SOL    HW111546   6.361   5.061   6.242
 3549SOL    HW211547   6.332   5.003   6.392
 3550SOL     OW11548   6.135   2.304   2.426
 3550SOL    HW111549   6.064   2.259   2.479
 3550SOL    HW211550   6.099   2.387   2.384
 3551SOL     OW11551   3.492   0.158   2.242
 3551SOL    HW111552   3.478   0.214   2.324
 3551SOL    HW211553   3.539   0.074   2.267
 3552SOL     OW11554   5.650   6.373   2.122
 3552SOL    HW111555   5.624   6.345   2.214
 3552SOL    HW211556   5.570   6.410   2.074
 3553SOL     OW11557   5.342   3.647   0.991
 3553SOL    HW111558   5.328   3.548   0.989
 3553SOL    HW211559   5.319   3.682   1.081
 3554SOL     OW11560   4.153   2.382   0.995
 3554SOL    HW111561   4.106   2.367   0.909
 3554SOL    HW211562   4.092   2.427   1.060
 3555SOL     OW11563   1.128   3.877   3.821
 3555SOL    HW111564   1.138   3.778   3.808
 3555SOL    HW211565   1.183   3.925   3.752
 3556SOL     OW11566   4.774   1.379   3.086
 3556SOL    HW111567   4.796   1.317   3.010
 3556SOL    HW211568   4.856   1.395   3.141
 3557SOL     OW11569   1.060   0.220   3.893
 3557SOL    HW111570   1.029   0.152   3.827
 3557SOL    HW211571   0.997   0.297   3.895
 3558SOL     OW11572   1.145   6.396   1.306
 3558SOL    HW111573   1.132   6.466   1.236
 3558SOL    HW211574   1.239   6.361   1.302
 3559SOL     OW11575   0.574   6.178   4.754
 3559SOL    HW111576   0.652   6.233   4.725
 3559SOL    HW211577   0.489   6.219   4.719
 3560SOL     OW11578   0.845   5.760   1.374
 3560SOL    HW111579   0.852   5.817   1.292
 3560SOL    HW211580   0.936   5.750   1.415
 3561SOL     OW11581   4.303   4.719   5.367
 3561SOL    HW111582   4.330   4.735   5.462
 3561SOL    HW211583   4.203   4.714   5.362
 3562SOL     OW11584   4.998   1.009   3.579
 3562SOL    HW111585   4.964   1.100   3.554
 3562SOL    HW211586   4.958   0.982   3.667
 3563SOL     OW11587   5.669   1.210   0.600
 3563SOL    HW111588   5.711   1.212   0.691
 3563SOL    HW211589   5.651   1.303   0.570
 3564SOL     OW11590   1.654   4.401   4.210
 3564SOL    HW111591   1.568   4.356   4.232
 3564SOL    HW211592   1.684   4.374   4.118
 3565SOL     OW11593   3.721   5.634   5.516
 3565SOL    HW111594   3.821   5.640   5.527
 3565SOL    HW211595   3.698   5.649   5.420
 3566SOL     OW11596   6.584   3.653   6.140
 3566SOL    HW111597   6.621   3.606   6.060
 3566SOL    HW211598   6.622   3.612   6.224
 3567SOL     OW11599   1.214   3.120   0.215
 3567SOL    HW111600   1.166   3.144   0.131
 3567SOL    HW211601   1.263   3.200   0.250
 3568SOL     OW11602   4.914   5.963   4.165
 3568SOL    HW111603   4.992   5.965   4.103
 3568SOL    HW211604   4.895   6.056   4.198
 3569SOL     OW11605   2.904   2.763   5.970
 3569SOL    HW111606   2.882   2.831   5.900
 3569SOL    HW211607   2.824   2.749   6.029
 3570SOL     OW11608   5.075   6.990   4.809
 3570SOL    HW111609   5.108   0.017   4.730
 3570SOL    HW211610   5.123   7.020   4.891
 3571SOL     OW11611   1.944   0.747   5.039
 3571SOL    HW111612   1.870   0.685   5.015
 3571SOL    HW211613   1.973   0.798   4.958
 3572SOL     OW11614   5.540   3.553   2.497
 3572SOL    HW111615   5.548   3.466   2.545
 3572SOL    HW211616   5.470   3.546   2.426
 3573SOL     OW11617   6.229   3.991   2.493
 3573SOL    HW111618   6.149   3.954   2.540
 3573SOL    HW211619   6.307   3.993   2.555
 3574SOL     OW11620   1.150   3.125   0.703
 3574SOL    HW111621   1.187   3.055   0.764
 3574SOL    HW211622   1.223   3.159   0.644
 3575SOL     OW11623   4.930   5.616   2.428
 3575SOL    HW111624   5.003   5.554   2.402
 3575SOL    HW211625   4.873   5.574   2.499
 3576SOL     OW11626   0.536   1.874   0.164
 3576SOL    HW111627   0.450   1.847   0.208
 3576SOL    HW211628   0.567   1.801   0.104
 3577SOL     OW11629   1.712   3.009   6.736
 3577SOL    HW111630   1.672   3.095   6.704
 3577SOL    HW211631   1.669   2.932   6.687
 3578SOL     OW11632   5.149   1.626   1.061
 3578SOL    HW111633   5.052   1.620   1.038
 3578SOL    HW211634   5.168   1.566   1.138
 3579SOL     OW11635   6.842   2.432   2.573
 3579SOL    HW111636   6.905   2.370   2.619
 3579SOL    HW211637   6.807   2.499   2.639
 3580SOL     OW11638   6.268   2.885   0.245
 3580SOL    HW111639   6.321   2.804   0.221
 3580SOL    HW211640   6.303   2.964   0.194
 3581SOL     OW11641   0.766   5.860   3.186
 3581SOL    HW111642   0.761   5.889   3.281
 3581SOL    HW211643   0.673   5.853   3.149
 3582SOL     OW11644   2.116   4.367   5.697
 3582SOL    HW111645   2.135   4.363   5.599
 3582SOL    HW211646   2.047   4.437   5.715
 3583SOL     OW11647   1.359   4.830   0.214
 3583SOL    HW111648   1.308   4.758   0.167
 3583SOL    HW211649   1.425   4.870   0.150
 3584SOL     OW11650   5.543   4.622   5.350
 3584SOL    HW111651   5.618   4.647   5.412
 3584SOL    HW211652   5.482   4.558   5.396
 3585SOL     OW11653   2.619   2.530   4.901
 3585SOL    HW111654   2.646   2.500   4.993
 3585SOL    HW211655   2.569   2.616   4.907
 3586SOL     OW11656   6.659   1.582   4.782
 3586SOL    HW111657   6.705   1.593   4.694
 3586SOL    HW211658   6.560   1.577   4.768
 3587SOL     OW11659   2.061   5.756   5.981
 3587SOL    HW111660   2.056   5.656   5.978
 3587SOL    HW211661   2.145   5.786   5.936
 3588SOL     OW11662   7.002   2.893   5.003
 3588SOL    HW111663   0.048   2.876   5.071
 3588SOL    HW211664   6.980   2.990   5.001
 3589SOL     OW11665   5.900   0.541   6.737
 3589SOL    HW111666   5.875   0.499   6.824
 3589SOL    HW211667   5.863   0.486   6.662
 3590SOL     OW11668   0.054   3.709   0.339
 3590SOL    HW111669   0.022   3.741   0.428
 3590SOL    HW211670   0.151   3.689   0.344
 3591SOL     OW11671   5.498   3.769   0.096
 3591SOL    HW111672   5.425   3.735   0.037
 3591SOL    HW211673   5.520   3.863   0.070
 3592SOL     OW11674   0.377   6.935   3.236
 3592SOL    HW111675   0.378   6.937   3.336
 3592SOL    HW211676   0.400   7.026   3.201
 3593SOL     OW11677   0.205   4.212   6.128
 3593SOL    HW111678   0.168   4.212   6.221
 3593SOL    HW211679   0.227   4.305   6.100
 3594SOL     OW11680   4.602   0.198   4.163
 3594SOL    HW111681   4.535   0.144   4.214
 3594SOL    HW211682   4.691   0.154   4.168
 3595SOL     OW11683   5.214   5.737   6.236
 3595SOL    HW111684   5.142   5.765   6.171
 3595SOL    HW211685   5.301   5.731   6.188
 3596SOL     OW11686   5.149   2.866   3.565
 3596SOL    HW111687   5.127   2.935   3.634
 3596SOL    HW211688   5.164   2.910   3.476
 3597SOL     OW11689   1.696   2.987   5.357
 3597SOL    HW111690   1.723   3.042   5.436
 3597SOL    HW211691   1.712   2.890   5.377
 3598SOL     OW11692   2.002   6.483   5.929
 3598SOL    HW111693   2.069   6.482   5.855
 3598SOL    HW211694   1.946   6.566   5.922
 3599SOL     OW11695   4.861   2.080   0.767
 3599SOL    HW111696   4.817   2.050   0.852
 3599SOL    HW211697   4.958   2.059   0.770
 3600SOL     OW11698   0.564   3.373   2.322
 3600SOL    HW111699   0.559   3.273   2.326
 3600SOL    HW211700   0.610   3.401   2.237
 3601SOL     OW11701   5.430   2.762   5.946
 3601SOL    HW111702   5.443   2.760   6.046
 3601SOL    HW211703   5.359   2.828   5.923
 3602SOL     OW11704   1.394   3.673   1.119
 3602SOL    HW111705   1.481   3.656   1.164
 3602SOL    HW211706   1.319   3.653   1.182
 3603SOL     OW11707   3.526   1.172   4.601
 3603SOL    HW111708   3.532   1.213   4.692
 3603SOL    HW211709   3.500   1.242   4.535
 3604SOL     OW11710   6.676   6.879   3.823
 3604SOL    HW111711   6.627   6.962   3.853
 3604SOL    HW211712   6.730   6.844   3.899
 3605SOL     OW11713   0.973   4.433   3.940
 3605SOL    HW111714   1.000   4.412   3.846
 3605SOL    HW211715   1.011   4.364   4.002
 3606SOL     OW11716   1.032   6.520   3.422
 3606SOL    HW111717   1.104   6.578   3.459
 3606SOL    HW211718   1.066   6.472   3.341
 3607SOL     OW11719   5.450   3.790   1.519
 3607SOL    HW111720   5.410   3.830   1.601
 3607SOL    HW211721   5.456   3.861   1.448
 3608SOL     OW11722   4.630   1.258   4.527
 3608SOL    HW111723   4.531   1.258   4.535
 3608SOL    HW211724   4.656   1.243   4.431
 3609SOL     OW11725   2.433   0.271   4.052
 3609SOL    HW111726   2.504   0.275   4.122
 3609SOL    HW211727   2.404   0.176   4.040
 3610SOL     OW11728   1.601   1.121   5.839
 3610SOL    HW111729   1.582   1.050   5.907
 3610SOL    HW211730   1.658   1.192   5.881
 3611SOL     OW11731   4.131   4.808   3.784
 3611SOL    HW111732   4.129   4.783   3.687
 3611SOL    HW211733   4.221   4.788   3.821
 3612SOL     OW11734   0.350   0.987   6.310
 3612SOL    HW111735   0.360   0.983   6.211
 3612SOL    HW211736   0.265   0.942   6.337
 3613SOL     OW11737   4.907   4.452   1.866
 3613SOL    HW111738   4.910   4.361   1.824
 3613SOL    HW211739   4.934   4.445   1.962
 3614SOL     OW11740   3.206   4.085   0.224
 3614SOL    HW111741   3.135   4.132   0.277
 3614SOL    HW211742   3.256   4.023   0.285
 3615SOL     OW11743   5.609   2.189   5.921
 3615SOL    HW111744   5.623   2.196   5.823
 3615SOL    HW211745   5.675   2.247   5.969
 3616SOL     OW11746   1.034   0.210   6.177
 3616SOL    HW111747   1.075   0.122   6.152
 3616SOL    HW211748   1.106   0.278   6.192
 3617SOL     OW11749   4.465   0.667   5.336
 3617SOL    HW111750   4.471   0.764   5.359
 3617SOL    HW211751   4.542   0.642   5.278
 3618SOL     OW11752   2.713   3.317   5.449
 3618SOL    HW111753   2.664   3.342   5.532
 3618SOL    HW211754   2.717   3.396   5.388
 3619SOL     OW11755   5.611   3.590   6.468
 3619SOL    HW111756   5.525   3.550   6.498
 3619SOL    HW211757   5.686   3.526   6.485
 3620SOL     OW11758   5.732   5.395   5.895
 3620SOL    HW111759   5.663   5.467   5.897
 3620SOL    HW211760   5.776   5.387   5.984
 3621SOL     OW11761   3.538   3.263   4.752
 3621SOL    HW111762   3.509   3.238   4.845
 3621SOL    HW211763   3.501   3.353   4.729
 3622SOL     OW11764   2.331   0.853   0.714
 3622SOL    HW111765   2.296   0.897   0.631
 3622SOL    HW211766   2.265   0.862   0.788
 3623SOL     OW11767   6.560   5.636   4.686
 3623SOL    HW111768   6.549   5.537   4.682
 3623SOL    HW211769   6.512   5.678   4.609
 3624SOL     OW11770   1.094   6.803   2.237
 3624SOL    HW111771   1.101   6.757   2.148
 3624SOL    HW211772   1.140   6.748   2.306
 3625SOL     OW11773   0.282   3.436   6.469
 3625SOL    HW111774   0.264   3.373   6.393
 3625SOL    HW211775   0.353   3.500   6.442
 3626SOL     OW11776   0.507   2.961   5.178
 3626SOL    HW111777   0.488   2.984   5.082
 3626SOL    HW211778   0.503   3.043   5.234
 3627SOL     OW11779   4.481   3.254   1.663
 3627SOL    HW111780   4.394   3.255   1.614
 3627SOL    HW211781   4.478   3.183   1.734
 3628SOL     OW11782   1.399   1.166   2.015
 3628SOL    HW111783   1.450   1.082   1.998
 3628SOL    HW211784   1.373   1.170   2.112
 3629SOL     OW11785   1.172   0.613   4.922
 3629SOL    HW111786   1.122   0.586   5.004
 3629SOL    HW211787   1.109   0.654   4.856
 3630SOL     OW11788   6.554   3.104   3.595
 3630SOL    HW111789   6.519   3.122   3.688
 3630SOL    HW211790   6.580   3.191   3.553
 3631SOL     OW11791   1.613   7.018   3.346
 3631SOL    HW111792   1.651   6.933   3.382
 3631SOL    HW211793   1.668   0.023   3.268
 3632SOL     OW11794   4.746   4.639   0.372
 3632SOL    HW111795   4.666   4.698   0.386
 3632SOL    HW211796   4.734   4.584   0.289
 3633SOL     OW11797   4.608   2.964   6.039
 3633SOL    HW111798   4.707   2.955   6.028
 3633SOL    HW211799   4.587   3.053   6.079
 3634SOL     OW11800   1.977   6.418   6.268
 3634SOL    HW111801   1.952   6.342   6.328
 3634SOL    HW211802   1.930   6.408   6.180
 3635SOL     OW11803   2.633   1.296   0.818
 3635SOL    HW111804   2.575   1.221   0.787
 3635SOL    HW211805   2.649   1.287   0.917
 3636SOL     OW11806   6.568   5.534   1.432
 3636SOL    HW111807   6.498   5.526   1.503
 3636SOL    HW211808   6.571   5.628   1.398
 3637SOL     OW11809   1.124   2.892   1.245
 3637SOL    HW111810   1.098   2.985   1.269
 3637SOL    HW211811   1.076   2.865   1.161
 3638SOL     OW11812   6.851   4.195   2.777
 3638SOL    HW111813   6.864   4.114   2.835
 3638SOL    HW211814   6.760   4.233   2.794
 3639SOL     OW11815   3.669   5.043   6.616
 3639SOL    HW111816   3.739   5.115   6.609
 3639SOL    HW211817   3.620   5.036   6.530
 3640SOL     OW11818   5.119   2.041   0.782
 3640SOL    HW111819   5.153   2.025   0.875
 3640SOL    HW211820   5.167   2.118   0.741
 3641SOL     OW11821   5.681   3.832   1.246
 3641SOL    HW111822   5.593   3.790   1.225
 3641SOL    HW211823   5.701   3.822   1.343
 3642SOL     OW11824   4.953   2.253   6.620
 3642SOL    HW111825   4.939   2.166   6.667
 3642SOL    HW211826   4.975   2.237   6.524
 3643SOL     OW11827   3.895   6.173   6.068
 3643SOL    HW111828   3.880   6.271   6.074
 3643SOL    HW211829   3.895   6.133   6.160
 3644SOL     OW11830   2.438   0.480   1.681
 3644SOL    HW111831   2.420   0.387   1.713
 3644SOL    HW211832   2.536   0.499   1.687
 3645SOL     OW11833   0.836   3.823   4.127
 3645SOL    HW111834   0.776   3.838   4.049
 3645SOL    HW211835   0.826   3.728   4.159
 3646SOL     OW11836   1.643   4.270   5.065
 3646SOL    HW111837   1.702   4.350   5.072
 3646SOL    HW211838   1.699   4.187   5.062
 3647SOL     OW11839   2.495   6.161   6.762
 3647SOL    HW111840   2.555   6.224   6.811
 3647SOL    HW211841   2.400   6.190   6.774
 3648SOL     OW11842   5.025   6.025   3.118
 3648SOL    HW111843   5.065   5.933   3.117
 3648SOL    HW211844   5.086   6.089   3.071
 3649SOL     OW11845   6.526   3.479   0.212
 3649SOL    HW111846   6.435   3.483   0.253
 3649SOL    HW211847   6.579   3.407   0.256
 3650SOL     OW11848   6.344   4.349   0.663
 3650SOL    HW111849   6.315   4.398   0.581
 3650SOL    HW211850   6.373   4.414   0.733
 3651SOL     OW11851   1.965   0.587   4.504
 3651SOL    HW111852   1.910   0.606   4.423
 3651SOL    HW211853   2.027   0.664   4.521
 3652SOL     OW11854   5.599   6.725   3.039
 3652SOL    HW111855   5.582   6.702   3.135
 3652SOL    HW211856   5.659   6.655   2.999
 3653SOL     OW11857   1.837   1.205   3.260
 3653SOL    HW111858   1.812   1.173   3.169
 3653SOL    HW211859   1.811   1.135   3.327
 3654SOL     OW11860   4.740   5.998   0.298
 3654SOL    HW111861   4.719   5.986   0.201
 3654SOL    HW211862   4.656   5.990   0.352
 3655SOL     OW11863   3.128   1.405   3.968
 3655SOL    HW111864   3.221   1.439   3.965
 3655SOL    HW211865   3.088   1.406   3.876
 3656SOL     OW11866   1.083   5.667   1.464
 3656SOL    HW111867   1.059   5.572   1.445
 3656SOL    HW211868   1.182   5.679   1.451
 3657SOL     OW11869   4.884   5.980   5.255
 3657SOL    HW111870   4.834   6.033   5.186
 3657SOL    HW211871   4.861   5.883   5.245
 3658SOL     OW11872   1.800   5.185   6.629
 3658SOL    HW111873   1.703   5.195   6.651
 3658SOL    HW211874   1.812   5.183   6.530
 3659SOL     OW11875   0.760   1.887   6.698
 3659SOL    HW111876   0.678   1.883   6.641
 3659SOL    HW211877   0.772   1.980   6.733
 3660SOL     OW11878   5.877   5.563   4.706
 3660SOL    HW111879   5.823   5.480   4.709
 3660SOL    HW211880   5.974   5.540   4.711
 3661SOL     OW11881   0.505   0.333   4.567
 3661SOL    HW111882   0.527   0.241   4.533
 3661SOL    HW211883   0.487   0.393   4.489
 3662SOL     OW11884   4.169   0.973   4.281
 3662SOL    HW111885   4.264   0.996   4.303
 3662SOL    HW211886   4.108   1.028   4.339
 3663SOL     OW11887   1.798   2.878   6.960
 3663SOL    HW111888   1.742   2.938   6.903
 3663SOL    HW211889   1.878   2.849   6.909
 3664SOL     OW11890   3.861   1.870   1.625
 3664SOL    HW111891   3.850   1.969   1.641
 3664SOL    HW211892   3.951   1.841   1.658
 3665SOL     OW11893   0.924   5.668   5.692
 3665SOL    HW111894   0.868   5.586   5.685
 3665SOL    HW211895   0.932   5.711   5.602
 3666SOL     OW11896   0.758   3.148   3.341
 3666SOL    HW111897   0.819   3.193   3.276
 3666SOL    HW211898   0.812   3.091   3.404
 3667SOL     OW11899   0.633   1.111   3.824
 3667SOL    HW111900   0.580   1.176   3.770
 3667SOL    HW211901   0.694   1.060   3.764
 3668SOL     OW11902   1.345   0.762   1.242
 3668SOL    HW111903   1.316   0.857   1.254
 3668SOL    HW211904   1.273   0.711   1.194
 3669SOL     OW11905   5.334   1.639   4.011
 3669SOL    HW111906   5.320   1.609   3.916
 3669SOL    HW211907   5.343   1.559   4.070
 3670SOL     OW11908   3.161   4.985   0.851
 3670SOL    HW111909   3.191   4.940   0.767
 3670SOL    HW211910   3.120   4.918   0.913
 3671SOL     OW11911   6.928   0.836   3.807
 3671SOL    HW111912   6.979   0.772   3.865
 3671SOL    HW211913   6.975   0.846   3.719
 3672SOL     OW11914   4.615   1.903   2.523
 3672SOL    HW111915   4.694   1.858   2.481
 3672SOL    HW211916   4.570   1.839   2.585
 3673SOL     OW11917   3.826   5.581   6.792
 3673SOL    HW111918   3.864   5.577   6.884
 3673SOL    HW211919   3.901   5.579   6.725
 3674SOL     OW11920   1.352   5.926   5.347
 3674SOL    HW111921   1.318   5.889   5.260
 3674SOL    HW211922   1.450   5.910   5.355
 3675SOL     OW11923   0.678   2.707   3.998
 3675SOL    HW111924   0.671   2.793   4.049
 3675SOL    HW211925   0.606   2.645   4.027
 3676SOL     OW11926   5.504   3.083   2.691
 3676SOL    HW111927   5.459   3.115   2.775
 3676SOL    HW211928   5.440   3.090   2.614
 3677SOL     OW11929   2.357   0.761   5.052
 3677SOL    HW111930   2.424   0.734   5.121
 3677SOL    HW211931   2.327   0.855   5.069
 3678SOL     OW11932   1.672   1.396   4.226
 3678SOL    HW111933   1.613   1.412   4.147
 3678SOL    HW211934   1.662   1.471   4.291
 3679SOL     OW11935   6.513   0.149   3.743
 3679SOL    HW111936   6.438   0.086   3.722
 3679SOL    HW211937   6.557   0.121   3.828
 3680SOL     OW11938   4.473   2.512   4.422
 3680SOL    HW111939   4.470   2.527   4.520
 3680SOL    HW211940   4.532   2.433   4.402
 3681SOL     OW11941   1.031   0.835   6.124
 3681SOL    HW111942   1.069   0.908   6.180
 3681SOL    HW211943   1.094   0.814   6.049
 3682SOL     OW11944   5.809   2.721   0.318
 3682SOL    HW111945   5.835   2.726   0.222
 3682SOL    HW211946   5.890   2.710   0.375
 3683SOL     OW11947   0.689   1.217   4.595
 3683SOL    HW111948   0.665   1.121   4.576
 3683SOL    HW211949   0.606   1.273   4.593
 3684SOL     OW11950   1.251   6.191   0.003
 3684SOL    HW111951   1.281   6.247   6.951
 3684SOL    HW211952   1.331   6.150   0.047
 3685SOL     OW11953   2.585   6.456   5.165
 3685SOL    HW111954   2.607   6.550   5.192
 3685SOL    HW211955   2.502   6.426   5.213
 3686SOL     OW11956   6.608   4.526   4.233
 3686SOL    HW111957   6.661   4.445   4.258
 3686SOL    HW211958   6.670   4.597   4.199
 3687SOL     OW11959   4.651   6.544   3.545
 3687SOL    HW111960   4.619   6.455   3.577
 3687SOL    HW211961   4.670   6.603   3.623
 3688SOL     OW11962   6.274   3.234   6.868
 3688SOL    HW111963   6.222   3.180   6.802
 3688SOL    HW211964   6.211   3.290   6.922
 3689SOL     OW11965   2.444   2.242   5.496
 3689SOL    HW111966   2.524   2.288   5.457
 3689SOL    HW211967   2.363   2.265   5.442
 3690SOL     OW11968   4.907   5.995   1.075
 3690SOL    HW111969   4.851   5.912   1.075
 3690SOL    HW211970   4.957   6.001   0.988
 3691SOL     OW11971   2.651   1.960   5.971
 3691SOL    HW111972   2.699   1.988   5.889
 3691SOL    HW211973   2.603   2.038   6.010
 3692SOL     OW11974   6.628   4.384   6.261
 3692SOL    HW111975   6.662   4.442   6.335
 3692SOL    HW211976   6.622   4.290   6.293
 3693SOL     OW11977   2.208   1.733   3.172
 3693SOL    HW111978   2.175   1.780   3.254
 3693SOL    HW211979   2.179   1.637   3.175
 3694SOL     OW11980   1.185   6.679   1.666
 3694SOL    HW111981   1.242   6.707   1.743
 3694SOL    HW211982   1.106   6.740   1.659
 3695SOL     OW11983   6.501   1.950   1.990
 3695SOL    HW111984   6.555   1.873   1.955
 3695SOL    HW211985   6.466   1.927   2.081
 3696SOL     OW11986   4.321   6.969   5.670
 3696SOL    HW111987   4.238   6.923   5.639
 3696SOL    HW211988   4.397   6.945   5.610
 3697SOL     OW11989   6.619   6.129   3.138
 3697SOL    HW111990   6.622   6.039   3.181
 3697SOL    HW211991   6.530   6.170   3.153
 3698SOL     OW11992   1.997   1.382   3.682
 3698SOL    HW111993   2.017   1.467   3.732
 3698SOL    HW211994   1.925   1.400   3.615
 3699SOL     OW11995   2.148   1.992   3.569
 3699SOL    HW111996   2.184   1.967   3.659
 3699SOL    HW211997   2.203   2.066   3.531
 3700SOL     OW11998   1.253   5.181   4.737
 3700SOL    HW111999   1.184   5.253   4.744
 3700SOL    HW212000   1.248   5.122   4.818
 3701SOL     OW12001   0.609   6.696   2.635
 3701SOL    HW112002   0.604   6.782   2.686
 3701SOL    HW212003   0.615   6.620   2.699
 3702SOL     OW12004   5.546   6.465   3.338
 3702SOL    HW112005   5.543   6.565   3.331
 3702SOL    HW212006   5.535   6.425   3.247
 3703SOL     OW12007   0.778   0.602   6.539
 3703SOL    HW112008   0.856   0.617   6.479
 3703SOL    HW212009   0.696   0.643   6.498
 3704SOL     OW12010   5.596   2.932   1.036
 3704SOL    HW112011   5.619   3.005   1.100
 3704SOL    HW212012   5.618   2.843   1.077
 3705SOL     OW12013   4.592   4.871   3.618
 3705SOL    HW112014   4.522   4.931   3.657
 3705SOL    HW212015   4.658   4.845   3.688
 3706SOL     OW12016   0.637   4.248   0.206
 3706SOL    HW112017   0.633   4.181   0.131
 3706SOL    HW212018   0.708   4.315   0.186
 3707SOL     OW12019   4.240   5.812   4.025
 3707SOL    HW112020   4.250   5.813   3.925
 3707SOL    HW212021   4.306   5.748   4.064
 3708SOL     OW12022   4.909   6.913   1.371
 3708SOL    HW112023   5.002   6.945   1.354
 3708SOL    HW212024   4.844   6.973   1.324
 3709SOL     OW12025   2.407   0.013   1.360
 3709SOL    HW112026   2.350   7.003   1.433
 3709SOL    HW212027   2.468   6.968   1.326
 3710SOL     OW12028   0.579   5.722   5.001
 3710SOL    HW112029   0.549   5.655   5.068
 3710SOL    HW212030   0.505   5.787   4.982
 3711SOL     OW12031   1.166   6.455   4.945
 3711SOL    HW112032   1.099   6.527   4.958
 3711SOL    HW212033   1.215   6.439   5.032
 3712SOL     OW12034   1.501   6.104   6.825
 3712SOL    HW112035   1.475   6.009   6.809
 3712SOL    HW212036   1.537   6.114   6.918
 3713SOL     OW12037   0.816   0.381   4.933
 3713SOL    HW112038   0.890   0.352   4.993
 3713SOL    HW212039   0.850   0.392   4.840
 3714SOL     OW12040   6.758   5.133   0.232
 3714SOL    HW112041   6.708   5.187   0.164
 3714SOL    HW212042   6.746   5.175   0.323
 3715SOL     OW12043   0.557   5.081   2.593
 3715SOL    HW112044   0.531   4.998   2.642
 3715SOL    HW212045   0.656   5.093   2.598
 3716SOL     OW12046   5.890   5.271   4.614
 3716SOL    HW112047   5.827   5.206   4.572
 3716SOL    HW212048   5.918   5.237   4.704
 3717SOL     OW12049   6.294   1.255   0.867
 3717SOL    HW112050   6.350   1.172   0.863
 3717SOL    HW212051   6.349   1.334   0.838
 3718SOL     OW12052   6.615   0.461   6.926
 3718SOL    HW112053   6.636   0.445   7.022
 3718SOL    HW212054   6.520   0.439   6.908
 3719SOL     OW12055   4.179   3.360   6.119
 3719SOL    HW112056   4.219   3.271   6.096
 3719SOL    HW212057   4.226   3.399   6.198
 3720SOL     OW12058   5.780   3.538   0.602
 3720SOL    HW112059   5.824   3.473   0.664
 3720SOL    HW212060   5.761   3.492   0.515
 3721SOL     OW12061   6.618   5.027   0.597
 3721SOL    HW112062   6.645   5.008   0.692
 3721SOL    HW212063   6.541   5.091   0.597
 3722SOL     OW12064   5.422   6.495   1.727
 3722SOL    HW112065   5.501   6.437   1.745
 3722SOL    HW212066   5.399   6.491   1.630
 3723SOL     OW12067   5.046   5.329   6.971
 3723SOL    HW112068   5.120   5.263   6.955
 3723SOL    HW212069   4.976   5.287   0.001
 3724SOL     OW12070   1.653   4.723   5.271
 3724SOL    HW112071   1.665   4.628   5.303
 3724SOL    HW212072   1.564   4.732   5.227
 3725SOL     OW12073   0.672   6.544   0.001
 3725SOL    HW112074   0.661   6.627   0.055
 3725SOL    HW212075   0.617   6.471   0.040
 3726SOL     OW12076   5.653   3.438   5.759
 3726SOL    HW112077   5.710   3.432   5.677
 3726SOL    HW212078   5.657   3.531   5.795
 3727SOL     OW12079   6.697   3.342   4.794
 3727SOL    HW112080   6.645   3.296   4.866
 3727SOL    HW212081   6.711   3.438   4.820
 3728SOL     OW12082   2.165   3.926   6.566
 3728SOL    HW112083   2.069   3.956   6.570
 3728SOL    HW212084   2.185   3.892   6.475
 3729SOL     OW12085   0.805   0.261   4.035
 3729SOL    HW112086   0.747   0.196   4.084
 3729SOL    HW212087   0.860   0.313   4.100
 3730SOL     OW12088   3.560   6.008   5.633
 3730SOL    HW112089   3.601   6.040   5.719
 3730SOL    HW212090   3.631   6.002   5.563
 3731SOL     OW12091   0.374   1.574   0.115
 3731SOL    HW112092   0.413   1.631   0.043
 3731SOL    HW212093   0.417   1.597   0.202
 3732SOL     OW12094   2.039   2.022   0.437
 3732SOL    HW112095   1.964   2.059   0.383
 3732SOL    HW212096   2.049   1.924   0.418
 3733SOL     OW12097   1.829   2.726   3.723
 3733SOL    HW112098   1.731   2.745   3.711
 3733SOL    HW212099   1.873   2.805   3.766
 3734SOL     OW12100   4.452   0.597   1.587
 3734SOL    HW112101   4.510   0.526   1.628
 3734SOL    HW212102   4.364   0.600   1.634
 3735SOL     OW12103   4.084   0.522   2.657
 3735SOL    HW112104   3.997   0.500   2.614
 3735SOL    HW212105   4.080   0.614   2.697
 3736SOL     OW12106   6.865   1.253   1.483
 3736SOL    HW112107   6.893   1.281   1.575
 3736SOL    HW212108   6.765   1.255   1.476
 3737SOL     OW12109   6.293   2.063   3.620
 3737SOL    HW112110   6.279   1.978   3.672
 3737SOL    HW212111   6.339   2.130   3.678
 3738SOL     OW12112   6.488   6.254   1.092
 3738SOL    HW112113   6.577   6.258   1.045
 3738SOL    HW212114   6.470   6.341   1.137
 3739SOL     OW12115   2.902   4.692   1.678
 3739SOL    HW112116   2.808   4.724   1.678
 3739SOL    HW212117   2.912   4.617   1.744
 3740SOL     OW12118   5.961   5.637   0.508
 3740SOL    HW112119   5.893   5.581   0.459
 3740SOL    HW212120   6.001   5.584   0.583
 3741SOL     OW12121   3.980   2.926   6.598
 3741SOL    HW112122   4.061   2.919   6.656
 3741SOL    HW212123   3.977   3.017   6.556
 3742SOL     OW12124   4.460   0.080   0.541
 3742SOL    HW112125   4.447   0.068   0.640
 3742SOL    HW212126   4.428   7.025   0.493
 3743SOL     OW12127   5.255   4.196   1.545
 3743SOL    HW112128   5.259   4.122   1.611
 3743SOL    HW212129   5.316   4.270   1.574
 3744SOL     OW12130   0.795   6.365   2.449
 3744SOL    HW112131   0.794   6.464   2.434
 3744SOL    HW212132   0.722   6.323   2.395
 3745SOL     OW12133   5.478   3.992   2.312
 3745SOL    HW112134   5.504   3.925   2.381
 3745SOL    HW212135   5.512   3.963   2.222
 3746SOL     OW12136   5.764   0.299   3.433
 3746SOL    HW112137   5.775   0.343   3.344
 3746SOL    HW212138   5.811   0.211   3.432
 3747SOL     OW12139   4.906   6.621   5.529
 3747SOL    HW112140   4.823   6.675   5.541
 3747SOL    HW212141   4.942   6.634   5.437
 3748SOL     OW12142   5.271   0.415   2.344
 3748SOL    HW112143   5.267   0.355   2.424
 3748SOL    HW212144   5.259   0.510   2.372
 3749SOL     OW12145   2.284   4.676   3.310
 3749SOL    HW112146   2.358   4.620   3.271
 3749SOL    HW212147   2.324   4.753   3.359
 3750SOL     OW12148   6.121   4.368   0.896
 3750SOL    HW112149   6.082   4.460   0.899
 3750SOL    HW212150   6.124   4.335   0.802
 3751SOL     OW12151   0.539   2.584   0.964
 3751SOL    HW112152   0.571   2.618   1.053
 3751SOL    HW212153   0.455   2.631   0.939
 3752SOL     OW12154   0.620   6.889   0.454
 3752SOL    HW112155   0.674   6.971   0.436
 3752SOL    HW212156   0.631   6.863   0.550
 3753SOL     OW12157   0.231   6.982   4.026
 3753SOL    HW112158   0.272   0.032   3.976
 3753SOL    HW212159   0.257   6.896   3.983
 3754SOL     OW12160   4.745   6.108   1.700
 3754SOL    HW112161   4.761   6.010   1.698
 3754SOL    HW212162   4.647   6.126   1.702
 3755SOL     OW12163   5.247   5.755   4.950
 3755SOL    HW112164   5.243   5.752   5.050
 3755SOL    HW212165   5.227   5.848   4.918
 3756SOL     OW12166   1.505   0.863   6.495
 3756SOL    HW112167   1.541   0.798   6.561
 3756SOL    HW212168   1.432   0.917   6.538
 3757SOL     OW12169   3.597   5.894   6.846
 3757SOL    HW112170   3.686   5.914   6.804
 3757SOL    HW212171   3.535   5.971   6.832
 3758SOL     OW12172   1.373   1.264   4.188
 3758SOL    HW112173   1.384   1.235   4.093
 3758SOL    HW212174   1.414   1.195   4.249
 3759SOL     OW12175   4.022   4.718   5.363
 3759SOL    HW112176   3.925   4.729   5.343
 3759SOL    HW212177   4.046   4.621   5.358
 3760SOL     OW12178   0.657   3.787   4.419
 3760SOL    HW112179   0.675   3.786   4.518
 3760SOL    HW212180   0.695   3.705   4.377
 3761SOL     OW12181   0.632   6.712   5.117
 3761SOL    HW112182   0.581   6.798   5.122
 3761SOL    HW212183   0.636   6.681   5.022
 3762SOL     OW12184   0.701   5.360   6.875
 3762SOL    HW112185   0.735   5.421   6.947
 3762SOL    HW212186   0.602   5.373   6.864
 3763SOL     OW12187   6.311   5.093   0.363
 3763SOL    HW112188   6.343   5.168   0.305
 3763SOL    HW212189   6.367   5.012   0.347
 3764SOL     OW12190   2.122   0.424   3.928
 3764SOL    HW112191   2.208   0.454   3.885
 3764SOL    HW212192   2.050   0.490   3.907
 3765SOL     OW12193   5.429   1.652   1.966
 3765SOL    HW112194   5.368   1.716   2.013
 3765SOL    HW212195   5.521   1.690   1.964
 3766SOL     OW12196   0.856   0.866   4.588
 3766SOL    HW112197   0.772   0.892   4.634
 3766SOL    HW212198   0.861   0.911   4.499
 3767SOL     OW12199   2.437   5.460   0.616
 3767SOL    HW112200   2.453   5.494   0.709
 3767SOL    HW212201   2.384   5.375   0.620
 3768SOL     OW12202   2.293   5.890   5.741
 3768SOL    HW112203   2.375   5.933   5.703
 3768SOL    HW212204   2.230   5.962   5.773
 3769SOL     OW12205   5.530   5.548   5.624
 3769SOL    HW112206   5.579   5.607   5.560
 3769SOL    HW212207   5.568   5.559   5.716
 3770SOL     OW12208   1.275   0.613   6.746
 3770SOL    HW112209   1.369   0.591   6.720
 3770SOL    HW212210   1.235   0.536   6.796
 3771SOL     OW12211   5.907   2.000   0.334
 3771SOL    HW112212   5.897   2.064   0.258
 3771SOL    HW212213   5.838   1.928   0.326
 3772SOL     OW12214   6.820   1.414   0.830
 3772SOL    HW112215   6.757   1.366   0.890
 3772SOL    HW212216   6.904   1.435   0.880
 3773SOL     OW12217   5.842   2.681   6.215
 3773SOL    HW112218   5.801   2.651   6.301
 3773SOL    HW212219   5.942   2.678   6.223
 3774SOL     OW12220   0.664   6.533   6.740
 3774SOL    HW112221   0.569   6.507   6.724
 3774SOL    HW212222   0.678   6.549   6.838
 3775SOL     OW12223   5.095   4.114   1.893
 3775SOL    HW112224   5.162   4.187   1.877
 3775SOL    HW212225   5.118   4.035   1.837
 3776SOL     OW12226   3.008   1.540   0.849
 3776SOL    HW112227   3.022   1.443   0.824
 3776SOL    HW212228   2.985   1.547   0.946
 3777SOL     OW12229   3.042   4.848   4.218
 3777SOL    HW112230   2.983   4.921   4.252
 3777SOL    HW212231   2.987   4.776   4.177
 3778SOL     OW12232   2.748   5.858   3.002
 3778SOL    HW112233   2.752   5.855   3.102
 3778SOL    HW212234   2.775   5.949   2.970
 3779SOL     OW12235   2.181   4.455   0.918
 3779SOL    HW112236   2.210   4.471   1.013
 3779SOL    HW212237   2.091   4.412   0.917
 3780SOL     OW12238   4.622   4.786   5.763
 3780SOL    HW112239   4.561   4.816   5.690
 3780SOL    HW212240   4.617   4.686   5.773
 3781SOL     OW12241   1.385   6.320   4.477
 3781SOL    HW112242   1.357   6.333   4.573
 3781SOL    HW212243   1.335   6.243   4.439
 3782SOL     OW12244   2.777   2.135   4.482
 3782SOL    HW112245   2.684   2.141   4.447
 3782SOL    HW212246   2.842   2.151   4.407
 3783SOL     OW12247   5.490   6.506   5.274
 3783SOL    HW112248   5.506   6.408   5.266
 3783SOL    HW212249   5.472   6.529   5.369
 3784SOL     OW12250   4.936   1.827   3.485
 3784SOL    HW112251   4.920   1.795   3.392
 3784SOL    HW212252   5.003   1.902   3.483
 3785SOL     OW12253   1.984   1.310   6.991
 3785SOL    HW112254   2.040   1.372   6.936
 3785SOL    HW212255   1.998   1.329   0.062
 3786SOL     OW12256   2.871   6.539   3.468
 3786SOL    HW112257   2.830   6.477   3.401
 3786SOL    HW212258   2.835   6.631   3.456
 3787SOL     OW12259   6.184   6.097   3.657
 3787SOL    HW112260   6.106   6.126   3.712
 3787SOL    HW212261   6.254   6.168   3.658
 3788SOL     OW12262   0.340   2.736   3.286
 3788SOL    HW112263   0.339   2.637   3.303
 3788SOL    HW212264   0.432   2.772   3.302
 3789SOL     OW12265   1.296   3.207   4.053
 3789SOL    HW112266   1.284   3.127   4.111
 3789SOL    HW212267   1.393   3.218   4.031
 3790SOL     OW12268   1.450   3.858   5.165
 3790SOL    HW112269   1.402   3.791   5.109
 3790SOL    HW212270   1.548   3.836   5.167
 3791SOL     OW12271   6.382   0.142   0.941
 3791SOL    HW112272   6.374   0.090   1.026
 3791SOL    HW212273   6.291   0.162   0.905
 3792SOL     OW12274   0.002   0.799   4.189
 3792SOL    HW112275   0.056   0.716   4.176
 3792SOL    HW212276   0.019   0.863   4.114
 3793SOL     OW12277   3.752   6.811   2.803
 3793SOL    HW112278   3.774   6.902   2.767
 3793SOL    HW212279   3.777   6.741   2.737
 3794SOL     OW12280   3.376   4.740   1.334
 3794SOL    HW112281   3.288   4.734   1.381
 3794SOL    HW212282   3.369   4.803   1.257
 3795SOL     OW12283   3.662   6.420   6.994
 3795SOL    HW112284   3.628   6.344   0.023
 3795SOL    HW212285   3.615   6.422   6.906
 3796SOL     OW12286   2.655   2.415   1.386
 3796SOL    HW112287   2.607   2.421   1.298
 3796SOL    HW212288   2.619   2.338   1.438
 3797SOL     OW12289   6.641   4.864   2.375
 3797SOL    HW112290   6.543   4.884   2.370
 3797SOL    HW212291   6.654   4.774   2.416
 3798SOL     OW12292   3.591   5.453   3.342
 3798SOL    HW112293   3.553   5.397   3.268
 3798SOL    HW212294   3.579   5.405   3.430
 3799SOL     OW12295   0.324   2.368   4.509
 3799SOL    HW112296   0.358   2.461   4.523
 3799SOL    HW212297   0.239   2.371   4.456
 3800SOL     OW12298   5.058   2.995   4.750
 3800SOL    HW112299   5.152   2.978   4.781
 3800SOL    HW212300   5.058   3.071   4.685
 3801SOL     OW12301   0.022   6.430   4.479
 3801SOL    HW112302   6.966   6.416   4.534
 3801SOL    HW212303   0.007   6.506   4.416
 3802SOL     OW12304   0.223   1.928   3.961
 3802SOL    HW112305   0.283   1.880   3.897
 3802SOL    HW212306   0.128   1.915   3.934
 3803SOL     OW12307   3.660   1.406   1.781
 3803SOL    HW112308   3.748   1.448   1.758
 3803SOL    HW212309   3.588   1.475   1.774
 3804SOL     OW12310   5.204   1.975   4.187
 3804SOL    HW112311   5.112   1.963   4.149
 3804SOL    HW212312   5.252   2.046   4.136
 3805SOL     OW12313   2.766   3.762   1.689
 3805SOL    HW112314   2.812   3.806   1.767
 3805SOL    HW212315   2.704   3.828   1.646
 3806SOL     OW12316   2.482   3.834   0.267
 3806SOL    HW112317   2.534   3.771   0.324
 3806SOL    HW212318   2.451   3.787   0.184
 3807SOL     OW12319   2.097   0.976   3.885
 3807SOL    HW112320   2.135   1.057   3.841
 3807SOL    HW212321   2.152   0.895   3.862
 3808SOL     OW12322   3.750   1.232   1.316
 3808SOL    HW112323   3.699   1.312   1.286
 3808SOL    HW212324   3.694   1.178   1.379
 3809SOL     OW12325   6.437   2.610   0.576
 3809SOL    HW112326   6.367   2.675   0.545
 3809SOL    HW212327   6.512   2.660   0.618
 3810SOL     OW12328   4.353   2.647   5.278
 3810SOL    HW112329   4.326   2.706   5.354
 3810SOL    HW212330   4.274   2.595   5.246
 3811SOL     OW12331   0.489   4.860   4.778
 3811SOL    HW112332   0.412   4.807   4.743
 3811SOL    HW212333   0.493   4.948   4.731
 3812SOL     OW12334   5.658   1.425   5.450
 3812SOL    HW112335   5.603   1.366   5.391
 3812SOL    HW212336   5.623   1.519   5.445
 3813SOL     OW12337   4.284   4.102   0.790
 3813SOL    HW112338   4.384   4.094   0.787
 3813SOL    HW212339   4.247   4.028   0.847
 3814SOL     OW12340   6.542   6.561   1.646
 3814SOL    HW112341   6.624   6.555   1.589
 3814SOL    HW212342   6.462   6.534   1.592
 3815SOL     OW12343   5.069   2.226   0.230
 3815SOL    HW112344   5.131   2.295   0.192
 3815SOL    HW212345   5.006   2.270   0.295
 3816SOL     OW12346   6.549   6.090   0.643
 3816SOL    HW112347   6.619   6.037   0.691
 3816SOL    HW212348   6.549   6.064   0.546
 3817SOL     OW12349   4.784   2.976   3.960
 3817SOL    HW112350   4.774   2.888   4.007
 3817SOL    HW212351   4.748   2.968   3.867
 3818SOL     OW12352   5.309   6.862   1.113
 3818SOL    HW112353   5.387   6.912   1.076
 3818SOL    HW212354   5.240   6.852   1.042
 3819SOL     OW12355   5.345   5.132   0.652
 3819SOL    HW112356   5.327   5.085   0.565
 3819SOL    HW212357   5.386   5.068   0.717
 3820SOL     OW12358   6.853   0.007   4.130
 3820SOL    HW112359   6.914   0.075   4.088
 3820SOL    HW212360   6.862   6.947   4.081
 3821SOL     OW12361   1.834   3.169   1.928
 3821SOL    HW112362   1.760   3.231   1.905
 3821SOL    HW212363   1.819   3.080   1.885
 3822SOL     OW12364   1.280   5.580   2.647
 3822SOL    HW112365   1.273   5.542   2.739
 3822SOL    HW212366   1.211   5.652   2.636
 3823SOL     OW12367   3.958   2.544   5.606
 3823SOL    HW112368   3.974   2.630   5.656
 3823SOL    HW212369   3.987   2.467   5.663
 3824SOL     OW12370   5.816   1.377   5.917
 3824SOL    HW112371   5.891   1.355   5.980
 3824SOL    HW212372   5.807   1.303   5.850
 3825SOL     OW12373   0.408   0.602   0.717
 3825SOL    HW112374   0.428   0.621   0.621
 3825SOL    HW212375   0.413   0.687   0.770
 3826SOL     OW12376   0.806   3.688   6.517
 3826SOL    HW112377   0.860   3.728   6.592
 3826SOL    HW212378   0.801   3.589   6.529
 3827SOL     OW12379   3.402   3.723   0.640
 3827SOL    HW112380   3.431   3.734   0.545
 3827SOL    HW212381   3.470   3.765   0.701
 3828SOL     OW12382   4.087   2.239   1.360
 3828SOL    HW112383   4.042   2.311   1.413
 3828SOL    HW212384   4.058   2.244   1.265
 3829SOL     OW12385   2.229   4.802   4.186
 3829SOL    HW112386   2.250   4.839   4.277
 3829SOL    HW212387   2.132   4.817   4.166
 3830SOL     OW12388   0.674   0.098   4.521
 3830SOL    HW112389   0.739   0.155   4.471
 3830SOL    HW212390   0.723   0.030   4.574
 3831SOL     OW12391   4.222   1.871   2.268
 3831SOL    HW112392   4.151   1.804   2.247
 3831SOL    HW212393   4.278   1.886   2.187
 3832SOL     OW12394   6.176   0.690   2.579
 3832SOL    HW112395   6.100   0.649   2.530
 3832SOL    HW212396   6.262   0.647   2.549
 3833SOL     OW12397   0.853   5.876   5.902
 3833SOL    HW112398   0.865   5.832   5.814
 3833SOL    HW212399   0.778   5.942   5.896
 3834SOL     OW12400   3.410   2.839   0.314
 3834SOL    HW112401   3.377   2.872   0.226
 3834SOL    HW212402   3.332   2.815   0.372
 3835SOL     OW12403   3.161   4.808   5.233
 3835SOL    HW112404   3.168   4.803   5.133
 3835SOL    HW212405   3.118   4.726   5.268
 3836SOL     OW12406   2.127   3.551   5.115
 3836SOL    HW112407   2.060   3.509   5.175
 3836SOL    HW212408   2.125   3.505   5.026
 3837SOL     OW12409   4.703   3.185   6.504
 3837SOL    HW112410   4.647   3.263   6.475
 3837SOL    HW212411   4.744   3.142   6.423
 3838SOL     OW12412   6.289   3.989   4.152
 3838SOL    HW112413   6.249   3.958   4.066
 3838SOL    HW212414   6.265   3.925   4.225
 3839SOL     OW12415   4.412   0.032   4.269
 3839SOL    HW112416   4.337   0.090   4.302
 3839SOL    HW212417   4.397   6.964   4.302
 3840SOL     OW12418   1.846   1.297   5.537
 3840SOL    HW112419   1.768   1.357   5.519
 3840SOL    HW212420   1.816   1.218   5.590
 3841SOL     OW12421   0.251   3.799   5.214
 3841SOL    HW112422   0.180   3.751   5.265
 3841SOL    HW212423   0.338   3.749   5.224
 3842SOL     OW12424   1.502   5.152   0.513
 3842SOL    HW112425   1.591   5.187   0.482
 3842SOL    HW212426   1.514   5.059   0.548
 3843SOL     OW12427   6.550   3.686   1.348
 3843SOL    HW112428   6.561   3.780   1.313
 3843SOL    HW212429   6.634   3.659   1.396
 3844SOL     OW12430   0.016   4.415   5.335
 3844SOL    HW112431   0.018   4.405   5.236
 3844SOL    HW212432   0.038   4.510   5.360
 3845SOL     OW12433   3.416   2.913   2.847
 3845SOL    HW112434   3.341   2.914   2.913
 3845SOL    HW212435   3.488   2.975   2.878
 3846SOL     OW12436   0.223   4.406   4.220
 3846SOL    HW112437   0.174   4.493   4.233
 3846SOL    HW212438   0.296   4.419   4.154
 3847SOL     OW12439   6.353   1.498   6.188
 3847SOL    HW112440   6.312   1.466   6.103
 3847SOL    HW212441   6.449   1.471   6.191
 3848SOL     OW12442   2.762   5.618   2.896
 3848SOL    HW112443   2.681   5.598   2.841
 3848SOL    HW212444   2.747   5.700   2.950
 3849SOL     OW12445   0.605   1.376   5.493
 3849SOL    HW112446   0.556   1.395   5.578
 3849SOL    HW212447   0.603   1.277   5.474
 3850SOL     OW12448   2.321   3.720   1.693
 3850SOL    HW112449   2.405   3.670   1.670
 3850SOL    HW212450   2.269   3.669   1.761
 3851SOL     OW12451   1.357   4.032   2.674
 3851SOL    HW112452   1.324   3.966   2.741
 3851SOL    HW212453   1.330   4.124   2.702
 3852SOL     OW12454   4.893   6.832   4.696
 3852SOL    HW112455   4.960   6.879   4.754
 3852SOL    HW212456   4.919   6.736   4.686
 3853SOL     OW12457   1.267   3.474   2.799
 3853SOL    HW112458   1.261   3.384   2.756
 3853SOL    HW212459   1.260   3.465   2.898
 3854SOL     OW12460   0.588   3.934   3.170
 3854SOL    HW112461   0.490   3.945   3.153
 3854SOL    HW212462   0.623   3.856   3.118
 3855SOL     OW12463   5.717   5.583   6.963
 3855SOL    HW112464   5.761   5.564   6.875
 3855SOL    HW212465   5.646   5.651   6.951
 3856SOL     OW12466   0.211   6.881   4.816
 3856SOL    HW112467   0.309   6.891   4.832
 3856SOL    HW212468   0.160   6.909   4.897
 3857SOL     OW12469   1.203   6.863   4.951
 3857SOL    HW112470   1.204   6.839   4.854
 3857SOL    HW212471   1.236   6.785   5.005
 3858SOL     OW12472   1.089   5.843   6.042
 3858SOL    HW112473   1.072   5.787   6.123
 3858SOL    HW212474   1.015   5.831   5.976
 3859SOL     OW12475   6.879   1.590   3.118
 3859SOL    HW112476   6.907   1.495   3.124
 3859SOL    HW212477   6.782   1.595   3.092
 3860SOL     OW12478   2.085   6.405   4.441
 3860SOL    HW112479   2.162   6.361   4.487
 3860SOL    HW212480   2.000   6.365   4.474
 3861SOL     OW12481   5.868   4.329   1.376
 3861SOL    HW112482   5.959   4.331   1.335
 3861SOL    HW212483   5.863   4.256   1.445
 3862SOL     OW12484   6.928   6.757   5.621
 3862SOL    HW112485   6.945   6.802   5.534
 3862SOL    HW212486   6.841   6.707   5.615
 3863SOL     OW12487   3.674   4.207   0.151
 3863SOL    HW112488   3.736   4.216   0.073
 3863SOL    HW212489   3.647   4.298   0.183
 3864SOL     OW12490   4.219   2.235   5.914
 3864SOL    HW112491   4.248   2.299   5.985
 3864SOL    HW212492   4.300   2.193   5.872
 3865SOL     OW12493   3.744   0.599   1.324
 3865SOL    HW112494   3.736   0.639   1.232
 3865SOL    HW212495   3.673   0.637   1.383
 3866SOL     OW12496   4.140   0.749   0.484
 3866SOL    HW112497   4.068   0.680   0.491
 3866SOL    HW212498   4.225   0.705   0.455
 3867SOL     OW12499   2.164   3.494   3.565
 3867SOL    HW112500   2.188   3.519   3.659
 3867SOL    HW212501   2.159   3.577   3.509
 3868SOL     OW12502   2.515   5.967   1.938
 3868SOL    HW112503   2.562   6.033   1.879
 3868SOL    HW212504   2.425   6.001   1.962
 3869SOL     OW12505   6.853   2.556   3.867
 3869SOL    HW112506   6.832   2.636   3.922
 3869SOL    HW212507   6.952   2.539   3.870
 3870SOL     OW12508   3.023   5.132   0.027
 3870SOL    HW112509   2.982   5.167   0.111
 3870SOL    HW212510   3.034   5.033   0.033
 3871SOL     OW12511   3.286   0.457   2.190
 3871SOL    HW112512   3.247   0.365   2.189
 3871SOL    HW212513   3.247   0.509   2.267
 3872SOL     OW12514   4.003   3.037   0.934
 3872SOL    HW112515   4.012   3.040   0.834
 3872SOL    HW212516   4.016   2.944   0.967
 3873SOL     OW12517   5.900   5.298   1.533
 3873SOL    HW112518   5.843   5.312   1.614
 3873SOL    HW212519   5.989   5.343   1.546
 3874SOL     OW12520   4.385   6.728   0.204
 3874SOL    HW112521   4.387   6.686   0.295
 3874SOL    HW212522   4.291   6.730   0.171
 3875SOL     OW12523   1.045   3.748   2.932
 3875SOL    HW112524   1.002   3.660   2.913
 3875SOL    HW212525   1.129   3.756   2.879
 3876SOL     OW12526   4.802   5.495   6.385
 3876SOL    HW112527   4.775   5.466   6.293
 3876SOL    HW212528   4.786   5.593   6.395
 3877SOL     OW12529   6.909   1.572   1.283
 3877SOL    HW112530   6.998   1.528   1.282
 3877SOL    HW212531   6.898   1.628   1.201
 3878SOL     OW12532   2.850   6.364   5.916
 3878SOL    HW112533   2.801   6.302   5.855
 3878SOL    HW212534   2.931   6.318   5.952
 3879SOL     OW12535   4.766   5.717   1.118
 3879SOL    HW112536   4.676   5.675   1.119
 3879SOL    HW212537   4.831   5.656   1.074
 3880SOL     OW12538   5.996   4.307   2.443
 3880SOL    HW112539   6.094   4.304   2.460
 3880SOL    HW212540   5.949   4.244   2.505
 3881SOL     OW12541   1.537   5.535   0.662
 3881SOL    HW112542   1.620   5.484   0.639
 3881SOL    HW212543   1.536   5.557   0.760
 3882SOL     OW12544   6.471   1.230   6.121
 3882SOL    HW112545   6.542   1.289   6.158
 3882SOL    HW212546   6.511   1.165   6.056
 3883SOL     OW12547   4.687   1.289   4.211
 3883SOL    HW112548   4.609   1.242   4.169
 3883SOL    HW212549   4.768   1.275   4.154
 3884SOL     OW12550   1.234   6.260   4.734
 3884SOL    HW112551   1.267   6.168   4.755
 3884SOL    HW212552   1.215   6.309   4.819
 3885SOL     OW12553   6.486   1.404   4.491
 3885SOL    HW112554   6.548   1.344   4.541
 3885SOL    HW212555   6.525   1.423   4.400
 3886SOL     OW12556   6.566   0.228   5.664
 3886SOL    HW112557   6.558   0.313   5.716
 3886SOL    HW212558   6.505   0.232   5.585
 3887SOL     OW12559   4.497   1.536   5.508
 3887SOL    HW112560   4.535   1.586   5.586
 3887SOL    HW212561   4.525   1.440   5.513
 3888SOL     OW12562   6.856   1.610   0.084
 3888SOL    HW112563   6.822   1.619   7.017
 3888SOL    HW212564   6.863   1.513   0.107
 3889SOL     OW12565   0.745   5.380   6.216
 3889SOL    HW112566   0.707   5.384   6.308
 3889SOL    HW212567   0.741   5.471   6.174
 3890SOL     OW12568   5.850   6.267   3.233
 3890SOL    HW112569   5.931   6.320   3.209
 3890SOL    HW212570   5.867   6.218   3.319
 3891SOL     OW12571   5.246   5.453   4.780
 3891SOL    HW112572   5.154   5.458   4.820
 3891SOL    HW212573   5.314   5.461   4.853
 3892SOL     OW12574   0.275   6.884   2.706
 3892SOL    HW112575   0.303   6.900   2.611
 3892SOL    HW212576   0.181   6.914   2.719
 3893SOL     OW12577   3.897   5.671   3.765
 3893SOL    HW112578   3.870   5.608   3.837
 3893SOL    HW212579   3.862   5.639   3.677
 3894SOL     OW12580   3.904   2.637   0.290
 3894SOL    HW112581   3.836   2.700   0.327
 3894SOL    HW212582   3.862   2.547   0.278
 3895SOL     OW12583   1.715   1.584   5.216
 3895SOL    HW112584   1.756   1.522   5.150
 3895SOL    HW212585   1.712   1.677   5.179
 3896SOL     OW12586   0.241   1.907   5.927
 3896SOL    HW112587   0.164   1.849   5.955
 3896SOL    HW212588   0.225   2.001   5.956
 3897SOL     OW12589   2.391   6.571   1.984
 3897SOL    HW112590   2.318   6.565   2.053
 3897SOL    HW212591   2.480   6.567   2.029
 3898SOL     OW12592   3.539   3.180   4.085
 3898SOL    HW112593   3.517   3.158   4.180
 3898SOL    HW212594   3.457   3.213   4.039
 3899SOL     OW12595   5.075   1.440   5.313
 3899SOL    HW112596   5.050   1.535   5.294
 3899SOL    HW212597   4.993   1.382   5.307
 3900SOL     OW12598   6.529   2.586   3.113
 3900SOL    HW112599   6.538   2.532   3.196
 3900SOL    HW212600   6.562   2.532   3.035
 3901SOL     OW12601   0.990   6.463   4.521
 3901SOL    HW112602   1.017   6.508   4.606
 3901SOL    HW212603   0.936   6.526   4.465
 3902SOL     OW12604   5.552   4.810   1.515
 3902SOL    HW112605   5.605   4.798   1.431
 3902SOL    HW212606   5.609   4.785   1.594
 3903SOL     OW12607   4.197   2.103   0.213
 3903SOL    HW112608   4.164   2.032   0.275
 3903SOL    HW212609   4.183   2.074   0.118
 3904SOL     OW12610   0.974   0.124   0.079
 3904SOL    HW112611   0.953   0.214   0.117
 3904SOL    HW212612   0.891   0.083   0.041
 3905SOL     OW12613   6.894   6.652   6.219
 3905SOL    HW112614   6.837   6.664   6.138
 3905SOL    HW212615   6.898   6.738   6.270
 3906SOL     OW12616   1.645   4.701   4.291
 3906SOL    HW112617   1.570   4.652   4.337
 3906SOL    HW212618   1.717   4.636   4.268
 3907SOL     OW12619   7.015   0.830   4.702
 3907SOL    HW112620   6.930   0.782   4.678
 3907SOL    HW212621   0.066   0.766   4.696
 3908SOL     OW12622   1.618   0.844   5.473
 3908SOL    HW112623   1.684   0.831   5.399
 3908SOL    HW212624   1.632   0.934   5.514
 3909SOL     OW12625   5.280   2.898   5.730
 3909SOL    HW112626   5.327   2.973   5.777
 3909SOL    HW212627   5.330   2.873   5.647
 3910SOL     OW12628   3.489   3.425   1.689
 3910SOL    HW112629   3.403   3.454   1.647
 3910SOL    HW212630   3.564   3.440   1.625
 3911SOL     OW12631   5.671   0.701   1.769
 3911SOL    HW112632   5.633   0.698   1.676
 3911SOL    HW212633   5.764   0.663   1.769
 3912SOL     OW12634   3.116   2.281   6.977
 3912SOL    HW112635   3.102   2.293   6.879
 3912SOL    HW212636   3.102   2.368   7.024
 3913SOL     OW12637   4.095   6.175   0.606
 3913SOL    HW112638   4.095   6.262   0.655
 3913SOL    HW212639   4.179   6.166   0.553
 3914SOL     OW12640   5.903   1.328   1.024
 3914SOL    HW112641   5.838   1.273   0.971
 3914SOL    HW212642   5.853   1.386   1.087
 3915SOL     OW12643   4.833   5.442   0.423
 3915SOL    HW112644   4.840   5.351   0.383
 3915SOL    HW212645   4.921   5.469   0.461
 3916SOL     OW12646   2.438   0.675   2.928
 3916SOL    HW112647   2.459   0.631   2.841
 3916SOL    HW212648   2.510   0.652   2.995
 3917SOL     OW12649   2.337   5.360   0.936
 3917SOL    HW112650   2.329   5.302   0.855
 3917SOL    HW212651   2.431   5.357   0.970
 3918SOL     OW12652   5.708   0.797   0.846
 3918SOL    HW112653   5.742   0.820   0.937
 3918SOL    HW212654   5.609   0.786   0.849
 3919SOL     OW12655   4.590   0.991   0.836
 3919SOL    HW112656   4.556   1.075   0.878
 3919SOL    HW212657   4.538   0.913   0.870
 3920SOL     OW12658   3.075   1.145   6.144
 3920SOL    HW112659   3.003   1.154   6.076
 3920SOL    HW212660   3.045   1.184   6.231
 3921SOL     OW12661   0.564   2.595   6.150
 3921SOL    HW112662   0.591   2.628   6.240
 3921SOL    HW212663   0.492   2.655   6.113
 3922SOL     OW12664   4.948   4.591   1.627
 3922SOL    HW112665   4.936   4.524   1.554
 3922SOL    HW212666   4.930   4.548   1.715
 3923SOL     OW12667   5.572   1.037   1.718
 3923SOL    HW112668   5.513   1.104   1.762
 3923SOL    HW212669   5.648   1.015   1.779
 3924SOL     OW12670   0.014   4.494   4.529
 3924SOL    HW112671   0.107   4.517   4.559
 3924SOL    HW212672   7.012   4.556   4.456
 3925SOL     OW12673   5.218   3.665   0.255
 3925SOL    HW112674   5.282   3.732   0.217
 3925SOL    HW212675   5.217   3.673   0.355
 3926SOL     OW12676   1.449   0.644   6.117
 3926SOL    HW112677   1.481   0.632   6.211
 3926SOL    HW212678   1.420   0.739   6.104
 3927SOL     OW12679   0.525   2.400   5.256
 3927SOL    HW112680   0.534   2.378   5.353
 3927SOL    HW212681   0.534   2.499   5.243
 3928SOL     OW12682   1.948   6.763   3.221
 3928SOL    HW112683   1.951   6.823   3.301
 3928SOL    HW212684   1.953   6.668   3.250
 3929SOL     OW12685   0.219   1.976   4.840
 3929SOL    HW112686   0.216   2.074   4.820
 3929SOL    HW212687   0.276   1.961   4.921
 3930SOL     OW12688   1.124   3.322   3.595
 3930SOL    HW112689   1.070   3.400   3.564
 3930SOL    HW212690   1.144   3.332   3.692
 3931SOL     OW12691   1.478   2.786   1.780
 3931SOL    HW112692   1.526   2.710   1.825
 3931SOL    HW212693   1.456   2.759   1.685
 3932SOL     OW12694   1.921   6.068   4.126
 3932SOL    HW112695   1.868   6.142   4.085
 3932SOL    HW212696   1.866   6.024   4.198
 3933SOL     OW12697   2.187   5.186   0.448
 3933SOL    HW112698   2.162   5.116   0.515
 3933SOL    HW212699   2.221   5.141   0.365
 3934SOL     OW12700   0.674   1.471   2.866
 3934SOL    HW112701   0.719   1.398   2.814
 3934SOL    HW212702   0.622   1.431   2.942
 3935SOL     OW12703   6.288   3.374   6.540
 3935SOL    HW112704   6.383   3.351   6.564
 3935SOL    HW212705   6.262   3.325   6.457
 3936SOL     OW12706   6.474   5.448   5.515
 3936SOL    HW112707   6.424   5.363   5.500
 3936SOL    HW212708   6.464   5.507   5.435
 3937SOL     OW12709   0.035   6.026   2.688
 3937SOL    HW112710   0.125   6.041   2.730
 3937SOL    HW212711   0.015   5.928   2.688
 3938SOL     OW12712   6.501   3.867   3.578
 3938SOL    HW112713   6.592   3.891   3.544
 3938SOL    HW212714   6.437   3.861   3.502
 3939SOL     OW12715   0.742   1.169   2.482
 3939SOL    HW112716   0.815   1.109   2.515
 3939SOL    HW212717   0.656   1.118   2.480
 3940SOL     OW12718   3.027   4.798   2.048
 3940SOL    HW112719   2.944   4.750   2.018
 3940SOL    HW212720   3.026   4.808   2.147
 3941SOL     OW12721   5.816   6.699   4.333
 3941SOL    HW112722   5.864   6.617   4.302
 3941SOL    HW212723   5.878   6.754   4.389
 3942SOL     OW12724   0.917   6.413   6.383
 3942SOL    HW112725   0.995   6.431   6.324
 3942SOL    HW212726   0.870   6.499   6.404
 3943SOL     OW12727   1.536   3.326   1.832
 3943SOL    HW112728   1.530   3.232   1.799
 3943SOL    HW212729   1.483   3.386   1.772
 3944SOL     OW12730   6.748   2.364   6.564
 3944SOL    HW112731   6.756   2.444   6.505
 3944SOL    HW212732   6.710   2.288   6.511
 3945SOL     OW12733   0.710   1.158   3.032
 3945SOL    HW112734   0.809   1.174   3.023
 3945SOL    HW212735   0.681   1.091   2.965
 3946SOL     OW12736   0.615   2.955   0.537
 3946SOL    HW112737   0.579   2.864   0.516
 3946SOL    HW212738   0.624   3.007   0.452
 3947SOL     OW12739   6.184   5.731   0.956
 3947SOL    HW112740   6.116   5.660   0.968
 3947SOL    HW212741   6.139   5.818   0.938
 3948SOL     OW12742   1.811   2.371   5.930
 3948SOL    HW112743   1.734   2.311   5.948
 3948SOL    HW212744   1.894   2.317   5.917
 3949SOL     OW12745   6.159   6.382   2.179
 3949SOL    HW112746   6.071   6.389   2.228
 3949SOL    HW212747   6.159   6.444   2.101
 3950SOL     OW12748   3.746   4.382   1.244
 3950SOL    HW112749   3.843   4.374   1.217
 3950SOL    HW212750   3.692   4.408   1.164
 3951SOL     OW12751   0.253   1.956   5.550
 3951SOL    HW112752   0.293   2.004   5.472
 3951SOL    HW212753   0.323   1.944   5.621
 3952SOL     OW12754   6.357   2.417   5.423
 3952SOL    HW112755   6.431   2.439   5.486
 3952SOL    HW212756   6.350   2.488   5.353
 3953SOL     OW12757   3.619   4.586   6.408
 3953SOL    HW112758   3.574   4.614   6.323
 3953SOL    HW212759   3.626   4.665   6.469
 3954SOL     OW12760   0.435   3.670   4.880
 3954SOL    HW112761   0.534   3.668   4.898
 3954SOL    HW212762   0.394   3.746   4.931
 3955SOL     OW12763   5.345   5.627   6.755
 3955SOL    HW112764   5.420   5.667   6.807
 3955SOL    HW212765   5.381   5.561   6.689
 3956SOL     OW12766   0.292   2.693   6.043
 3956SOL    HW112767   0.205   2.706   5.996
 3956SOL    HW212768   0.276   2.698   6.142
 3957SOL     OW12769   2.168   6.884   4.231
 3957SOL    HW112770   2.209   6.800   4.266
 3957SOL    HW212771   2.069   6.878   4.236
 3958SOL     OW12772   6.515   6.256   6.163
 3958SOL    HW112773   6.482   6.318   6.092
 3958SOL    HW212774   6.443   6.191   6.188
 3959SOL     OW12775   3.323   5.009   6.906
 3959SOL    HW112776   3.249   5.067   6.872
 3959SOL    HW212777   3.384   5.064   6.963
 3960SOL     OW12778   3.612   3.131   0.103
 3960SOL    HW112779   3.641   3.042   0.067
 3960SOL    HW212780   3.556   3.118   0.184
 3961SOL     OW12781   4.957   1.151   1.788
 3961SOL    HW112782   4.921   1.155   1.696
 3961SOL    HW212783   5.002   1.062   1.803
 3962SOL     OW12784   0.813   6.965   6.783
 3962SOL    HW112785   0.735   6.911   6.749
 3962SOL    HW212786   0.800   6.983   6.880
 3963SOL     OW12787   4.966   5.709   4.296
 3963SOL    HW112788   4.917   5.702   4.382
 3963SOL    HW212789   4.956   5.801   4.259
 3964SOL     OW12790   5.041   5.926   5.677
 3964SOL    HW112791   5.102   5.847   5.673
 3964SOL    HW212792   4.978   5.924   5.600
 3965SOL     OW12793   3.395   4.135   6.938
 3965SOL    HW112794   3.414   4.160   0.007
 3965SOL    HW212795   3.469   4.078   6.903
 3966SOL     OW12796   6.450   4.519   5.352
 3966SOL    HW112797   6.380   4.501   5.421
 3966SOL    HW212798   6.540   4.509   5.393
 3967SOL     OW12799   0.450   6.226   5.704
 3967SOL    HW112800   0.421   6.303   5.648
 3967SOL    HW212801   0.527   6.180   5.659
 3968SOL     OW12802   5.245   1.181   2.692
 3968SOL    HW112803   5.268   1.195   2.788
 3968SOL    HW212804   5.160   1.129   2.685
 3969SOL     OW12805   0.947   4.943   2.879
 3969SOL    HW112806   0.923   5.039   2.882
 3969SOL    HW212807   0.947   4.905   2.972
 3970SOL     OW12808   4.759   4.622   3.327
 3970SOL    HW112809   4.724   4.528   3.328
 3970SOL    HW212810   4.786   4.647   3.234
 3971SOL     OW12811   2.155   6.075   3.400
 3971SOL    HW112812   2.207   6.036   3.476
 3971SOL    HW212813   2.201   6.157   3.366
 3972SOL     OW12814   0.467   6.517   0.761
 3972SOL    HW112815   0.563   6.544   0.771
 3972SOL    HW212816   0.409   6.577   0.816
 3973SOL     OW12817   3.425   4.170   4.222
 3973SOL    HW112818   3.510   4.123   4.243
 3973SOL    HW212819   3.435   4.222   4.137
 3974SOL     OW12820   6.538   1.113   6.368
 3974SOL    HW112821   6.628   1.075   6.390
 3974SOL    HW212822   6.520   1.103   6.270
 3975SOL     OW12823   6.486   1.672   6.417
 3975SOL    HW112824   6.486   1.768   6.447
 3975SOL    HW212825   6.394   1.635   6.425
 3976SOL     OW12826   1.612   4.102   0.714
 3976SOL    HW112827   1.618   4.185   0.658
 3976SOL    HW212828   1.700   4.057   0.717
 3977SOL     OW12829   2.770   6.237   6.392
 3977SOL    HW112830   2.858   6.268   6.428
 3977SOL    HW212831   2.761   6.138   6.405
 3978SOL     OW12832   6.026   1.847   5.579
 3978SOL    HW112833   6.118   1.861   5.541
 3978SOL    HW212834   5.985   1.936   5.600
 3979SOL     OW12835   0.903   6.984   2.298
 3979SOL    HW112836   0.968   6.914   2.270
 3979SOL    HW212837   0.814   6.942   2.317
 3980SOL     OW12838   4.828   3.242   4.342
 3980SOL    HW112839   4.799   3.327   4.298
 3980SOL    HW212840   4.760   3.214   4.409
 3981SOL     OW12841   6.583   2.135   0.801
 3981SOL    HW112842   6.577   2.111   0.704
 3981SOL    HW212843   6.570   2.233   0.812
 3982SOL     OW12844   2.822   2.015   3.962
 3982SOL    HW112845   2.896   1.983   3.903
 3982SOL    HW212846   2.809   1.951   4.038
 3983SOL     OW12847   3.134   6.724   4.078
 3983SOL    HW112848   3.056   6.730   4.141
 3983SOL    HW212849   3.191   6.806   4.088
 3984SOL     OW12850   1.469   6.397   1.914
 3984SOL    HW112851   1.418   6.483   1.901
 3984SOL    HW212852   1.564   6.410   1.884
 3985SOL     OW12853   1.855   3.540   0.130
 3985SOL    HW112854   1.831   3.633   0.105
 3985SOL    HW212855   1.954   3.528   0.125
 3986SOL     OW12856   6.996   2.123   1.529
 3986SOL    HW112857   6.967   2.069   1.450
 3986SOL    HW212858   0.002   2.213   1.498
 3987SOL     OW12859   2.198   5.183   6.348
 3987SOL    HW112860   2.214   5.138   6.260
 3987SOL    HW212861   2.156   5.118   6.412
 3988SOL     OW12862   4.106   2.622   0.062
 3988SOL    HW112863   4.089   2.529   0.030
 3988SOL    HW212864   4.038   2.646   0.131
 3989SOL     OW12865   5.938   6.971   0.069
 3989SOL    HW112866   5.953   7.004   7.001
 3989SOL    HW212867   6.019   6.993   0.124
 3990SOL     OW12868   0.633   2.923   4.359
 3990SOL    HW112869   0.664   2.999   4.302
 3990SOL    HW212870   0.602   2.848   4.301
 3991SOL     OW12871   0.698   2.487   3.681
 3991SOL    HW112872   0.666   2.395   3.703
 3991SOL    HW212873   0.798   2.487   3.680
 3992SOL     OW12874   4.233   3.463   6.362
 3992SOL    HW112875   4.249   3.558   6.389
 3992SOL    HW212876   4.288   3.402   6.419
 3993SOL     OW12877   3.005   2.181   2.835
 3993SOL    HW112878   3.092   2.170   2.883
 3993SOL    HW212879   3.022   2.193   2.738
 3994SOL     OW12880   2.420   2.712   4.187
 3994SOL    HW112881   2.423   2.747   4.280
 3994SOL    HW212882   2.443   2.614   4.187
 3995SOL     OW12883   2.321   4.200   3.637
 3995SOL    HW112884   2.329   4.114   3.586
 3995SOL    HW212885   2.265   4.186   3.719
 3996SOL     OW12886   0.905   0.666   3.887
 3996SOL    HW112887   0.871   0.712   3.805
 3996SOL    HW212888   0.871   0.714   3.968
 3997SOL     OW12889   4.943   3.830   3.110
 3997SOL    HW112890   4.976   3.920   3.138
 3997SOL    HW212891   4.904   3.836   3.018
 3998SOL     OW12892   6.793   2.096   2.976
 3998SOL    HW112893   6.750   2.186   2.985
 3998SOL    HW212894   6.794   2.070   2.879
 3999SOL     OW12895   5.883   4.129   2.629
 3999SOL    HW112896   5.874   4.034   2.599
 3999SOL    HW212897   5.803   4.155   2.684
 4000SOL     OW12898   2.753   5.460   2.611
 4000SOL    HW112899   2.784   5.377   2.658
 4000SOL    HW212900   2.794   5.540   2.654
 4001SOL     OW12901   2.889   3.898   5.557
 4001SOL    HW112902   2.882   3.799   5.565
 4001SOL    HW212903   2.797   3.937   5.553
 4002SOL     OW12904   3.819   3.328   4.758
 4002SOL    HW112905   3.727   3.295   4.737
 4002SOL    HW212906   3.885   3.254   4.742
 4003SOL     OW12907   2.921   1.509   6.225
 4003SOL    HW112908   3.000   1.528   6.167
 4003SOL    HW212909   2.944   1.434   6.288
 4004SOL     OW12910   6.543   3.535   3.095
 4004SOL    HW112911   6.520   3.631   3.108
 4004SOL    HW212912   6.460   3.480   3.092
 4005SOL     OW12913   4.237   3.502   0.538
 4005SOL    HW112914   4.315   3.533   0.591
 4005SOL    HW212915   4.167   3.465   0.600
 4006SOL     OW12916   5.354   5.277   1.971
 4006SOL    HW112917   5.260   5.242   1.973
 4006SOL    HW212918   5.418   5.204   1.997
 4007SOL     OW12919   0.919   2.019   2.883
 4007SOL    HW112920   0.942   2.026   2.786
 4007SOL    HW212921   0.829   2.060   2.898
 4008SOL     OW12922   2.815   0.391   0.360
 4008SOL    HW112923   2.818   0.295   0.386
 4008SOL    HW212924   2.905   0.433   0.374
 4009SOL     OW12925   4.746   1.475   1.322
 4009SOL    HW112926   4.783   1.443   1.409
 4009SOL    HW212927   4.776   1.569   1.306
 4010SOL     OW12928   3.751   4.803   0.888
 4010SOL    HW112929   3.653   4.792   0.874
 4010SOL    HW212930   3.790   4.718   0.923
 4011SOL     OW12931   6.792   6.058   0.796
 4011SOL    HW112932   6.885   6.062   0.757
 4011SOL    HW212933   6.773   5.964   0.824
 4012SOL     OW12934   4.330   0.098   2.127
 4012SOL    HW112935   4.385   0.140   2.200
 4012SOL    HW212936   4.391   0.053   2.062
 4013SOL     OW12937   1.437   0.163   0.418
 4013SOL    HW112938   1.380   0.086   0.391
 4013SOL    HW212939   1.422   0.185   0.514
 4014SOL     OW12940   3.369   6.128   3.728
 4014SOL    HW112941   3.356   6.225   3.709
 4014SOL    HW212942   3.285   6.090   3.766
 4015SOL     OW12943   4.315   4.918   6.204
 4015SOL    HW112944   4.219   4.932   6.180
 4015SOL    HW212945   4.322   4.883   6.298
 4016SOL     OW12946   2.929   5.200   0.274
 4016SOL    HW112947   2.961   5.295   0.274
 4016SOL    HW212948   2.963   5.154   0.356
 4017SOL     OW12949   0.051   4.819   5.166
 4017SOL    HW112950   7.017   4.865   5.101
 4017SOL    HW212951   0.102   4.888   5.219
 4018SOL     OW12952   4.463   6.463   1.951
 4018SOL    HW112953   4.467   6.534   2.022
 4018SOL    HW212954   4.415   6.383   1.987
 4019SOL     OW12955   5.104   3.427   2.011
 4019SOL    HW112956   5.107   3.371   1.928
 4019SOL    HW212957   5.196   3.460   2.032
 4020SOL     OW12958   6.597   3.783   4.841
 4020SOL    HW112959   6.571   3.878   4.826
 4020SOL    HW212960   6.649   3.750   4.762
 4021SOL     OW12961   3.163   3.826   5.642
 4021SOL    HW112962   3.073   3.868   5.659
 4021SOL    HW212963   3.150   3.730   5.616
 4022SOL     OW12964   3.948   6.877   0.394
 4022SOL    HW112965   3.888   6.898   0.472
 4022SOL    HW212966   3.914   6.925   0.313
 4023SOL     OW12967   0.184   1.110   5.500
 4023SOL    HW112968   0.274   1.105   5.543
 4023SOL    HW212969   0.128   1.179   5.546
 4024SOL     OW12970   1.617   5.030   4.511
 4024SOL    HW112971   1.567   5.110   4.544
 4024SOL    HW212972   1.585   5.007   4.419
 4025SOL     OW12973   0.924   5.879   4.360
 4025SOL    HW112974   0.952   5.897   4.454
 4025SOL    HW212975   0.922   5.965   4.309
 4026SOL     OW12976   6.081   6.424   4.983
 4026SOL    HW112977   6.044   6.343   5.029
 4026SOL    HW212978   6.080   6.501   5.046
 4027SOL     OW12979   2.448   1.718   6.748
 4027SOL    HW112980   2.501   1.712   6.833
 4027SOL    HW212981   2.350   1.722   6.769
 4028SOL     OW12982   4.589   1.417   3.475
 4028SOL    HW112983   4.586   1.479   3.397
 4028SOL    HW212984   4.517   1.348   3.466
 4029SOL     OW12985   2.738   3.956   5.841
 4029SOL    HW112986   2.668   3.943   5.771
 4029SOL    HW212987   2.803   4.025   5.810
 4030SOL     OW12988   7.006   1.026   1.470
 4030SOL    HW112989   6.977   0.935   1.500
 4030SOL    HW212990   6.931   1.091   1.485
 4031SOL     OW12991   5.332   6.529   3.167
 4031SOL    HW112992   5.401   6.592   3.201
 4031SOL    HW212993   5.335   6.527   3.067
 4032SOL     OW12994   0.084   0.089   2.674
 4032SOL    HW112995   0.156   0.105   2.741
 4032SOL    HW212996   0.018   0.164   2.677
 4033SOL     OW12997   1.931   2.159   2.415
 4033SOL    HW112998   1.984   2.149   2.499
 4033SOL    HW212999   1.988   2.133   2.337
 4034SOL     OW13000   6.256   2.004   5.461
 4034SOL    HW113001   6.174   2.029   5.410
 4034SOL    HW213002   6.275   2.073   5.531
 4035SOL     OW13003   6.639   1.421   1.776
 4035SOL    HW113004   6.607   1.370   1.856
 4035SOL    HW213005   6.564   1.475   1.739
 4036SOL     OW13006   4.121   4.943   2.136
 4036SOL    HW113007   4.052   4.922   2.205
 4036SOL    HW213008   4.167   5.029   2.159
 4037SOL     OW13009   2.154   1.690   6.178
 4037SOL    HW113010   2.241   1.699   6.227
 4037SOL    HW213011   2.164   1.626   6.103
 4038SOL     OW13012   4.843   2.868   0.022
 4038SOL    HW113013   4.834   2.900   0.116
 4038SOL    HW213014   4.927   2.815   0.012
 4039SOL     OW13015   4.511   5.766   1.488
 4039SOL    HW113016   4.430   5.755   1.546
 4039SOL    HW213017   4.593   5.771   1.545
 4040SOL     OW13018   2.908   6.096   4.674
 4040SOL    HW113019   2.880   6.192   4.681
 4040SOL    HW213020   2.994   6.090   4.624
 4041SOL     OW13021   2.149   6.196   1.377
 4041SOL    HW113022   2.216   6.205   1.303
 4041SOL    HW213023   2.144   6.282   1.428
 4042SOL     OW13024   5.779   6.363   3.928
 4042SOL    HW113025   5.866   6.384   3.884
 4042SOL    HW213026   5.796   6.325   4.019
 4043SOL     OW13027   6.963   2.099   6.559
 4043SOL    HW113028   6.966   2.058   6.650
 4043SOL    HW213029   7.004   2.190   6.561
 4044SOL     OW13030   5.378   5.582   3.030
 4044SOL    HW113031   5.383   5.508   2.962
 4044SOL    HW213032   5.427   5.553   3.113
 4045SOL     OW13033   4.026   6.156   5.804
 4045SOL    HW113034   4.008   6.233   5.742
 4045SOL    HW213035   3.986   6.176   5.893
 4046SOL     OW13036   0.874   2.229   2.316
 4046SOL    HW113037   0.816   2.231   2.398
 4046SOL    HW213038   0.853   2.307   2.258
 4047SOL     OW13039   2.291   2.709   6.854
 4047SOL    HW113040   2.318   2.621   6.893
 4047SOL    HW213041   2.315   2.782   6.917
 4048SOL     OW13042   5.433   1.243   1.815
 4048SOL    HW113043   5.367   1.317   1.800
 4048SOL    HW213044   5.472   1.252   1.907
 4049SOL     OW13045   4.741   5.785   6.387
 4049SOL    HW113046   4.840   5.796   6.390
 4049SOL    HW213047   4.701   5.815   6.473
 4050SOL     OW13048   0.706   6.086   1.762
 4050SOL    HW113049   0.715   6.183   1.738
 4050SOL    HW213050   0.647   6.040   1.696
 4051SOL     OW13051   4.557   1.315   6.374
 4051SOL    HW113052   4.604   1.312   6.286
 4051SOL    HW213053   4.472   1.262   6.368
 4052SOL     OW13054   5.660   2.215   3.193
 4052SOL    HW113055   5.622   2.221   3.285
 4052SOL    HW213056   5.687   2.307   3.162
 4053SOL     OW13057   2.489   6.107   4.734
 4053SOL    HW113058   2.561   6.050   4.774
 4053SOL    HW213059   2.521   6.202   4.728
 4054SOL     OW13060   5.361   3.838   0.814
 4054SOL    HW113061   5.341   3.763   0.876
 4054SOL    HW213062   5.447   3.820   0.767
 4055SOL     OW13063   2.615   4.493   1.101
 4055SOL    HW113064   2.570   4.548   1.172
 4055SOL    HW213065   2.615   4.397   1.128
 4056SOL     OW13066   5.623   3.552   1.033
 4056SOL    HW113067   5.696   3.620   1.025
 4056SOL    HW213068   5.535   3.598   1.043
 4057SOL     OW13069   0.194   3.038   0.274
 4057SOL    HW113070   0.225   2.988   0.194
 4057SOL    HW213071   0.194   2.978   0.354
 4058SOL     OW13072   3.042   6.488   4.718
 4058SOL    HW113073   2.973   6.416   4.708
 4058SOL    HW213074   3.029   6.533   4.806
 4059SOL     OW13075   0.211   1.908   2.792
 4059SOL    HW113076   0.199   1.919   2.693
 4059SOL    HW213077   0.159   1.828   2.823
 4060SOL     OW13078   5.541   4.697   5.737
 4060SOL    HW113079   5.541   4.752   5.653
 4060SOL    HW213080   5.493   4.747   5.809
 4061SOL     OW13081   2.694   4.723   2.574
 4061SOL    HW113082   2.666   4.627   2.568
 4061SOL    HW213083   2.619   4.782   2.543
 4062SOL     OW13084   2.310   0.345   2.420
 4062SOL    HW113085   2.390   0.284   2.426
 4062SOL    HW213086   2.333   0.423   2.362
 4063SOL     OW13087   6.110   0.277   0.623
 4063SOL    HW113088   6.041   0.207   0.605
 4063SOL    HW213089   6.172   0.284   0.545
 4064SOL     OW13090   2.785   1.638   4.464
 4064SOL    HW113091   2.702   1.687   4.437
 4064SOL    HW213092   2.864   1.700   4.459
 4065SOL     OW13093   0.938   6.828   1.579
 4065SOL    HW113094   0.839   6.828   1.565
 4065SOL    HW213095   0.972   6.921   1.575
 4066SOL     OW13096   6.516   4.505   2.745
 4066SOL    HW113097   6.460   4.564   2.804
 4066SOL    HW213098   6.591   4.466   2.798
 4067SOL     OW13099   5.841   3.868   2.936
 4067SOL    HW113100   5.885   3.897   3.021
 4067SOL    HW213101   5.843   3.768   2.931
 4068SOL     OW13102   2.198   2.145   4.443
 4068SOL    HW113103   2.198   2.085   4.364
 4068SOL    HW213104   2.293   2.165   4.470
 4069SOL     OW13105   4.147   5.173   6.946
 4069SOL    HW113106   4.175   5.079   6.926
 4069SOL    HW213107   4.200   5.236   6.890
 4070SOL     OW13108   0.449   2.606   2.750
 4070SOL    HW113109   0.429   2.561   2.837
 4070SOL    HW213110   0.472   2.702   2.766
 4071SOL     OW13111   1.409   1.429   4.758
 4071SOL    HW113112   1.471   1.391   4.689
 4071SOL    HW213113   1.323   1.457   4.713
 4072SOL     OW13114   0.684   5.593   4.661
 4072SOL    HW113115   0.664   5.624   4.568
 4072SOL    HW213116   0.659   5.664   4.726
 4073SOL     OW13117   2.409   6.039   6.489
 4073SOL    HW113118   2.333   6.002   6.541
 4073SOL    HW213119   2.475   6.082   6.552
 4074SOL     OW13120   0.709   4.864   1.291
 4074SOL    HW113121   0.696   4.944   1.349
 4074SOL    HW213122   0.748   4.892   1.203
 4075SOL     OW13123   4.788   1.774   1.199
 4075SOL    HW113124   4.690   1.793   1.200
 4075SOL    HW213125   4.839   1.859   1.185
 4076SOL     OW13126   2.229   3.265   6.633
 4076SOL    HW113127   2.190   3.275   6.541
 4076SOL    HW213128   2.170   3.312   6.699
 4077SOL     OW13129   3.829   2.211   0.521
 4077SOL    HW113130   3.856   2.167   0.436
 4077SOL    HW213131   3.822   2.141   0.593
 4078SOL     OW13132   2.133   5.254   2.338
 4078SOL    HW113133   2.066   5.328   2.342
 4078SOL    HW213134   2.159   5.237   2.243
 4079SOL     OW13135   2.131   1.103   3.414
 4079SOL    HW113136   2.192   1.182   3.420
 4079SOL    HW213137   2.131   1.068   3.321
 4080SOL     OW13138   4.874   2.623   6.411
 4080SOL    HW113139   4.882   2.650   6.315
 4080SOL    HW213140   4.916   2.693   6.469
 4081SOL     OW13141   1.535   2.918   3.924
 4081SOL    HW113142   1.542   2.878   3.833
 4081SOL    HW213143   1.593   2.999   3.930
 4082SOL     OW13144   0.909   4.599   0.607
 4082SOL    HW113145   0.837   4.534   0.630
 4082SOL    HW213146   0.880   4.656   0.530
 4083SOL     OW13147   6.627   3.388   2.537
 4083SOL    HW113148   6.660   3.481   2.517
 4083SOL    HW213149   6.651   3.327   2.461
 4084SOL     OW13150   6.089   2.320   3.723
 4084SOL    HW113151   6.100   2.228   3.685
 4084SOL    HW213152   5.994   2.333   3.751
 4085SOL     OW13153   3.316   5.436   1.257
 4085SOL    HW113154   3.335   5.480   1.345
 4085SOL    HW213155   3.373   5.478   1.186
 4086SOL     OW13156   2.027   5.493   1.576
 4086SOL    HW113157   2.099   5.547   1.620
 4086SOL    HW213158   2.025   5.401   1.615
 4087SOL     OW13159   2.958   2.256   3.453
 4087SOL    HW113160   3.023   2.279   3.380
 4087SOL    HW213161   2.892   2.189   3.419
 4088SOL     OW13162   0.440   1.913   0.884
 4088SOL    HW113163   0.379   1.969   0.829
 4088SOL    HW213164   0.501   1.972   0.937
 4089SOL     OW13165   6.038   6.327   3.820
 4089SOL    HW113166   6.096   6.274   3.882
 4089SOL    HW213167   6.083   6.414   3.800
 4090SOL     OW13168   1.264   4.169   5.946
 4090SOL    HW113169   1.248   4.242   5.879
 4090SOL    HW213170   1.346   4.190   6.000
 4091SOL     OW13171   6.773   6.293   0.534
 4091SOL    HW113172   6.698   6.227   0.539
 4091SOL    HW213173   6.790   6.331   0.625
 4092SOL     OW13174   6.772   2.736   5.023
 4092SOL    HW113175   6.845   2.803   5.010
 4092SOL    HW213176   6.723   2.757   5.108
 4093SOL     OW13177   4.547   0.377   3.104
 4093SOL    HW113178   4.453   0.361   3.136
 4093SOL    HW213179   4.602   0.296   3.122
 4094SOL     OW13180   2.251   5.996   4.560
 4094SOL    HW113181   2.289   5.955   4.643
 4094SOL    HW213182   2.198   5.928   4.510
 4095SOL     OW13183   0.650   3.815   0.180
 4095SOL    HW113184   0.594   3.757   0.120
 4095SOL    HW213185   0.619   3.909   0.174
 4096SOL     OW13186   4.519   5.575   0.511
 4096SOL    HW113187   4.601   5.628   0.492
 4096SOL    HW213188   4.445   5.636   0.538
 4097SOL     OW13189   3.595   4.399   6.101
 4097SOL    HW113190   3.567   4.494   6.106
 4097SOL    HW213191   3.582   4.365   6.008
 4098SOL     OW13192   0.831   3.338   1.606
 4098SOL    HW113193   0.877   3.257   1.642
 4098SOL    HW213194   0.739   3.314   1.575
 4099SOL     OW13195   2.949   4.864   1.290
 4099SOL    HW113196   2.999   4.816   1.363
 4099SOL    HW213197   2.852   4.844   1.297
 4100SOL     OW13198   6.495   5.546   5.249
 4100SOL    HW113199   6.411   5.600   5.256
 4100SOL    HW213200   6.559   5.592   5.188
 4101SOL     OW13201   5.930   1.082   0.416
 4101SOL    HW113202   5.940   1.170   0.461
 4101SOL    HW213203   5.906   1.012   0.484
 4102SOL     OW13204   6.440   0.501   0.526
 4102SOL    HW113205   6.486   0.434   0.585
 4102SOL    HW213206   6.459   0.478   0.430
 4103SOL     OW13207   0.574   0.904   0.285
 4103SOL    HW113208   0.651   0.887   0.224
 4103SOL    HW213209   0.498   0.944   0.232
 4104SOL     OW13210   0.789   4.847   2.655
 4104SOL    HW113211   0.862   4.789   2.619
 4104SOL    HW213212   0.829   4.929   2.697
 4105SOL     OW13213   3.909   5.971   1.638
 4105SOL    HW113214   3.974   5.903   1.603
 4105SOL    HW213215   3.901   6.046   1.572
 4106SOL     OW13216   6.670   1.875   4.448
 4106SOL    HW113217   6.716   1.929   4.378
 4106SOL    HW213218   6.698   1.907   4.539
 4107SOL     OW13219   1.591   6.335   1.128
 4107SOL    HW113220   1.582   6.238   1.109
 4107SOL    HW213221   1.685   6.355   1.158
 4108SOL     OW13222   0.028   4.395   5.661
 4108SOL    HW113223   0.003   4.407   5.565
 4108SOL    HW213224   0.118   4.352   5.667
 4109SOL     OW13225   4.509   6.537   4.942
 4109SOL    HW113226   4.432   6.565   5.000
 4109SOL    HW213227   4.510   6.594   4.859
 4110SOL     OW13228   4.308   2.583   6.668
 4110SOL    HW113229   4.220   2.602   6.623
 4110SOL    HW213230   4.364   2.666   6.666
 4111SOL     OW13231   3.740   3.324   6.534
 4111SOL    HW113232   3.790   3.288   6.613
 4111SOL    HW213233   3.792   3.400   6.494
 4112SOL     OW13234   4.686   0.346   5.388
 4112SOL    HW113235   4.639   0.390   5.311
 4112SOL    HW213236   4.746   0.412   5.433
 4113SOL     OW13237   4.828   6.438   4.362
 4113SOL    HW113238   4.775   6.364   4.319
 4113SOL    HW213239   4.785   6.463   4.449
 4114SOL     OW13240   3.361   2.109   4.394
 4114SOL    HW113241   3.457   2.136   4.383
 4114SOL    HW213242   3.356   2.011   4.413
 4115SOL     OW13243   4.082   5.448   2.144
 4115SOL    HW113244   4.139   5.524   2.114
 4115SOL    HW213245   3.987   5.466   2.120
 4116SOL     OW13246   3.764   2.157   1.700
 4116SOL    HW113247   3.718   2.240   1.733
 4116SOL    HW213248   3.818   2.118   1.775
 4117SOL     OW13249   0.699   5.247   2.108
 4117SOL    HW113250   0.643   5.318   2.151
 4117SOL    HW213251   0.640   5.175   2.072
 4118SOL     OW13252   2.722   6.690   0.159
 4118SOL    HW113253   2.729   6.788   0.140
 4118SOL    HW213254   2.786   6.640   0.100
 4119SOL     OW13255   4.033   2.268   3.824
 4119SOL    HW113256   4.097   2.202   3.783
 4119SOL    HW213257   4.080   2.354   3.839
 4120SOL     OW13258   4.319   0.377   0.481
 4120SOL    HW113259   4.240   0.357   0.540
 4120SOL    HW213260   4.326   0.308   0.409
 4121SOL     OW13261   5.802   1.367   5.056
 4121SOL    HW113262   5.716   1.315   5.053
 4121SOL    HW213263   5.851   1.354   4.970
 4122SOL     OW13264   1.148   5.430   5.370
 4122SOL    HW113265   1.066   5.379   5.398
 4122SOL    HW213266   1.175   5.403   5.278
 4123SOL     OW13267   4.162   4.749   5.884
 4123SOL    HW113268   4.153   4.840   5.923
 4123SOL    HW213269   4.191   4.684   5.955
 4124SOL     OW13270   6.342   5.331   6.422
 4124SOL    HW113271   6.385   5.401   6.364
 4124SOL    HW213272   6.382   5.242   6.401
 4125SOL     OW13273   4.706   1.709   2.280
 4125SOL    HW113274   4.757   1.626   2.255
 4125SOL    HW213275   4.632   1.685   2.343
 4126SOL     OW13276   1.077   3.642   3.661
 4126SOL    HW113277   1.174   3.622   3.678
 4126SOL    HW213278   1.063   3.658   3.563
 4127SOL     OW13279   4.741   4.520   4.814
 4127SOL    HW113280   4.678   4.593   4.840
 4127SOL    HW213281   4.783   4.542   4.726
 4128SOL     OW13282   1.413   3.804   1.952
 4128SOL    HW113283   1.341   3.793   1.884
 4128SOL    HW213284   1.502   3.800   1.907
 4129SOL     OW13285   4.928   1.443   6.788
 4129SOL    HW113286   4.900   1.347   6.783
 4129SOL    HW213287   5.015   1.454   6.740
 4130SOL     OW13288   6.882   2.797   5.599
 4130SOL    HW113289   6.950   2.726   5.619
 4130SOL    HW213290   6.908   2.846   5.516
 4131SOL     OW13291   1.339   6.157   3.869
 4131SOL    HW113292   1.256   6.102   3.871
 4131SOL    HW213293   1.382   6.149   3.779
 4132SOL     OW13294   5.139   4.321   3.708
 4132SOL    HW113295   5.065   4.319   3.641
 4132SOL    HW213296   5.162   4.416   3.730
 4133SOL     OW13297   2.710   0.174   1.893
 4133SOL    HW113298   2.779   0.103   1.880
 4133SOL    HW213299   2.644   0.146   1.962
 4134SOL     OW13300   1.975   2.604   0.322
 4134SOL    HW113301   1.941   2.697   0.338
 4134SOL    HW213302   1.910   2.538   0.359
 4135SOL     OW13303   2.113   1.609   2.545
 4135SOL    HW113304   2.201   1.599   2.499
 4135SOL    HW213305   2.123   1.587   2.642
 4136SOL     OW13306   1.809   1.989   2.602
 4136SOL    HW113307   1.831   2.063   2.538
 4136SOL    HW213308   1.889   1.931   2.615
 4137SOL     OW13309   1.432   4.413   1.022
 4137SOL    HW113310   1.350   4.410   1.079
 4137SOL    HW213311   1.508   4.451   1.075
 4138SOL     OW13312   3.887   5.003   3.021
 4138SOL    HW113313   3.801   4.991   2.971
 4138SOL    HW213314   3.960   4.952   2.975
 4139SOL     OW13315   2.424   2.681   4.670
 4139SOL    HW113316   2.356   2.615   4.702
 4139SOL    HW213317   2.453   2.738   4.746
 4140SOL     OW13318   3.127   0.668   5.139
 4140SOL    HW113319   3.219   0.701   5.120
 4140SOL    HW213320   3.061   0.740   5.116
 4141SOL     OW13321   5.300   6.733   1.671
 4141SOL    HW113322   5.353   6.651   1.691
 4141SOL    HW213323   5.256   6.722   1.581
 4142SOL     OW13324   6.417   5.627   0.872
 4142SOL    HW113325   6.484   5.700   0.861
 4142SOL    HW213326   6.331   5.665   0.906
 4143SOL     OW13327   0.625   2.782   0.163
 4143SOL    HW113328   0.554   2.733   0.112
 4143SOL    HW213329   0.687   2.716   0.205
 4144SOL     OW13330   5.058   3.427   6.416
 4144SOL    HW113331   5.079   3.364   6.341
 4144SOL    HW213332   5.001   3.380   6.483
 4145SOL     OW13333   6.778   5.979   1.475
 4145SOL    HW113334   6.723   5.956   1.394
 4145SOL    HW213335   6.717   5.997   1.552
 4146SOL     OW13336   0.373   1.097   5.679
 4146SOL    HW113337   0.421   1.012   5.702
 4146SOL    HW213338   0.390   1.165   5.751
 4147SOL     OW13339   4.604   2.546   5.481
 4147SOL    HW113340   4.653   2.533   5.395
 4147SOL    HW213341   4.588   2.644   5.496
 4148SOL     OW13342   1.139   0.067   4.129
 4148SOL    HW113343   1.081   0.084   4.209
 4148SOL    HW213344   1.106   0.121   4.052
 4149SOL     OW13345   0.310   2.497   0.692
 4149SOL    HW113346   0.362   2.413   0.696
 4149SOL    HW213347   0.298   2.534   0.784
 4150SOL     OW13348   0.303   0.717   5.361
 4150SOL    HW113349   0.270   0.717   5.266
 4150SOL    HW213350   0.273   0.634   5.407
 4151SOL     OW13351   4.210   6.515   6.056
 4151SOL    HW113352   4.294   6.493   6.007
 4151SOL    HW213353   4.227   6.512   6.154
 4152SOL     OW13354   3.001   6.280   0.849
 4152SOL    HW113355   2.936   6.206   0.830
 4152SOL    HW213356   3.083   6.267   0.794
 4153SOL     OW13357   4.539   4.931   6.960
 4153SOL    HW113358   4.614   4.966   6.903
 4153SOL    HW213359   4.568   4.846   7.004
 4154SOL     OW13360   0.335   4.409   4.688
 4154SOL    HW113361   0.310   4.315   4.665
 4154SOL    HW213362   0.386   4.410   4.773
 4155SOL     OW13363   6.360   2.037   3.019
 4155SOL    HW113364   6.311   1.974   3.078
 4155SOL    HW213365   6.433   1.988   2.971
 4156SOL     OW13366   5.286   6.515   4.679
 4156SOL    HW113367   5.226   6.438   4.700
 4156SOL    HW213368   5.251   6.598   4.722
 4157SOL     OW13369   4.156   6.565   3.929
 4157SOL    HW113370   4.116   6.648   3.968
 4157SOL    HW213371   4.105   6.485   3.961
 4158SOL     OW13372   1.732   5.344   4.276
 4158SOL    HW113373   1.635   5.334   4.299
 4158SOL    HW213374   1.752   5.440   4.258
 4159SOL     OW13375   1.944   2.923   3.874
 4159SOL    HW113376   1.987   3.000   3.826
 4159SOL    HW213377   1.947   2.940   3.973
 4160SOL     OW13378   6.829   0.567   0.954
 4160SOL    HW113379   6.837   0.468   0.966
 4160SOL    HW213380   6.751   0.586   0.894
 4161SOL     OW13381   1.641   0.034   6.173
 4161SOL    HW113382   1.566   0.096   6.198
 4161SOL    HW213383   1.728   0.083   6.179
 4162SOL     OW13384   5.971   6.466   5.327
 4162SOL    HW113385   6.027   6.391   5.361
 4162SOL    HW213386   5.908   6.495   5.399
 4163SOL     OW13387   5.964   0.110   3.410
 4163SOL    HW113388   6.022   0.175   3.359
 4163SOL    HW213389   5.957   0.025   3.358
 4164SOL     OW13390   1.043   6.694   6.024
 4164SOL    HW113391   1.104   6.657   6.094
 4164SOL    HW213392   0.955   6.717   6.065
 4165SOL     OW13393   4.412   0.337   0.186
 4165SOL    HW113394   4.417   0.435   0.163
 4165SOL    HW213395   4.432   0.283   0.104
 4166SOL     OW13396   6.084   3.570   1.195
 4166SOL    HW113397   6.138   3.650   1.221
 4166SOL    HW213398   6.068   3.513   1.276
 4167SOL     OW13399   1.748   4.332   0.551
 4167SOL    HW113400   1.749   4.387   0.635
 4167SOL    HW213401   1.719   4.390   0.474
 4168SOL     OW13402   0.239   5.237   1.161
 4168SOL    HW113403   0.179   5.264   1.236
 4168SOL    HW213404   0.193   5.169   1.104
 4169SOL     OW13405   5.582   3.570   3.301
 4169SOL    HW113406   5.567   3.664   3.332
 4169SOL    HW213407   5.554   3.507   3.373
 4170SOL     OW13408   2.954   3.591   5.017
 4170SOL    HW113409   3.007   3.560   4.938
 4170SOL    HW213410   2.937   3.515   5.079
 4171SOL     OW13411   5.369   4.544   1.426
 4171SOL    HW113412   5.332   4.489   1.351
 4171SOL    HW213413   5.465   4.564   1.408
 4172SOL     OW13414   0.240   1.970   6.450
 4172SOL    HW113415   0.175   2.027   6.402
 4172SOL    HW213416   0.205   1.876   6.454
 4173SOL     OW13417   5.717   3.156   5.230
 4173SOL    HW113418   5.649   3.228   5.217
 4173SOL    HW213419   5.671   3.073   5.260
 4174SOL     OW13420   5.279   0.445   4.296
 4174SOL    HW113421   5.375   0.434   4.321
 4174SOL    HW213422   5.242   0.528   4.337
 4175SOL     OW13423   2.888   5.878   4.458
 4175SOL    HW113424   2.932   5.940   4.522
 4175SOL    HW213425   2.952   5.854   4.385
 4176SOL     OW13426   2.830   6.750   1.999
 4176SOL    HW113427   2.819   6.658   2.035
 4176SOL    HW213428   2.845   6.814   2.075
 4177SOL     OW13429   6.684   4.396   4.859
 4177SOL    HW113430   6.757   4.384   4.791
 4177SOL    HW213431   6.604   4.437   4.815
 4178SOL     OW13432   4.373   0.636   4.212
 4178SOL    HW113433   4.297   0.670   4.156
 4178SOL    HW213434   4.339   0.566   4.275
 4179SOL     OW13435   5.297   2.758   3.835
 4179SOL    HW113436   5.257   2.833   3.781
 4179SOL    HW213437   5.225   2.711   3.885
 4180SOL     OW13438   5.365   3.281   1.805
 4180SOL    HW113439   5.269   3.309   1.808
 4180SOL    HW213440   5.419   3.354   1.763
 4181SOL     OW13441   2.119   2.355   6.129
 4181SOL    HW113442   2.060   2.399   6.197
 4181SOL    HW213443   2.155   2.269   6.167
 4182SOL     OW13444   0.515   6.232   2.658
 4182SOL    HW113445   0.510   6.321   2.702
 4182SOL    HW213446   0.611   6.204   2.650
 4183SOL     OW13447   4.043   1.090   1.045
 4183SOL    HW113448   3.982   1.056   0.973
 4183SOL    HW213449   4.104   1.159   1.007
 4184SOL     OW13450   4.731   4.999   1.258
 4184SOL    HW113451   4.678   5.048   1.189
 4184SOL    HW213452   4.791   4.933   1.213
 4185SOL     OW13453   0.858   5.682   2.808
 4185SOL    HW113454   0.875   5.774   2.772
 4185SOL    HW213455   0.882   5.614   2.738
 4186SOL     OW13456   1.343   4.465   0.506
 4186SOL    HW113457   1.398   4.410   0.444
 4186SOL    HW213458   1.392   4.477   0.592
 4187SOL     OW13459   3.756   3.278   5.903
 4187SOL    HW113460   3.706   3.328   5.975
 4187SOL    HW213461   3.738   3.322   5.815
 4188SOL     OW13462   4.702   6.702   3.763
 4188SOL    HW113463   4.764   6.762   3.713
 4188SOL    HW213464   4.751   6.661   3.840
 4189SOL     OW13465   3.188   1.310   4.660
 4189SOL    HW113466   3.212   1.313   4.757
 4189SOL    HW213467   3.150   1.220   4.638
 4190SOL     OW13468   1.823   0.032   6.469
 4190SOL    HW113469   1.842   7.006   6.386
 4190SOL    HW213470   1.895   0.100   6.483
 4191SOL     OW13471   5.639   3.620   2.763
 4191SOL    HW113472   5.581   3.617   2.845
 4191SOL    HW213473   5.581   3.633   2.682
 4192SOL     OW13474   6.641   0.920   3.840
 4192SOL    HW113475   6.714   0.887   3.780
 4192SOL    HW213476   6.641   1.020   3.841
 4193SOL     OW13477   1.922   6.837   1.432
 4193SOL    HW113478   1.996   6.845   1.499
 4193SOL    HW213479   1.928   6.748   1.386
 4194SOL     OW13480   6.721   1.439   5.578
 4194SOL    HW113481   6.626   1.469   5.585
 4194SOL    HW213482   6.773   1.506   5.524
 4195SOL     OW13483   3.348   0.402   1.407
 4195SOL    HW113484   3.368   0.319   1.355
 4195SOL    HW213485   3.252   0.427   1.394
 4196SOL     OW13486   6.255   1.786   3.682
 4196SOL    HW113487   6.201   1.735   3.616
 4196SOL    HW213488   6.352   1.765   3.669
 4197SOL     OW13489   4.626   4.860   4.477
 4197SOL    HW113490   4.682   4.800   4.419
 4197SOL    HW213491   4.660   4.954   4.471
 4198SOL     OW13492   5.915   3.669   6.723
 4198SOL    HW113493   5.844   3.709   6.665
 4198SOL    HW213494   5.973   3.609   6.668
 4199SOL     OW13495   1.665   3.641   5.993
 4199SOL    HW113496   1.721   3.702   5.937
 4199SOL    HW213497   1.721   3.599   6.064
 4200SOL     OW13498   2.946   6.605   5.007
 4200SOL    HW113499   2.888   6.530   5.040
 4200SOL    HW213500   2.984   6.655   5.085
 4201SOL     OW13501   5.497   6.464   4.089
 4201SOL    HW113502   5.444   6.396   4.038
 4201SOL    HW213503   5.538   6.528   4.024
 4202SOL     OW13504   4.114   5.526   5.834
 4202SOL    HW113505   4.133   5.624   5.831
 4202SOL    HW213506   4.018   5.509   5.812
 4203SOL     OW13507   4.404   5.795   2.257
 4203SOL    HW113508   4.325   5.755   2.210
 4203SOL    HW213509   4.386   5.892   2.275
 4204SOL     OW13510   3.612   2.820   2.122
 4204SOL    HW113511   3.656   2.781   2.202
 4204SOL    HW213512   3.514   2.833   2.141
 4205SOL     OW13513   3.463   5.262   4.508
 4205SOL    HW113514   3.425   5.265   4.416
 4205SOL    HW213515   3.563   5.258   4.504
 4206SOL     OW13516   5.451   1.166   5.961
 4206SOL    HW113517   5.431   1.224   6.040
 4206SOL    HW213518   5.545   1.132   5.968
 4207SOL     OW13519   2.162   1.910   1.578
 4207SOL    HW113520   2.076   1.882   1.536
 4207SOL    HW213521   2.232   1.840   1.560
 4208SOL     OW13522   1.232   2.198   0.447
 4208SOL    HW113523   1.308   2.134   0.433
 4208SOL    HW213524   1.176   2.203   0.365
 4209SOL     OW13525   1.110   1.531   4.662
 4209SOL    HW113526   1.100   1.593   4.584
 4209SOL    HW213527   1.075   1.574   4.744
 4210SOL     OW13528   3.352   3.374   1.901
 4210SOL    HW113529   3.422   3.382   1.830
 4210SOL    HW213530   3.326   3.465   1.932
 4211SOL     OW13531   4.841   6.171   6.130
 4211SOL    HW113532   4.893   6.161   6.214
 4211SOL    HW213533   4.748   6.138   6.143
 4212SOL     OW13534   6.242   2.033   2.221
 4212SOL    HW113535   6.277   1.966   2.287
 4212SOL    HW213536   6.262   2.125   2.253
 4213SOL     OW13537   2.291   1.172   2.777
 4213SOL    HW113538   2.321   1.267   2.773
 4213SOL    HW213539   2.368   1.112   2.755
 4214SOL     OW13540   6.488   4.100   5.877
 4214SOL    HW113541   6.576   4.113   5.923
 4214SOL    HW213542   6.414   4.129   5.937
 4215SOL     OW13543   6.847   5.838   5.222
 4215SOL    HW113544   6.770   5.816   5.283
 4215SOL    HW213545   6.865   5.936   5.224
 4216SOL     OW13546   1.585   2.008   3.027
 4216SOL    HW113547   1.524   2.083   3.050
 4216SOL    HW213548   1.531   1.926   3.007
 4217SOL     OW13549   5.770   0.379   3.179
 4217SOL    HW113550   5.844   0.446   3.185
 4217SOL    HW213551   5.707   0.406   3.106
 4218SOL     OW13552   5.033   0.295   1.668
 4218SOL    HW113553   4.974   0.364   1.710
 4218SOL    HW213554   5.127   0.329   1.667
 4219SOL     OW13555   2.873   5.201   5.136
 4219SOL    HW113556   2.849   5.106   5.156
 4219SOL    HW213557   2.970   5.215   5.155
 4220SOL     OW13558   6.387   3.066   3.309
 4220SOL    HW113559   6.457   3.046   3.378
 4220SOL    HW213560   6.322   2.990   3.304
 4221SOL     OW13561   6.543   5.901   6.324
 4221SOL    HW113562   6.477   5.919   6.397
 4221SOL    HW213563   6.633   5.936   6.350
 4222SOL     OW13564   6.030   2.166   2.092
 4222SOL    HW113565   6.095   2.239   2.070
 4222SOL    HW213566   6.070   2.105   2.160
 4223SOL     OW13567   3.469   3.050   4.328
 4223SOL    HW113568   3.471   3.045   4.428
 4223SOL    HW213569   3.375   3.037   4.296
 4224SOL     OW13570   4.974   3.098   4.169
 4224SOL    HW113571   4.930   3.090   4.080
 4224SOL    HW213572   4.908   3.131   4.237
 4225SOL     OW13573   5.317   0.929   5.196
 4225SOL    HW113574   5.412   0.938   5.223
 4225SOL    HW213575   5.309   0.856   5.127
 4226SOL     OW13576   2.264   0.295   3.114
 4226SOL    HW113577   2.217   0.352   3.181
 4226SOL    HW213578   2.251   0.198   3.137
 4227SOL     OW13579   3.234   4.482   6.412
 4227SOL    HW113580   3.198   4.390   6.431
 4227SOL    HW213581   3.329   4.476   6.384
 4228SOL     OW13582   6.061   4.903   3.541
 4228SOL    HW113583   6.011   4.857   3.615
 4228SOL    HW213584   6.033   4.998   3.535
 4229SOL     OW13585   4.063   4.785   6.394
 4229SOL    HW113586   4.025   4.836   6.317
 4229SOL    HW213587   4.062   4.842   6.476
 4230SOL     OW13588   2.460   0.602   4.856
 4230SOL    HW113589   2.381   0.621   4.797
 4230SOL    HW213590   2.458   0.662   4.936
 4231SOL     OW13591   5.229   6.345   4.936
 4231SOL    HW113592   5.176   6.381   4.859
 4231SOL    HW213593   5.183   6.368   5.021
 4232SOL     OW13594   0.702   5.187   1.756
 4232SOL    HW113595   0.693   5.272   1.808
 4232SOL    HW213596   0.788   5.186   1.706
 4233SOL     OW13597   6.599   0.259   0.137
 4233SOL    HW113598   6.516   0.205   0.125
 4233SOL    HW213599   6.671   0.202   0.176
 4234SOL     OW13600   1.662   6.379   5.308
 4234SOL    HW113601   1.581   6.411   5.357
 4234SOL    HW213602   1.645   6.287   5.273
 4235SOL     OW13603   5.684   4.267   5.413
 4235SOL    HW113604   5.742   4.185   5.408
 4235SOL    HW213605   5.712   4.322   5.492
 4236SOL     OW13606   6.732   2.909   2.755
 4236SOL    HW113607   6.770   2.890   2.845
 4236SOL    HW213608   6.702   3.004   2.750
 4237SOL     OW13609   6.443   4.370   4.091
 4237SOL    HW113610   6.491   4.446   4.134
 4237SOL    HW213611   6.411   4.307   4.162
 4238SOL     OW13612   4.322   4.616   3.850
 4238SOL    HW113613   4.392   4.550   3.876
 4238SOL    HW213614   4.290   4.665   3.931
 4239SOL     OW13615   5.428   7.006   4.378
 4239SOL    HW113616   5.507   0.019   4.424
 4239SOL    HW213617   5.458   6.935   4.314
 4240SOL     OW13618   2.232   5.954   6.297
 4240SOL    HW113619   2.298   6.009   6.350
 4240SOL    HW213620   2.185   6.013   6.231
 4241SOL     OW13621   6.135   0.199   0.871
 4241SOL    HW113622   6.060   0.256   0.904
 4241SOL    HW213623   6.164   0.230   0.781
 4242SOL     OW13624   2.205   0.037   3.186
 4242SOL    HW113625   2.146   6.993   3.226
 4242SOL    HW213626   2.265   7.020   3.118
 4243SOL     OW13627   0.875   3.518   2.886
 4243SOL    HW113628   0.829   3.523   2.975
 4243SOL    HW213629   0.892   3.423   2.862
 4244SOL     OW13630   4.887   5.775   1.358
 4244SOL    HW113631   4.854   5.697   1.411
 4244SOL    HW213632   4.838   5.779   1.271
 4245SOL     OW13633   6.924   2.454   0.203
 4245SOL    HW113634   6.975   2.370   0.184
 4245SOL    HW213635   6.912   2.463   0.302
 4246SOL     OW13636   5.230   3.529   2.967
 4246SOL    HW113637   5.285   3.499   2.889
 4246SOL    HW213638   5.135   3.539   2.939
 4247SOL     OW13639   2.179   5.188   4.551
 4247SOL    HW113640   2.266   5.209   4.596
 4247SOL    HW213641   2.115   5.151   4.619
 4248SOL     OW13642   1.557   0.687   3.321
 4248SOL    HW113643   1.647   0.658   3.353
 4248SOL    HW213644   1.492   0.612   3.330
 4249SOL     OW13645   0.040   1.766   3.610
 4249SOL    HW113646   0.084   1.692   3.558
 4249SOL    HW213647   6.972   1.741   3.630
 4250SOL     OW13648   6.971   5.775   4.274
 4250SOL    HW113649   0.014   5.848   4.278
 4250SOL    HW213650   6.972   5.724   4.359
 4251SOL     OW13651   6.141   2.327   6.669
 4251SOL    HW113652   6.045   2.343   6.648
 4251SOL    HW213653   6.190   2.305   6.584
 4252SOL     OW13654   6.023   5.821   6.370
 4252SOL    HW113655   6.066   5.903   6.334
 4252SOL    HW213656   5.966   5.780   6.299
 4253SOL     OW13657   3.457   6.275   2.583
 4253SOL    HW113658   3.468   6.357   2.526
 4253SOL    HW213659   3.533   6.268   2.647
 4254SOL     OW13660   2.114   4.695   1.729
 4254SOL    HW113661   2.059   4.612   1.733
 4254SOL    HW213662   2.211   4.671   1.722
 4255SOL     OW13663   0.070   3.257   4.081
 4255SOL    HW113664   0.147   3.284   4.024
 4255SOL    HW213665   7.014   3.305   4.051
 4256SOL     OW13666   0.957   5.578   2.144
 4256SOL    HW113667   0.957   5.479   2.159
 4256SOL    HW213668   0.864   5.610   2.125
 4257SOL     OW13669   6.491   1.002   4.854
 4257SOL    HW113670   6.570   0.945   4.872
 4257SOL    HW213671   6.519   1.098   4.849
 4258SOL     OW13672   3.470   5.760   1.189
 4258SOL    HW113673   3.559   5.759   1.235
 4258SOL    HW213674   3.458   5.677   1.136
 4259SOL     OW13675   1.725   6.893   0.895
 4259SOL    HW113676   1.752   6.961   0.826
 4259SOL    HW213677   1.807   6.853   0.936
 4260SOL     OW13678   5.158   0.012   3.994
 4260SOL    HW113679   5.241   7.008   3.946
 4260SOL    HW213680   5.169   7.023   4.092
 4261SOL     OW13681   1.941   6.987   3.678
 4261SOL    HW113682   1.844   6.986   3.701
 4261SOL    HW213683   1.981   0.048   3.707
 4262SOL     OW13684   1.832   4.646   5.877
 4262SOL    HW113685   1.848   4.566   5.935
 4262SOL    HW213686   1.735   4.669   5.878
 4263SOL     OW13687   3.046   1.724   3.337
 4263SOL    HW113688   3.065   1.627   3.355
 4263SOL    HW213689   3.054   1.776   3.423
 4264SOL     OW13690   5.977   1.302   4.375
 4264SOL    HW113691   5.899   1.335   4.427
 4264SOL    HW213692   5.950   1.289   4.280
 4265SOL     OW13693   3.329   0.435   0.588
 4265SOL    HW113694   3.373   0.388   0.511
 4265SOL    HW213695   3.276   0.370   0.642
 4266SOL     OW13696   1.963   0.039   6.777
 4266SOL    HW113697   1.885   0.080   6.729
 4266SOL    HW213698   2.036   0.019   6.712
 4267SOL     OW13699   2.112   3.647   3.788
 4267SOL    HW113700   2.131   3.692   3.875
 4267SOL    HW213701   2.034   3.585   3.799
 4268SOL     OW13702   2.131   5.157   6.683
 4268SOL    HW113703   2.194   5.157   6.760
 4268SOL    HW213704   2.054   5.217   6.703
 4269SOL     OW13705   3.522   1.691   3.785
 4269SOL    HW113706   3.515   1.650   3.875
 4269SOL    HW213707   3.435   1.681   3.737
 4270SOL     OW13708   3.955   3.108   1.410
 4270SOL    HW113709   3.941   3.171   1.487
 4270SOL    HW213710   4.019   3.037   1.438
 4271SOL     OW13711   6.544   0.923   0.162
 4271SOL    HW113712   6.614   0.955   0.099
 4271SOL    HW213713   6.510   1.000   0.216
 4272SOL     OW13714   6.825   3.377   5.783
 4272SOL    HW113715   6.921   3.396   5.762
 4272SOL    HW213716   6.795   3.435   5.859
 4273SOL     OW13717   4.852   6.317   5.073
 4273SOL    HW113718   4.790   6.241   5.093
 4273SOL    HW213719   4.873   6.367   5.157
 4274SOL     OW13720   0.498   6.590   2.110
 4274SOL    HW113721   0.498   6.614   2.207
 4274SOL    HW213722   0.425   6.524   2.092
 4275SOL     OW13723   0.239   2.010   4.253
 4275SOL    HW113724   0.314   2.076   4.251
 4275SOL    HW213725   0.241   1.956   4.169
 4276SOL     OW13726   3.059   5.161   3.155
 4276SOL    HW113727   2.976   5.108   3.138
 4276SOL    HW213728   3.079   5.219   3.076
 4277SOL     OW13729   7.025   4.937   3.684
 4277SOL    HW113730   6.944   4.883   3.707
 4277SOL    HW213731   0.047   4.962   3.767
 4278SOL     OW13732   6.782   6.510   4.047
 4278SOL    HW113733   6.875   6.481   4.025
 4278SOL    HW213734   6.736   6.439   4.100
 4279SOL     OW13735   1.924   0.766   2.309
 4279SOL    HW113736   1.977   0.838   2.354
 4279SOL    HW213737   1.935   0.772   2.210
 4280SOL     OW13738   5.937   6.910   6.170
 4280SOL    HW113739   5.987   6.832   6.133
 4280SOL    HW213740   5.897   6.963   6.095
 4281SOL     OW13741   4.701   5.130   4.205
 4281SOL    HW113742   4.607   5.114   4.236
 4281SOL    HW213743   4.702   5.204   4.138
 4282SOL     OW13744   3.411   4.406   0.542
 4282SOL    HW113745   3.506   4.383   0.564
 4282SOL    HW213746   3.409   4.485   0.481
 4283SOL     OW13747   4.945   1.264   3.507
 4283SOL    HW113748   4.906   1.249   3.416
 4283SOL    HW213749   4.992   1.352   3.508
 4284SOL     OW13750   3.921   5.642   0.024
 4284SOL    HW113751   3.927   5.557   0.076
 4284SOL    HW213752   3.832   5.685   0.041
 4285SOL     OW13753   3.095   0.766   6.127
 4285SOL    HW113754   3.127   0.704   6.055
 4285SOL    HW213755   3.065   0.852   6.087
 4286SOL     OW13756   0.008   0.542   6.277
 4286SOL    HW113757   7.013   0.597   6.197
 4286SOL    HW213758   6.984   0.578   6.356
 4287SOL     OW13759   4.802   1.329   6.478
 4287SOL    HW113760   4.710   1.320   6.440
 4287SOL    HW213761   4.804   1.406   6.541
 4288SOL     OW13762   6.697   5.892   2.502
 4288SOL    HW113763   6.678   5.814   2.443
 4288SOL    HW213764   6.766   5.950   2.460
 4289SOL     OW13765   0.863   2.121   5.342
 4289SOL    HW113766   0.885   2.217   5.326
 4289SOL    HW213767   0.898   2.066   5.266
 4290SOL     OW13768   0.168   6.511   3.780
 4290SOL    HW113769   0.115   6.511   3.865
 4290SOL    HW213770   0.243   6.447   3.787
 4291SOL     OW13771   4.645   2.859   6.619
 4291SOL    HW113772   4.744   2.854   6.614
 4291SOL    HW213773   4.608   2.892   6.532
 4292SOL     OW13774   5.829   2.686   0.052
 4292SOL    HW113775   5.913   2.685   7.023
 4292SOL    HW213776   5.800   2.591   0.068
 4293SOL     OW13777   4.489   3.612   6.778
 4293SOL    HW113778   4.576   3.659   6.759
 4293SOL    HW213779   4.478   3.603   6.877
 4294SOL     OW13780   2.522   2.338   6.156
 4294SOL    HW113781   2.605   2.367   6.110
 4294SOL    HW213782   2.471   2.276   6.097
 4295SOL     OW13783   4.000   6.428   2.910
 4295SOL    HW113784   4.095   6.422   2.939
 4295SOL    HW213785   3.977   6.524   2.893
 4296SOL     OW13786   3.199   6.844   1.013
 4296SOL    HW113787   3.196   6.869   0.916
 4296SOL    HW213788   3.287   6.871   1.052
 4297SOL     OW13789   6.547   6.027   1.747
 4297SOL    HW113790   6.537   6.126   1.743
 4297SOL    HW213791   6.591   6.001   1.833
 4298SOL     OW13792   3.703   6.383   1.401
 4298SOL    HW113793   3.768   6.455   1.427
 4298SOL    HW213794   3.613   6.423   1.387
 4299SOL     OW13795   0.638   3.286   0.063
 4299SOL    HW113796   0.622   3.344   7.009
 4299SOL    HW213797   0.560   3.226   0.076
 4300SOL     OW13798   2.660   0.508   1.163
 4300SOL    HW113799   2.607   0.440   1.214
 4300SOL    HW213800   2.598   0.577   1.126
 4301SOL     OW13801   2.856   7.003   1.491
 4301SOL    HW113802   2.806   0.054   1.530
 4301SOL    HW213803   2.797   6.922   1.488
 4302SOL     OW13804   6.591   6.970   6.849
 4302SOL    HW113805   6.588   0.043   6.858
 4302SOL    HW213806   6.686   6.939   6.841
 4303SOL     OW13807   0.313   4.583   3.412
 4303SOL    HW113808   0.276   4.661   3.464
 4303SOL    HW213809   0.352   4.616   3.326
 4304SOL     OW13810   3.747   4.220   1.805
 4304SOL    HW113811   3.793   4.136   1.776
 4304SOL    HW213812   3.744   4.223   1.905
 4305SOL     OW13813   0.490   6.880   4.806
 4305SOL    HW113814   0.513   6.800   4.751
 4305SOL    HW213815   0.570   6.940   4.814
 4306SOL     OW13816   4.787   4.276   4.994
 4306SOL    HW113817   4.777   4.193   4.938
 4306SOL    HW213818   4.769   4.357   4.937
 4307SOL     OW13819   5.596   2.990   5.728
 4307SOL    HW113820   5.541   2.939   5.662
 4307SOL    HW213821   5.648   2.926   5.785
 4308SOL     OW13822   5.483   5.062   1.593
 4308SOL    HW113823   5.390   5.094   1.572
 4308SOL    HW213824   5.504   4.982   1.536
 4309SOL     OW13825   1.265   3.496   6.916
 4309SOL    HW113826   1.284   3.469   7.011
 4309SOL    HW213827   1.315   3.435   6.854
 4310SOL     OW13828   1.269   2.895   1.934
 4310SOL    HW113829   1.334   2.840   1.882
 4310SOL    HW213830   1.185   2.843   1.949
 4311SOL     OW13831   1.072   6.654   2.013
 4311SOL    HW113832   1.039   6.563   1.990
 4311SOL    HW213833   1.012   6.722   1.970
 4312SOL     OW13834   1.142   5.362   2.595
 4312SOL    HW113835   1.200   5.443   2.596
 4312SOL    HW213836   1.190   5.285   2.638
 4313SOL     OW13837   3.570   2.049   6.988
 4313SOL    HW113838   3.609   2.118   6.927
 4313SOL    HW213839   3.500   2.091   0.020
 4314SOL     OW13840   6.384   1.796   5.257
 4314SOL    HW113841   6.304   1.737   5.271
 4314SOL    HW213842   6.365   1.887   5.293
 4315SOL     OW13843   1.956   1.736   4.036
 4315SOL    HW113844   1.964   1.652   4.090
 4315SOL    HW213845   1.880   1.727   3.972
 4316SOL     OW13846   4.991   6.702   2.959
 4316SOL    HW113847   4.917   6.728   2.896
 4316SOL    HW213848   4.986   6.604   2.978
 4317SOL     OW13849   4.456   0.934   5.447
 4317SOL    HW113850   4.383   0.979   5.499
 4317SOL    HW213851   4.525   0.898   5.509
 4318SOL     OW13852   0.599   0.652   4.193
 4318SOL    HW113853   0.603   0.557   4.165
 4318SOL    HW213854   0.598   0.657   4.293
 4319SOL     OW13855   1.963   1.807   1.379
 4319SOL    HW113856   1.918   1.726   1.418
 4319SOL    HW213857   1.897   1.860   1.326
 4320SOL     OW13858   3.842   6.115   0.420
 4320SOL    HW113859   3.822   6.211   0.402
 4320SOL    HW213860   3.926   6.108   0.473
 4321SOL     OW13861   6.907   5.083   3.474
 4321SOL    HW113862   6.957   5.047   3.553
 4321SOL    HW213863   6.961   5.068   3.391
 4322SOL     OW13864   0.003   3.221   5.603
 4322SOL    HW113865   6.939   3.194   5.569
 4322SOL    HW213866   0.044   3.286   5.539
 4323SOL     OW13867   4.135   5.350   0.120
 4323SOL    HW113868   4.127   5.284   0.046
 4323SOL    HW213869   4.209   5.414   0.099
 4324SOL     OW13870   6.745   3.155   5.638
 4324SOL    HW113871   6.713   3.087   5.704
 4324SOL    HW213872   6.776   3.237   5.686
 4325SOL     OW13873   2.523   1.719   2.305
 4325SOL    HW113874   2.620   1.719   2.280
 4325SOL    HW213875   2.469   1.689   2.226
 4326SOL     OW13876   5.451   2.946   2.318
 4326SOL    HW113877   5.443   2.926   2.221
 4326SOL    HW213878   5.545   2.974   2.339
 4327SOL     OW13879   3.936   5.602   3.090
 4327SOL    HW113880   4.027   5.640   3.101
 4327SOL    HW213881   3.941   5.502   3.093
 4328SOL     OW13882   6.476   4.486   4.728
 4328SOL    HW113883   6.507   4.465   4.635
 4328SOL    HW213884   6.376   4.491   4.729
 4329SOL     OW13885   5.728   3.433   5.484
 4329SOL    HW113886   5.713   3.338   5.512
 4329SOL    HW213887   5.763   3.436   5.390
 4330SOL     OW13888   1.982   6.588   4.824
 4330SOL    HW113889   1.924   6.632   4.756
 4330SOL    HW213890   1.971   6.488   4.817
 4331SOL     OW13891   0.352   0.177   1.586
 4331SOL    HW113892   0.268   0.203   1.539
 4331SOL    HW213893   0.428   0.230   1.548
 4332SOL     OW13894   5.868   3.557   2.605
 4332SOL    HW113895   5.950   3.607   2.633
 4332SOL    HW213896   5.788   3.599   2.646
 4333SOL     OW13897   5.013   2.114   5.024
 4333SOL    HW113898   5.014   2.067   4.936
 4333SOL    HW213899   5.093   2.173   5.032
 4334SOL     OW13900   1.158   3.129   2.343
 4334SOL    HW113901   1.174   3.140   2.245
 4334SOL    HW213902   1.127   3.036   2.362
 4335SOL     OW13903   3.431   2.956   1.088
 4335SOL    HW113904   3.491   2.879   1.108
 4335SOL    HW213905   3.368   2.931   1.014
 4336SOL     OW13906   2.297   4.623   5.308
 4336SOL    HW113907   2.328   4.707   5.353
 4336SOL    HW213908   2.376   4.576   5.268
 4337SOL     OW13909   1.327   6.021   2.160
 4337SOL    HW113910   1.418   6.044   2.125
 4337SOL    HW213911   1.336   5.961   2.240
 4338SOL     OW13912   6.323   0.259   6.118
 4338SOL    HW113913   6.390   0.185   6.121
 4338SOL    HW213914   6.239   0.229   6.163
 4339SOL     OW13915   3.876   2.100   6.522
 4339SOL    HW113916   3.808   2.027   6.532
 4339SOL    HW213917   3.845   2.182   6.569
 4340SOL     OW13918   6.096   2.980   1.068
 4340SOL    HW113919   6.117   3.020   0.979
 4340SOL    HW213920   6.004   3.008   1.096
 4341SOL     OW13921   1.225   5.470   2.003
 4341SOL    HW113922   1.237   5.569   1.998
 4341SOL    HW213923   1.136   5.449   2.044
 4342SOL     OW13924   4.943   3.528   2.889
 4342SOL    HW113925   4.920   3.442   2.845
 4342SOL    HW213926   4.887   3.602   2.852
 4343SOL     OW13927   3.440   0.070   6.267
 4343SOL    HW113928   3.351   0.114   6.275
 4343SOL    HW213929   3.433   7.000   6.292
 4344SOL     OW13930   0.355   2.548   3.061
 4344SOL    HW113931   0.386   2.484   3.131
 4344SOL    HW213932   0.327   2.634   3.104
 4345SOL     OW13933   2.962   3.533   2.755
 4345SOL    HW113934   3.052   3.495   2.776
 4345SOL    HW213935   2.903   3.526   2.836
 4346SOL     OW13936   2.096   2.484   2.728
 4346SOL    HW113937   2.099   2.437   2.816
 4346SOL    HW213938   2.162   2.559   2.728
 4347SOL     OW13939   6.249   6.134   1.993
 4347SOL    HW113940   6.279   6.185   1.912
 4347SOL    HW213941   6.233   6.197   2.069
 4348SOL     OW13942   6.815   5.637   4.045
 4348SOL    HW113943   6.805   5.735   4.063
 4348SOL    HW213944   6.793   5.586   4.129
 4349SOL     OW13945   0.157   3.203   3.555
 4349SOL    HW113946   0.070   3.181   3.600
 4349SOL    HW213947   0.190   3.123   3.505
 4350SOL     OW13948   5.532   1.942   4.652
 4350SOL    HW113949   5.538   1.890   4.567
 4350SOL    HW213950   5.506   2.036   4.632
 4351SOL     OW13951   1.362   5.978   1.512
 4351SOL    HW113952   1.439   6.020   1.464
 4351SOL    HW213953   1.282   6.038   1.505
 4352SOL     OW13954   5.423   3.321   0.864
 4352SOL    HW113955   5.513   3.334   0.906
 4352SOL    HW213956   5.432   3.332   0.764
 4353SOL     OW13957   3.100   3.114   6.533
 4353SOL    HW113958   3.071   3.142   6.442
 4353SOL    HW213959   3.030   3.138   6.600
 4354SOL     OW13960   0.960   0.719   5.359
 4354SOL    HW113961   0.898   0.643   5.377
 4354SOL    HW213962   0.925   0.803   5.401
 4355SOL     OW13963   1.376   6.400   3.172
 4355SOL    HW113964   1.412   6.458   3.246
 4355SOL    HW213965   1.375   6.305   3.202
 4356SOL     OW13966   4.545   3.340   5.799
 4356SOL    HW113967   4.499   3.429   5.790
 4356SOL    HW213968   4.614   3.331   5.728
 4357SOL     OW13969   0.305   1.238   1.818
 4357SOL    HW113970   0.399   1.266   1.802
 4357SOL    HW213971   0.296   1.141   1.798
 4358SOL     OW13972   0.269   1.351   6.782
 4358SOL    HW113973   0.281   1.263   6.828
 4358SOL    HW213974   0.358   1.393   6.763
 4359SOL     OW13975   2.179   0.791   6.769
 4359SOL    HW113976   2.138   0.880   6.753
 4359SOL    HW213977   2.267   0.803   6.816
 4360SOL     OW13978   1.174   2.319   3.588
 4360SOL    HW113979   1.216   2.330   3.678
 4360SOL    HW213980   1.114   2.398   3.570
 4361SOL     OW13981   2.215   2.864   1.060
 4361SOL    HW113982   2.260   2.795   1.116
 4361SOL    HW213983   2.124   2.833   1.035
 4362SOL     OW13984   0.685   6.244   3.860
 4362SOL    HW113985   0.763   6.182   3.863
 4362SOL    HW213986   0.712   6.332   3.822
 4363SOL     OW13987   4.143   0.436   2.190
 4363SOL    HW113988   4.102   0.428   2.099
 4363SOL    HW213989   4.164   0.345   2.225
 4364SOL     OW13990   2.992   3.895   2.489
 4364SOL    HW113991   2.970   3.799   2.505
 4364SOL    HW213992   2.952   3.951   2.562
 4365SOL     OW13993   3.076   1.965   1.755
 4365SOL    HW113994   3.052   2.061   1.737
 4365SOL    HW213995   3.164   1.944   1.712
 4366SOL     OW13996   6.235   5.738   5.835
 4366SOL    HW113997   6.197   5.785   5.755
 4366SOL    HW213998   6.249   5.641   5.812
 4367SOL     OW13999   3.028   5.293   2.618
 4367SOL    HW114000   3.036   5.387   2.651
 4367SOL    HW214001   3.118   5.257   2.596
 4368SOL     OW14002   3.829   5.609   2.798
 4368SOL    HW114003   3.901   5.609   2.868
 4368SOL    HW214004   3.860   5.555   2.719
 4369SOL     OW14005   5.171   5.705   2.938
 4369SOL    HW114006   5.098   5.644   2.969
 4369SOL    HW214007   5.259   5.664   2.960
 4370SOL     OW14008   3.761   3.896   1.497
 4370SOL    HW114009   3.743   3.980   1.445
 4370SOL    HW214010   3.681   3.836   1.490
 4371SOL     OW14011   2.589   0.856   2.080
 4371SOL    HW114012   2.504   0.887   2.122
 4371SOL    HW214013   2.569   0.803   1.998
 4372SOL     OW14014   1.676   3.430   4.489
 4372SOL    HW114015   1.746   3.499   4.509
 4372SOL    HW214016   1.714   3.339   4.504
 4373SOL     OW14017   4.549   0.991   6.018
 4373SOL    HW114018   4.453   0.973   6.037
 4373SOL    HW214019   4.594   0.907   5.988
 4374SOL     OW14020   3.126   2.151   1.335
 4374SOL    HW114021   3.127   2.251   1.344
 4374SOL    HW214022   3.174   2.110   1.412
 4375SOL     OW14023   3.754   0.119   3.567
 4375SOL    HW114024   3.780   0.066   3.487
 4375SOL    HW214025   3.664   0.160   3.552
 4376SOL     OW14026   6.330   0.340   2.197
 4376SOL    HW114027   6.368   0.431   2.209
 4376SOL    HW214028   6.258   0.324   2.264
 4377SOL     OW14029   7.023   5.713   0.536
 4377SOL    HW114030   6.960   5.673   0.602
 4377SOL    HW214031   7.000   5.809   0.520
 4378SOL     OW14032   1.858   5.042   1.947
 4378SOL    HW114033   1.782   4.980   1.927
 4378SOL    HW214034   1.887   5.031   2.042
 4379SOL     OW14035   2.332   0.700   2.037
 4379SOL    HW114036   2.420   0.695   1.990
 4379SOL    HW214037   2.258   0.693   1.970
 4380SOL     OW14038   2.285   5.676   5.211
 4380SOL    HW114039   2.219   5.603   5.199
 4380SOL    HW214040   2.365   5.658   5.153
 4381SOL     OW14041   2.872   4.843   4.564
 4381SOL    HW114042   2.793   4.782   4.552
 4381SOL    HW214043   2.883   4.899   4.482
 4382SOL     OW14044   5.197   4.529   5.135
 4382SOL    HW114045   5.153   4.457   5.081
 4382SOL    HW214046   5.196   4.504   5.232
 4383SOL     OW14047   1.008   1.646   4.881
 4383SOL    HW114048   0.950   1.717   4.921
 4383SOL    HW214049   0.993   1.560   4.929
 4384SOL     OW14050   5.182   0.095   0.857
 4384SOL    HW114051   5.220   0.139   0.775
 4384SOL    HW214052   5.183   7.022   0.845
 4385SOL     OW14053   6.816   1.751   3.617
 4385SOL    HW114054   6.777   1.719   3.530
 4385SOL    HW214055   6.749   1.810   3.663
 4386SOL     OW14056   0.967   4.338   6.221
 4386SOL    HW114057   0.969   4.252   6.272
 4386SOL    HW214058   1.016   4.408   6.272
 4387SOL     OW14059   0.116   1.840   2.004
 4387SOL    HW114060   0.045   1.871   1.940
 4387SOL    HW214061   0.105   1.887   2.091
 4388SOL     OW14062   3.970   1.177   6.288
 4388SOL    HW114063   4.033   1.249   6.316
 4388SOL    HW214064   3.972   1.103   6.355
 4389SOL     OW14065   5.612   1.830   1.411
 4389SOL    HW114066   5.659   1.747   1.441
 4389SOL    HW214067   5.536   1.850   1.473
 4390SOL     OW14068   3.996   2.343   1.610
 4390SOL    HW114069   4.064   2.359   1.682
 4390SOL    HW214070   3.931   2.274   1.641
 4391SOL     OW14071   1.053   6.196   6.512
 4391SOL    HW114072   1.005   6.255   6.448
 4391SOL    HW214073   1.132   6.154   6.466
 4392SOL     OW14074   5.485   4.245   5.254
 4392SOL    HW114075   5.561   4.251   5.319
 4392SOL    HW214076   5.506   4.176   5.185
 4393SOL     OW14077   4.800   6.774   3.131
 4393SOL    HW114078   4.878   6.754   3.072
 4393SOL    HW214079   4.766   6.689   3.171
 4394SOL     OW14080   5.842   5.205   2.444
 4394SOL    HW114081   5.912   5.181   2.511
 4394SOL    HW214082   5.779   5.272   2.484
 4395SOL     OW14083   4.030   2.409   0.513
 4395SOL    HW114084   3.949   2.351   0.504
 4395SOL    HW214085   4.107   2.353   0.544
 4396SOL     OW14086   2.512   2.028   4.046
 4396SOL    HW114087   2.547   2.112   4.088
 4396SOL    HW214088   2.414   2.021   4.064
 4397SOL     OW14089   0.645   1.494   3.968
 4397SOL    HW114090   0.629   1.591   3.987
 4397SOL    HW214091   0.733   1.484   3.921
 4398SOL     OW14092   1.432   4.262   4.313
 4398SOL    HW114093   1.334   4.243   4.312
 4398SOL    HW214094   1.461   4.284   4.406
 4399SOL     OW14095   2.809   0.661   0.730
 4399SOL    HW114096   2.712   0.667   0.752
 4399SOL    HW214097   2.861   0.725   0.787
 4400SOL     OW14098   2.157   6.194   4.916
 4400SOL    HW114099   2.216   6.166   4.992
 4400SOL    HW214100   2.211   6.202   4.833
 4401SOL     OW14101   6.124   5.524   6.085
 4401SOL    HW114102   6.135   5.510   6.184
 4401SOL    HW214103   6.214   5.526   6.041
 4402SOL     OW14104   1.280   6.345   2.656
 4402SOL    HW114105   1.321   6.433   2.631
 4402SOL    HW214106   1.193   6.335   2.608
 4403SOL     OW14107   6.513   6.783   3.626
 4403SOL    HW114108   6.557   6.825   3.705
 4403SOL    HW214109   6.476   6.694   3.652
 4404SOL     OW14110   1.256   3.665   4.490
 4404SOL    HW114111   1.264   3.722   4.573
 4404SOL    HW214112   1.200   3.585   4.510
 4405SOL     OW14113   3.046   4.517   6.215
 4405SOL    HW114114   3.120   4.515   6.283
 4405SOL    HW214115   3.083   4.501   6.124
 4406SOL     OW14116   5.129   4.011   0.741
 4406SOL    HW114117   5.076   3.967   0.668
 4406SOL    HW214118   5.184   3.942   0.787
 4407SOL     OW14119   0.249   5.724   0.848
 4407SOL    HW114120   0.155   5.737   0.817
 4407SOL    HW214121   0.253   5.648   0.914
 4408SOL     OW14122   4.961   0.716   0.687
 4408SOL    HW114123   4.937   0.619   0.690
 4408SOL    HW214124   4.945   0.757   0.777
 4409SOL     OW14125   3.493   0.775   1.766
 4409SOL    HW114126   3.461   0.839   1.696
 4409SOL    HW214127   3.511   0.825   1.851
 4410SOL     OW14128   1.840   4.630   7.023
 4410SOL    HW114129   1.926   4.668   0.031
 4410SOL    HW214130   1.825   4.662   6.929
 4411SOL     OW14131   3.529   2.856   3.129
 4411SOL    HW114132   3.499   2.837   3.035
 4411SOL    HW214133   3.629   2.862   3.131
 4412SOL     OW14134   3.961   1.914   4.903
 4412SOL    HW114135   3.905   1.946   4.825
 4412SOL    HW214136   4.053   1.952   4.895
 4413SOL     OW14137   5.199   6.224   5.368
 4413SOL    HW114138   5.182   6.137   5.324
 4413SOL    HW214139   5.129   6.240   5.438
 4414SOL     OW14140   4.870   4.892   2.102
 4414SOL    HW114141   4.884   4.934   2.192
 4414SOL    HW214142   4.807   4.815   2.111
 4415SOL     OW14143   4.860   3.616   6.371
 4415SOL    HW114144   4.767   3.604   6.406
 4415SOL    HW214145   4.922   3.556   6.421
 4416SOL     OW14146   2.934   1.675   3.917
 4416SOL    HW114147   2.952   1.577   3.914
 4416SOL    HW214148   3.019   1.724   3.936
 4417SOL     OW14149   0.044   4.186   3.002
 4417SOL    HW114150   0.001   4.270   2.969
 4417SOL    HW214151   0.084   4.137   2.926
 4418SOL     OW14152   4.570   6.442   4.117
 4418SOL    HW114153   4.517   6.363   4.149
 4418SOL    HW214154   4.532   6.526   4.157
 4419SOL     OW14155   5.469   5.441   0.349
 4419SOL    HW114156   5.399   5.383   0.309
 4419SOL    HW214157   5.462   5.534   0.313
 4420SOL     OW14158   4.757   1.489   0.733
 4420SOL    HW114159   4.747   1.394   0.704
 4420SOL    HW214160   4.828   1.496   0.803
 4421SOL     OW14161   1.988   1.684   3.670
 4421SOL    HW114162   2.044   1.656   3.748
 4421SOL    HW214163   2.048   1.706   3.593
 4422SOL     OW14164   2.709   3.512   5.799
 4422SOL    HW114165   2.611   3.497   5.785
 4422SOL    HW214166   2.746   3.436   5.852
 4423SOL     OW14167   0.621   3.076   6.067
 4423SOL    HW114168   0.641   3.153   6.007
 4423SOL    HW214169   0.705   3.047   6.113
 4424SOL     OW14170   5.286   7.005   3.497
 4424SOL    HW114171   5.325   0.000   3.407
 4424SOL    HW214172   5.190   0.008   3.500
 4425SOL     OW14173   3.272   5.723   6.268
 4425SOL    HW114174   3.233   5.668   6.194
 4425SOL    HW214175   3.371   5.721   6.263
 4426SOL     OW14176   6.870   1.114   4.987
 4426SOL    HW114177   6.871   1.208   5.022
 4426SOL    HW214178   6.951   1.099   4.930
 4427SOL     OW14179   6.687   0.726   2.561
 4427SOL    HW114180   6.759   0.668   2.599
 4427SOL    HW214181   6.634   0.766   2.636
 4428SOL     OW14182   3.025   4.977   3.370
 4428SOL    HW114183   3.068   5.057   3.330
 4428SOL    HW214184   3.092   4.927   3.426
 4429SOL     OW14185   2.972   0.329   4.145
 4429SOL    HW114186   2.878   0.299   4.130
 4429SOL    HW214187   3.035   0.267   4.098
 4430SOL     OW14188   4.741   2.866   3.714
 4430SOL    HW114189   4.813   2.810   3.674
 4430SOL    HW214190   4.652   2.834   3.682
 4431SOL     OW14191   2.248   1.554   2.173
 4431SOL    HW114192   2.153   1.578   2.151
 4431SOL    HW214193   2.309   1.588   2.102
 4432SOL     OW14194   2.987   3.185   3.839
 4432SOL    HW114195   3.000   3.216   3.745
 4432SOL    HW214196   2.977   3.264   3.899
 4433SOL     OW14197   6.593   6.805   4.643
 4433SOL    HW114198   6.620   6.851   4.727
 4433SOL    HW214199   6.512   6.850   4.605
 4434SOL     OW14200   4.861   1.311   3.983
 4434SOL    HW114201   4.810   1.345   3.904
 4434SOL    HW214202   4.905   1.388   4.030
 4435SOL     OW14203   3.959   3.662   0.688
 4435SOL    HW114204   3.991   3.570   0.665
 4435SOL    HW214205   3.960   3.674   0.787
 4436SOL     OW14206   3.119   2.181   0.351
 4436SOL    HW114207   3.044   2.205   0.290
 4436SOL    HW214208   3.152   2.089   0.329
 4437SOL     OW14209   5.142   0.845   3.847
 4437SOL    HW114210   5.147   0.776   3.774
 4437SOL    HW214211   5.059   0.899   3.836
 4438SOL     OW14212   4.137   1.988   6.467
 4438SOL    HW114213   4.125   1.892   6.491
 4438SOL    HW214214   4.050   2.037   6.479
 4439SOL     OW14215   0.886   5.284   1.575
 4439SOL    HW114216   0.933   5.329   1.651
 4439SOL    HW214217   0.900   5.337   1.491
 4440SOL     OW14218   1.528   5.265   6.637
 4440SOL    HW114219   1.431   5.260   6.660
 4440SOL    HW214220   1.557   5.361   6.636
 4441SOL     OW14221   6.781   1.721   1.691
 4441SOL    HW114222   6.699   1.698   1.743
 4441SOL    HW214223   6.835   1.638   1.675
 4442SOL     OW14224   3.095   6.092   3.854
 4442SOL    HW114225   3.050   6.159   3.795
 4442SOL    HW214226   3.042   6.007   3.853
 4443SOL     OW14227   1.238   2.530   6.865
 4443SOL    HW114228   1.263   2.453   6.807
 4443SOL    HW214229   1.217   2.609   6.807
 4444SOL     OW14230   3.723   6.255   6.560
 4444SOL    HW114231   3.810   6.302   6.572
 4444SOL    HW214232   3.661   6.279   6.635
 4445SOL     OW14233   0.957   0.431   6.623
 4445SOL    HW114234   0.883   0.494   6.597
 4445SOL    HW214235   0.920   0.339   6.633
 4446SOL     OW14236   5.538   1.159   1.317
 4446SOL    HW114237   5.521   1.257   1.322
 4446SOL    HW214238   5.565   1.135   1.224
 4447SOL     OW14239   5.275   3.501   5.250
 4447SOL    HW114240   5.204   3.570   5.238
 4447SOL    HW214241   5.234   3.410   5.248
 4448SOL     OW14242   2.884   4.213   0.754
 4448SOL    HW114243   2.905   4.157   0.674
 4448SOL    HW214244   2.804   4.175   0.801
 4449SOL     OW14245   3.858   0.268   6.049
 4449SOL    HW114246   3.945   0.252   6.095
 4449SOL    HW214247   3.785   0.219   6.097
 4450SOL     OW14248   3.781   2.954   3.377
 4450SOL    HW114249   3.756   2.954   3.280
 4450SOL    HW214250   3.720   2.893   3.428
 4451SOL     OW14251   5.752   4.359   2.351
 4451SOL    HW114252   5.841   4.321   2.376
 4451SOL    HW214253   5.680   4.296   2.378
 4452SOL     OW14254   5.735   6.314   5.022
 4452SOL    HW114255   5.728   6.400   4.972
 4452SOL    HW214256   5.667   6.313   5.095
 4453SOL     OW14257   6.689   2.907   6.942
 4453SOL    HW114258   6.608   2.950   6.901
 4453SOL    HW214259   6.669   2.812   6.965
 4454SOL     OW14260   5.233   2.254   0.641
 4454SOL    HW114261   5.313   2.311   0.625
 4454SOL    HW214262   5.152   2.301   0.606
 4455SOL     OW14263   2.983   6.515   0.206
 4455SOL    HW114264   3.050   6.509   0.281
 4455SOL    HW214265   2.891   6.524   0.244
 4456SOL     OW14266   2.440   4.939   2.522
 4456SOL    HW114267   2.367   5.000   2.492
 4456SOL    HW214268   2.400   4.853   2.555
 4457SOL     OW14269   4.122   2.858   6.979
 4457SOL    HW114270   4.146   2.780   0.010
 4457SOL    HW214271   4.076   2.927   0.007
 4458SOL     OW14272   1.522   3.665   6.568
 4458SOL    HW114273   1.550   3.579   6.610
 4458SOL    HW214274   1.468   3.718   6.634
 4459SOL     OW14275   5.587   0.273   4.189
 4459SOL    HW114276   5.630   0.184   4.202
 4459SOL    HW214277   5.488   0.261   4.177
 4460SOL     OW14278   2.683   2.813   5.680
 4460SOL    HW114279   2.624   2.889   5.654
 4460SOL    HW214280   2.778   2.842   5.680
 4461SOL     OW14281   1.165   0.388   2.984
 4461SOL    HW114282   1.150   0.383   2.886
 4461SOL    HW214283   1.159   0.296   3.024
 4462SOL     OW14284   6.668   3.919   1.260
 4462SOL    HW114285   6.703   4.011   1.273
 4462SOL    HW214286   6.615   3.915   1.175
 4463SOL     OW14287   2.228   2.705   0.248
 4463SOL    HW114288   2.261   2.615   0.279
 4463SOL    HW214289   2.129   2.709   0.258
 4464SOL     OW14290   5.756   5.312   0.718
 4464SOL    HW114291   5.672   5.323   0.664
 4464SOL    HW214292   5.771   5.395   0.773
 4465SOL     OW14293   1.635   6.220   3.011
 4465SOL    HW114294   1.727   6.182   3.018
 4465SOL    HW214295   1.596   6.197   2.921
 4466SOL     OW14296   1.420   0.743   2.946
 4466SOL    HW114297   1.504   0.758   2.999
 4466SOL    HW214298   1.365   0.673   2.991
 4467SOL     OW14299   0.698   6.483   3.715
 4467SOL    HW114300   0.751   6.447   3.639
 4467SOL    HW214301   0.601   6.472   3.696
 4468SOL     OW14302   0.798   1.547   0.785
 4468SOL    HW114303   0.758   1.634   0.812
 4468SOL    HW214304   0.855   1.560   0.704
 4469SOL     OW14305   3.038   0.049   1.267
 4469SOL    HW114306   3.133   0.023   1.280
 4469SOL    HW214307   2.980   0.003   1.334
 4470SOL     OW14308   5.820   3.368   1.756
 4470SOL    HW114309   5.875   3.390   1.837
 4470SOL    HW214310   5.745   3.307   1.782
 4471SOL     OW14311   0.408   2.663   0.009
 4471SOL    HW114312   0.345   2.736   0.036
 4471SOL    HW214313   0.369   2.574   0.032
 4472SOL     OW14314   1.266   3.792   2.769
 4472SOL    HW114315   1.358   3.764   2.795
 4472SOL    HW214316   1.253   3.776   2.671
 4473SOL     OW14317   0.405   0.880   4.512
 4473SOL    HW114318   0.378   0.960   4.566
 4473SOL    HW214319   0.477   0.830   4.560
 4474SOL     OW14320   3.793   0.955   2.408
 4474SOL    HW114321   3.774   0.957   2.310
 4474SOL    HW214322   3.763   1.040   2.451
 4475SOL     OW14323   1.914   4.497   1.782
 4475SOL    HW114324   1.876   4.513   1.873
 4475SOL    HW214325   1.858   4.543   1.713
 4476SOL     OW14326   5.421   6.226   3.959
 4476SOL    HW114327   5.493   6.226   3.891
 4476SOL    HW214328   5.441   6.158   4.029
 4477SOL     OW14329   2.017   0.199   6.510
 4477SOL    HW114330   2.052   0.280   6.462
 4477SOL    HW214331   2.093   0.136   6.528
 4478SOL     OW14332   2.358   6.346   2.439
 4478SOL    HW114333   2.368   6.444   2.425
 4478SOL    HW214334   2.401   6.320   2.526
 4479SOL     OW14335   0.955   1.090   6.779
 4479SOL    HW114336   0.956   0.991   6.790
 4479SOL    HW214337   1.033   1.130   6.826
 4480SOL     OW14338   2.087   3.807   4.915
 4480SOL    HW114339   2.099   3.859   4.999
 4480SOL    HW214340   2.108   3.711   4.932
 4481SOL     OW14341   2.236   0.075   4.401
 4481SOL    HW114342   2.208   7.026   4.343
 4481SOL    HW214343   2.312   0.125   4.359
 4482SOL     OW14344   0.321   3.291   3.970
 4482SOL    HW114345   0.369   3.335   4.046
 4482SOL    HW214346   0.381   3.285   3.891
 4483SOL     OW14347   6.304   3.154   1.649
 4483SOL    HW114348   6.273   3.083   1.712
 4483SOL    HW214349   6.265   3.139   1.558
 4484SOL     OW14350   3.142   1.579   5.228
 4484SOL    HW114351   3.051   1.594   5.268
 4484SOL    HW214352   3.195   1.663   5.234
 4485SOL     OW14353   5.487   2.437   6.135
 4485SOL    HW114354   5.557   2.375   6.101
 4485SOL    HW214355   5.489   2.522   6.083
 4486SOL     OW14356   5.955   3.561   4.385
 4486SOL    HW114357   5.999   3.494   4.325
 4486SOL    HW214358   5.999   3.559   4.475
 4487SOL     OW14359   2.275   3.646   6.881
 4487SOL    HW114360   2.184   3.605   6.889
 4487SOL    HW214361   2.331   3.592   6.817
 4488SOL     OW14362   5.477   2.585   5.709
 4488SOL    HW114363   5.405   2.517   5.727
 4488SOL    HW214364   5.468   2.660   5.774
 4489SOL     OW14365   5.518   6.016   4.385
 4489SOL    HW114366   5.449   5.949   4.413
 4489SOL    HW214367   5.516   6.093   4.449
 4490SOL     OW14368   5.547   2.050   2.205
 4490SOL    HW114369   5.642   2.077   2.218
 4490SOL    HW214370   5.536   1.954   2.231
 4491SOL     OW14371   0.887   2.940   2.856
 4491SOL    HW114372   0.863   2.911   2.949
 4491SOL    HW214373   0.893   3.040   2.853
 4492SOL     OW14374   5.222   3.393   0.444
 4492SOL    HW114375   5.152   3.351   0.502
 4492SOL    HW214376   5.306   3.405   0.497
 4493SOL     OW14377   4.614   5.560   5.034
 4493SOL    HW114378   4.625   5.460   5.035
 4493SOL    HW214379   4.693   5.602   4.990
 4494SOL     OW14380   6.952   2.453   6.284
 4494SOL    HW114381   0.022   2.424   6.289
 4494SOL    HW214382   6.948   2.551   6.268
 4495SOL     OW14383   5.528   6.723   3.304
 4495SOL    HW114384   5.599   6.737   3.373
 4495SOL    HW214385   5.472   6.805   3.297
 4496SOL     OW14386   5.248   6.011   0.520
 4496SOL    HW114387   5.269   5.914   0.538
 4496SOL    HW214388   5.150   6.025   0.527
 4497SOL     OW14389   4.312   6.642   6.707
 4497SOL    HW114390   4.348   6.555   6.675
 4497SOL    HW214391   4.233   6.627   6.767
 4498SOL     OW14392   0.386   3.162   6.515
 4498SOL    HW114393   0.323   3.239   6.510
 4498SOL    HW214394   0.402   3.126   6.423
 4499SOL     OW14395   0.019   3.001   4.181
 4499SOL    HW114396   0.024   3.100   4.170
 4499SOL    HW214397   0.045   2.956   4.096
 4500SOL     OW14398   3.306   3.762   3.518
 4500SOL    HW114399   3.280   3.856   3.493
 4500SOL    HW214400   3.395   3.740   3.478
 4501SOL     OW14401   0.464   3.487   5.961
 4501SOL    HW114402   0.544   3.428   5.971
 4501SOL    HW214403   0.492   3.583   5.967
 4502SOL     OW14404   2.048   3.042   6.322
 4502SOL    HW114405   2.009   3.134   6.324
 4502SOL    HW214406   2.062   3.009   6.415
 4503SOL     OW14407   2.667   0.219   2.733
 4503SOL    HW114408   2.703   0.181   2.819
 4503SOL    HW214409   2.743   0.250   2.676
 4504SOL     OW14410   6.309   1.421   5.198
 4504SOL    HW114411   6.249   1.469   5.134
 4504SOL    HW214412   6.278   1.438   5.292
 4505SOL     OW14413   6.340   5.711   4.508
 4505SOL    HW114414   6.257   5.732   4.456
 4505SOL    HW214415   6.336   5.757   4.597
 4506SOL     OW14416   4.504   2.554   4.697
 4506SOL    HW114417   4.464   2.524   4.783
 4506SOL    HW214418   4.568   2.629   4.714
 4507SOL     OW14419   5.353   3.994   1.353
 4507SOL    HW114420   5.286   3.981   1.280
 4507SOL    HW214421   5.341   4.083   1.395
 4508SOL     OW14422   0.847   4.767   6.640
 4508SOL    HW114423   0.893   4.745   6.726
 4508SOL    HW214424   0.820   4.682   6.594
 4509SOL     OW14425   4.615   2.308   4.313
 4509SOL    HW114426   4.703   2.318   4.266
 4509SOL    HW214427   4.563   2.236   4.268
 4510SOL     OW14428   5.486   6.912   5.138
 4510SOL    HW114429   5.542   6.994   5.153
 4510SOL    HW214430   5.544   6.831   5.145
 4511SOL     OW14431   0.205   3.340   5.955
 4511SOL    HW114432   0.191   3.288   5.871
 4511SOL    HW214433   0.301   3.367   5.962
 4512SOL     OW14434   2.350   6.759   5.776
 4512SOL    HW114435   2.327   6.697   5.851
 4512SOL    HW214436   2.364   6.707   5.692
 4513SOL     OW14437   4.979   6.624   0.689
 4513SOL    HW114438   5.034   6.650   0.610
 4513SOL    HW214439   5.003   6.531   0.718
 4514SOL     OW14440   4.441   0.457   4.754
 4514SOL    HW114441   4.431   0.539   4.810
 4514SOL    HW214442   4.506   0.395   4.797
 4515SOL     OW14443   6.517   4.172   6.390
 4515SOL    HW114444   6.557   4.098   6.336
 4515SOL    HW214445   6.422   4.187   6.362
 4516SOL     OW14446   1.337   1.827   5.955
 4516SOL    HW114447   1.366   1.890   6.026
 4516SOL    HW214448   1.240   1.806   5.967
 4517SOL     OW14449   2.781   7.016   5.876
 4517SOL    HW114450   2.757   0.022   5.784
 4517SOL    HW214451   2.721   6.941   5.902
 4518SOL     OW14452   6.648   1.811   3.364
 4518SOL    HW114453   6.581   1.879   3.394
 4518SOL    HW214454   6.697   1.845   3.284
 4519SOL     OW14455   6.299   1.152   1.951
 4519SOL    HW114456   6.327   1.103   1.869
 4519SOL    HW214457   6.272   1.246   1.927
 4520SOL     OW14458   5.167   5.559   2.703
 4520SOL    HW114459   5.202   5.493   2.770
 4520SOL    HW214460   5.132   5.639   2.751
 4521SOL     OW14461   5.033   1.999   5.626
 4521SOL    HW114462   5.114   1.985   5.570
 4521SOL    HW214463   5.035   1.936   5.704
 4522SOL     OW14464   5.502   0.220   3.819
 4522SOL    HW114465   5.427   0.201   3.882
 4522SOL    HW214466   5.504   0.318   3.798
 4523SOL     OW14467   1.025   4.383   0.304
 4523SOL    HW114468   1.123   4.388   0.284
 4523SOL    HW214469   1.013   4.360   0.401
 4524SOL     OW14470   5.288   2.131   5.733
 4524SOL    HW114471   5.264   2.076   5.813
 4524SOL    HW214472   5.375   2.178   5.749
 4525SOL     OW14473   6.601   1.540   3.351
 4525SOL    HW114474   6.624   1.637   3.343
 4525SOL    HW214475   6.674   1.492   3.400
 4526SOL     OW14476   5.366   0.182   1.059
 4526SOL    HW114477   5.342   0.239   1.137
 4526SOL    HW214478   5.285   0.135   1.025
 4527SOL     OW14479   4.442   1.539   4.035
 4527SOL    HW114480   4.421   1.463   3.973
 4527SOL    HW214481   4.481   1.615   3.983
 4528SOL     OW14482   5.161   6.648   0.490
 4528SOL    HW114483   5.255   6.617   0.500
 4528SOL    HW214484   5.160   6.739   0.447
 4529SOL     OW14485   3.084   1.473   3.353
 4529SOL    HW114486   3.018   1.463   3.277
 4529SOL    HW214487   3.094   1.385   3.400
 4530SOL     OW14488   0.037   3.711   5.509
 4530SOL    HW114489   0.048   3.807   5.534
 4530SOL    HW214490   6.995   3.703   5.436
 4531SOL     OW14491   0.215   2.988   3.351
 4531SOL    HW114492   0.169   3.027   3.272
 4531SOL    HW214493   0.269   2.909   3.322
 4532SOL     OW14494   0.575   1.322   2.289
 4532SOL    HW114495   0.505   1.373   2.338
 4532SOL    HW214496   0.626   1.265   2.353
 4533SOL     OW14497   1.729   0.241   3.997
 4533SOL    HW114498   1.772   0.217   3.910
 4533SOL    HW214499   1.761   0.177   4.068
 4534SOL     OW14500   6.106   3.474   4.609
 4534SOL    HW114501   6.159   3.553   4.639
 4534SOL    HW214502   6.162   3.392   4.616
 4535SOL     OW14503   4.468   2.031   2.336
 4535SOL    HW114504   4.392   1.966   2.330
 4535SOL    HW214505   4.537   1.995   2.400
 4536SOL     OW14506   4.886   1.462   4.681
 4536SOL    HW114507   4.808   1.469   4.743
 4536SOL    HW214508   4.859   1.410   4.600
 4537SOL     OW14509   3.687   3.354   6.184
 4537SOL    HW114510   3.691   3.263   6.225
 4537SOL    HW214511   3.722   3.421   6.249
 4538SOL     OW14512   3.082   2.012   4.137
 4538SOL    HW114513   3.176   2.041   4.117
 4538SOL    HW214514   3.043   1.967   4.057
 4539SOL     OW14515   2.571   1.762   4.127
 4539SOL    HW114516   2.537   1.853   4.101
 4539SOL    HW214517   2.495   1.705   4.157
 4540SOL     OW14518   3.476   3.367   3.631
 4540SOL    HW114519   3.556   3.378   3.691
 4540SOL    HW214520   3.502   3.315   3.550
 4541SOL     OW14521   5.705   1.196   0.245
 4541SOL    HW114522   5.646   1.267   0.282
 4541SOL    HW214523   5.740   1.139   0.320
 4542SOL     OW14524   5.810   6.496   1.889
 4542SOL    HW114525   5.755   6.579   1.885
 4542SOL    HW214526   5.785   6.443   1.970
 4543SOL     OW14527   4.360   1.736   6.850
 4543SOL    HW114528   4.373   1.802   6.924
 4543SOL    HW214529   4.351   1.644   6.887
 4544SOL     OW14530   2.559   5.951   5.970
 4544SOL    HW114531   2.585   5.931   5.875
 4544SOL    HW214532   2.467   5.917   5.987
 4545SOL     OW14533   5.443   2.671   5.139
 4545SOL    HW114534   5.530   2.629   5.110
 4545SOL    HW214535   5.378   2.668   5.063
 4546SOL     OW14536   1.532   0.596   6.396
 4546SOL    HW114537   1.531   0.511   6.449
 4546SOL    HW214538   1.618   0.645   6.413
 4547SOL     OW14539   6.410   2.377   2.348
 4547SOL    HW114540   6.321   2.343   2.377
 4547SOL    HW214541   6.397   2.450   2.281
 4548SOL     OW14542   0.739   4.220   4.496
 4548SOL    HW114543   0.641   4.209   4.512
 4548SOL    HW214544   0.789   4.145   4.538
 4549SOL     OW14545   6.131   3.673   2.728
 4549SOL    HW114546   6.121   3.771   2.745
 4549SOL    HW214547   6.119   3.623   2.814
 4550SOL     OW14548   0.208   6.003   3.476
 4550SOL    HW114549   0.216   5.939   3.552
 4550SOL    HW214550   0.195   5.952   3.391
 4551SOL     OW14551   0.105   1.774   5.371
 4551SOL    HW114552   0.081   1.842   5.302
 4551SOL    HW214553   0.163   1.817   5.440
 4552SOL     OW14554   0.010   2.706   6.267
 4552SOL    HW114555   0.060   2.666   6.191
 4552SOL    HW214556   6.994   2.792   6.238
 4553SOL     OW14557   3.593   4.464   0.185
 4553SOL    HW114558   3.496   4.437   0.177
 4553SOL    HW214559   3.608   4.548   0.132
 4554SOL     OW14560   3.954   0.601   1.843
 4554SOL    HW114561   3.968   0.515   1.891
 4554SOL    HW214562   3.935   0.673   1.910
 4555SOL     OW14563   4.251   1.248   6.092
 4555SOL    HW114564   4.166   1.296   6.075
 4555SOL    HW214565   4.291   1.219   6.004
 4556SOL     OW14566   4.532   1.986   3.971
 4556SOL    HW114567   4.588   2.044   3.912
 4556SOL    HW214568   4.563   1.891   3.963
 4557SOL     OW14569   4.992   6.582   4.741
 4557SOL    HW114570   5.051   6.632   4.805
 4557SOL    HW214571   5.025   6.487   4.734
 4558SOL     OW14572   6.363   3.614   5.621
 4558SOL    HW114573   6.396   3.562   5.700
 4558SOL    HW214574   6.403   3.706   5.623
 4559SOL     OW14575   1.250   6.081   1.792
 4559SOL    HW114576   1.198   6.109   1.711
 4559SOL    HW214577   1.209   6.000   1.832
 4560SOL     OW14578   5.360   4.566   3.318
 4560SOL    HW114579   5.284   4.572   3.254
 4560SOL    HW214580   5.348   4.486   3.376
 4561SOL     OW14581   2.499   0.766   1.491
 4561SOL    HW114582   2.458   0.677   1.472
 4561SOL    HW214583   2.443   0.816   1.557
 4562SOL     OW14584   2.770   5.625   5.160
 4562SOL    HW114585   2.759   5.662   5.252
 4562SOL    HW214586   2.710   5.546   5.148
 4563SOL     OW14587   6.134   3.947   0.267
 4563SOL    HW114588   6.219   3.896   0.255
 4563SOL    HW214589   6.133   4.025   0.204
 4564SOL     OW14590   0.830   6.099   0.959
 4564SOL    HW114591   0.756   6.095   1.025
 4564SOL    HW214592   0.795   6.135   0.872
 4565SOL     OW14593   0.681   1.340   4.997
 4565SOL    HW114594   0.708   1.412   5.061
 4565SOL    HW214595   0.586   1.353   4.971
 4566SOL     OW14596   6.926   0.859   0.738
 4566SOL    HW114597   6.847   0.904   0.781
 4566SOL    HW214598   7.010   0.903   0.769
 4567SOL     OW14599   0.436   1.165   0.139
 4567SOL    HW114600   0.519   1.191   0.090
 4567SOL    HW214601   0.419   1.232   0.212
 4568SOL     OW14602   1.903   4.293   5.220
 4568SOL    HW114603   1.868   4.214   5.170
 4568SOL    HW214604   1.985   4.327   5.174
 4569SOL     OW14605   1.946   1.949   3.843
 4569SOL    HW114606   2.003   1.869   3.860
 4569SOL    HW214607   1.851   1.921   3.831
 4570SOL     OW14608   0.119   5.278   3.598
 4570SOL    HW114609   0.192   5.256   3.533
 4570SOL    HW214610   0.033   5.293   3.548
 4571SOL     OW14611   3.436   3.964   5.335
 4571SOL    HW114612   3.354   3.945   5.282
 4571SOL    HW214613   3.464   3.881   5.385
 4572SOL     OW14614   6.919   6.320   6.991
 4572SOL    HW114615   6.852   6.245   6.989
 4572SOL    HW214616   6.992   6.300   6.925
 4573SOL     OW14617   5.960   6.303   0.794
 4573SOL    HW114618   5.992   6.302   0.888
 4573SOL    HW214619   6.024   6.250   0.737
 4574SOL     OW14620   7.009   4.485   1.087
 4574SOL    HW114621   6.980   4.413   1.151
 4574SOL    HW214622   0.082   4.493   1.089
 4575SOL     OW14623   6.810   2.412   0.994
 4575SOL    HW114624   6.761   2.402   1.080
 4575SOL    HW214625   6.751   2.460   0.928
 4576SOL     OW14626   2.375   5.723   6.307
 4576SOL    HW114627   2.338   5.815   6.320
 4576SOL    HW214628   2.339   5.663   6.379
 4577SOL     OW14629   0.001   3.058   2.898
 4577SOL    HW114630   0.065   3.103   2.836
 4577SOL    HW214631   6.954   3.122   2.924
 4578SOL     OW14632   0.048   3.686   3.491
 4578SOL    HW114633   0.045   3.786   3.490
 4578SOL    HW214634   0.108   3.655   3.564
 4579SOL     OW14635   5.237   1.856   3.239
 4579SOL    HW114636   5.256   1.832   3.144
 4579SOL    HW214637   5.287   1.794   3.300
 4580SOL     OW14638   5.186   5.645   0.076
 4580SOL    HW114639   5.165   5.699   0.157
 4580SOL    HW214640   5.185   5.703   7.021
 4581SOL     OW14641   3.309   5.249   2.603
 4581SOL    HW114642   3.331   5.185   2.677
 4581SOL    HW214643   3.332   5.342   2.630
 4582SOL     OW14644   5.835   6.643   4.634
 4582SOL    HW114645   5.875   6.720   4.684
 4582SOL    HW214646   5.906   6.597   4.582
 4583SOL     OW14647   2.740   1.885   4.780
 4583SOL    HW114648   2.716   1.788   4.785
 4583SOL    HW214649   2.839   1.895   4.777
 4584SOL     OW14650   0.304   5.989   5.733
 4584SOL    HW114651   0.374   6.059   5.747
 4584SOL    HW214652   0.326   5.936   5.651
 4585SOL     OW14653   3.303   6.167   2.823
 4585SOL    HW114654   3.303   6.138   2.727
 4585SOL    HW214655   3.277   6.264   2.828
 4586SOL     OW14656   4.210   4.507   1.319
 4586SOL    HW114657   4.259   4.530   1.403
 4586SOL    HW214658   4.264   4.441   1.266
 4587SOL     OW14659   4.311   3.784   1.672
 4587SOL    HW114660   4.353   3.693   1.679
 4587SOL    HW214661   4.213   3.774   1.659
 4588SOL     OW14662   3.999   3.823   4.925
 4588SOL    HW114663   3.920   3.763   4.918
 4588SOL    HW214664   3.969   3.918   4.922
 4589SOL     OW14665   5.947   1.522   2.544
 4589SOL    HW114666   6.016   1.460   2.580
 4589SOL    HW214667   5.863   1.472   2.524
 4590SOL     OW14668   4.516   6.028   1.437
 4590SOL    HW114669   4.516   5.928   1.441
 4590SOL    HW214670   4.610   6.061   1.434
 4591SOL     OW14671   0.344   6.334   5.477
 4591SOL    HW114672   0.360   6.328   5.378
 4591SOL    HW214673   0.278   6.264   5.504
 4592SOL     OW14674   4.180   2.973   1.596
 4592SOL    HW114675   4.112   2.904   1.623
 4592SOL    HW214676   4.271   2.933   1.602
 4593SOL     OW14677   4.242   5.387   3.773
 4593SOL    HW114678   4.264   5.442   3.692
 4593SOL    HW214679   4.165   5.327   3.753
 4594SOL     OW14680   3.395   2.116   1.212
 4594SOL    HW114681   3.469   2.158   1.266
 4594SOL    HW214682   3.307   2.153   1.241
 4595SOL     OW14683   3.423   2.845   5.829
 4595SOL    HW114684   3.497   2.903   5.863
 4595SOL    HW214685   3.458   2.754   5.808
 4596SOL     OW14686   5.672   6.209   1.920
 4596SOL    HW114687   5.683   6.263   2.004
 4596SOL    HW214688   5.731   6.129   1.923
 4597SOL     OW14689   4.774   4.469   6.772
 4597SOL    HW114690   4.747   4.563   6.750
 4597SOL    HW214691   4.759   4.411   6.692
 4598SOL     OW14692   0.955   5.309   6.661
 4598SOL    HW114693   0.936   5.223   6.613
 4598SOL    HW214694   0.877   5.332   6.719
 4599SOL     OW14695   1.253   4.405   1.247
 4599SOL    HW114696   1.351   4.398   1.267
 4599SOL    HW214697   1.201   4.389   1.331
 4600SOL     OW14698   2.708   5.603   5.679
 4600SOL    HW114699   2.687   5.508   5.656
 4600SOL    HW214700   2.762   5.606   5.763
 4601SOL     OW14701   1.818   0.806   5.269
 4601SOL    HW114702   1.869   0.796   5.183
 4601SOL    HW214703   1.875   0.852   5.337
 4602SOL     OW14704   1.118   6.113   0.368
 4602SOL    HW114705   1.096   6.187   0.305
 4602SOL    HW214706   1.065   6.124   0.452
 4603SOL     OW14707   3.850   6.636   1.425
 4603SOL    HW114708   3.813   6.637   1.333
 4603SOL    HW214709   3.825   6.721   1.472
 4604SOL     OW14710   4.422   0.522   1.325
 4604SOL    HW114711   4.425   0.588   1.401
 4604SOL    HW214712   4.487   0.448   1.342
 4605SOL     OW14713   4.852   0.610   3.622
 4605SOL    HW114714   4.946   0.622   3.589
 4605SOL    HW214715   4.853   0.605   3.722
 4606SOL     OW14716   6.915   0.031   2.192
 4606SOL    HW114717   6.955   6.972   2.159
 4606SOL    HW214718   6.822   0.015   2.223
 4607SOL     OW14719   2.595   2.718   0.556
 4607SOL    HW114720   2.618   2.621   0.557
 4607SOL    HW214721   2.505   2.730   0.513
 4608SOL     OW14722   1.550   5.692   4.646
 4608SOL    HW114723   1.556   5.618   4.714
 4608SOL    HW214724   1.498   5.659   4.567
 4609SOL     OW14725   4.107   5.299   6.333
 4609SOL    HW114726   4.099   5.267   6.427
 4609SOL    HW214727   4.195   5.269   6.296
 4610SOL     OW14728   6.908   2.503   0.468
 4610SOL    HW114729   6.970   2.469   0.538
 4610SOL    HW214730   6.871   2.592   0.496
 4611SOL     OW14731   6.290   4.876   5.496
 4611SOL    HW114732   6.388   4.870   5.516
 4611SOL    HW214733   6.238   4.823   5.564
 4612SOL     OW14734   1.597   6.580   0.084
 4612SOL    HW114735   1.683   6.588   0.033
 4612SOL    HW214736   1.614   6.529   0.168
 4613SOL     OW14737   2.469   5.542   2.686
 4613SOL    HW114738   2.433   5.605   2.616
 4613SOL    HW214739   2.553   5.500   2.653
 4614SOL     OW14740   1.320   4.841   5.820
 4614SOL    HW114741   1.324   4.935   5.855
 4614SOL    HW214742   1.260   4.838   5.739
 4615SOL     OW14743   2.023   1.085   6.854
 4615SOL    HW114744   2.098   1.096   6.789
 4615SOL    HW214745   2.015   1.167   6.910
 4616SOL     OW14746   6.979   0.351   5.785
 4616SOL    HW114747   0.039   0.301   5.797
 4616SOL    HW214748   6.936   0.365   5.874
 4617SOL     OW14749   1.642   2.257   2.763
 4617SOL    HW114750   1.703   2.230   2.837
 4617SOL    HW214751   1.567   2.192   2.756
 4618SOL     OW14752   1.560   3.177   5.208
 4618SOL    HW114753   1.556   3.084   5.246
 4618SOL    HW214754   1.633   3.228   5.253
 4619SOL     OW14755   5.013   6.377   3.707
 4619SOL    HW114756   5.024   6.476   3.717
 4619SOL    HW214757   5.086   6.341   3.648
 4620SOL     OW14758   3.128   3.677   6.689
 4620SOL    HW114759   3.119   3.774   6.666
 4620SOL    HW214760   3.182   3.631   6.619
 4621SOL     OW14761   5.827   2.244   3.708
 4621SOL    HW114762   5.836   2.146   3.722
 4621SOL    HW214763   5.845   2.266   3.612
 4622SOL     OW14764   0.823   3.031   0.926
 4622SOL    HW114765   0.776   3.115   0.897
 4622SOL    HW214766   0.815   2.962   0.854
 4623SOL     OW14767   0.010   5.728   1.023
 4623SOL    HW114768   0.070   5.804   1.050
 4623SOL    HW214769   6.967   5.713   1.094
 4624SOL     OW14770   4.411   6.804   3.126
 4624SOL    HW114771   4.486   6.868   3.139
 4624SOL    HW214772   4.330   6.853   3.094
 4625SOL     OW14773   1.298   4.273   6.882
 4625SOL    HW114774   1.208   4.296   6.846
 4625SOL    HW214775   1.368   4.306   6.819
 4626SOL     OW14776   5.731   4.839   1.302
 4626SOL    HW114777   5.690   4.820   1.213
 4626SOL    HW214778   5.787   4.922   1.296
 4627SOL     OW14779   3.213   5.600   5.046
 4627SOL    HW114780   3.228   5.525   5.110
 4627SOL    HW214781   3.126   5.588   4.999
 4628SOL     OW14782   5.939   4.552   3.264
 4628SOL    HW114783   6.006   4.485   3.231
 4628SOL    HW214784   5.873   4.571   3.192
 4629SOL     OW14785   2.131   4.973   6.134
 4629SOL    HW114786   2.165   4.892   6.182
 4629SOL    HW214787   2.131   4.956   6.036
 4630SOL     OW14788   3.650   5.855   3.592
 4630SOL    HW114789   3.697   5.882   3.677
 4630SOL    HW214790   3.644   5.934   3.531
 4631SOL     OW14791   2.789   6.788   3.450
 4631SOL    HW114792   2.797   6.853   3.525
 4631SOL    HW214793   2.697   6.793   3.411
 4632SOL     OW14794   4.261   5.044   2.850
 4632SOL    HW114795   4.348   5.004   2.879
 4632SOL    HW214796   4.244   5.128   2.903
 4633SOL     OW14797   6.302   1.920   3.969
 4633SOL    HW114798   6.388   1.870   3.955
 4633SOL    HW214799   6.232   1.858   4.003
 4634SOL     OW14800   2.425   4.420   6.498
 4634SOL    HW114801   2.524   4.428   6.513
 4634SOL    HW214802   2.397   4.325   6.515
 4635SOL     OW14803   6.146   4.089   2.244
 4635SOL    HW114804   6.212   4.124   2.177
 4635SOL    HW214805   6.193   4.070   2.330
 4636SOL     OW14806   2.118   4.978   6.936
 4636SOL    HW114807   2.180   4.943   6.866
 4636SOL    HW214808   2.149   5.067   6.967
 4637SOL     OW14809   1.928   0.657   0.343
 4637SOL    HW114810   2.002   0.697   0.289
 4637SOL    HW214811   1.967   0.615   0.425
 4638SOL     OW14812   3.622   2.671   6.257
 4638SOL    HW114813   3.659   2.757   6.222
 4638SOL    HW214814   3.606   2.608   6.182
 4639SOL     OW14815   1.946   4.661   5.337
 4639SOL    HW114816   1.855   4.685   5.371
 4639SOL    HW214817   1.956   4.562   5.337
 4640SOL     OW14818   4.469   5.143   3.432
 4640SOL    HW114819   4.407   5.174   3.359
 4640SOL    HW214820   4.421   5.078   3.490
 4641SOL     OW14821   2.723   5.133   4.072
 4641SOL    HW114822   2.788   5.170   4.139
 4641SOL    HW214823   2.769   5.119   3.985
 4642SOL     OW14824   0.429   6.583   5.366
 4642SOL    HW114825   0.527   6.589   5.385
 4642SOL    HW214826   0.390   6.509   5.420
 4643SOL     OW14827   5.165   2.542   0.897
 4643SOL    HW114828   5.111   2.484   0.835
 4643SOL    HW214829   5.218   2.607   0.843
 4644SOL     OW14830   1.335   4.526   4.764
 4644SOL    HW114831   1.354   4.618   4.797
 4644SOL    HW214832   1.414   4.468   4.780
 4645SOL     OW14833   1.621   0.201   4.444
 4645SOL    HW114834   1.701   0.240   4.489
 4645SOL    HW214835   1.538   0.239   4.485
 4646SOL     OW14836   2.119   6.459   2.693
 4646SOL    HW114837   2.032   6.412   2.680
 4646SOL    HW214838   2.162   6.476   2.604
 4647SOL     OW14839   0.283   6.587   3.237
 4647SOL    HW114840   0.246   6.623   3.152
 4647SOL    HW214841   0.246   6.640   3.314
 4648SOL     OW14842   4.211   0.043   1.041
 4648SOL    HW114843   4.173   0.077   0.955
 4648SOL    HW214844   4.178   6.976   1.057
 4649SOL     OW14845   5.031   7.001   5.994
 4649SOL    HW114846   5.119   6.953   6.005
 4649SOL    HW214847   5.037   0.066   6.035
 4650SOL     OW14848   3.953   6.093   3.545
 4650SOL    HW114849   3.993   6.091   3.454
 4650SOL    HW214850   3.925   6.187   3.567
 4651SOL     OW14851   0.147   1.990   1.169
 4651SOL    HW114852   0.239   2.019   1.142
 4651SOL    HW214853   0.090   2.070   1.186
 4652SOL     OW14854   0.855   0.102   3.271
 4652SOL    HW114855   0.941   0.052   3.260
 4652SOL    HW214856   0.778   0.038   3.267
 4653SOL     OW14857   6.709   5.278   0.451
 4653SOL    HW114858   6.806   5.300   0.447
 4653SOL    HW214859   6.692   5.211   0.522
 4654SOL     OW14860   0.677   0.296   6.874
 4654SOL    HW114861   0.686   0.347   6.960
 4654SOL    HW214862   0.591   0.244   6.876
 4655SOL     OW14863   0.010   5.078   1.695
 4655SOL    HW114864   0.108   5.066   1.707
 4655SOL    HW214865   7.002   5.140   1.766
 4656SOL     OW14866   1.090   6.741   3.177
 4656SOL    HW114867   1.000   6.729   3.221
 4656SOL    HW214868   1.124   6.652   3.147
 4657SOL     OW14869   4.951   0.059   1.790
 4657SOL    HW114870   4.971   0.139   1.734
 4657SOL    HW214871   5.026   7.020   1.783
 4658SOL     OW14872   3.338   0.467   2.718
 4658SOL    HW114873   3.399   0.420   2.781
 4658SOL    HW214874   3.299   0.547   2.763
 4659SOL     OW14875   2.582   3.942   5.630
 4659SOL    HW114876   2.577   4.042   5.639
 4659SOL    HW214877   2.515   3.911   5.563
 4660SOL     OW14878   1.328   2.666   5.062
 4660SOL    HW114879   1.347   2.683   5.159
 4660SOL    HW214880   1.372   2.736   5.006
 4661SOL     OW14881   4.278   4.481   5.623
 4661SOL    HW114882   4.313   4.437   5.540
 4661SOL    HW214883   4.264   4.413   5.694
 4662SOL     OW14884   5.114   0.228   4.928
 4662SOL    HW114885   5.041   0.238   4.860
 4662SOL    HW214886   5.081   0.171   5.003
 4663SOL     OW14887   0.283   1.188   2.550
 4663SOL    HW114888   0.358   1.210   2.612
 4663SOL    HW214889   0.290   1.092   2.522
 4664SOL     OW14890   1.929   2.684   6.618
 4664SOL    HW114891   1.920   2.650   6.525
 4664SOL    HW214892   1.992   2.625   6.669
 4665SOL     OW14893   4.354   6.983   0.249
 4665SOL    HW114894   4.436   7.023   0.207
 4665SOL    HW214895   4.360   6.883   0.244
 4666SOL     OW14896   2.179   1.837   6.837
 4666SOL    HW114897   2.244   1.885   6.779
 4666SOL    HW214898   2.086   1.856   6.806
 4667SOL     OW14899   6.396   5.211   0.628
 4667SOL    HW114900   6.345   5.200   0.543
 4667SOL    HW214901   6.335   5.201   0.706
 4668SOL     OW14902   0.003   1.637   3.898
 4668SOL    HW114903   0.086   1.661   3.849
 4668SOL    HW214904   6.975   1.719   3.915
 4669SOL     OW14905   3.698   6.505   0.960
 4669SOL    HW114906   3.748   6.543   0.882
 4669SOL    HW214907   3.600   6.520   0.947
 4670SOL     OW14908   3.351   1.574   4.901
 4670SOL    HW114909   3.270   1.631   4.917
 4670SOL    HW214910   3.332   1.480   4.931
 4671SOL     OW14911   6.228   2.788   2.043
 4671SOL    HW114912   6.141   2.785   2.092
 4671SOL    HW214913   6.233   2.710   1.981
 4672SOL     OW14914   2.601   4.501   6.086
 4672SOL    HW114915   2.546   4.472   6.008
 4672SOL    HW214916   2.605   4.601   6.088
 4673SOL     OW14917   5.179   6.958   1.323
 4673SOL    HW114918   5.254   6.955   1.257
 4673SOL    HW214919   5.176   0.022   1.366
 4674SOL     OW14920   5.440   6.175   6.191
 4674SOL    HW114921   5.353   6.209   6.224
 4674SOL    HW214922   5.476   6.106   6.254
 4675SOL     OW14923   0.703   3.353   0.375
 4675SOL    HW114924   0.707   3.339   0.276
 4675SOL    HW214925   0.786   3.316   0.417
 4676SOL     OW14926   0.660   5.902   4.195
 4676SOL    HW114927   0.732   5.949   4.245
 4676SOL    HW214928   0.622   5.829   4.252
 4677SOL     OW14929   2.155   1.993   0.755
 4677SOL    HW114930   2.064   1.989   0.795
 4677SOL    HW214931   2.179   2.088   0.735
 4678SOL     OW14932   2.686   4.881   2.804
 4678SOL    HW114933   2.730   4.823   2.873
 4678SOL    HW214934   2.676   4.830   2.719
 4679SOL     OW14935   3.964   6.955   2.062
 4679SOL    HW114936   4.015   6.950   2.148
 4679SOL    HW214937   3.868   6.973   2.080
 4680SOL     OW14938   3.961   1.451   0.320
 4680SOL    HW114939   3.927   1.545   0.327
 4680SOL    HW214940   4.012   1.441   0.235
 4681SOL     OW14941   4.741   5.043   6.787
 4681SOL    HW114942   4.720   5.069   6.693
 4681SOL    HW214943   4.835   5.071   6.810
 4682SOL     OW14944   5.400   3.902   6.160
 4682SOL    HW114945   5.466   3.838   6.120
 4682SOL    HW214946   5.344   3.853   6.228
 4683SOL     OW14947   5.783   5.483   2.068
 4683SOL    HW114948   5.848   5.554   2.092
 4683SOL    HW214949   5.802   5.401   2.122
 4684SOL     OW14950   4.385   6.368   5.869
 4684SOL    HW114951   4.314   6.306   5.901
 4684SOL    HW214952   4.472   6.345   5.913
 4685SOL     OW14953   2.208   4.722   6.227
 4685SOL    HW114954   2.195   4.638   6.280
 4685SOL    HW214955   2.247   4.699   6.137
 4686SOL     OW14956   4.491   5.360   0.671
 4686SOL    HW114957   4.493   5.434   0.603
 4686SOL    HW214958   4.514   5.274   0.626
 4687SOL     OW14959   4.913   2.563   4.473
 4687SOL    HW114960   4.918   2.599   4.380
 4687SOL    HW214961   4.823   2.585   4.512
 4688SOL     OW14962   5.540   2.958   5.325
 4688SOL    HW114963   5.449   2.999   5.326
 4688SOL    HW214964   5.549   2.895   5.402
 4689SOL     OW14965   5.866   0.957   1.028
 4689SOL    HW114966   5.860   0.929   1.124
 4689SOL    HW214967   5.950   0.920   0.988
 4690SOL     OW14968   1.491   1.527   0.593
 4690SOL    HW114969   1.541   1.606   0.559
 4690SOL    HW214970   1.509   1.447   0.535
 4691SOL     OW14971   3.818   3.813   0.117
 4691SOL    HW114972   3.806   3.765   0.029
 4691SOL    HW214973   3.729   3.844   0.150
 4692SOL     OW14974   5.807   5.225   3.342
 4692SOL    HW114975   5.763   5.139   3.316
 4692SOL    HW214976   5.747   5.302   3.319
 4693SOL     OW14977   0.919   0.984   3.701
 4693SOL    HW114978   0.952   1.034   3.621
 4693SOL    HW214979   0.908   0.888   3.678
 4694SOL     OW14980   2.347   2.670   0.719
 4694SOL    HW114981   2.367   2.763   0.749
 4694SOL    HW214982   2.348   2.666   0.619
 4695SOL     OW14983   1.670   6.188   0.723
 4695SOL    HW114984   1.675   6.241   0.639
 4695SOL    HW214985   1.577   6.190   0.759
 4696SOL     OW14986   0.616   5.746   6.476
 4696SOL    HW114987   0.619   5.647   6.490
 4696SOL    HW214988   0.685   5.772   6.408
 4697SOL     OW14989   1.191   3.769   2.515
 4697SOL    HW114990   1.151   3.677   2.512
 4697SOL    HW214991   1.271   3.772   2.456
 4698SOL     OW14992   4.000   6.911   3.180
 4698SOL    HW114993   4.002   6.833   3.243
 4698SOL    HW214994   3.938   6.981   3.216
 4699SOL     OW14995   0.497   6.453   2.806
 4699SOL    HW114996   0.420   6.511   2.782
 4699SOL    HW214997   0.488   6.423   2.902
 4700SOL     OW14998   6.556   1.237   2.269
 4700SOL    HW114999   6.538   1.213   2.173
 4700SOL    HW215000   6.651   1.268   2.278
 4701SOL     OW15001   3.663   1.914   0.746
 4701SOL    HW115002   3.698   1.957   0.829
 4701SOL    HW215003   3.584   1.857   0.768
 4702SOL     OW15004   4.650   4.324   0.706
 4702SOL    HW115005   4.619   4.402   0.760
 4702SOL    HW215006   4.636   4.342   0.609
 4703SOL     OW15007   0.800   6.303   3.152
 4703SOL    HW115008   0.821   6.400   3.137
 4703SOL    HW215009   0.883   6.255   3.181
 4704SOL     OW15010   0.156   5.807   6.083
 4704SOL    HW115011   0.104   5.727   6.112
 4704SOL    HW215012   0.117   5.843   5.998
 4705SOL     OW15013   3.328   2.513   0.660
 4705SOL    HW115014   3.257   2.483   0.724
 4705SOL    HW215015   3.367   2.434   0.614
 4706SOL     OW15016   1.127   0.623   0.259
 4706SOL    HW115017   1.160   0.528   0.264
 4706SOL    HW215018   1.170   0.676   0.332
 4707SOL     OW15019   0.952   6.111   1.318
 4707SOL    HW115020   0.991   6.033   1.269
 4707SOL    HW215021   0.964   6.194   1.263
 4708SOL     OW15022   0.828   2.127   5.836
 4708SOL    HW115023   0.808   2.215   5.791
 4708SOL    HW215024   0.903   2.139   5.900
 4709SOL     OW15025   4.777   5.150   4.501
 4709SOL    HW115026   4.741   5.201   4.422
 4709SOL    HW215027   4.877   5.148   4.495
 4710SOL     OW15028   5.752   7.022   5.901
 4710SOL    HW115029   5.797   6.985   5.820
 4710SOL    HW215030   5.669   6.968   5.920
 4711SOL     OW15031   6.597   1.687   2.599
 4711SOL    HW115032   6.671   1.652   2.657
 4711SOL    HW215033   6.627   1.769   2.551
 4712SOL     OW15034   3.889   4.764   6.663
 4712SOL    HW115035   3.806   4.735   6.616
 4712SOL    HW215036   3.866   4.829   6.735
 4713SOL     OW15037   5.179   5.762   0.593
 4713SOL    HW115038   5.107   5.786   0.658
 4713SOL    HW215039   5.248   5.706   0.638
 4714SOL     OW15040   0.498   1.450   6.267
 4714SOL    HW115041   0.547   1.517   6.323
 4714SOL    HW215042   0.501   1.360   6.311
 4715SOL     OW15043   6.096   2.871   1.409
 4715SOL    HW115044   6.067   2.808   1.337
 4715SOL    HW215045   6.132   2.818   1.486
 4716SOL     OW15046   4.901   6.378   5.342
 4716SOL    HW115047   4.811   6.407   5.375
 4716SOL    HW215048   4.972   6.413   5.404
 4717SOL     OW15049   1.834   5.090   5.157
 4717SOL    HW115050   1.809   4.993   5.164
 4717SOL    HW215051   1.908   5.110   5.222
 4718SOL     OW15052   5.145   2.531   1.311
 4718SOL    HW115053   5.199   2.520   1.395
 4718SOL    HW215054   5.148   2.445   1.259
 4719SOL     OW15055   4.913   4.060   2.753
 4719SOL    HW115056   4.853   4.105   2.686
 4719SOL    HW215057   4.940   4.126   2.823
 4720SOL     OW15058   1.818   4.556   6.287
 4720SOL    HW115059   1.785   4.650   6.297
 4720SOL    HW215060   1.849   4.542   6.192
 4721SOL     OW15061   6.049   2.266   1.824
 4721SOL    HW115062   5.982   2.336   1.798
 4721SOL    HW215063   6.003   2.195   1.877
 4722SOL     OW15064   0.910   6.407   7.005
 4722SOL    HW115065   0.907   6.357   6.919
 4722SOL    HW215066   0.824   6.455   7.020
 4723SOL     OW15067   3.624   3.982   4.996
 4723SOL    HW115068   3.666   3.990   5.086
 4723SOL    HW215069   3.663   4.050   4.934
 4724SOL     OW15070   7.021   0.187   3.981
 4724SOL    HW115071   0.011   0.285   3.970
 4724SOL    HW215072   0.080   0.142   4.006
 4725SOL     OW15073   5.742   4.881   0.026
 4725SOL    HW115074   5.802   4.960   0.014
 4725SOL    HW215075   5.739   4.857   0.123
 4726SOL     OW15076   1.034   3.224   5.983
 4726SOL    HW115077   1.018   3.194   6.077
 4726SOL    HW215078   1.100   3.299   5.983
 4727SOL     OW15079   7.003   6.235   1.191
 4727SOL    HW115080   6.913   6.242   1.233
 4727SOL    HW215081   0.019   6.147   1.216
 4728SOL     OW15082   6.844   0.974   2.926
 4728SOL    HW115083   6.921   1.038   2.932
 4728SOL    HW215084   6.762   1.018   2.962
 4729SOL     OW15085   4.851   0.464   0.613
 4729SOL    HW115086   4.811   0.418   0.533
 4729SOL    HW215087   4.907   0.398   0.664
 4730SOL     OW15088   3.774   5.792   5.747
 4730SOL    HW115089   3.772   5.707   5.695
 4730SOL    HW215090   3.836   5.857   5.703
 4731SOL     OW15091   2.717   0.970   0.579
 4731SOL    HW115092   2.778   1.047   0.597
 4731SOL    HW215093   2.751   0.918   0.500
 4732SOL     OW15094   0.152   3.450   5.475
 4732SOL    HW115095   0.232   3.445   5.414
 4732SOL    HW215096   0.137   3.545   5.502
 4733SOL     OW15097   0.941   4.011   2.812
 4733SOL    HW115098   0.938   3.921   2.856
 4733SOL    HW215099   0.925   4.001   2.714
 4734SOL     OW15100   5.169   3.130   0.050
 4734SOL    HW115101   5.249   3.096   0.100
 4734SOL    HW215102   5.198   3.161   6.986
 4735SOL     OW15103   6.318   5.288   4.259
 4735SOL    HW115104   6.299   5.386   4.267
 4735SOL    HW215105   6.274   5.239   4.334
 4736SOL     OW15106   5.764   1.614   4.162
 4736SOL    HW115107   5.809   1.612   4.252
 4736SOL    HW215108   5.691   1.682   4.163
 4737SOL     OW15109   2.369   4.396   0.711
 4737SOL    HW115110   2.442   4.328   0.704
 4737SOL    HW215111   2.314   4.378   0.792
 4738SOL     OW15112   3.285   6.393   3.747
 4738SOL    HW115113   3.197   6.353   3.773
 4738SOL    HW215114   3.271   6.457   3.671
 4739SOL     OW15115   5.918   1.802   3.661
 4739SOL    HW115116   5.918   1.725   3.597
 4739SOL    HW215117   5.859   1.780   3.739
 4740SOL     OW15118   0.832   0.665   0.337
 4740SOL    HW115119   0.793   0.743   0.287
 4740SOL    HW215120   0.925   0.648   0.304
 4741SOL     OW15121   4.619   3.678   1.050
 4741SOL    HW115122   4.703   3.629   1.072
 4741SOL    HW215123   4.547   3.651   1.114
 4742SOL     OW15124   3.450   6.128   1.863
 4742SOL    HW115125   3.442   6.180   1.948
 4742SOL    HW215126   3.494   6.040   1.882
 4743SOL     OW15127   1.777   1.971   5.859
 4743SOL    HW115128   1.780   1.918   5.943
 4743SOL    HW215129   1.754   2.066   5.880
 4744SOL     OW15130   2.600   3.146   5.834
 4744SOL    HW115131   2.687   3.193   5.850
 4744SOL    HW215132   2.593   3.120   5.737
 4745SOL     OW15133   2.362   5.234   5.282
 4745SOL    HW115134   2.409   5.203   5.199
 4745SOL    HW215135   2.409   5.313   5.320
 4746SOL     OW15136   6.073   6.295   1.528
 4746SOL    HW115137   6.006   6.368   1.544
 4746SOL    HW215138   6.051   6.216   1.586
 4747SOL     OW15139   1.183   3.450   6.020
 4747SOL    HW115140   1.246   3.464   6.096
 4747SOL    HW215141   1.231   3.466   5.933
 4748SOL     OW15142   1.581   5.773   1.284
 4748SOL    HW115143   1.672   5.737   1.305
 4748SOL    HW215144   1.552   5.739   1.195
 4749SOL     OW15145   2.860   6.537   5.689
 4749SOL    HW115146   2.871   6.504   5.783
 4749SOL    HW215147   2.937   6.504   5.633
 4750SOL     OW15148   0.280   2.195   4.006
 4750SOL    HW115149   0.254   2.099   3.998
 4750SOL    HW215150   0.273   2.239   3.916
 4751SOL     OW15151   2.190   3.923   0.272
 4751SOL    HW115152   2.280   3.951   0.304
 4751SOL    HW215153   2.171   3.965   0.183
 4752SOL     OW15154   2.860   0.144   0.472
 4752SOL    HW115155   2.945   0.111   0.431
 4752SOL    HW215156   2.877   0.174   0.566
 4753SOL     OW15157   5.249   0.303   4.026
 4753SOL    HW115158   5.262   0.351   4.113
 4753SOL    HW215159   5.212   0.212   4.044
 4754SOL     OW15160   5.784   0.584   5.494
 4754SOL    HW115161   5.811   0.497   5.534
 4754SOL    HW215162   5.857   0.652   5.509
 4755SOL     OW15163   2.548   0.998   0.014
 4755SOL    HW115164   2.587   0.919   0.061
 4755SOL    HW215165   2.476   1.038   0.071
 4756SOL     OW15166   5.784   2.043   1.389
 4756SOL    HW115167   5.805   2.065   1.484
 4756SOL    HW215168   5.711   1.975   1.385
 4757SOL     OW15169   1.529   1.798   2.567
 4757SOL    HW115170   1.584   1.862   2.620
 4757SOL    HW215171   1.439   1.787   2.610
 4758SOL     OW15172   3.475   5.407   4.789
 4758SOL    HW115173   3.564   5.366   4.768
 4758SOL    HW215174   3.450   5.470   4.715
 4759SOL     OW15175   5.686   5.589   5.285
 4759SOL    HW115176   5.621   5.659   5.313
 4759SOL    HW215177   5.638   5.502   5.269
 4760SOL     OW15178   3.124   2.417   0.814
 4760SOL    HW115179   3.062   2.345   0.845
 4760SOL    HW215180   3.135   2.486   0.886
 4761SOL     OW15181   6.959   0.747   6.486
 4761SOL    HW115182   6.999   0.800   6.410
 4761SOL    HW215183   6.952   0.806   6.566
 4762SOL     OW15184   2.837   5.033   3.111
 4762SOL    HW115185   2.804   4.953   3.161
 4762SOL    HW215186   2.768   5.060   3.044
 4763SOL     OW15187   5.742   6.369   3.520
 4763SOL    HW115188   5.829   6.418   3.520
 4763SOL    HW215189   5.684   6.403   3.447
 4764SOL     OW15190   5.025   3.783   5.588
 4764SOL    HW115191   4.981   3.736   5.512
 4764SOL    HW215192   4.997   3.879   5.589
 4765SOL     OW15193   5.275   6.681   4.030
 4765SOL    HW115194   5.209   6.713   4.098
 4765SOL    HW215195   5.260   6.584   4.012
 4766SOL     OW15196   4.228   0.564   3.627
 4766SOL    HW115197   4.138   0.606   3.623
 4766SOL    HW215198   4.219   0.466   3.649
 4767SOL     OW15199   4.313   5.736   6.314
 4767SOL    HW115200   4.351   5.783   6.234
 4767SOL    HW215201   4.338   5.786   6.396
 4768SOL     OW15202   5.271   1.972   5.470
 4768SOL    HW115203   5.341   1.998   5.537
 4768SOL    HW215204   5.272   2.036   5.394
 4769SOL     OW15205   4.658   4.971   0.929
 4769SOL    HW115206   4.743   4.984   0.878
 4769SOL    HW215207   4.618   5.060   0.949
 4770SOL     OW15208   1.687   0.002   3.764
 4770SOL    HW115209   1.623   0.064   3.719
 4770SOL    HW215210   1.636   6.963   3.820
 4771SOL     OW15211   3.602   5.413   6.218
 4771SOL    HW115212   3.609   5.340   6.286
 4771SOL    HW215213   3.578   5.499   6.263
 4772SOL     OW15214   2.128   5.765   2.541
 4772SOL    HW115215   2.042   5.714   2.544
 4772SOL    HW215216   2.128   5.826   2.462
 4773SOL     OW15217   6.668   5.002   5.174
 4773SOL    HW115218   6.726   4.938   5.224
 4773SOL    HW215219   6.687   5.096   5.203
 4774SOL     OW15220   1.051   2.081   1.914
 4774SOL    HW115221   1.132   2.042   1.872
 4774SOL    HW215222   1.028   2.029   1.997
 4775SOL     OW15223   5.152   0.291   2.934
 4775SOL    HW115224   5.124   0.195   2.931
 4775SOL    HW215225   5.135   0.328   3.025
 4776SOL     OW15226   1.680   6.673   4.050
 4776SOL    HW115227   1.592   6.665   4.097
 4776SOL    HW215228   1.670   6.733   3.970
 4777SOL     OW15229   3.143   4.972   1.529
 4777SOL    HW115230   3.165   4.876   1.510
 4777SOL    HW215231   3.109   4.980   1.623
 4778SOL     OW15232   5.048   2.346   2.155
 4778SOL    HW115233   5.138   2.303   2.158
 4778SOL    HW215234   5.011   2.356   2.247
 4779SOL     OW15235   6.953   6.318   2.289
 4779SOL    HW115236   6.880   6.265   2.247
 4779SOL    HW215237   6.958   6.297   2.386
 4780SOL     OW15238   6.873   0.120   6.987
 4780SOL    HW115239   6.826   0.187   6.931
 4780SOL    HW215240   6.901   0.042   6.930
 4781SOL     OW15241   2.782   6.121   0.715
 4781SOL    HW115242   2.725   6.199   0.741
 4781SOL    HW215243   2.797   6.121   0.616
 4782SOL     OW15244   4.599   6.767   0.061
 4782SOL    HW115245   4.513   6.772   0.112
 4782SOL    HW215246   4.673   6.740   0.123
 4783SOL     OW15247   4.917   3.851   6.965
 4783SOL    HW115248   4.865   3.926   7.006
 4783SOL    HW215249   4.936   3.782   0.009
 4784SOL     OW15250   6.514   3.694   7.013
 4784SOL    HW115251   6.451   3.684   6.936
 4784SOL    HW215252   6.524   3.605   0.033
 4785SOL     OW15253   6.608   5.571   1.813
 4785SOL    HW115254   6.572   5.642   1.752
 4785SOL    HW215255   6.706   5.583   1.824
 4786SOL     OW15256   2.473   2.143   1.927
 4786SOL    HW115257   2.475   2.150   2.027
 4786SOL    HW215258   2.565   2.122   1.894
 4787SOL     OW15259   3.589   2.064   3.397
 4787SOL    HW115260   3.523   2.138   3.407
 4787SOL    HW215261   3.553   1.981   3.439
 4788SOL     OW15262   1.250   5.484   6.324
 4788SOL    HW115263   1.349   5.478   6.310
 4788SOL    HW215264   1.208   5.395   6.307
 4789SOL     OW15265   5.384   0.562   0.526
 4789SOL    HW115266   5.438   0.639   0.493
 4789SOL    HW215267   5.441   0.503   0.582
 4790SOL     OW15268   6.818   3.317   6.326
 4790SOL    HW115269   6.887   3.354   6.265
 4790SOL    HW215270   6.857   3.242   6.380
 4791SOL     OW15271   5.787   2.079   1.905
 4791SOL    HW115272   5.750   1.987   1.917
 4791SOL    HW215273   5.835   2.107   1.988
 4792SOL     OW15274   1.856   3.206   2.672
 4792SOL    HW115275   1.819   3.185   2.763
 4792SOL    HW215276   1.947   3.247   2.682
 4793SOL     OW15277   0.882   2.747   6.184
 4793SOL    HW115278   0.826   2.682   6.132
 4793SOL    HW215279   0.898   2.711   6.276
 4794SOL     OW15280   4.188   1.019   3.550
 4794SOL    HW115281   4.274   0.985   3.586
 4794SOL    HW215282   4.116   0.950   3.564
 4795SOL     OW15283   6.359   1.432   3.489
 4795SOL    HW115284   6.453   1.452   3.463
 4795SOL    HW215285   6.358   1.396   3.583
 4796SOL     OW15286   5.053   2.264   6.357
 4796SOL    HW115287   5.080   2.197   6.288
 4796SOL    HW215288   5.091   2.354   6.333
 4797SOL     OW15289   1.341   6.720   4.778
 4797SOL    HW115290   1.353   6.681   4.869
 4797SOL    HW215291   1.395   6.804   4.771
 4798SOL     OW15292   7.004   3.150   5.295
 4798SOL    HW115293   6.919   3.200   5.278
 4798SOL    HW215294   0.049   3.183   5.233
 4799SOL     OW15295   5.108   2.077   6.170
 4799SOL    HW115296   5.033   2.012   6.160
 4799SOL    HW215297   5.177   2.060   6.099
 4800SOL     OW15298   2.836   3.269   5.863
 4800SOL    HW115299   2.903   3.263   5.789
 4800SOL    HW215300   2.882   3.257   5.951
 4801SOL     OW15301   2.340   2.477   6.988
 4801SOL    HW115302   2.402   2.400   7.003
 4801SOL    HW215303   2.246   2.449   7.009
 4802SOL     OW15304   0.696   6.823   2.345
 4802SOL    HW115305   0.617   6.765   2.326
 4802SOL    HW215306   0.778   6.766   2.355
 4803SOL     OW15307   1.006   6.778   0.426
 4803SOL    HW115308   0.979   6.762   0.330
 4803SOL    HW215309   0.964   6.862   0.458
 4804SOL     OW15310   4.687   5.282   6.539
 4804SOL    HW115311   4.744   5.271   6.620
 4804SOL    HW215312   4.712   5.366   6.491
 4805SOL     OW15313   6.340   6.882   1.457
 4805SOL    HW115314   6.436   6.876   1.485
 4805SOL    HW215315   6.318   6.806   1.397
 4806SOL     OW15316   0.072   4.134   3.303
 4806SOL    HW115317   0.062   4.169   3.210
 4806SOL    HW215318   0.110   4.207   3.362
 4807SOL     OW15319   1.350   5.332   0.740
 4807SOL    HW115320   1.273   5.396   0.746
 4807SOL    HW215321   1.430   5.381   0.705
 4808SOL     OW15322   6.568   3.840   6.712
 4808SOL    HW115323   6.620   3.801   6.788
 4808SOL    HW215324   6.512   3.916   6.745
 4809SOL     OW15325   3.458   3.923   6.599
 4809SOL    HW115326   3.520   3.936   6.677
 4809SOL    HW215327   3.474   3.995   6.532
 4810SOL     OW15328   1.437   4.703   2.605
 4810SOL    HW115329   1.354   4.734   2.560
 4810SOL    HW215330   1.482   4.781   2.649
 4811SOL     OW15331   2.219   4.845   2.214
 4811SOL    HW115332   2.221   4.754   2.171
 4811SOL    HW215333   2.312   4.870   2.242
 4812SOL     OW15334   0.125   5.063   5.499
 4812SOL    HW115335   0.092   5.085   5.407
 4812SOL    HW215336   0.172   4.975   5.497
 4813SOL     OW15337   5.140   1.755   1.404
 4813SOL    HW115338   5.214   1.715   1.458
 4813SOL    HW215339   5.102   1.686   1.343
 4814SOL     OW15340   5.700   4.340   0.571
 4814SOL    HW115341   5.652   4.275   0.512
 4814SOL    HW215342   5.798   4.324   0.565
 4815SOL     OW15343   5.480   4.590   2.642
 4815SOL    HW115344   5.469   4.657   2.569
 4815SOL    HW215345   5.402   4.528   2.643
 4816SOL     OW15346   6.418   5.114   3.026
 4816SOL    HW115347   6.452   5.172   2.953
 4816SOL    HW215348   6.492   5.097   3.092
 4817SOL     OW15349   0.753   2.045   6.410
 4817SOL    HW115350   0.735   2.134   6.368
 4817SOL    HW215351   0.690   2.030   6.486
 4818SOL     OW15352   0.779   0.018   4.203
 4818SOL    HW115353   0.810   6.950   4.216
 4818SOL    HW215354   0.849   0.081   4.237
 4819SOL     OW15355   1.534   2.589   0.574
 4819SOL    HW115356   1.587   2.533   0.637
 4819SOL    HW215357   1.445   2.546   0.559
 4820SOL     OW15358   6.958   2.896   1.846
 4820SOL    HW115359   6.865   2.875   1.877
 4820SOL    HW215360   7.021   2.829   1.884
 4821SOL     OW15361   0.756   6.250   2.894
 4821SOL    HW115362   0.773   6.232   2.990
 4821SOL    HW215363   0.674   6.306   2.884
 4822SOL     OW15364   1.242   3.547   4.845
 4822SOL    HW115365   1.192   3.631   4.824
 4822SOL    HW215366   1.335   3.553   4.806
 4823SOL     OW15367   1.830   1.853   3.516
 4823SOL    HW115368   1.870   1.783   3.575
 4823SOL    HW215369   1.751   1.814   3.468
 4824SOL     OW15370   5.487   2.576   5.400
 4824SOL    HW115371   5.468   2.623   5.314
 4824SOL    HW215372   5.402   2.564   5.451
 4825SOL     OW15373   1.339   2.260   4.260
 4825SOL    HW115374   1.357   2.259   4.359
 4825SOL    HW215375   1.329   2.354   4.229
 4826SOL     OW15376   5.961   0.662   0.745
 4826SOL    HW115377   6.048   0.615   0.757
 4826SOL    HW215378   5.938   0.711   0.829
 4827SOL     OW15379   6.469   2.185   1.156
 4827SOL    HW115380   6.435   2.273   1.124
 4827SOL    HW215381   6.531   2.199   1.234
 4828SOL     OW15382   5.313   0.737   1.050
 4828SOL    HW115383   5.344   0.748   0.956
 4828SOL    HW215384   5.392   0.726   1.110
 4829SOL     OW15385   3.934   0.187   6.356
 4829SOL    HW115386   4.030   0.213   6.356
 4829SOL    HW215387   3.915   0.128   6.434
 4830SOL     OW15388   3.597   5.597   3.958
 4830SOL    HW115389   3.696   5.605   3.975
 4830SOL    HW215390   3.549   5.666   4.012
 4831SOL     OW15391   2.153   5.234   4.941
 4831SOL    HW115392   2.152   5.327   4.905
 4831SOL    HW215393   2.244   5.213   4.977
 4832SOL     OW15394   3.025   3.731   3.882
 4832SOL    HW115395   3.058   3.807   3.826
 4832SOL    HW215396   3.038   3.753   3.979
 4833SOL     OW15397   5.681   1.924   2.740
 4833SOL    HW115398   5.686   2.021   2.764
 4833SOL    HW215399   5.773   1.887   2.731
 4834SOL     OW15400   2.071   5.866   2.243
 4834SOL    HW115401   2.042   5.942   2.185
 4834SOL    HW215402   2.134   5.808   2.192
 4835SOL     OW15403   6.269   2.936   6.149
 4835SOL    HW115404   6.350   2.968   6.198
 4835SOL    HW215405   6.220   3.014   6.112
 4836SOL     OW15406   5.480   1.252   4.709
 4836SOL    HW115407   5.561   1.214   4.754
 4836SOL    HW215408   5.467   1.347   4.739
 4837SOL     OW15409   6.604   3.875   3.102
 4837SOL    HW115410   6.620   3.971   3.080
 4837SOL    HW215411   6.679   3.841   3.159
 4838SOL     OW15412   2.416   5.923   0.025
 4838SOL    HW115413   2.427   5.882   6.960
 4838SOL    HW215414   2.331   5.975   0.028
 4839SOL     OW15415   1.626   3.221   0.379
 4839SOL    HW115416   1.668   3.309   0.361
 4839SOL    HW215417   1.530   3.234   0.403
 4840SOL     OW15418   6.149   3.806   5.919
 4840SOL    HW115419   6.138   3.801   5.819
 4840SOL    HW215420   6.067   3.847   5.959
 4841SOL     OW15421   2.946   5.451   3.016
 4841SOL    HW115422   2.887   5.509   2.960
 4841SOL    HW215423   3.025   5.421   2.961
 4842SOL     OW15424   2.843   4.981   3.582
 4842SOL    HW115425   2.750   4.948   3.565
 4842SOL    HW215426   2.872   5.038   3.505
 4843SOL     OW15427   6.802   1.984   2.133
 4843SOL    HW115428   6.822   1.937   2.047
 4843SOL    HW215429   6.775   2.078   2.114
 4844SOL     OW15430   0.318   4.051   5.340
 4844SOL    HW115431   0.264   3.981   5.293
 4844SOL    HW215432   0.259   4.129   5.363
 4845SOL     OW15433   4.336   5.156   5.698
 4845SOL    HW115434   4.394   5.142   5.617
 4845SOL    HW215435   4.253   5.102   5.690
 4846SOL     OW15436   0.267   1.711   3.313
 4846SOL    HW115437   0.341   1.747   3.256
 4846SOL    HW215438   0.180   1.751   3.283
 4847SOL     OW15439   2.410   1.527   5.303
 4847SOL    HW115440   2.406   1.612   5.355
 4847SOL    HW215441   2.319   1.502   5.271
 4848SOL     OW15442   2.715   1.276   4.038
 4848SOL    HW115443   2.719   1.339   4.116
 4848SOL    HW215444   2.641   1.304   3.977
 4849SOL     OW15445   2.035   6.719   0.649
 4849SOL    HW115446   1.949   6.702   0.600
 4849SOL    HW215447   2.066   6.635   0.694
 4850SOL     OW15448   4.878   0.662   1.133
 4850SOL    HW115449   4.880   0.570   1.095
 4850SOL    HW215450   4.821   0.663   1.216
 4851SOL     OW15451   4.014   5.473   6.586
 4851SOL    HW115452   4.083   5.545   6.594
 4851SOL    HW215453   4.056   5.384   6.605
 4852SOL     OW15454   2.630   5.713   4.740
 4852SOL    HW115455   2.545   5.745   4.698
 4852SOL    HW215456   2.662   5.631   4.691
 4853SOL     OW15457   4.026   1.324   3.374
 4853SOL    HW115458   4.087   1.368   3.440
 4853SOL    HW215459   3.994   1.392   3.308
 4854SOL     OW15460   4.750   6.698   1.796
 4854SOL    HW115461   4.707   6.607   1.796
 4854SOL    HW215462   4.707   6.755   1.866
 4855SOL     OW15463   6.319   3.352   4.919
 4855SOL    HW115464   6.279   3.332   5.008
 4855SOL    HW215465   6.357   3.445   4.920
 4856SOL     OW15466   0.531   2.880   2.813
 4856SOL    HW115467   0.595   2.843   2.880
 4856SOL    HW215468   0.575   2.954   2.762
 4857SOL     OW15469   3.486   1.811   3.267
 4857SOL    HW115470   3.486   1.749   3.345
 4857SOL    HW215471   3.541   1.772   3.193
 4858SOL     OW15472   0.691   0.061   4.994
 4858SOL    HW115473   0.774   0.117   4.988
 4858SOL    HW215474   0.615   0.111   4.953
 4859SOL     OW15475   1.174   5.033   1.983
 4859SOL    HW115476   1.217   5.116   2.021
 4859SOL    HW215477   1.075   5.040   1.992
 4860SOL     OW15478   4.312   4.069   0.455
 4860SOL    HW115479   4.315   4.073   0.555
 4860SOL    HW215480   4.374   3.998   0.423
 4861SOL     OW15481   6.027   5.690   6.611
 4861SOL    HW115482   6.029   5.741   6.525
 4861SOL    HW215483   6.120   5.663   6.635
 4862SOL     OW15484   2.686   4.674   4.481
 4862SOL    HW115485   2.767   4.618   4.465
 4862SOL    HW215486   2.608   4.616   4.505
 4863SOL     OW15487   4.882   3.301   2.715
 4863SOL    HW115488   4.855   3.207   2.737
 4863SOL    HW215489   4.869   3.317   2.618
 4864SOL     OW15490   3.147   1.566   1.647
 4864SOL    HW115491   3.071   1.617   1.686
 4864SOL    HW215492   3.212   1.543   1.720
 4865SOL     OW15493   2.513   5.398   5.426
 4865SOL    HW115494   2.504   5.497   5.433
 4865SOL    HW215495   2.567   5.364   5.504
 4866SOL     OW15496   6.102   4.953   1.420
 4866SOL    HW115497   6.144   4.863   1.409
 4866SOL    HW215498   6.116   4.986   1.513
 4867SOL     OW15499   4.560   5.681   3.716
 4867SOL    HW115500   4.472   5.728   3.726
 4867SOL    HW215501   4.553   5.611   3.645
 4868SOL     OW15502   0.616   5.678   1.710
 4868SOL    HW115503   0.635   5.634   1.622
 4868SOL    HW215504   0.577   5.610   1.773
 4869SOL     OW15505   6.652   2.500   1.284
 4869SOL    HW115506   6.576   2.550   1.243
 4869SOL    HW215507   6.617   2.431   1.347
 4870SOL     OW15508   4.792   4.877   1.607
 4870SOL    HW115509   4.736   4.812   1.658
 4870SOL    HW215510   4.737   4.955   1.580
 4871SOL     OW15511   1.135   0.515   3.930
 4871SOL    HW115512   1.189   0.568   3.995
 4871SOL    HW215513   1.052   0.565   3.907
 4872SOL     OW15514   1.061   6.991   3.185
 4872SOL    HW115515   1.140   0.012   3.148
 4872SOL    HW215516   1.078   6.892   3.186
 4873SOL     OW15517   0.099   5.103   4.285
 4873SOL    HW115518   0.071   5.089   4.190
 4873SOL    HW215519   0.077   5.022   4.339
 4874SOL     OW15520   5.759   3.861   2.262
 4874SOL    HW115521   5.739   3.926   2.189
 4874SOL    HW215522   5.858   3.852   2.273
 4875SOL     OW15523   5.883   2.350   0.844
 4875SOL    HW115524   5.863   2.254   0.866
 4875SOL    HW215525   5.827   2.410   0.901
 4876SOL     OW15526   5.629   0.686   5.288
 4876SOL    HW115527   5.704   0.753   5.298
 4876SOL    HW215528   5.630   0.623   5.365
 4877SOL     OW15529   6.912   1.290   1.226
 4877SOL    HW115530   6.889   1.271   1.321
 4877SOL    HW215531   6.998   1.341   1.221
 4878SOL     OW15532   0.070   1.295   2.362
 4878SOL    HW115533   0.131   1.253   2.429
 4878SOL    HW215534   0.114   1.377   2.325
 4879SOL     OW15535   4.471   4.500   2.839
 4879SOL    HW115536   4.387   4.554   2.831
 4879SOL    HW215537   4.504   4.476   2.748
 4880SOL     OW15538   5.465   2.068   6.826
 4880SOL    HW115539   5.379   2.118   6.815
 4880SOL    HW215540   5.453   1.974   6.797
 4881SOL     OW15541   2.273   5.859   6.658
 4881SOL    HW115542   2.213   5.781   6.637
 4881SOL    HW215543   2.225   5.925   6.715
 4882SOL     OW15544   6.226   1.640   5.591
 4882SOL    HW115545   6.193   1.549   5.567
 4882SOL    HW215546   6.166   1.680   5.660
 4883SOL     OW15547   4.876   5.018   2.409
 4883SOL    HW115548   4.946   5.087   2.390
 4883SOL    HW215549   4.910   4.954   2.478
 4884SOL     OW15550   4.517   0.163   1.542
 4884SOL    HW115551   4.422   0.134   1.525
 4884SOL    HW215552   4.547   0.221   1.467
 4885SOL     OW15553   2.159   6.503   2.185
 4885SOL    HW115554   2.108   6.470   2.265
 4885SOL    HW215555   2.167   6.429   2.118
 4886SOL     OW15556   0.633   6.711   6.043
 4886SOL    HW115557   0.550   6.658   6.060
 4886SOL    HW215558   0.644   6.725   5.945
 4887SOL     OW15559   0.014   1.756   3.251
 4887SOL    HW115560   6.999   1.821   3.314
 4887SOL    HW215561   6.975   1.685   3.228
 4888SOL     OW15562   1.648   6.627   3.706
 4888SOL    HW115563   1.590   6.698   3.746
 4888SOL    HW215564   1.744   6.648   3.723
 4889SOL     OW15565   0.368   1.785   0.340
 4889SOL    HW115566   0.431   1.711   0.363
 4889SOL    HW215567   0.284   1.776   0.394
 4890SOL     OW15568   0.581   1.736   4.068
 4890SOL    HW115569   0.541   1.774   4.151
 4890SOL    HW215570   0.642   1.803   4.026
 4891SOL     OW15571   0.563   5.503   0.162
 4891SOL    HW115572   0.641   5.563   0.139
 4891SOL    HW215573   0.598   5.418   0.201
 4892SOL     OW15574   1.700   5.815   2.755
 4892SOL    HW115575   1.621   5.776   2.804
 4892SOL    HW215576   1.764   5.852   2.822
 4893SOL     OW15577   6.733   4.218   6.577
 4893SOL    HW115578   6.655   4.183   6.526
 4893SOL    HW215579   6.749   4.161   6.657
 4894SOL     OW15580   2.505   6.870   2.689
 4894SOL    HW115581   2.541   6.815   2.613
 4894SOL    HW215582   2.477   6.959   2.655
 4895SOL     OW15583   0.758   4.183   1.168
 4895SOL    HW115584   0.731   4.249   1.098
 4895SOL    HW215585   0.849   4.148   1.147
 4896SOL     OW15586   3.171   5.298   2.903
 4896SOL    HW115587   3.270   5.308   2.907
 4896SOL    HW215588   3.148   5.216   2.851
 4897SOL     OW15589   3.062   5.355   5.696
 4897SOL    HW115590   3.010   5.438   5.674
 4897SOL    HW215591   3.130   5.337   5.625
 4898SOL     OW15592   5.738   2.691   4.989
 4898SOL    HW115593   5.835   2.707   5.004
 4898SOL    HW215594   5.716   2.596   5.009
 4899SOL     OW15595   6.417   4.635   2.979
 4899SOL    HW115596   6.361   4.716   2.963
 4899SOL    HW215597   6.438   4.627   3.076
 4900SOL     OW15598   1.223   6.553   5.339
 4900SOL    HW115599   1.245   6.510   5.427
 4900SOL    HW215600   1.185   6.644   5.356
 4901SOL     OW15601   1.908   6.598   4.445
 4901SOL    HW115602   1.868   6.630   4.531
 4901SOL    HW215603   1.982   6.534   4.464
 4902SOL     OW15604   1.743   3.208   3.195
 4902SOL    HW115605   1.740   3.203   3.095
 4902SOL    HW215606   1.684   3.282   3.226
 4903SOL     OW15607   3.891   6.260   0.073
 4903SOL    HW115608   3.829   6.335   0.053
 4903SOL    HW215609   3.840   6.173   0.075
 4904SOL     OW15610   1.949   6.569   4.172
 4904SOL    HW115611   1.945   6.582   4.271
 4904SOL    HW215612   1.863   6.600   4.132
 4905SOL     OW15613   4.598   2.220   1.854
 4905SOL    HW115614   4.694   2.248   1.860
 4905SOL    HW215615   4.567   2.186   1.943
 4906SOL     OW15616   3.671   6.994   0.153
 4906SOL    HW115617   3.756   6.943   0.144
 4906SOL    HW215618   3.691   0.064   0.173
 4907SOL     OW15619   4.104   6.627   2.570
 4907SOL    HW115620   4.005   6.626   2.582
 4907SOL    HW215621   4.126   6.642   2.474
 4908SOL     OW15622   4.135   5.760   6.928
 4908SOL    HW115623   4.075   5.690   6.964
 4908SOL    HW215624   4.122   5.768   6.829
 4909SOL     OW15625   5.983   0.784   6.605
 4909SOL    HW115626   5.941   0.705   6.650
 4909SOL    HW215627   6.000   0.856   6.673
 4910SOL     OW15628   4.921   0.315   5.653
 4910SOL    HW115629   4.942   0.308   5.751
 4910SOL    HW215630   4.842   0.258   5.632
 4911SOL     OW15631   0.157   2.191   5.722
 4911SOL    HW115632   0.089   2.232   5.661
 4911SOL    HW215633   0.169   2.095   5.698
 4912SOL     OW15634   5.286   1.467   1.776
 4912SOL    HW115635   5.330   1.529   1.841
 4912SOL    HW215636   5.203   1.429   1.817
 4913SOL     OW15637   3.552   3.911   3.956
 4913SOL    HW115638   3.647   3.930   3.929
 4913SOL    HW215639   3.552   3.852   4.037
 4914SOL     OW15640   2.934   1.035   4.630
 4914SOL    HW115641   2.896   1.119   4.592
 4914SOL    HW215642   2.875   0.957   4.606
 4915SOL     OW15643   4.127   6.703   4.554
 4915SOL    HW115644   4.049   6.765   4.547
 4915SOL    HW215645   4.145   6.683   4.650
 4916SOL     OW15646   2.460   1.750   3.036
 4916SOL    HW115647   2.389   1.727   3.103
 4916SOL    HW215648   2.548   1.713   3.067
 4917SOL     OW15649   1.283   4.147   0.664
 4917SOL    HW115650   1.380   4.151   0.640
 4917SOL    HW215651   1.257   4.053   0.683
 4918SOL     OW15652   3.267   0.140   2.912
 4918SOL    HW115653   3.203   0.067   2.937
 4918SOL    HW215654   3.345   0.137   2.975
 4919SOL     OW15655   1.834   2.381   3.102
 4919SOL    HW115656   1.887   2.340   3.028
 4919SOL    HW215657   1.894   2.441   3.156
 4920SOL     OW15658   4.352   0.656   6.866
 4920SOL    HW115659   4.286   0.730   6.851
 4920SOL    HW215660   4.354   0.596   6.787
 4921SOL     OW15661   2.267   4.352   1.734
 4921SOL    HW115662   2.305   4.443   1.753
 4921SOL    HW215663   2.341   4.289   1.711
 4922SOL     OW15664   1.104   3.426   5.411
 4922SOL    HW115665   1.069   3.335   5.391
 4922SOL    HW215666   1.030   3.484   5.446
 4923SOL     OW15667   4.640   0.429   1.735
 4923SOL    HW115668   4.604   0.337   1.723
 4923SOL    HW215669   4.698   0.432   1.816
 4924SOL     OW15670   2.428   3.678   5.486
 4924SOL    HW115671   2.370   3.742   5.434
 4924SOL    HW215672   2.501   3.644   5.427
 4925SOL     OW15673   5.694   6.164   0.808
 4925SOL    HW115674   5.757   6.127   0.739
 4925SOL    HW215675   5.733   6.149   0.899
 4926SOL     OW15676   4.585   2.643   1.787
 4926SOL    HW115677   4.596   2.566   1.723
 4926SOL    HW215678   4.635   2.722   1.752
 4927SOL     OW15679   3.797   2.930   3.123
 4927SOL    HW115680   3.764   2.934   3.028
 4927SOL    HW215681   3.882   2.981   3.130
 4928SOL     OW15682   0.107   0.040   6.465
 4928SOL    HW115683   0.103   0.025   6.367
 4928SOL    HW215684   0.088   0.136   6.486
 4929SOL     OW15685   0.945   4.178   5.378
 4929SOL    HW115686   0.850   4.197   5.352
 4929SOL    HW215687   0.985   4.260   5.420
 4930SOL     OW15688   0.547   1.399   7.011
 4930SOL    HW115689   0.538   1.448   6.924
 4930SOL    HW215690   0.493   1.445   0.055
 4931SOL     OW15691   0.847   0.195   6.689
 4931SOL    HW115692   0.780   0.223   6.758
 4931SOL    HW215693   0.871   0.099   6.704
 4932SOL     OW15694   2.100   3.300   1.762
 4932SOL    HW115695   2.144   3.387   1.786
 4932SOL    HW215696   2.107   3.237   1.839
 4933SOL     OW15697   1.957   0.762   4.122
 4933SOL    HW115698   1.880   0.789   4.179
 4933SOL    HW215699   2.043   0.786   4.168
 4934SOL     OW15700   1.019   4.956   4.303
 4934SOL    HW115701   1.078   4.876   4.290
 4934SOL    HW215702   1.055   5.033   4.250
 4935SOL     OW15703   1.673   0.990   0.134
 4935SOL    HW115704   1.649   0.971   0.229
 4935SOL    HW215705   1.700   1.086   0.125
 4936SOL     OW15706   2.433   6.292   1.802
 4936SOL    HW115707   2.392   6.232   1.733
 4936SOL    HW215708   2.362   6.351   1.841
 4937SOL     OW15709   0.825   4.255   6.000
 4937SOL    HW115710   0.861   4.280   6.089
 4937SOL    HW215711   0.866   4.168   5.971
 4938SOL     OW15712   3.301   4.907   2.093
 4938SOL    HW115713   3.382   4.852   2.071
 4938SOL    HW215714   3.220   4.864   2.053
 4939SOL     OW15715   1.275   2.397   2.155
 4939SOL    HW115716   1.222   2.331   2.208
 4939SOL    HW215717   1.362   2.415   2.201
 4940SOL     OW15718   0.214   1.657   5.063
 4940SOL    HW115719   0.142   1.726   5.066
 4940SOL    HW215720   0.300   1.700   5.036
 4941SOL     OW15721   4.057   2.754   5.317
 4941SOL    HW115722   4.054   2.836   5.260
 4941SOL    HW215723   4.033   2.674   5.262
 4942SOL     OW15724   5.405   3.261   3.242
 4942SOL    HW115725   5.398   3.238   3.145
 4942SOL    HW215726   5.490   3.223   3.279
 4943SOL     OW15727   5.510   4.138   6.194
 4943SOL    HW115728   5.551   4.129   6.285
 4943SOL    HW215729   5.485   4.047   6.160
 4944SOL     OW15730   2.217   4.543   1.190
 4944SOL    HW115731   2.137   4.574   1.242
 4944SOL    HW215732   2.298   4.547   1.248
 4945SOL     OW15733   1.291   0.774   4.608
 4945SOL    HW115734   1.339   0.727   4.682
 4945SOL    HW215735   1.348   0.848   4.572
 4946SOL     OW15736   1.109   5.003   0.047
 4946SOL    HW115737   1.128   5.047   6.985
 4946SOL    HW215738   1.187   4.947   0.074
 4947SOL     OW15739   2.797   0.867   2.261
 4947SOL    HW115740   2.859   0.943   2.279
 4947SOL    HW215741   2.726   0.895   2.197
 4948SOL     OW15742   1.651   2.529   2.792
 4948SOL    HW115743   1.665   2.431   2.778
 4948SOL    HW215744   1.567   2.558   2.746
 4949SOL     OW15745   6.339   3.634   6.013
 4949SOL    HW115746   6.277   3.706   5.983
 4949SOL    HW215747   6.416   3.674   6.064
 4950SOL     OW15748   2.069   4.056   5.399
 4950SOL    HW115749   2.149   4.074   5.457
 4950SOL    HW215750   2.004   4.132   5.406
 4951SOL     OW15751   6.125   6.359   4.698
 4951SOL    HW115752   6.216   6.351   4.739
 4951SOL    HW215753   6.056   6.339   4.767
 4952SOL     OW15754   0.158   0.383   6.427
 4952SOL    HW115755   0.107   0.438   6.361
 4952SOL    HW215756   0.256   0.398   6.414
 4953SOL     OW15757   2.324   1.237   4.266
 4953SOL    HW115758   2.235   1.244   4.311
 4953SOL    HW215759   2.397   1.245   4.335
 4954SOL     OW15760   2.082   4.007   6.186
 4954SOL    HW115761   1.994   4.019   6.140
 4954SOL    HW215762   2.124   4.096   6.202
 4955SOL     OW15763   3.434   5.636   0.191
 4955SOL    HW115764   3.435   5.669   0.096
 4955SOL    HW215765   3.378   5.554   0.196
 4956SOL     OW15766   3.045   0.577   5.778
 4956SOL    HW115767   2.993   0.495   5.803
 4956SOL    HW215768   2.987   0.638   5.724
 4957SOL     OW15769   6.078   3.244   0.240
 4957SOL    HW115770   6.026   3.203   0.314
 4957SOL    HW215771   6.016   3.274   0.167
 4958SOL     OW15772   2.087   6.056   5.842
 4958SOL    HW115773   2.001   6.090   5.803
 4958SOL    HW215774   2.084   6.064   5.942
 4959SOL     OW15775   6.622   1.841   1.474
 4959SOL    HW115776   6.662   1.862   1.563
 4959SOL    HW215777   6.534   1.888   1.465
 4960SOL     OW15778   4.172   4.749   3.517
 4960SOL    HW115779   4.080   4.774   3.486
 4960SOL    HW215780   4.212   4.684   3.453
 4961SOL     OW15781   3.367   0.723   6.333
 4961SOL    HW115782   3.356   0.822   6.332
 4961SOL    HW215783   3.327   0.684   6.250
 4962SOL     OW15784   5.699   2.460   1.024
 4962SOL    HW115785   5.617   2.459   0.967
 4962SOL    HW215786   5.705   2.548   1.072
 4963SOL     OW15787   1.524   5.361   1.116
 4963SOL    HW115788   1.579   5.372   1.033
 4963SOL    HW215789   1.430   5.337   1.090
 4964SOL     OW15790   2.131   6.471   5.045
 4964SOL    HW115791   2.080   6.539   4.992
 4964SOL    HW215792   2.142   6.388   4.990
 4965SOL     OW15793   0.766   6.778   2.893
 4965SOL    HW115794   0.673   6.811   2.910
 4965SOL    HW215795   0.832   6.848   2.921
 4966SOL     OW15796   1.616   6.321   4.318
 4966SOL    HW115797   1.584   6.320   4.223
 4966SOL    HW215798   1.541   6.295   4.378
 4967SOL     OW15799   3.140   5.344   5.952
 4967SOL    HW115800   3.072   5.285   5.996
 4967SOL    HW215801   3.124   5.345   5.853
 4968SOL     OW15802   0.012   1.230   3.763
 4968SOL    HW115803   0.015   1.155   3.829
 4968SOL    HW215804   0.104   1.269   3.753
 4969SOL     OW15805   0.407   5.784   2.855
 4969SOL    HW115806   0.464   5.771   2.774
 4969SOL    HW215807   0.368   5.697   2.883
 4970SOL     OW15808   2.273   0.852   1.259
 4970SOL    HW115809   2.243   0.767   1.303
 4970SOL    HW215810   2.371   0.866   1.276
 4971SOL     OW15811   6.459   6.056   3.477
 4971SOL    HW115812   6.445   5.958   3.495
 4971SOL    HW215813   6.462   6.071   3.378
 4972SOL     OW15814   1.107   4.307   0.556
 4972SOL    HW115815   1.165   4.227   0.575
 4972SOL    HW215816   1.165   4.386   0.537
 4973SOL     OW15817   0.610   0.515   1.846
 4973SOL    HW115818   0.548   0.593   1.849
 4973SOL    HW215819   0.697   0.539   1.890
 4974SOL     OW15820   5.994   4.679   1.188
 4974SOL    HW115821   5.899   4.711   1.184
 4974SOL    HW215822   6.026   4.656   1.097
 4975SOL     OW15823   5.682   4.146   0.403
 4975SOL    HW115824   5.626   4.064   0.417
 4975SOL    HW215825   5.777   4.126   0.428
 4976SOL     OW15826   1.430   0.167   4.829
 4976SOL    HW115827   1.416   0.201   4.736
 4976SOL    HW215828   1.441   0.245   4.891
 4977SOL     OW15829   3.512   4.152   6.465
 4977SOL    HW115830   3.486   4.200   6.549
 4977SOL    HW215831   3.610   4.165   6.448
 4978SOL     OW15832   5.590   4.618   4.504
 4978SOL    HW115833   5.670   4.612   4.564
 4978SOL    HW215834   5.508   4.630   4.560
 4979SOL     OW15835   7.000   6.644   6.588
 4979SOL    HW115836   6.968   6.578   6.656
 4979SOL    HW215837   0.023   6.596   6.516
 4980SOL     OW15838   5.492   5.250   2.635
 4980SOL    HW115839   5.576   5.297   2.607
 4980SOL    HW215840   5.419   5.270   2.568
 4981SOL     OW15841   3.821   5.779   1.992
 4981SOL    HW115842   3.915   5.809   1.974
 4981SOL    HW215843   3.822   5.693   2.043
 4982SOL     OW15844   3.325   1.911   6.227
 4982SOL    HW115845   3.379   1.993   6.247
 4982SOL    HW215846   3.251   1.935   6.164
 4983SOL     OW15847   6.238   4.691   4.787
 4983SOL    HW115848   6.287   4.711   4.702
 4983SOL    HW215849   6.285   4.736   4.863
 4984SOL     OW15850   4.827   4.377   2.749
 4984SOL    HW115851   4.737   4.351   2.712
 4984SOL    HW215852   4.897   4.363   2.679
 4985SOL     OW15853   5.125   6.182   2.779
 4985SOL    HW115854   5.087   6.172   2.687
 4985SOL    HW215855   5.213   6.230   2.773
 4986SOL     OW15856   6.060   4.923   0.396
 4986SOL    HW115857   6.146   4.967   0.371
 4986SOL    HW215858   6.022   4.968   0.477
 4987SOL     OW15859   1.180   6.346   1.948
 4987SOL    HW115860   1.139   6.266   1.991
 4987SOL    HW215861   1.277   6.328   1.930
 4988SOL     OW15862   6.030   1.261   3.621
 4988SOL    HW115863   6.016   1.170   3.659
 4988SOL    HW215864   6.053   1.325   3.694
 4989SOL     OW15865   4.954   0.234   2.031
 4989SOL    HW115866   5.041   0.191   2.054
 4989SOL    HW215867   4.910   0.182   1.958
 4990SOL     OW15868   3.124   2.471   6.476
 4990SOL    HW115869   3.156   2.484   6.570
 4990SOL    HW215870   3.142   2.377   6.447
 4991SOL     OW15871   6.712   4.901   3.754
 4991SOL    HW115872   6.669   4.986   3.785
 4991SOL    HW215873   6.641   4.836   3.727
 4992SOL     OW15874   5.517   0.997   2.702
 4992SOL    HW115875   5.434   1.045   2.730
 4992SOL    HW215876   5.582   0.995   2.779
 4993SOL     OW15877   3.685   5.931   5.142
 4993SOL    HW115878   3.592   5.959   5.122
 4993SOL    HW215879   3.699   5.837   5.110
 4994SOL     OW15880   2.552   5.768   5.010
 4994SOL    HW115881   2.618   5.821   5.062
 4994SOL    HW215882   2.596   5.731   4.928
 4995SOL     OW15883   1.253   0.945   5.481
 4995SOL    HW115884   1.281   0.886   5.557
 4995SOL    HW215885   1.314   1.024   5.476
 4996SOL     OW15886   6.737   0.712   3.469
 4996SOL    HW115887   6.794   0.739   3.392
 4996SOL    HW215888   6.665   0.780   3.485
 4997SOL     OW15889   3.900   2.241   1.173
 4997SOL    HW115890   3.832   2.310   1.149
 4997SOL    HW215891   3.867   2.187   1.250
 4998SOL     OW15892   1.813   3.197   4.447
 4998SOL    HW115893   1.748   3.151   4.386
 4998SOL    HW215894   1.877   3.130   4.484
 4999SOL     OW15895   6.929   3.319   4.415
 4999SOL    HW115896   6.858   3.276   4.359
 4999SOL    HW215897   6.937   3.270   4.502
 5000SOL     OW15898   3.233   6.960   3.210
 5000SOL    HW115899   3.321   6.991   3.175
 5000SOL    HW215900   3.217   6.999   3.301
 5001SOL     OW15901   0.755   5.887   2.489
 5001SOL    HW115902   0.775   5.985   2.497
 5001SOL    HW215903   0.840   5.837   2.474
 5002SOL     OW15904   0.201   4.904   1.977
 5002SOL    HW115905   0.189   4.808   2.003
 5002SOL    HW215906   0.203   4.912   1.878
 5003SOL     OW15907   4.535   6.342   2.840
 5003SOL    HW115908   4.530   6.376   2.934
 5003SOL    HW215909   4.527   6.243   2.839
 5004SOL     OW15910   2.303   4.758   5.635
 5004SOL    HW115911   2.205   4.776   5.624
 5004SOL    HW215912   2.352   4.781   5.551
 5005SOL     OW15913   2.799   2.615   6.346
 5005SOL    HW115914   2.888   2.661   6.346
 5005SOL    HW215915   2.742   2.655   6.274
 5006SOL     OW15916   5.942   0.923   2.282
 5006SOL    HW115917   6.039   0.948   2.278
 5006SOL    HW215918   5.897   0.952   2.198
 5007SOL     OW15919   6.979   0.217   1.137
 5007SOL    HW115920   0.032   0.277   1.122
 5007SOL    HW215921   6.895   0.270   1.123
 5008SOL     OW15922   5.854   5.823   1.585
 5008SOL    HW115923   5.755   5.841   1.588
 5008SOL    HW215924   5.877   5.753   1.652
 5009SOL     OW15925   0.179   2.653   0.485
 5009SOL    HW115926   0.093   2.668   0.533
 5009SOL    HW215927   0.244   2.607   0.546
 5010SOL     OW15928   4.385   2.130   0.647
 5010SOL    HW115929   4.422   2.220   0.672
 5010SOL    HW215930   4.438   2.093   0.571
 5011SOL     OW15931   1.865   4.494   1.248
 5011SOL    HW115932   1.912   4.582   1.254
 5011SOL    HW215933   1.910   4.428   1.309
 5012SOL     OW15934   6.137   2.264   5.312
 5012SOL    HW115935   6.155   2.287   5.216
 5012SOL    HW215936   6.213   2.297   5.368
 5013SOL     OW15937   5.363   0.879   6.504
 5013SOL    HW115938   5.461   0.896   6.512
 5013SOL    HW215939   5.314   0.967   6.508
 5014SOL     OW15940   6.445   4.141   0.097
 5014SOL    HW115941   6.539   4.163   0.124
 5014SOL    HW215942   6.383   4.157   0.174
 5015SOL     OW15943   4.676   0.821   4.688
 5015SOL    HW115944   4.578   0.808   4.671
 5015SOL    HW215945   4.700   0.917   4.671
 5016SOL     OW15946   0.940   3.000   5.201
 5016SOL    HW115947   0.966   3.075   5.140
 5016SOL    HW215948   0.983   3.013   5.290
 5017SOL     OW15949   1.706   2.373   1.263
 5017SOL    HW115950   1.630   2.311   1.243
 5017SOL    HW215951   1.678   2.438   1.333
 5018SOL     OW15952   1.460   5.385   2.947
 5018SOL    HW115953   1.474   5.362   3.044
 5018SOL    HW215954   1.434   5.304   2.896
 5019SOL     OW15955   2.271   6.451   5.803
 5019SOL    HW115956   2.310   6.503   5.880
 5019SOL    HW215957   2.327   6.369   5.788
 5020SOL     OW15958   6.911   0.303   6.055
 5020SOL    HW115959   6.831   0.358   6.031
 5020SOL    HW215960   6.931   0.314   6.152
 5021SOL     OW15961   1.196   1.111   1.039
 5021SOL    HW115962   1.215   1.189   0.980
 5021SOL    HW215963   1.111   1.067   1.011
 5022SOL     OW15964   1.304   2.437   1.640
 5022SOL    HW115965   1.270   2.522   1.600
 5022SOL    HW215966   1.326   2.452   1.736
 5023SOL     OW15967   0.488   4.177   1.621
 5023SOL    HW115968   0.482   4.142   1.528
 5023SOL    HW215969   0.583   4.203   1.641
 5024SOL     OW15970   5.918   5.338   1.110
 5024SOL    HW115971   5.879   5.276   1.042
 5024SOL    HW215972   5.845   5.390   1.154
 5025SOL     OW15973   4.189   2.244   4.168
 5025SOL    HW115974   4.091   2.257   4.179
 5025SOL    HW215975   4.231   2.227   4.257
 5026SOL     OW15976   6.800   5.516   5.804
 5026SOL    HW115977   6.763   5.505   5.895
 5026SOL    HW215978   6.899   5.531   5.810
 5027SOL     OW15979   6.183   0.229   1.582
 5027SOL    HW115980   6.143   0.233   1.673
 5027SOL    HW215981   6.266   0.172   1.584
 5028SOL     OW15982   6.628   1.642   3.013
 5028SOL    HW115983   6.591   1.732   2.991
 5028SOL    HW215984   6.562   1.571   2.987
 5029SOL     OW15985   5.911   2.205   2.546
 5029SOL    HW115986   5.876   2.113   2.529
 5029SOL    HW215987   5.834   2.269   2.553
 5030SOL     OW15988   6.661   6.488   6.880
 5030SOL    HW115989   6.641   6.393   6.857
 5030SOL    HW215990   6.604   6.549   6.824
 5031SOL     OW15991   6.749   1.184   6.046
 5031SOL    HW115992   6.799   1.100   6.025
 5031SOL    HW215993   6.766   1.252   5.974
 5032SOL     OW15994   3.128   1.478   6.050
 5032SOL    HW115995   3.099   1.468   5.955
 5032SOL    HW215996   3.197   1.549   6.056
 5033SOL     OW15997   2.175   7.014   6.582
 5033SOL    HW115998   2.257   0.027   6.625
 5033SOL    HW215999   2.197   6.927   6.540
 5034SOL     OW16000   5.822   0.331   3.683
 5034SOL    HW116001   5.828   0.245   3.733
 5034SOL    HW216002   5.791   0.313   3.589
 5035SOL     OW16003   0.083   3.968   5.556
 5035SOL    HW116004   0.071   3.998   5.650
 5035SOL    HW216005   0.088   4.049   5.496
 5036SOL     OW16006   0.037   4.751   6.974
 5036SOL    HW116007   0.112   4.784   0.004
 5036SOL    HW216008   0.033   4.651   6.979
 5037SOL     OW16009   5.282   4.688   1.962
 5037SOL    HW116010   5.258   4.663   1.869
 5037SOL    HW216011   5.381   4.701   1.969
 5038SOL     OW16012   3.461   3.201   5.297
 5038SOL    HW116013   3.435   3.107   5.275
 5038SOL    HW216014   3.479   3.251   5.212
 5039SOL     OW16015   2.199   3.479   5.530
 5039SOL    HW116016   2.238   3.570   5.515
 5039SOL    HW216017   2.234   3.416   5.462
 5040SOL     OW16018   0.993   6.343   6.033
 5040SOL    HW116019   1.049   6.374   5.957
 5040SOL    HW216020   0.903   6.385   6.028
 5041SOL     OW16021   1.850   1.632   1.825
 5041SOL    HW116022   1.754   1.603   1.833
 5041SOL    HW216023   1.903   1.557   1.786
 5042SOL     OW16024   6.587   3.484   0.602
 5042SOL    HW116025   6.601   3.510   0.697
 5042SOL    HW216026   6.595   3.385   0.592
 5043SOL     OW16027   4.064   0.329   6.754
 5043SOL    HW116028   4.041   0.336   6.657
 5043SOL    HW216029   3.980   0.338   6.808
 5044SOL     OW16030   0.453   6.370   1.038
 5044SOL    HW116031   0.411   6.432   1.105
 5044SOL    HW216032   0.444   6.409   0.947
 5045SOL     OW16033   5.665   5.822   6.422
 5045SOL    HW116034   5.634   5.735   6.460
 5045SOL    HW216035   5.729   5.866   6.485
 5046SOL     OW16036   3.833   3.942   3.165
 5046SOL    HW116037   3.774   3.861   3.166
 5046SOL    HW216038   3.807   4.002   3.090
 5047SOL     OW16039   1.476   3.943   3.057
 5047SOL    HW116040   1.534   3.901   2.987
 5047SOL    HW216041   1.465   4.041   3.035
 5048SOL     OW16042   1.247   1.106   3.123
 5048SOL    HW116043   1.193   1.085   3.205
 5048SOL    HW216044   1.233   1.033   3.055
 5049SOL     OW16045   4.909   1.834   0.052
 5049SOL    HW116046   4.966   1.902   0.006
 5049SOL    HW216047   4.912   1.850   0.151
 5050SOL     OW16048   1.237   0.415   0.080
 5050SOL    HW116049   1.190   0.408   7.018
 5050SOL    HW216050   1.181   0.373   0.151
 5051SOL     OW16051   4.669   4.033   1.294
 5051SOL    HW116052   4.671   4.083   1.381
 5051SOL    HW216053   4.757   3.990   1.279
 5052SOL     OW16054   2.650   1.570   5.583
 5052SOL    HW116055   2.587   1.494   5.568
 5052SOL    HW216056   2.662   1.621   5.498
 5053SOL     OW16057   1.738   4.368   3.525
 5053SOL    HW116058   1.722   4.280   3.570
 5053SOL    HW216059   1.777   4.433   3.590
 5054SOL     OW16060   2.857   5.001   4.341
 5054SOL    HW116061   2.873   5.097   4.363
 5054SOL    HW216062   2.766   4.990   4.303
 5055SOL     OW16063   0.994   2.380   6.299
 5055SOL    HW116064   0.951   2.297   6.264
 5055SOL    HW216065   0.959   2.459   6.250
 5056SOL     OW16066   5.782   4.218   6.156
 5056SOL    HW116067   5.684   4.228   6.144
 5056SOL    HW216068   5.800   4.165   6.239
 5057SOL     OW16069   0.436   0.006   3.514
 5057SOL    HW116070   0.509   0.066   3.480
 5057SOL    HW216071   0.347   0.047   3.494
 5058SOL     OW16072   3.609   3.878   5.625
 5058SOL    HW116073   3.518   3.904   5.658
 5058SOL    HW216074   3.622   3.780   5.638
 5059SOL     OW16075   6.072   0.814   3.268
 5059SOL    HW116076   6.131   0.894   3.276
 5059SOL    HW216077   6.080   0.758   3.350
 5060SOL     OW16078   0.423   2.389   6.343
 5060SOL    HW116079   0.474   2.354   6.422
 5060SOL    HW216080   0.457   2.480   6.320
 5061SOL     OW16081   5.203   2.763   0.656
 5061SOL    HW116082   5.182   2.829   0.728
 5061SOL    HW216083   5.122   2.749   0.599
 5062SOL     OW16084   6.189   6.708   2.985
 5062SOL    HW116085   6.168   6.796   3.027
 5062SOL    HW216086   6.277   6.714   2.938
 5063SOL     OW16087   0.500   7.012   2.852
 5063SOL    HW116088   0.587   0.023   2.819
 5063SOL    HW216089   0.433   7.013   2.777
 5064SOL     OW16090   4.996   3.288   0.621
 5064SOL    HW116091   4.928   3.339   0.569
 5064SOL    HW216092   5.007   3.197   0.580
 5065SOL     OW16093   2.985   0.756   5.557
 5065SOL    HW116094   2.938   0.695   5.494
 5065SOL    HW216095   3.083   0.754   5.539
 5066SOL     OW16096   5.184   4.401   2.306
 5066SOL    HW116097   5.258   4.461   2.276
 5066SOL    HW216098   5.219   4.309   2.321
 5067SOL     OW16099   4.869   1.138   1.544
 5067SOL    HW116100   4.905   1.218   1.496
 5067SOL    HW216101   4.829   1.075   1.477
 5068SOL     OW16102   2.922   4.554   1.017
 5068SOL    HW116103   2.959   4.488   1.082
 5068SOL    HW216104   2.822   4.547   1.017
 5069SOL     OW16105   1.323   3.899   4.079
 5069SOL    HW116106   1.319   3.928   4.175
 5069SOL    HW216107   1.349   3.976   4.022
 5070SOL     OW16108   5.172   3.758   3.927
 5070SOL    HW116109   5.096   3.766   3.991
 5070SOL    HW216110   5.177   3.664   3.893
 5071SOL     OW16111   4.966   1.942   4.775
 5071SOL    HW116112   5.006   2.009   4.713
 5071SOL    HW216113   5.034   1.875   4.802
 5072SOL     OW16114   0.672   6.778   0.170
 5072SOL    HW116115   0.622   6.821   0.245
 5072SOL    HW216116   0.762   6.748   0.204
 5073SOL     OW16117   7.016   6.854   3.004
 5073SOL    HW116118   0.017   6.841   3.099
 5073SOL    HW216119   6.968   6.942   2.994
 5074SOL     OW16120   3.282   3.426   6.818
 5074SOL    HW116121   3.302   3.330   6.797
 5074SOL    HW216122   3.350   3.484   6.775
 5075SOL     OW16123   0.778   1.802   6.286
 5075SOL    HW116124   0.872   1.790   6.320
 5075SOL    HW216125   0.744   1.892   6.313
 5076SOL     OW16126   3.433   0.627   1.168
 5076SOL    HW116127   3.504   0.662   1.107
 5076SOL    HW216128   3.461   0.639   1.263
 5077SOL     OW16129   0.609   2.688   4.822
 5077SOL    HW116130   0.557   2.678   4.738
 5077SOL    HW216131   0.595   2.607   4.880
 5078SOL     OW16132   0.931   1.742   3.415
 5078SOL    HW116133   0.994   1.671   3.383
 5078SOL    HW216134   0.926   1.815   3.348
 5079SOL     OW16135   2.417   5.062   5.916
 5079SOL    HW116136   2.446   5.075   5.822
 5079SOL    HW216137   2.328   5.015   5.918
 5080SOL     OW16138   5.848   6.438   6.009
 5080SOL    HW116139   5.840   6.344   6.041
 5080SOL    HW216140   5.846   6.440   5.909
 5081SOL     OW16141   3.702   2.912   4.365
 5081SOL    HW116142   3.605   2.932   4.374
 5081SOL    HW216143   3.756   2.989   4.399
 5082SOL     OW16144   5.821   5.580   5.519
 5082SOL    HW116145   5.773   5.554   5.436
 5082SOL    HW216146   5.856   5.498   5.564
 5083SOL     OW16147   2.345   6.462   2.865
 5083SOL    HW116148   2.398   6.546   2.853
 5083SOL    HW216149   2.273   6.457   2.796
 5084SOL     OW16150   0.925   4.880   4.551
 5084SOL    HW116151   0.968   4.930   4.476
 5084SOL    HW216152   0.833   4.852   4.523
 5085SOL     OW16153   5.275   2.578   6.689
 5085SOL    HW116154   5.264   2.492   6.641
 5085SOL    HW216155   5.187   2.607   6.726
 5086SOL     OW16156   6.532   5.617   3.734
 5086SOL    HW116157   6.479   5.638   3.816
 5086SOL    HW216158   6.506   5.527   3.700
 5087SOL     OW16159   6.356   5.646   3.942
 5087SOL    HW116160   6.372   5.681   4.034
 5087SOL    HW216161   6.285   5.701   3.897
 5088SOL     OW16162   5.439   1.618   4.486
 5088SOL    HW116163   5.361   1.576   4.532
 5088SOL    HW216164   5.482   1.550   4.426
 5089SOL     OW16165   5.943   2.931   3.257
 5089SOL    HW116166   5.916   2.915   3.352
 5089SOL    HW216167   5.930   2.847   3.205
 5090SOL     OW16168   1.843   3.680   2.780
 5090SOL    HW116169   1.777   3.750   2.809
 5090SOL    HW216170   1.806   3.589   2.802
 5091SOL     OW16171   1.783   6.356   2.765
 5091SOL    HW116172   1.707   6.292   2.777
 5091SOL    HW216173   1.750   6.441   2.724
 5092SOL     OW16174   2.986   3.019   1.416
 5092SOL    HW116175   3.062   3.082   1.402
 5092SOL    HW216176   2.910   3.067   1.460
 5093SOL     OW16177   2.934   1.334   1.791
 5093SOL    HW116178   2.951   1.361   1.886
 5093SOL    HW216179   2.986   1.393   1.730
 5094SOL     OW16180   0.600   6.535   4.174
 5094SOL    HW116181   0.607   6.436   4.174
 5094SOL    HW216182   0.635   6.571   4.088
 5095SOL     OW16183   0.984   1.914   4.089
 5095SOL    HW116184   1.047   1.838   4.075
 5095SOL    HW216185   1.004   1.957   4.177
 5096SOL     OW16186   4.471   3.809   0.304
 5096SOL    HW116187   4.521   3.728   0.275
 5096SOL    HW216188   4.377   3.803   0.270
 5097SOL     OW16189   1.868   0.433   6.738
 5097SOL    HW116190   1.939   0.371   6.703
 5097SOL    HW216191   1.815   0.387   6.808
 5098SOL     OW16192   0.872   0.774   1.209
 5098SOL    HW116193   0.784   0.744   1.246
 5098SOL    HW216194   0.923   0.824   1.279
 5099SOL     OW16195   0.621   0.219   6.520
 5099SOL    HW116196   0.705   0.217   6.574
 5099SOL    HW216197   0.644   0.223   6.423
 5100SOL     OW16198   4.450   6.729   5.496
 5100SOL    HW116199   4.429   6.678   5.413
 5100SOL    HW216200   4.440   6.670   5.576
 5101SOL     OW16201   4.805   6.732   0.237
 5101SOL    HW116202   4.741   6.760   0.309
 5101SOL    HW216203   4.862   6.809   0.210
 5102SOL     OW16204   5.541   0.298   5.981
 5102SOL    HW116205   5.624   0.346   5.954
 5102SOL    HW216206   5.463   0.359   5.971
 5103SOL     OW16207   0.388   0.719   3.993
 5103SOL    HW116208   0.452   0.691   4.064
 5103SOL    HW216209   0.361   0.814   4.007
 5104SOL     OW16210   2.006   6.106   2.121
 5104SOL    HW116211   2.043   6.131   2.210
 5104SOL    HW216212   2.048   6.164   2.051
 5105SOL     OW16213   4.278   3.478   0.054
 5105SOL    HW116214   4.255   3.401   7.020
 5105SOL    HW216215   4.196   3.535   0.068
 5106SOL     OW16216   3.720   0.320   1.424
 5106SOL    HW116217   3.736   0.410   1.383
 5106SOL    HW216218   3.694   0.331   1.520
 5107SOL     OW16219   3.603   1.124   0.563
 5107SOL    HW116220   3.509   1.092   0.549
 5107SOL    HW216221   3.605   1.187   0.641
 5108SOL     OW16222   3.034   3.177   3.447
 5108SOL    HW116223   2.996   3.259   3.489
 5108SOL    HW216224   3.106   3.140   3.506
 5109SOL     OW16225   0.655   1.147   1.036
 5109SOL    HW116226   0.738   1.124   0.985
 5109SOL    HW216227   0.679   1.165   1.132
 5110SOL     OW16228   0.449   7.018   6.533
 5110SOL    HW116229   0.475   6.948   6.599
 5110SOL    HW216230   0.524   0.057   6.522
 5111SOL     OW16231   0.755   1.238   5.783
 5111SOL    HW116232   0.822   1.245   5.709
 5111SOL    HW216233   0.699   1.321   5.785
 5112SOL     OW16234   0.209   0.143   2.907
 5112SOL    HW116235   0.135   0.208   2.928
 5112SOL    HW216236   0.236   0.095   2.991
 5113SOL     OW16237   1.791   0.008   1.291
 5113SOL    HW116238   1.866   0.068   1.261
 5113SOL    HW216239   1.828   6.960   1.346
 5114SOL     OW16240   3.681   2.793   0.386
 5114SOL    HW116241   3.682   2.760   0.480
 5114SOL    HW216242   3.587   2.807   0.356
 5115SOL     OW16243   2.110   4.711   5.133
 5115SOL    HW116244   2.198   4.666   5.154
 5115SOL    HW216245   2.050   4.704   5.213
 5116SOL     OW16246   5.730   6.635   6.159
 5116SOL    HW116247   5.772   6.566   6.101
 5116SOL    HW216248   5.632   6.618   6.168
 5117SOL     OW16249   1.936   4.783   4.180
 5117SOL    HW116250   1.911   4.824   4.267
 5117SOL    HW216251   1.855   4.779   4.120
 5118SOL     OW16252   4.711   6.226   0.827
 5118SOL    HW116253   4.647   6.166   0.778
 5118SOL    HW216254   4.798   6.178   0.837
 5119SOL     OW16255   5.212   0.599   1.756
 5119SOL    HW116256   5.172   0.606   1.665
 5119SOL    HW216257   5.169   0.666   1.817
 5120SOL     OW16258   5.328   1.576   3.365
 5120SOL    HW116259   5.364   1.515   3.294
 5120SOL    HW216260   5.400   1.595   3.432
 5121SOL     OW16261   1.865   2.405   6.966
 5121SOL    HW116262   1.844   2.491   7.011
 5121SOL    HW216263   1.787   2.343   6.974
 5122SOL     OW16264   3.193   0.743   4.429
 5122SOL    HW116265   3.212   0.836   4.399
 5122SOL    HW216266   3.151   0.692   4.355
 5123SOL     OW16267   5.920   3.476   4.944
 5123SOL    HW116268   5.968   3.543   5.000
 5123SOL    HW216269   5.852   3.522   4.887
 5124SOL     OW16270   2.513   5.286   6.050
 5124SOL    HW116271   2.611   5.286   6.069
 5124SOL    HW216272   2.488   5.202   6.002
 5125SOL     OW16273   6.728   3.743   4.607
 5125SOL    HW116274   6.800   3.674   4.595
 5125SOL    HW216275   6.660   3.734   4.536
 5126SOL     OW16276   6.377   4.650   5.835
 5126SOL    HW116277   6.321   4.595   5.774
 5126SOL    HW216278   6.471   4.616   5.835
 5127SOL     OW16279   5.994   3.671   0.021
 5127SOL    HW116280   6.050   3.731   6.991
 5127SOL    HW216281   5.905   3.657   7.004
 5128SOL     OW16282   0.921   0.376   0.167
 5128SOL    HW116283   0.823   0.360   0.182
 5128SOL    HW216284   0.934   0.468   0.129
 5129SOL     OW16285   4.941   1.037   2.663
 5129SOL    HW116286   4.882   0.959   2.642
 5129SOL    HW216287   4.926   1.110   2.597
 5130SOL     OW16288   1.374   5.875   4.755
 5130SOL    HW116289   1.442   5.825   4.701
 5130SOL    HW216290   1.374   5.841   4.849
 5131SOL     OW16291   2.775   4.809   3.279
 5131SOL    HW116292   2.719   4.747   3.334
 5131SOL    HW216293   2.843   4.853   3.338
 5132SOL     OW16294   3.209   1.064   5.948
 5132SOL    HW116295   3.303   1.098   5.946
 5132SOL    HW216296   3.166   1.090   6.034
 5133SOL     OW16297   2.650   5.770   6.364
 5133SOL    HW116298   2.554   5.752   6.342
 5133SOL    HW216299   2.684   5.844   6.305
 5134SOL     OW16300   6.806   0.099   2.829
 5134SOL    HW116301   6.861   0.093   2.912
 5134SOL    HW216302   6.848   0.164   2.766
 5135SOL     OW16303   6.242   4.081   3.221
 5135SOL    HW116304   6.302   4.101   3.298
 5135SOL    HW216305   6.287   4.016   3.160
 5136SOL     OW16306   6.611   1.452   6.208
 5136SOL    HW116307   6.579   1.475   6.300
 5136SOL    HW216308   6.710   1.466   6.202
 5137SOL     OW16309   5.018   3.290   5.603
 5137SOL    HW116310   5.069   3.374   5.621
 5137SOL    HW216311   4.959   3.303   5.523
 5138SOL     OW16312   3.801   3.936   3.869
 5138SOL    HW116313   3.827   3.972   3.779
 5138SOL    HW216314   3.820   3.838   3.872
 5139SOL     OW16315   1.104   0.201   4.822
 5139SOL    HW116316   1.194   0.161   4.804
 5139SOL    HW216317   1.064   0.156   4.902
 5140SOL     OW16318   3.627   2.070   5.943
 5140SOL    HW116319   3.663   2.088   6.034
 5140SOL    HW216320   3.683   2.000   5.898
 5141SOL     OW16321   6.296   2.709   1.555
 5141SOL    HW116322   6.270   2.615   1.575
 5141SOL    HW216323   6.324   2.717   1.460
 5142SOL     OW16324   5.935   6.974   5.418
 5142SOL    HW116325   5.879   6.943   5.341
 5142SOL    HW216326   6.012   0.002   5.383
 5143SOL     OW16327   1.208   4.080   5.377
 5143SOL    HW116328   1.208   3.985   5.407
 5143SOL    HW216329   1.117   4.119   5.387
 5144SOL     OW16330   1.740   3.673   6.378
 5144SOL    HW116331   1.663   3.689   6.440
 5144SOL    HW216332   1.739   3.742   6.306
 5145SOL     OW16333   3.474   6.169   6.501
 5145SOL    HW116334   3.452   6.071   6.506
 5145SOL    HW216335   3.573   6.181   6.510
 5146SOL     OW16336   3.778   4.092   5.208
 5146SOL    HW116337   3.736   4.178   5.236
 5146SOL    HW216338   3.863   4.112   5.158
 5147SOL     OW16339   5.729   4.974   3.608
 5147SOL    HW116340   5.737   4.899   3.674
 5147SOL    HW216341   5.754   4.941   3.517
 5148SOL     OW16342   0.351   0.263   2.670
 5148SOL    HW116343   0.318   0.218   2.753
 5148SOL    HW216344   0.374   0.194   2.602
 5149SOL     OW16345   5.620   4.936   4.417
 5149SOL    HW116346   5.575   5.000   4.480
 5149SOL    HW216347   5.583   4.844   4.431
 5150SOL     OW16348   2.170   4.523   3.947
 5150SOL    HW116349   2.197   4.440   3.899
 5150SOL    HW216350   2.251   4.578   3.966
 5151SOL     OW16351   5.859   3.658   1.694
 5151SOL    HW116352   5.916   3.583   1.730
 5151SOL    HW216353   5.873   3.740   1.750
 5152SOL     OW16354   1.064   5.764   6.825
 5152SOL    HW116355   1.037   5.845   6.877
 5152SOL    HW216356   1.036   5.776   6.729
 5153SOL     OW16357   1.149   1.370   0.915
 5153SOL    HW116358   1.218   1.431   0.877
 5153SOL    HW216359   1.126   1.398   1.008
 5154SOL     OW16360   1.362   2.960   6.523
 5154SOL    HW116361   1.316   3.006   6.599
 5154SOL    HW216362   1.294   2.923   6.460
 5155SOL     OW16363   3.063   1.890   0.943
 5155SOL    HW116364   3.063   1.905   0.844
 5155SOL    HW216365   3.155   1.911   0.979
 5156SOL     OW16366   5.593   4.248   4.727
 5156SOL    HW116367   5.655   4.273   4.801
 5156SOL    HW216368   5.500   4.278   4.750
 5157SOL     OW16369   3.073   1.711   2.250
 5157SOL    HW116370   3.019   1.691   2.169
 5157SOL    HW216371   3.095   1.809   2.251
 5158SOL     OW16372   2.972   2.554   1.148
 5158SOL    HW116373   3.043   2.520   1.210
 5158SOL    HW216374   2.956   2.651   1.165
 5159SOL     OW16375   5.965   4.258   5.973
 5159SOL    HW116376   6.008   4.341   6.009
 5159SOL    HW216377   5.879   4.242   6.021
 5160SOL     OW16378   6.360   6.302   3.543
 5160SOL    HW116379   6.436   6.365   3.560
 5160SOL    HW216380   6.388   6.231   3.479
 5161SOL     OW16381   1.263   3.350   0.307
 5161SOL    HW116382   1.166   3.361   0.327
 5161SOL    HW216383   1.314   3.429   0.342
 5162SOL     OW16384   0.624   5.545   2.499
 5162SOL    HW116385   0.584   5.625   2.543
 5162SOL    HW216386   0.713   5.525   2.542
 5163SOL     OW16387   4.005   6.791   0.819
 5163SOL    HW116388   4.018   6.751   0.729
 5163SOL    HW216389   3.919   6.843   0.820
 5164SOL     OW16390   2.489   3.075   0.187
 5164SOL    HW116391   2.498   2.978   0.168
 5164SOL    HW216392   2.550   3.127   0.127
 5165SOL     OW16393   1.055   4.290   6.776
 5165SOL    HW116394   0.985   4.334   6.833
 5165SOL    HW216395   1.077   4.350   6.699
 5166SOL     OW16396   1.761   5.219   2.533
 5166SOL    HW116397   1.671   5.219   2.577
 5166SOL    HW216398   1.775   5.133   2.484
 5167SOL     OW16399   6.337   4.328   4.983
 5167SOL    HW116400   6.386   4.401   5.032
 5167SOL    HW216401   6.402   4.276   4.928
 5168SOL     OW16402   4.564   2.218   2.164
 5168SOL    HW116403   4.530   2.160   2.238
 5168SOL    HW216404   4.655   2.187   2.136
 5169SOL     OW16405   4.808   2.015   3.817
 5169SOL    HW116406   4.767   1.936   3.772
 5169SOL    HW216407   4.757   2.098   3.794
 5170SOL     OW16408   1.071   3.619   5.629
 5170SOL    HW116409   1.106   3.710   5.651
 5170SOL    HW216410   1.144   3.566   5.586
 5171SOL     OW16411   0.692   5.004   5.453
 5171SOL    HW116412   0.773   4.955   5.420
 5171SOL    HW216413   0.671   5.079   5.390
 5172SOL     OW16414   1.488   4.799   3.662
 5172SOL    HW116415   1.482   4.707   3.624
 5172SOL    HW216416   1.576   4.810   3.708
 5173SOL     OW16417   4.308   4.221   6.562
 5173SOL    HW116418   4.258   4.176   6.488
 5173SOL    HW216419   4.380   4.279   6.523
 5174SOL     OW16420   1.898   6.716   3.752
 5174SOL    HW116421   1.958   6.684   3.825
 5174SOL    HW216422   1.917   6.812   3.733
 5175SOL     OW16423   2.312   4.156   6.545
 5175SOL    HW116424   2.404   4.120   6.530
 5175SOL    HW216425   2.248   4.080   6.560
 5176SOL     OW16426   5.152   4.882   6.366
 5176SOL    HW116427   5.223   4.901   6.299
 5176SOL    HW216428   5.082   4.823   6.325
 5177SOL     OW16429   5.453   6.241   1.080
 5177SOL    HW116430   5.392   6.257   1.158
 5177SOL    HW216431   5.443   6.147   1.048
 5178SOL     OW16432   0.916   4.789   1.854
 5178SOL    HW116433   0.988   4.725   1.881
 5178SOL    HW216434   0.912   4.795   1.755
 5179SOL     OW16435   5.124   4.579   3.177
 5179SOL    HW116436   5.048   4.644   3.184
 5179SOL    HW216437   5.092   4.494   3.135
 5180SOL     OW16438   3.579   0.217   1.097
 5180SOL    HW116439   3.667   0.264   1.095
 5180SOL    HW216440   3.550   0.202   1.191
 5181SOL     OW16441   0.326   0.496   7.015
 5181SOL    HW116442   0.250   0.431   7.006
 5181SOL    HW216443   0.323   0.537   0.080
 5182SOL     OW16444   4.472   4.502   2.280
 5182SOL    HW116445   4.482   4.429   2.212
 5182SOL    HW216446   4.539   4.574   2.261
 5183SOL     OW16447   3.871   1.536   2.693
 5183SOL    HW116448   3.872   1.602   2.768
 5183SOL    HW216449   3.898   1.446   2.727
 5184SOL     OW16450   2.170   2.275   3.307
 5184SOL    HW116451   2.231   2.233   3.240
 5184SOL    HW216452   2.219   2.288   3.393
 5185SOL     OW16453   4.761   0.205   3.142
 5185SOL    HW116454   4.836   0.152   3.179
 5185SOL    HW216455   4.791   0.299   3.124
 5186SOL     OW16456   6.015   2.874   5.112
 5186SOL    HW116457   6.104   2.886   5.156
 5186SOL    HW216458   6.013   2.786   5.065
 5187SOL     OW16459   2.128   5.473   4.829
 5187SOL    HW116460   2.114   5.483   4.731
 5187SOL    HW216461   2.176   5.554   4.864
 5188SOL     OW16462   6.556   6.302   1.744
 5188SOL    HW116463   6.559   6.396   1.709
 5188SOL    HW216464   6.644   6.278   1.784
 5189SOL     OW16465   5.215   6.021   6.793
 5189SOL    HW116466   5.261   6.052   6.710
 5189SOL    HW216467   5.225   6.090   6.864
 5190SOL     OW16468   1.769   3.033   2.466
 5190SOL    HW116469   1.807   3.090   2.539
 5190SOL    HW216470   1.706   2.966   2.506
 5191SOL     OW16471   3.008   5.770   3.156
 5191SOL    HW116472   2.998   5.719   3.070
 5191SOL    HW216473   2.927   5.756   3.213
 5192SOL     OW16474   1.930   5.786   1.606
 5192SOL    HW116475   1.835   5.758   1.590
 5192SOL    HW216476   1.989   5.706   1.602
 5193SOL     OW16477   4.517   6.661   6.012
 5193SOL    HW116478   4.564   6.727   6.071
 5193SOL    HW216479   4.492   6.705   5.926
 5194SOL     OW16480   2.583   2.062   6.661
 5194SOL    HW116481   2.614   2.112   6.580
 5194SOL    HW216482   2.616   1.968   6.657
 5195SOL     OW16483   0.382   0.320   3.646
 5195SOL    HW116484   0.293   0.337   3.687
 5195SOL    HW216485   0.370   0.284   3.553
 5196SOL     OW16486   4.496   6.614   2.169
 5196SOL    HW116487   4.536   6.705   2.165
 5196SOL    HW216488   4.453   6.600   2.258
 5197SOL     OW16489   1.602   3.917   6.734
 5197SOL    HW116490   1.533   3.894   6.803
 5197SOL    HW216491   1.560   3.972   6.662
 5198SOL     OW16492   4.343   5.437   3.227
 5198SOL    HW116493   4.287   5.354   3.231
 5198SOL    HW216494   4.434   5.415   3.192
 5199SOL     OW16495   6.992   5.529   0.856
 5199SOL    HW116496   6.966   5.443   0.900
 5199SOL    HW216497   7.020   5.595   0.926
 5200SOL     OW16498   6.765   3.181   5.166
 5200SOL    HW116499   6.707   3.168   5.085
 5200SOL    HW216500   6.751   3.105   5.229
 5201SOL     OW16501   0.575   6.682   3.230
 5201SOL    HW116502   0.567   6.710   3.134
 5201SOL    HW216503   0.484   6.672   3.269
 5202SOL     OW16504   6.371   2.820   6.437
 5202SOL    HW116505   6.330   2.731   6.457
 5202SOL    HW216506   6.379   2.831   6.338
 5203SOL     OW16507   2.150   2.544   6.688
 5203SOL    HW116508   2.177   2.562   6.594
 5203SOL    HW216509   2.205   2.600   6.750
 5204SOL     OW16510   3.806   5.086   0.544
 5204SOL    HW116511   3.722   5.085   0.491
 5204SOL    HW216512   3.784   5.092   0.642
 5205SOL     OW16513   1.488   0.285   0.668
 5205SOL    HW116514   1.425   0.362   0.655
 5205SOL    HW216515   1.501   0.270   0.766
 5206SOL     OW16516   0.483   3.612   6.436
 5206SOL    HW116517   0.571   3.627   6.481
 5206SOL    HW216518   0.443   3.700   6.410
 5207SOL     OW16519   1.042   5.177   4.104
 5207SOL    HW116520   1.098   5.166   4.022
 5207SOL    HW216521   0.945   5.168   4.080
 5208SOL     OW16522   3.416   1.396   0.412
 5208SOL    HW116523   3.358   1.334   0.358
 5208SOL    HW216524   3.509   1.396   0.374
 5209SOL     OW16525   5.551   5.552   4.483
 5209SOL    HW116526   5.485   5.555   4.559
 5209SOL    HW216527   5.511   5.594   4.402
 5210SOL     OW16528   6.003   3.046   5.829
 5210SOL    HW116529   5.994   3.037   5.730
 5210SOL    HW216530   5.940   2.982   5.874
 5211SOL     OW16531   3.971   3.027   4.409
 5211SOL    HW116532   3.929   3.111   4.376
 5211SOL    HW216533   4.027   2.987   4.336
 5212SOL     OW16534   7.011   2.227   1.238
 5212SOL    HW116535   6.983   2.309   1.286
 5212SOL    HW216536   6.931   2.170   1.220
 5213SOL     OW16537   5.040   2.397   6.951
 5213SOL    HW116538   5.052   2.310   6.998
 5213SOL    HW216539   5.089   2.396   6.864
 5214SOL     OW16540   5.362   1.295   6.637
 5214SOL    HW116541   5.409   1.335   6.558
 5214SOL    HW216542   5.430   1.262   6.702
 5215SOL     OW16543   5.157   5.462   3.583
 5215SOL    HW116544   5.167   5.550   3.537
 5215SOL    HW216545   5.136   5.391   3.516
 5216SOL     OW16546   5.100   6.058   1.266
 5216SOL    HW116547   5.120   5.993   1.340
 5216SOL    HW216548   5.019   6.028   1.217
 5217SOL     OW16549   3.521   4.918   4.051
 5217SOL    HW116550   3.421   4.914   4.042
 5217SOL    HW216551   3.546   4.897   4.146
 5218SOL     OW16552   1.862   0.385   3.183
 5218SOL    HW116553   1.902   0.375   3.092
 5218SOL    HW216554   1.924   0.438   3.242
 5219SOL     OW16555   3.632   0.538   6.750
 5219SOL    HW116556   3.619   0.488   6.665
 5219SOL    HW216557   3.721   0.582   6.751
 5220SOL     OW16558   1.691   5.525   3.106
 5220SOL    HW116559   1.646   5.532   3.017
 5220SOL    HW216560   1.790   5.539   3.095
 5221SOL     OW16561   5.743   2.427   4.317
 5221SOL    HW116562   5.650   2.392   4.306
 5221SOL    HW216563   5.744   2.526   4.302
 5222SOL     OW16564   2.572   0.665   3.996
 5222SOL    HW116565   2.506   0.700   4.062
 5222SOL    HW216566   2.658   0.716   4.005
 5223SOL     OW16567   5.090   0.641   1.522
 5223SOL    HW116568   5.002   0.663   1.565
 5223SOL    HW216569   5.081   0.644   1.423
 5224SOL     OW16570   0.403   1.493   3.389
 5224SOL    HW116571   0.347   1.576   3.397
 5224SOL    HW216572   0.499   1.516   3.405
 5225SOL     OW16573   6.630   0.814   3.164
 5225SOL    HW116574   6.548   0.760   3.179
 5225SOL    HW216575   6.625   0.898   3.218
 5226SOL     OW16576   0.176   6.108   5.520
 5226SOL    HW116577   0.204   6.038   5.454
 5226SOL    HW216578   0.192   6.075   5.613
 5227SOL     OW16579   1.887   4.394   4.052
 5227SOL    HW116580   1.959   4.405   4.120
 5227SOL    HW216581   1.878   4.479   3.999
 5228SOL     OW16582   6.547   3.135   1.202
 5228SOL    HW116583   6.638   3.157   1.168
 5228SOL    HW216584   6.483   3.208   1.175
 5229SOL     OW16585   1.483   4.404   6.660
 5229SOL    HW116586   1.542   4.413   6.580
 5229SOL    HW216587   1.526   4.448   6.739
 5230SOL     OW16588   7.000   0.100   0.778
 5230SOL    HW116589   0.048   0.053   0.826
 5230SOL    HW216590   6.937   0.032   0.739
 5231SOL     OW16591   2.962   3.794   4.432
 5231SOL    HW116592   3.010   3.871   4.391
 5231SOL    HW216593   2.949   3.812   4.530
 5232SOL     OW16594   2.755   1.909   6.208
 5232SOL    HW116595   2.757   1.890   6.110
 5232SOL    HW216596   2.846   1.938   6.238
 5233SOL     OW16597   6.864   0.444   1.413
 5233SOL    HW116598   6.894   0.358   1.455
 5233SOL    HW216599   6.857   0.432   1.314
 5234SOL     OW16600   3.136   0.349   6.332
 5234SOL    HW116601   3.067   0.306   6.391
 5234SOL    HW216602   3.205   0.393   6.389
 5235SOL     OW16603   1.544   2.965   1.447
 5235SOL    HW116604   1.484   3.043   1.430
 5235SOL    HW216605   1.631   2.979   1.399
 5236SOL     OW16606   5.723   2.932   2.139
 5236SOL    HW116607   5.693   2.853   2.085
 5236SOL    HW216608   5.812   2.912   2.179
 5237SOL     OW16609   2.557   1.608   5.082
 5237SOL    HW116610   2.494   1.538   5.116
 5237SOL    HW216611   2.625   1.565   5.022
 5238SOL     OW16612   2.091   5.364   0.643
 5238SOL    HW116613   2.079   5.299   0.569
 5238SOL    HW216614   2.116   5.315   0.727
 5239SOL     OW16615   3.878   3.678   3.916
 5239SOL    HW116616   3.830   3.644   3.835
 5239SOL    HW216617   3.976   3.681   3.898
 5240SOL     OW16618   2.924   1.949   5.686
 5240SOL    HW116619   2.942   1.854   5.659
 5240SOL    HW216620   3.010   1.992   5.713
 5241SOL     OW16621   1.294   5.611   6.563
 5241SOL    HW116622   1.259   5.701   6.539
 5241SOL    HW216623   1.282   5.548   6.486
 5242SOL     OW16624   6.457   6.352   5.676
 5242SOL    HW116625   6.387   6.358   5.605
 5242SOL    HW216626   6.526   6.285   5.649
 5243SOL     OW16627   1.855   6.233   1.640
 5243SOL    HW116628   1.821   6.218   1.547
 5243SOL    HW216629   1.815   6.317   1.677
 5244SOL     OW16630   4.022   3.733   6.327
 5244SOL    HW116631   4.107   3.720   6.378
 5244SOL    HW216632   4.034   3.806   6.259
 5245SOL     OW16633   4.494   4.401   6.877
 5245SOL    HW116634   4.434   4.459   6.823
 5245SOL    HW216635   4.587   4.404   6.838
 5246SOL     OW16636   5.702   4.386   2.812
 5246SOL    HW116637   5.716   4.434   2.725
 5246SOL    HW216638   5.617   4.419   2.855
 5247SOL     OW16639   1.590   5.951   0.445
 5247SOL    HW116640   1.537   6.027   0.482
 5247SOL    HW216641   1.545   5.864   0.466
 5248SOL     OW16642   5.825   0.838   6.002
 5248SOL    HW116643   5.784   0.774   5.936
 5248SOL    HW216644   5.769   0.921   6.006
 5249SOL     OW16645   0.603   5.303   5.022
 5249SOL    HW116646   0.549   5.222   5.047
 5249SOL    HW216647   0.567   5.383   5.068
 5250SOL     OW16648   0.229   1.419   5.765
 5250SOL    HW116649   0.191   1.439   5.674
 5250SOL    HW216650   0.162   1.367   5.818
 5251SOL     OW16651   0.666   2.772   1.517
 5251SOL    HW116652   0.653   2.688   1.570
 5251SOL    HW216653   0.626   2.760   1.426
 5252SOL     OW16654   1.689   5.859   0.802
 5252SOL    HW116655   1.769   5.829   0.750
 5252SOL    HW216656   1.614   5.878   0.739
 5253SOL     OW16657   5.063   3.530   5.760
 5253SOL    HW116658   5.059   3.620   5.716
 5253SOL    HW216659   4.996   3.526   5.834
 5254SOL     OW16660   5.677   1.671   3.803
 5254SOL    HW116661   5.661   1.737   3.876
 5254SOL    HW216662   5.600   1.672   3.739
 5255SOL     OW16663   4.204   0.103   4.934
 5255SOL    HW116664   4.175   0.133   5.024
 5255SOL    HW216665   4.302   0.083   4.935
 5256SOL     OW16666   4.540   1.501   3.217
 5256SOL    HW116667   4.466   1.488   3.152
 5256SOL    HW216668   4.614   1.437   3.197
 5257SOL     OW16669   4.135   0.709   2.071
 5257SOL    HW116670   4.053   0.765   2.075
 5257SOL    HW216671   4.132   0.640   2.143
 5258SOL     OW16672   5.029   3.896   1.590
 5258SOL    HW116673   4.938   3.935   1.606
 5258SOL    HW216674   5.035   3.807   1.635
 5259SOL     OW16675   4.570   6.489   1.125
 5259SOL    HW116676   4.646   6.514   1.184
 5259SOL    HW216677   4.485   6.494   1.177
 5260SOL     OW16678   5.702   3.158   0.738
 5260SOL    HW116679   5.627   3.092   0.731
 5260SOL    HW216680   5.692   3.212   0.821
 5261SOL     OW16681   1.126   2.792   6.017
 5261SOL    HW116682   1.172   2.706   5.996
 5261SOL    HW216683   1.045   2.773   6.073
 5262SOL     OW16684   3.080   6.843   2.636
 5262SOL    HW116685   3.065   6.935   2.672
 5262SOL    HW216686   3.050   6.839   2.540
 5263SOL     OW16687   0.957   0.638   5.690
 5263SOL    HW116688   0.885   0.697   5.727
 5263SOL    HW216689   0.921   0.585   5.614
 5264SOL     OW16690   5.964   0.579   1.926
 5264SOL    HW116691   5.901   0.554   1.999
 5264SOL    HW216692   6.041   0.631   1.964
 5265SOL     OW16693   5.246   4.411   2.744
 5265SOL    HW116694   5.199   4.463   2.673
 5265SOL    HW216695   5.245   4.314   2.720
 5266SOL     OW16696   2.584   6.792   1.538
 5266SOL    HW116697   2.499   6.844   1.537
 5266SOL    HW216698   2.617   6.783   1.633
 5267SOL     OW16699   4.780   4.793   6.004
 5267SOL    HW116700   4.842   4.868   6.026
 5267SOL    HW216701   4.686   4.826   6.001
 5268SOL     OW16702   6.706   5.533   6.060
 5268SOL    HW116703   6.628   5.475   6.081
 5268SOL    HW216704   6.677   5.629   6.057
 5269SOL     OW16705   2.874   6.036   4.189
 5269SOL    HW116706   2.885   6.100   4.112
 5269SOL    HW216707   2.961   5.992   4.208
 5270SOL     OW16708   4.289   2.237   1.621
 5270SOL    HW116709   4.244   2.238   1.531
 5270SOL    HW216710   4.238   2.178   1.683
 5271SOL     OW16711   4.464   5.361   4.580
 5271SOL    HW116712   4.556   5.330   4.558
 5271SOL    HW216713   4.401   5.283   4.580
 5272SOL     OW16714   1.655   5.468   3.623
 5272SOL    HW116715   1.689   5.502   3.535
 5272SOL    HW216716   1.723   5.487   3.695
 5273SOL     OW16717   0.248   3.495   2.918
 5273SOL    HW116718   0.282   3.442   2.840
 5273SOL    HW216719   0.247   3.437   3.000
 5274SOL     OW16720   6.182   4.955   2.253
 5274SOL    HW116721   6.096   4.978   2.207
 5274SOL    HW216722   6.255   4.949   2.185
 5275SOL     OW16723   3.096   1.564   6.496
 5275SOL    HW116724   3.077   1.645   6.440
 5275SOL    HW216725   3.169   1.584   6.560
 5276SOL     OW16726   0.879   6.111   0.631
 5276SOL    HW116727   0.973   6.123   0.663
 5276SOL    HW216728   0.827   6.195   0.645
 5277SOL     OW16729   1.434   2.650   2.691
 5277SOL    HW116730   1.404   2.642   2.595
 5277SOL    HW216731   1.511   2.713   2.696
 5278SOL     OW16732   5.297   6.628   5.103
 5278SOL    HW116733   5.238   6.550   5.123
 5278SOL    HW216734   5.386   6.615   5.147
 5279SOL     OW16735   1.588   6.136   0.074
 5279SOL    HW116736   1.611   6.065   0.140
 5279SOL    HW216737   1.574   6.223   0.121
 5280SOL     OW16738   3.267   5.223   5.561
 5280SOL    HW116739   3.210   5.151   5.600
 5280SOL    HW216740   3.332   5.183   5.496
 5281SOL     OW16741   1.851   1.156   3.666
 5281SOL    HW116742   1.927   1.215   3.694
 5281SOL    HW216743   1.828   1.094   3.740
 5282SOL     OW16744   1.700   0.383   1.806
 5282SOL    HW116745   1.731   0.319   1.876
 5282SOL    HW216746   1.660   0.463   1.849
 5283SOL     OW16747   1.984   0.340   2.947
 5283SOL    HW116748   1.944   0.414   2.893
 5283SOL    HW216749   2.082   0.355   2.956
 5284SOL     OW16750   4.841   3.078   3.582
 5284SOL    HW116751   4.773   3.017   3.623
 5284SOL    HW216752   4.860   3.048   3.489
 5285SOL     OW16753   0.291   3.556   4.438
 5285SOL    HW116754   0.312   3.469   4.481
 5285SOL    HW216755   0.314   3.631   4.501
 5286SOL     OW16756   6.304   3.581   1.499
 5286SOL    HW116757   6.220   3.625   1.467
 5286SOL    HW216758   6.383   3.627   1.457
 5287SOL     OW16759   3.004   5.677   1.475
 5287SOL    HW116760   3.056   5.667   1.390
 5287SOL    HW216761   3.055   5.735   1.538
 5288SOL     OW16762   3.638   0.761   2.565
 5288SOL    HW116763   3.621   0.681   2.508
 5288SOL    HW216764   3.708   0.818   2.522
 5289SOL     OW16765   1.934   5.894   5.321
 5289SOL    HW116766   1.903   5.986   5.297
 5289SOL    HW216767   2.000   5.899   5.396
 5290SOL     OW16768   1.370   3.788   5.966
 5290SOL    HW116769   1.442   3.720   5.973
 5290SOL    HW216770   1.379   3.838   5.880
 5291SOL     OW16771   3.060   4.646   6.617
 5291SOL    HW116772   3.130   4.621   6.551
 5291SOL    HW216773   3.019   4.733   6.591
 5292SOL     OW16774   5.888   4.894   6.157
 5292SOL    HW116775   5.871   4.925   6.063
 5292SOL    HW216776   5.919   4.971   6.213
 5293SOL     OW16777   2.080   6.835   4.977
 5293SOL    HW116778   2.075   6.913   4.914
 5293SOL    HW216779   2.039   6.755   4.934
 5294SOL     OW16780   5.745   2.558   5.787
 5294SOL    HW116781   5.651   2.572   5.756
 5294SOL    HW216782   5.802   2.530   5.709
 5295SOL     OW16783   4.125   1.409   3.045
 5295SOL    HW116784   4.043   1.375   2.998
 5295SOL    HW216785   4.134   1.508   3.029
 5296SOL     OW16786   3.269   4.882   6.566
 5296SOL    HW116787   3.203   4.930   6.625
 5296SOL    HW216788   3.261   4.916   6.473
 5297SOL     OW16789   1.849   3.544   0.647
 5297SOL    HW116790   1.789   3.494   0.709
 5297SOL    HW216791   1.808   3.547   0.556
 5298SOL     OW16792   1.003   6.042   6.929
 5298SOL    HW116793   1.088   6.072   6.972
 5298SOL    HW216794   0.971   6.113   6.866
 5299SOL     OW16795   2.546   3.324   0.779
 5299SOL    HW116796   2.596   3.346   0.863
 5299SOL    HW216797   2.458   3.283   0.803
 5300SOL     OW16798   0.516   5.961   1.163
 5300SOL    HW116799   0.574   6.019   1.106
 5300SOL    HW216800   0.564   5.939   1.248
 5301SOL     OW16801   3.612   2.076   6.677
 5301SOL    HW116802   3.655   2.016   6.609
 5301SOL    HW216803   3.676   2.093   6.751
 5302SOL     OW16804   5.893   5.559   3.761
 5302SOL    HW116805   5.801   5.596   3.773
 5302SOL    HW216806   5.939   5.607   3.686
 5303SOL     OW16807   0.108   5.164   4.797
 5303SOL    HW116808   0.056   5.238   4.752
 5303SOL    HW216809   0.204   5.171   4.772
 5304SOL     OW16810   6.106   0.894   0.879
 5304SOL    HW116811   6.183   0.854   0.928
 5304SOL    HW216812   6.138   0.931   0.791
 5305SOL     OW16813   0.684   4.199   3.763
 5305SOL    HW116814   0.706   4.294   3.742
 5305SOL    HW216815   0.767   4.151   3.791
 5306SOL     OW16816   0.510   4.412   4.898
 5306SOL    HW116817   0.561   4.496   4.877
 5306SOL    HW216818   0.567   4.351   4.952
 5307SOL     OW16819   4.171   1.732   0.113
 5307SOL    HW116820   4.097   1.797   0.095
 5307SOL    HW216821   4.237   1.772   0.176
 5308SOL     OW16822   1.262   4.377   3.310
 5308SOL    HW116823   1.324   4.444   3.351
 5308SOL    HW216824   1.277   4.287   3.351
 5309SOL     OW16825   3.976   4.811   1.717
 5309SOL    HW116826   3.878   4.829   1.711
 5309SOL    HW216827   3.994   4.714   1.702
 5310SOL     OW16828   5.988   3.421   1.986
 5310SOL    HW116829   5.990   3.494   2.054
 5310SOL    HW216830   6.043   3.344   2.019
 5311SOL     OW16831   6.295   6.686   6.871
 5311SOL    HW116832   6.205   6.642   6.861
 5311SOL    HW216833   6.314   6.742   6.791
 5312SOL     OW16834   0.939   5.891   1.152
 5312SOL    HW116835   1.037   5.885   1.132
 5312SOL    HW216836   0.896   5.953   1.086
 5313SOL     OW16837   1.312   2.951   6.157
 5313SOL    HW116838   1.287   2.936   6.253
 5313SOL    HW216839   1.246   2.904   6.098
 5314SOL     OW16840   3.420   6.576   0.376
 5314SOL    HW116841   3.393   6.603   0.283
 5314SOL    HW216842   3.391   6.647   0.441
 5315SOL     OW16843   4.693   3.629   1.743
 5315SOL    HW116844   4.709   3.727   1.731
 5315SOL    HW216845   4.601   3.606   1.712
 5316SOL     OW16846   0.970   3.624   5.000
 5316SOL    HW116847   1.031   3.656   5.073
 5316SOL    HW216848   1.002   3.660   4.912
 5317SOL     OW16849   5.718   1.155   4.793
 5317SOL    HW116850   5.724   1.061   4.827
 5317SOL    HW216851   5.807   1.199   4.800
 5318SOL     OW16852   0.817   2.943   0.078
 5318SOL    HW116853   0.858   2.968   0.166
 5318SOL    HW216854   0.751   2.869   0.091
 5319SOL     OW16855   3.763   6.040   0.160
 5319SOL    HW116856   3.777   6.082   0.250
 5319SOL    HW216857   3.800   5.947   0.161
 5320SOL     OW16858   4.568   4.944   0.596
 5320SOL    HW116859   4.650   4.933   0.652
 5320SOL    HW216860   4.508   4.865   0.608
 5321SOL     OW16861   1.829   4.726   4.691
 5321SOL    HW116862   1.842   4.819   4.726
 5321SOL    HW216863   1.742   4.690   4.724
 5322SOL     OW16864   5.739   6.437   6.653
 5322SOL    HW116865   5.728   6.348   6.697
 5322SOL    HW216866   5.791   6.426   6.568
 5323SOL     OW16867   4.025   1.984   0.021
 5323SOL    HW116868   4.046   2.021   6.957
 5323SOL    HW216869   3.962   1.907   0.012
 5324SOL     OW16870   3.323   2.014   0.796
 5324SOL    HW116871   3.396   2.070   0.836
 5324SOL    HW216872   3.331   2.015   0.696
 5325SOL     OW16873   4.069   0.512   4.296
 5325SOL    HW116874   4.015   0.430   4.275
 5325SOL    HW216875   4.150   0.485   4.348
 5326SOL     OW16876   6.287   4.870   2.990
 5326SOL    HW116877   6.198   4.908   2.963
 5326SOL    HW216878   6.356   4.942   2.982
 5327SOL     OW16879   5.460   2.815   5.544
 5327SOL    HW116880   5.392   2.800   5.472
 5327SOL    HW216881   5.486   2.726   5.583
 5328SOL     OW16882   3.913   3.027   4.974
 5328SOL    HW116883   3.948   3.030   4.880
 5328SOL    HW216884   3.978   3.074   5.034
 5329SOL     OW16885   0.288   4.424   0.190
 5329SOL    HW116886   0.295   4.331   0.225
 5329SOL    HW216887   0.377   4.455   0.158
 5330SOL     OW16888   3.979   4.201   6.052
 5330SOL    HW116889   3.952   4.292   6.083
 5330SOL    HW216890   3.902   4.157   6.004
 5331SOL     OW16891   5.609   1.110   1.053
 5331SOL    HW116892   5.564   1.134   0.966
 5331SOL    HW216893   5.705   1.087   1.036
 5332SOL     OW16894   0.992   3.116   1.329
 5332SOL    HW116895   0.984   3.213   1.307
 5332SOL    HW216896   0.989   3.104   1.429
 5333SOL     OW16897   0.326   0.397   3.211
 5333SOL    HW116898   0.352   0.319   3.154
 5333SOL    HW216899   0.351   0.482   3.166
 5334SOL     OW16900   3.305   0.101   4.471
 5334SOL    HW116901   3.207   0.120   4.466
 5334SOL    HW216902   3.355   0.187   4.469
 5335SOL     OW16903   6.888   6.029   2.345
 5335SOL    HW116904   6.972   6.083   2.354
 5335SOL    HW216905   6.905   5.950   2.287
 5336SOL     OW16906   1.879   2.803   3.383
 5336SOL    HW116907   1.866   2.721   3.327
 5336SOL    HW216908   1.874   2.778   3.480
 5337SOL     OW16909   4.927   3.899   1.193
 5337SOL    HW116910   4.946   3.901   1.095
 5337SOL    HW216911   4.993   3.956   1.242
 5338SOL     OW16912   6.205   1.904   6.618
 5338SOL    HW116913   6.155   1.969   6.676
 5338SOL    HW216914   6.275   1.858   6.673
 5339SOL     OW16915   6.701   1.967   3.956
 5339SOL    HW116916   6.652   2.052   3.939
 5339SOL    HW216917   6.653   1.914   4.025
 5340SOL     OW16918   4.799   3.575   0.635
 5340SOL    HW116919   4.727   3.531   0.688
 5340SOL    HW216920   4.789   3.552   0.539
 5341SOL     OW16921   3.036   2.720   6.320
 5341SOL    HW116922   3.050   2.691   6.226
 5341SOL    HW216923   3.062   2.646   6.382
 5342SOL     OW16924   3.179   0.180   3.972
 5342SOL    HW116925   3.191   0.249   3.901
 5342SOL    HW216926   3.250   0.192   4.042
 5343SOL     OW16927   3.756   3.482   4.355
 5343SOL    HW116928   3.783   3.548   4.285
 5343SOL    HW216929   3.657   3.471   4.356
 5344SOL     OW16930   2.350   2.757   2.695
 5344SOL    HW116931   2.419   2.816   2.737
 5344SOL    HW216932   2.268   2.811   2.676
 5345SOL     OW16933   3.364   6.804   1.472
 5345SOL    HW116934   3.381   6.743   1.549
 5345SOL    HW216935   3.266   6.805   1.450
 5346SOL     OW16936   3.557   6.017   4.031
 5346SOL    HW116937   3.549   6.072   4.114
 5346SOL    HW216938   3.571   6.076   3.952
 5347SOL     OW16939   1.002   2.365   1.936
 5347SOL    HW116940   1.022   2.268   1.949
 5347SOL    HW216941   1.079   2.410   1.892
 5348SOL     OW16942   0.196   2.403   1.005
 5348SOL    HW116943   0.265   2.335   0.980
 5348SOL    HW216944   0.192   2.411   1.105
 5349SOL     OW16945   1.907   2.863   0.295
 5349SOL    HW116946   1.938   2.955   0.271
 5349SOL    HW216947   1.819   2.868   0.342
 5350SOL     OW16948   2.275   0.287   5.545
 5350SOL    HW116949   2.351   0.222   5.545
 5350SOL    HW216950   2.193   0.242   5.581
 5351SOL     OW16951   6.316   5.703   2.421
 5351SOL    HW116952   6.263   5.635   2.369
 5351SOL    HW216953   6.413   5.689   2.405
 5352SOL     OW16954   2.656   4.664   3.481
 5352SOL    HW116955   2.666   4.592   3.549
 5352SOL    HW216956   2.645   4.752   3.528
 5353SOL     OW16957   4.078   5.058   3.485
 5353SOL    HW116958   4.127   5.086   3.402
 5353SOL    HW216959   4.019   4.981   3.464
 5354SOL     OW16960   2.557   5.481   1.946
 5354SOL    HW116961   2.498   5.561   1.936
 5354SOL    HW216962   2.650   5.504   1.915
 5355SOL     OW16963   6.078   3.644   3.727
 5355SOL    HW116964   6.089   3.744   3.730
 5355SOL    HW216965   6.070   3.615   3.632
 5356SOL     OW16966   5.675   4.495   1.688
 5356SOL    HW116967   5.687   4.493   1.588
 5356SOL    HW216968   5.693   4.588   1.721
 5357SOL     OW16969   4.665   6.820   1.034
 5357SOL    HW116970   4.635   6.827   1.129
 5357SOL    HW216971   4.598   6.766   0.982
 5358SOL     OW16972   4.626   1.579   6.975
 5358SOL    HW116973   4.654   1.580   6.879
 5358SOL    HW216974   4.635   1.672   7.013
 5359SOL     OW16975   1.055   1.776   6.366
 5359SOL    HW116976   1.084   1.680   6.372
 5359SOL    HW216977   1.044   1.814   6.458
 5360SOL     OW16978   4.081   6.426   5.341
 5360SOL    HW116979   3.984   6.449   5.335
 5360SOL    HW216980   4.091   6.328   5.361
 5361SOL     OW16981   2.563   1.018   5.114
 5361SOL    HW116982   2.467   1.038   5.137
 5361SOL    HW216983   2.577   1.030   5.016
 5362SOL     OW16984   6.006   5.185   3.535
 5362SOL    HW116985   6.074   5.255   3.514
 5362SOL    HW216986   5.930   5.192   3.471
 5363SOL     OW16987   0.270   0.206   6.706
 5363SOL    HW116988   0.265   0.138   6.633
 5363SOL    HW216989   0.299   0.293   6.668
 5364SOL     OW16990   6.245   6.689   2.065
 5364SOL    HW116991   6.234   6.632   1.983
 5364SOL    HW216992   6.168   6.753   2.071
 5365SOL     OW16993   3.479   3.585   6.719
 5365SOL    HW116994   3.559   3.541   6.759
 5365SOL    HW216995   3.501   3.616   6.627
 5366SOL     OW16996   5.223   6.048   1.816
 5366SOL    HW116997   5.215   6.133   1.868
 5366SOL    HW216998   5.196   6.064   1.721
 5367SOL     OW16999   0.756   6.433   0.607
 5367SOL    HW117000   0.678   6.445   0.545
 5367SOL    HW217001   0.841   6.439   0.554
 5368SOL     OW17002   5.170   0.151   3.240
 5368SOL    HW117003   5.109   0.211   3.188
 5368SOL    HW217004   5.245   0.205   3.278
 5369SOL     OW17005   3.036   6.557   2.233
 5369SOL    HW117006   3.003   6.620   2.303
 5369SOL    HW217007   3.110   6.601   2.181
 5370SOL     OW17008   4.434   2.896   1.667
 5370SOL    HW117009   4.392   2.817   1.712
 5370SOL    HW217010   4.467   2.960   1.736
 5371SOL     OW17011   1.272   4.093   5.103
 5371SOL    HW117012   1.336   4.021   5.128
 5371SOL    HW217013   1.235   4.135   5.186
 5372SOL     OW17014   2.485   6.127   3.899
 5372SOL    HW117015   2.423   6.201   3.925
 5372SOL    HW217016   2.436   6.040   3.906
 5373SOL     OW17017   3.706   6.862   4.327
 5373SOL    HW117018   3.765   6.822   4.397
 5373SOL    HW217019   3.630   6.800   4.308
 5374SOL     OW17020   1.365   4.006   6.917
 5374SOL    HW117021   1.390   3.994   7.013
 5374SOL    HW217022   1.342   4.101   6.899
 5375SOL     OW17023   1.540   4.741   4.634
 5375SOL    HW117024   1.571   4.835   4.621
 5375SOL    HW217025   1.488   4.735   4.719
 5376SOL     OW17026   1.259   2.926   0.886
 5376SOL    HW117027   1.337   2.919   0.823
 5376SOL    HW217028   1.292   2.951   0.977
 5377SOL     OW17029   0.382   0.107   2.293
 5377SOL    HW117030   0.399   0.041   2.220
 5377SOL    HW217031   0.346   0.191   2.253
 5378SOL     OW17032   6.978   0.760   1.650
 5378SOL    HW117033   0.004   0.718   1.725
 5378SOL    HW217034   7.022   0.739   1.563
 5379SOL     OW17035   1.512   4.979   4.793
 5379SOL    HW117036   1.487   5.050   4.858
 5379SOL    HW217037   1.431   4.947   4.745
 5380SOL     OW17038   2.121   2.114   3.077
 5380SOL    HW117039   2.049   2.115   3.008
 5380SOL    HW217040   2.091   2.061   3.156
 5381SOL     OW17041   6.683   3.925   1.573
 5381SOL    HW117042   6.675   3.910   1.671
 5381SOL    HW217043   6.595   3.909   1.529
 5382SOL     OW17044   2.941   0.658   2.174
 5382SOL    HW117045   3.031   0.684   2.139
 5382SOL    HW217046   2.882   0.739   2.178
 5383SOL     OW17047   2.282   2.620   5.457
 5383SOL    HW117048   2.378   2.645   5.446
 5383SOL    HW217049   2.268   2.528   5.420
 5384SOL     OW17050   6.196   7.021   5.096
 5384SOL    HW117051   6.149   0.032   5.016
 5384SOL    HW217052   6.151   0.026   5.180
 5385SOL     OW17053   2.900   3.468   3.897
 5385SOL    HW117054   2.899   3.566   3.880
 5385SOL    HW217055   2.838   3.447   3.973
 5386SOL     OW17056   4.807   6.990   4.267
 5386SOL    HW117057   4.777   6.928   4.195
 5386SOL    HW217058   4.743   6.987   4.343
 5387SOL     OW17059   2.374   6.712   3.518
 5387SOL    HW117060   2.357   6.756   3.606
 5387SOL    HW217061   2.431   6.771   3.461
 5388SOL     OW17062   0.132   0.524   4.227
 5388SOL    HW117063   0.102   0.446   4.281
 5388SOL    HW217064   0.164   0.492   4.137
 5389SOL     OW17065   4.706   1.109   2.105
 5389SOL    HW117066   4.670   1.196   2.139
 5389SOL    HW217067   4.791   1.087   2.152
 5390SOL     OW17068   4.788   4.420   3.025
 5390SOL    HW117069   4.821   4.507   3.061
 5390SOL    HW217070   4.797   4.420   2.926
 5391SOL     OW17071   1.983   2.396   1.197
 5391SOL    HW117072   1.883   2.399   1.198
 5391SOL    HW217073   2.014   2.310   1.236
 5392SOL     OW17074   5.615   3.032   1.550
 5392SOL    HW117075   5.681   3.105   1.529
 5392SOL    HW217076   5.538   3.038   1.486
 5393SOL     OW17077   4.860   6.923   6.378
 5393SOL    HW117078   4.939   6.862   6.373
 5393SOL    HW217079   4.778   6.870   6.401
 5394SOL     OW17080   6.848   4.905   6.630
 5394SOL    HW117081   6.925   4.844   6.647
 5394SOL    HW217082   6.772   4.854   6.589
 5395SOL     OW17083   5.066   0.890   1.781
 5395SOL    HW117084   5.074   0.858   1.875
 5395SOL    HW217085   4.985   0.850   1.739
 5396SOL     OW17086   4.507   4.908   2.423
 5396SOL    HW117087   4.526   4.995   2.378
 5396SOL    HW217088   4.457   4.848   2.360
 5397SOL     OW17089   0.325   2.400   1.428
 5397SOL    HW117090   0.283   2.444   1.507
 5397SOL    HW217091   0.363   2.470   1.367
 5398SOL     OW17092   3.460   2.024   3.104
 5398SOL    HW117093   3.437   2.115   3.139
 5398SOL    HW217094   3.478   1.962   3.180
 5399SOL     OW17095   2.542   5.813   0.437
 5399SOL    HW117096   2.585   5.848   0.354
 5399SOL    HW217097   2.604   5.824   0.514
 5400SOL     OW17098   2.671   4.083   0.911
 5400SOL    HW117099   2.727   4.000   0.920
 5400SOL    HW217100   2.582   4.067   0.954
 5401SOL     OW17101   5.708   3.306   0.950
 5401SOL    HW117102   5.705   3.401   0.979
 5401SOL    HW217103   5.721   3.247   1.031
 5402SOL     OW17104   2.365   5.150   1.549
 5402SOL    HW117105   2.390   5.212   1.624
 5402SOL    HW217106   2.353   5.057   1.585
 5403SOL     OW17107   6.039   2.366   6.193
 5403SOL    HW117108   6.083   2.449   6.229
 5403SOL    HW217109   6.031   2.299   6.266
 5404SOL     OW17110   0.746   0.765   2.658
 5404SOL    HW117111   0.731   0.707   2.578
 5404SOL    HW217112   0.842   0.761   2.684
 5405SOL     OW17113   6.031   5.966   0.913
 5405SOL    HW117114   5.954   5.917   0.873
 5405SOL    HW217115   6.078   6.018   0.841
 5406SOL     OW17116   2.603   0.191   6.357
 5406SOL    HW117117   2.538   0.250   6.406
 5406SOL    HW217118   2.587   0.096   6.383
 5407SOL     OW17119   4.787   2.675   1.340
 5407SOL    HW117120   4.851   2.712   1.272
 5407SOL    HW217121   4.825   2.685   1.432
 5408SOL     OW17122   3.449   1.214   6.118
 5408SOL    HW117123   3.393   1.279   6.170
 5408SOL    HW217124   3.443   1.124   6.160
 5409SOL     OW17125   5.752   1.397   3.985
 5409SOL    HW117126   5.734   1.473   4.048
 5409SOL    HW217127   5.770   1.432   3.894
 5410SOL     OW17128   1.810   3.198   1.405
 5410SOL    HW117129   1.863   3.121   1.366
 5410SOL    HW217130   1.868   3.279   1.409
 5411SOL     OW17131   6.707   4.709   6.163
 5411SOL    HW117132   6.613   4.708   6.128
 5411SOL    HW217133   6.706   4.705   6.263
 5412SOL     OW17134   4.172   0.912   6.820
 5412SOL    HW117135   4.201   1.005   6.797
 5412SOL    HW217136   4.090   0.916   6.877
 5413SOL     OW17137   1.642   0.560   0.875
 5413SOL    HW117138   1.682   0.504   0.947
 5413SOL    HW217139   1.575   0.623   0.914
 5414SOL     OW17140   6.556   3.170   4.990
 5414SOL    HW117141   6.477   3.230   4.982
 5414SOL    HW217142   6.551   3.098   4.920
 5415SOL     OW17143   1.459   6.388   1.582
 5415SOL    HW117144   1.542   6.350   1.624
 5415SOL    HW217145   1.380   6.364   1.639
 5416SOL     OW17146   3.877   4.541   6.432
 5416SOL    HW117147   3.924   4.628   6.438
 5416SOL    HW217148   3.780   4.556   6.412
 5417SOL     OW17149   3.935   6.448   4.982
 5417SOL    HW117150   3.916   6.544   5.003
 5417SOL    HW217151   3.880   6.390   5.041
 5418SOL     OW17152   3.978   6.490   4.452
 5418SOL    HW117153   3.955   6.392   4.457
 5418SOL    HW217154   4.004   6.523   4.542
 5419SOL     OW17155   3.225   5.300   0.449
 5419SOL    HW117156   3.195   5.206   0.465
 5419SOL    HW217157   3.250   5.342   0.537
 5420SOL     OW17158   1.572   2.557   1.906
 5420SOL    HW117159   1.578   2.571   2.005
 5420SOL    HW217160   1.650   2.503   1.875
 5421SOL     OW17161   2.181   3.851   2.341
 5421SOL    HW117162   2.121   3.807   2.408
 5421SOL    HW217163   2.249   3.786   2.309
 5422SOL     OW17164   0.540   6.038   6.288
 5422SOL    HW117165   0.451   6.018   6.246
 5422SOL    HW217166   0.527   6.102   6.363
 5423SOL     OW17167   5.229   2.892   6.763
 5423SOL    HW117168   5.238   2.972   6.823
 5423SOL    HW217169   5.194   2.815   6.815
 5424SOL     OW17170   5.183   2.910   4.201
 5424SOL    HW117171   5.102   2.960   4.169
 5424SOL    HW217172   5.213   2.948   4.289
 5425SOL     OW17173   4.503   1.627   4.292
 5425SOL    HW117174   4.476   1.588   4.204
 5425SOL    HW217175   4.582   1.687   4.279
 5426SOL     OW17176   6.731   5.354   3.949
 5426SOL    HW117177   6.642   5.371   3.991
 5426SOL    HW217178   6.802   5.363   4.019
 5427SOL     OW17179   5.175   4.895   0.777
 5427SOL    HW117180   5.266   4.932   0.796
 5427SOL    HW217181   5.117   4.906   0.858
 5428SOL     OW17182   0.045   0.396   1.668
 5428SOL    HW117183   6.998   0.342   1.711
 5428SOL    HW217184   0.006   0.452   1.595
 5429SOL     OW17185   1.235   1.871   5.700
 5429SOL    HW117186   1.288   1.888   5.782
 5429SOL    HW217187   1.271   1.791   5.653
 5430SOL     OW17188   0.903   3.634   5.383
 5430SOL    HW117189   0.881   3.720   5.429
 5430SOL    HW217190   0.827   3.570   5.394
 5431SOL     OW17191   3.428   5.886   6.532
 5431SOL    HW117192   3.360   5.846   6.470
 5431SOL    HW217193   3.427   5.836   6.618
 5432SOL     OW17194   3.966   6.465   6.477
 5432SOL    HW117195   3.973   6.551   6.426
 5432SOL    HW217196   3.923   6.482   6.566
 5433SOL     OW17197   0.381   1.475   3.972
 5433SOL    HW117198   0.480   1.491   3.966
 5433SOL    HW217199   0.363   1.409   4.045
 5434SOL     OW17200   4.083   1.199   4.470
 5434SOL    HW117201   4.021   1.270   4.439
 5434SOL    HW217202   4.031   1.122   4.507
 5435SOL     OW17203   5.630   1.775   1.783
 5435SOL    HW117204   5.553   1.744   1.728
 5435SOL    HW217205   5.713   1.727   1.753
 5436SOL     OW17206   4.856   4.132   4.364
 5436SOL    HW117207   4.795   4.165   4.435
 5436SOL    HW217208   4.945   4.107   4.403
 5437SOL     OW17209   2.797   5.349   5.874
 5437SOL    HW117210   2.761   5.318   5.962
 5437SOL    HW217211   2.808   5.448   5.875
 5438SOL     OW17212   5.512   4.039   2.621
 5438SOL    HW117213   5.571   4.057   2.699
 5438SOL    HW217214   5.555   3.970   2.562
 5439SOL     OW17215   0.870   2.215   1.043
 5439SOL    HW117216   0.839   2.303   1.008
 5439SOL    HW217217   0.965   2.199   1.016
 5440SOL     OW17218   0.680   0.264   2.104
 5440SOL    HW117219   0.742   0.288   2.179
 5440SOL    HW217220   0.732   0.252   2.020
 5441SOL     OW17221   4.760   2.804   3.396
 5441SOL    HW117222   4.797   2.896   3.387
 5441SOL    HW217223   4.724   2.774   3.308
 5442SOL     OW17224   3.386   6.322   3.469
 5442SOL    HW117225   3.382   6.263   3.388
 5442SOL    HW217226   3.477   6.318   3.509
 5443SOL     OW17227   2.266   0.880   3.554
 5443SOL    HW117228   2.278   0.901   3.457
 5443SOL    HW217229   2.176   0.910   3.584
 5444SOL     OW17230   1.761   0.562   3.441
 5444SOL    HW117231   1.749   0.462   3.436
 5444SOL    HW217232   1.858   0.583   3.452
 5445SOL     OW17233   6.005   4.338   4.162
 5445SOL    HW117234   6.004   4.248   4.120
 5445SOL    HW217235   5.961   4.334   4.252
 5446SOL     OW17236   6.398   5.175   5.512
 5446SOL    HW117237   6.487   5.145   5.546
 5446SOL    HW217238   6.340   5.095   5.494
 5447SOL     OW17239   1.597   1.983   0.056
 5447SOL    HW117240   1.663   1.909   0.061
 5447SOL    HW217241   1.520   1.964   0.117
 5448SOL     OW17242   5.668   3.265   4.912
 5448SOL    HW117243   5.708   3.180   4.946
 5448SOL    HW217244   5.740   3.324   4.875
 5449SOL     OW17245   1.616   2.253   6.718
 5449SOL    HW117246   1.610   2.172   6.659
 5449SOL    HW217247   1.684   2.316   6.682
 5450SOL     OW17248   1.981   0.451   1.804
 5450SOL    HW117249   1.904   0.404   1.760
 5450SOL    HW217250   1.972   0.443   1.903
 5451SOL     OW17251   1.532   5.844   4.045
 5451SOL    HW117252   1.475   5.881   3.972
 5451SOL    HW217253   1.585   5.767   4.010
 5452SOL     OW17254   1.896   4.459   0.231
 5452SOL    HW117255   1.890   4.443   0.132
 5452SOL    HW217256   1.971   4.405   0.269
 5453SOL     OW17257   5.235   4.340   1.838
 5453SOL    HW117258   5.226   4.416   1.774
 5453SOL    HW217259   5.324   4.344   1.883
 5454SOL     OW17260   6.728   4.080   6.023
 5454SOL    HW117261   6.758   4.004   5.966
 5454SOL    HW217262   6.800   4.149   6.028
 5455SOL     OW17263   5.896   3.052   1.409
 5455SOL    HW117264   5.952   2.970   1.411
 5455SOL    HW217265   5.950   3.131   1.440
 5456SOL     OW17266   2.724   0.445   6.504
 5456SOL    HW117267   2.769   0.378   6.445
 5456SOL    HW217268   2.636   0.409   6.534
 5457SOL     OW17269   6.657   2.803   0.666
 5457SOL    HW117270   6.659   2.809   0.567
 5457SOL    HW217271   6.746   2.828   0.703
 5458SOL     OW17272   0.456   4.130   0.623
 5458SOL    HW117273   0.548   4.166   0.609
 5458SOL    HW217274   0.407   4.187   0.689
 5459SOL     OW17275   1.994   4.087   6.928
 5459SOL    HW117276   1.980   4.174   6.975
 5459SOL    HW217277   1.966   4.095   6.833
 5460SOL     OW17278   3.951   0.351   3.283
 5460SOL    HW117279   3.953   0.341   3.183
 5460SOL    HW217280   4.026   0.410   3.312
 5461SOL     OW17281   6.140   0.072   5.909
 5461SOL    HW117282   6.077   0.140   5.947
 5461SOL    HW217283   6.215   0.057   5.973
 5462SOL     OW17284   0.102   0.235   0.555
 5462SOL    HW117285   0.051   0.167   0.608
 5462SOL    HW217286   0.191   0.250   0.598
 5463SOL     OW17287   6.923   1.705   0.713
 5463SOL    HW117288   6.940   1.742   0.804
 5463SOL    HW217289   6.895   1.779   0.652
 5464SOL     OW17290   0.883   1.287   4.435
 5464SOL    HW117291   0.881   1.386   4.418
 5464SOL    HW217292   0.806   1.262   4.493
 5465SOL     OW17293   4.011   0.075   3.646
 5465SOL    HW117294   4.042   7.008   3.628
 5465SOL    HW217295   3.913   0.080   3.632
 5466SOL     OW17296   5.413   2.818   4.692
 5466SOL    HW117297   5.393   2.884   4.764
 5466SOL    HW217298   5.354   2.738   4.703
 5467SOL     OW17299   5.151   3.237   3.264
 5467SOL    HW117300   5.248   3.256   3.252
 5467SOL    HW217301   5.097   3.311   3.224
 5468SOL     OW17302   5.768   3.053   4.230
 5468SOL    HW117303   5.804   3.135   4.186
 5468SOL    HW217304   5.821   3.032   4.312
 5469SOL     OW17305   3.183   6.098   6.226
 5469SOL    HW117306   3.165   6.047   6.309
 5469SOL    HW217307   3.269   6.068   6.185
 5470SOL     OW17308   3.207   5.889   3.290
 5470SOL    HW117309   3.221   5.836   3.374
 5470SOL    HW217310   3.136   5.846   3.235
 5471SOL     OW17311   5.088   0.023   2.913
 5471SOL    HW117312   5.041   7.008   2.991
 5471SOL    HW217313   5.180   7.009   2.905
 5472SOL     OW17314   4.267   3.683   5.991
 5472SOL    HW117315   4.245   3.764   5.936
 5472SOL    HW217316   4.182   3.637   6.017
 5473SOL     OW17317   0.320   2.872   2.225
 5473SOL    HW117318   0.325   2.958   2.173
 5473SOL    HW217319   0.314   2.796   2.161
 5474SOL     OW17320   0.989   4.859   3.843
 5474SOL    HW117321   1.087   4.853   3.864
 5474SOL    HW217322   0.968   4.800   3.765
 5475SOL     OW17323   2.430   3.090   1.676
 5475SOL    HW117324   2.434   3.187   1.699
 5475SOL    HW217325   2.345   3.071   1.626
 5476SOL     OW17326   1.982   4.782   5.682
 5476SOL    HW117327   1.913   4.801   5.613
 5476SOL    HW217328   1.940   4.733   5.758
 5477SOL     OW17329   2.547   4.529   3.134
 5477SOL    HW117330   2.593   4.585   3.065
 5477SOL    HW217331   2.610   4.508   3.208
 5478SOL     OW17332   3.553   5.005   4.843
 5478SOL    HW117333   3.468   5.027   4.892
 5478SOL    HW217334   3.628   4.995   4.909
 5479SOL     OW17335   5.288   1.722   6.352
 5479SOL    HW117336   5.349   1.721   6.273
 5479SOL    HW217337   5.237   1.636   6.357
 5480SOL     OW17338   6.244   4.607   2.452
 5480SOL    HW117339   6.266   4.516   2.418
 5480SOL    HW217340   6.231   4.604   2.552
 5481SOL     OW17341   4.317   1.483   4.459
 5481SOL    HW117342   4.316   1.386   4.483
 5481SOL    HW217343   4.387   1.500   4.390
 5482SOL     OW17344   3.373   4.569   1.672
 5482SOL    HW117345   3.442   4.598   1.738
 5482SOL    HW217346   3.301   4.638   1.666
 5483SOL     OW17347   0.640   2.053   5.463
 5483SOL    HW117348   0.564   2.079   5.404
 5483SOL    HW217349   0.726   2.075   5.418
 5484SOL     OW17350   4.049   1.634   4.416
 5484SOL    HW117351   4.129   1.584   4.449
 5484SOL    HW217352   4.063   1.732   4.430
 5485SOL     OW17353   3.904   6.972   5.554
 5485SOL    HW117354   3.994   6.934   5.532
 5485SOL    HW217355   3.849   6.978   5.470
 5486SOL     OW17356   2.729   5.707   5.424
 5486SOL    HW117357   2.632   5.730   5.421
 5486SOL    HW217358   2.750   5.665   5.513
 5487SOL     OW17359   4.225   2.917   6.731
 5487SOL    HW117360   4.192   2.874   6.815
 5487SOL    HW217361   4.266   3.005   6.752
 5488SOL     OW17362   6.617   0.133   1.083
 5488SOL    HW117363   6.527   0.153   1.044
 5488SOL    HW217364   6.607   0.069   1.159
 5489SOL     OW17365   0.765   4.146   1.701
 5489SOL    HW117366   0.863   4.155   1.720
 5489SOL    HW217367   0.752   4.112   1.607
 5490SOL     OW17368   3.054   0.594   2.680
 5490SOL    HW117369   3.112   0.664   2.722
 5490SOL    HW217370   2.972   0.581   2.735
 5491SOL     OW17371   0.940   3.046   0.293
 5491SOL    HW117372   0.914   3.053   0.389
 5491SOL    HW217373   1.039   3.031   0.287
 5492SOL     OW17374   0.783   3.881   6.914
 5492SOL    HW117375   0.725   3.849   6.839
 5492SOL    HW217376   0.857   3.937   6.877
 5493SOL     OW17377   3.199   3.043   4.278
 5493SOL    HW117378   3.122   3.091   4.321
 5493SOL    HW217379   3.177   3.022   4.183
 5494SOL     OW17380   0.034   3.542   5.780
 5494SOL    HW117381   0.118   3.492   5.803
 5494SOL    HW217382   0.031   3.559   5.681
 5495SOL     OW17383   6.181   1.094   1.055
 5495SOL    HW117384   6.117   1.042   0.998
 5495SOL    HW217385   6.212   1.175   1.004
 5496SOL     OW17386   3.662   0.505   3.137
 5496SOL    HW117387   3.752   0.473   3.166
 5496SOL    HW217388   3.626   0.442   3.068
 5497SOL     OW17389   0.811   1.065   5.023
 5497SOL    HW117390   0.779   1.158   5.001
 5497SOL    HW217391   0.878   1.036   4.956
 5498SOL     OW17392   0.084   5.276   1.937
 5498SOL    HW117393   0.142   5.286   2.018
 5498SOL    HW217394   7.019   5.248   1.965
 5499SOL     OW17395   1.185   0.430   4.583
 5499SOL    HW117396   1.133   0.493   4.526
 5499SOL    HW217397   1.132   0.407   4.665
 5500SOL     OW17398   1.002   0.818   6.729
 5500SOL    HW117399   1.030   0.724   6.750
 5500SOL    HW217400   1.059   0.855   6.656
 5501SOL     OW17401   3.881   2.114   0.250
 5501SOL    HW117402   3.933   2.077   0.173
 5501SOL    HW217403   3.808   2.173   0.215
 5502SOL     OW17404   5.311   3.899   6.622
 5502SOL    HW117405   5.217   3.881   6.593
 5502SOL    HW217406   5.340   3.829   6.687
 5503SOL     OW17407   6.868   4.738   0.863
 5503SOL    HW117408   6.892   4.835   0.866
 5503SOL    HW217409   6.909   4.692   0.941
 5504SOL     OW17410   4.618   1.059   4.941
 5504SOL    HW117411   4.523   1.064   4.911
 5504SOL    HW217412   4.641   0.965   4.964
 5505SOL     OW17413   2.013   4.300   3.298
 5505SOL    HW117414   2.003   4.200   3.293
 5505SOL    HW217415   1.929   4.343   3.264
 5506SOL     OW17416   0.225   3.545   1.119
 5506SOL    HW117417   0.245   3.527   1.023
 5506SOL    HW217418   0.227   3.458   1.170
 5507SOL     OW17419   3.852   1.048   4.824
 5507SOL    HW117420   3.764   1.026   4.867
 5507SOL    HW217421   3.850   1.019   4.728
 5508SOL     OW17422   1.211   1.498   0.249
 5508SOL    HW117423   1.228   1.504   0.348
 5508SOL    HW217424   1.116   1.472   0.233
 5509SOL     OW17425   0.765   6.067   0.101
 5509SOL    HW117426   0.790   6.142   0.161
 5509SOL    HW217427   0.845   6.040   0.046
 5510SOL     OW17428   4.230   5.395   6.785
 5510SOL    HW117429   4.254   5.432   6.695
 5510SOL    HW217430   4.290   5.435   6.854
 5511SOL     OW17431   1.337   0.964   4.274
 5511SOL    HW117432   1.412   1.007   4.324
 5511SOL    HW217433   1.369   0.937   4.183
 5512SOL     OW17434   4.553   1.642   0.752
 5512SOL    HW117435   4.632   1.582   0.737
 5512SOL    HW217436   4.548   1.710   0.679
 5513SOL     OW17437   3.850   5.248   6.344
 5513SOL    HW117438   3.803   5.331   6.375
 5513SOL    HW217439   3.948   5.265   6.337
 5514SOL     OW17440   3.204   1.008   4.580
 5514SOL    HW117441   3.225   1.011   4.482
 5514SOL    HW217442   3.106   1.018   4.593
 5515SOL     OW17443   0.905   5.614   1.695
 5515SOL    HW117444   0.878   5.709   1.705
 5515SOL    HW217445   0.970   5.605   1.619
 5516SOL     OW17446   1.813   2.523   4.585
 5516SOL    HW117447   1.842   2.611   4.547
 5516SOL    HW217448   1.892   2.477   4.626
 5517SOL     OW17449   2.130   3.541   2.271
 5517SOL    HW117450   2.137   3.467   2.338
 5517SOL    HW217451   2.163   3.509   2.182
 5518SOL     OW17452   6.132   5.171   6.592
 5518SOL    HW117453   6.202   5.168   6.663
 5518SOL    HW217454   6.135   5.259   6.546
 5519SOL     OW17455   5.933   2.710   3.079
 5519SOL    HW117456   6.030   2.693   3.063
 5519SOL    HW217457   5.888   2.626   3.110
 5520SOL     OW17458   5.498   6.942   2.204
 5520SOL    HW117459   5.457   7.019   2.154
 5520SOL    HW217460   5.528   6.872   2.139
 5521SOL     OW17461   5.412   6.485   2.029
 5521SOL    HW117462   5.360   6.449   2.106
 5521SOL    HW217463   5.373   6.451   1.943
 5522SOL     OW17464   6.472   5.380   1.237
 5522SOL    HW117465   6.373   5.392   1.245
 5522SOL    HW217466   6.518   5.425   1.313
 5523SOL     OW17467   4.302   0.650   1.879
 5523SOL    HW117468   4.246   0.649   1.796
 5523SOL    HW217469   4.243   0.658   1.959
 5524SOL     OW17470   3.532   6.926   4.803
 5524SOL    HW117471   3.510   6.832   4.776
 5524SOL    HW217472   3.556   6.979   4.722
 5525SOL     OW17473   1.624   2.271   0.280
 5525SOL    HW117474   1.645   2.366   0.302
 5525SOL    HW217475   1.529   2.264   0.250
 5526SOL     OW17476   4.992   4.875   2.634
 5526SOL    HW117477   4.940   4.790   2.638
 5526SOL    HW217478   4.948   4.944   2.691
 5527SOL     OW17479   5.034   3.777   3.526
 5527SOL    HW117480   4.969   3.711   3.490
 5527SOL    HW217481   4.990   3.832   3.597
 5528SOL     OW17482   1.790   0.943   0.798
 5528SOL    HW117483   1.794   0.899   0.888
 5528SOL    HW217484   1.695   0.969   0.778
 5529SOL     OW17485   3.012   6.821   4.520
 5529SOL    HW117486   3.099   6.773   4.531
 5529SOL    HW217487   2.960   6.815   4.606
 5530SOL     OW17488   6.134   2.032   1.515
 5530SOL    HW117489   6.178   2.105   1.567
 5530SOL    HW217490   6.169   2.032   1.421
 5531SOL     OW17491   3.825   3.543   1.304
 5531SOL    HW117492   3.783   3.558   1.394
 5531SOL    HW217493   3.794   3.456   1.267
 5532SOL     OW17494   1.385   3.338   1.063
 5532SOL    HW117495   1.331   3.315   0.981
 5532SOL    HW217496   1.419   3.432   1.054
 5533SOL     OW17497   4.702   1.224   3.650
 5533SOL    HW117498   4.673   1.298   3.589
 5533SOL    HW217499   4.801   1.221   3.655
 5534SOL     OW17500   1.287   1.681   0.034
 5534SOL    HW117501   1.287   1.607   0.101
 5534SOL    HW217502   1.196   1.721   0.027
 5535SOL     OW17503   0.991   1.237   3.051
 5535SOL    HW117504   0.968   1.319   3.103
 5535SOL    HW217505   1.087   1.212   3.067
 5536SOL     OW17506   3.757   0.316   3.906
 5536SOL    HW117507   3.704   0.371   3.970
 5536SOL    HW217508   3.714   0.227   3.894
 5537SOL     OW17509   3.406   1.270   2.500
 5537SOL    HW117510   3.345   1.341   2.534
 5537SOL    HW217511   3.501   1.295   2.517
 5538SOL     OW17512   4.027   5.495   5.317
 5538SOL    HW117513   3.933   5.488   5.282
 5538SOL    HW217514   4.091   5.471   5.244
 5539SOL     OW17515   1.456   3.977   1.686
 5539SOL    HW117516   1.477   4.070   1.716
 5539SOL    HW217517   1.375   3.978   1.627
 5540SOL     OW17518   4.774   4.656   4.004
 5540SOL    HW117519   4.703   4.726   3.992
 5540SOL    HW217520   4.860   4.689   3.964
 5541SOL     OW17521   4.907   0.180   6.323
 5541SOL    HW117522   4.851   0.245   6.374
 5541SOL    HW217523   4.869   0.088   6.334
 5542SOL     OW17524   4.027   3.588   6.056
 5542SOL    HW117525   4.049   3.491   6.047
 5542SOL    HW217526   4.002   3.608   6.151
 5543SOL     OW17527   5.147   3.859   6.263
 5543SOL    HW117528   5.132   3.958   6.275
 5543SOL    HW217529   5.101   3.829   6.180
 5544SOL     OW17530   4.862   6.251   6.613
 5544SOL    HW117531   4.887   6.230   6.708
 5544SOL    HW217532   4.767   6.226   6.598
 5545SOL     OW17533   4.601   1.517   2.822
 5545SOL    HW117534   4.652   1.450   2.768
 5545SOL    HW217535   4.551   1.471   2.895
 5546SOL     OW17536   0.944   5.025   4.764
 5546SOL    HW117537   0.861   4.990   4.809
 5546SOL    HW217538   0.958   4.977   4.678
 5547SOL     OW17539   2.585   6.729   5.238
 5547SOL    HW117540   2.505   6.721   5.178
 5547SOL    HW217541   2.556   6.759   5.329
 5548SOL     OW17542   6.301   3.692   5.347
 5548SOL    HW117543   6.202   3.689   5.333
 5548SOL    HW217544   6.323   3.664   5.440
 5549SOL     OW17545   3.717   4.796   0.017
 5549SOL    HW117546   3.715   4.708   6.996
 5549SOL    HW217547   3.754   4.866   6.982
 5550SOL     OW17548   2.846   5.794   2.072
 5550SOL    HW117549   2.772   5.793   2.140
 5550SOL    HW217550   2.921   5.735   2.104
 5551SOL     OW17551   1.864   0.746   2.769
 5551SOL    HW117552   1.782   0.694   2.745
 5551SOL    HW217553   1.908   0.704   2.849
 5552SOL     OW17554   7.025   1.809   0.139
 5552SOL    HW117555   6.982   1.732   0.093
 5552SOL    HW217556   0.035   1.780   0.228
 5553SOL     OW17557   3.751   6.486   0.264
 5553SOL    HW117558   3.723   6.504   0.170
 5553SOL    HW217559   3.677   6.512   0.326
 5554SOL     OW17560   2.694   2.072   5.727
 5554SOL    HW117561   2.699   2.172   5.719
 5554SOL    HW217562   2.782   2.032   5.703
 5555SOL     OW17563   0.759   5.596   3.829
 5555SOL    HW117564   0.693   5.555   3.893
 5555SOL    HW217565   0.824   5.526   3.800
 5556SOL     OW17566   0.377   2.066   4.546
 5556SOL    HW117567   0.405   2.159   4.573
 5556SOL    HW217568   0.291   2.072   4.495
 5557SOL     OW17569   3.069   5.792   4.270
 5557SOL    HW117570   3.166   5.812   4.263
 5557SOL    HW217571   3.044   5.722   4.204
 5558SOL     OW17572   5.018   3.412   5.121
 5558SOL    HW117573   4.948   3.480   5.102
 5558SOL    HW217574   5.032   3.354   5.041
 5559SOL     OW17575   2.465   6.989   1.841
 5559SOL    HW117576   2.529   6.916   1.820
 5559SOL    HW217577   2.476   7.018   1.936
 5560SOL     OW17578   6.760   7.019   3.343
 5560SOL    HW117579   6.777   6.922   3.358
 5560SOL    HW217580   6.726   0.034   3.428
 5561SOL     OW17581   0.984   2.606   4.466
 5561SOL    HW117582   0.986   2.663   4.548
 5561SOL    HW217583   1.025   2.656   4.390
 5562SOL     OW17584   1.823   2.410   6.678
 5562SOL    HW117585   1.865   2.420   6.768
 5562SOL    HW217586   1.894   2.394   6.610
 5563SOL     OW17587   4.679   6.165   1.981
 5563SOL    HW117588   4.755   6.100   1.988
 5563SOL    HW217589   4.679   6.225   2.061
 5564SOL     OW17590   4.952   3.033   1.516
 5564SOL    HW117591   4.955   3.068   1.610
 5564SOL    HW217592   4.859   3.045   1.480
 5565SOL     OW17593   4.141   2.755   5.562
 5565SOL    HW117594   4.096   2.752   5.473
 5565SOL    HW217595   4.186   2.668   5.581
 5566SOL     OW17596   1.593   5.722   1.002
 5566SOL    HW117597   1.629   5.790   0.938
 5566SOL    HW217598   1.633   5.633   0.982
 5567SOL     OW17599   1.451   5.077   0.930
 5567SOL    HW117600   1.392   5.002   0.900
 5567SOL    HW217601   1.398   5.161   0.934
 5568SOL     OW17602   4.595   2.385   0.945
 5568SOL    HW117603   4.583   2.369   0.847
 5568SOL    HW217604   4.525   2.336   0.996
 5569SOL     OW17605   4.161   1.437   1.613
 5569SOL    HW117606   4.156   1.428   1.513
 5569SOL    HW217607   4.073   1.469   1.648
 5570SOL     OW17608   6.029   4.923   4.717
 5570SOL    HW117609   6.065   4.834   4.747
 5570SOL    HW217610   6.084   4.958   4.641
 5571SOL     OW17611   0.270   5.948   0.994
 5571SOL    HW117612   0.352   5.981   1.041
 5571SOL    HW217613   0.273   5.848   0.987
 5572SOL     OW17614   3.842   2.144   6.820
 5572SOL    HW117615   3.823   2.214   6.889
 5572SOL    HW217616   3.932   2.160   6.779
 5573SOL     OW17617   1.390   3.257   0.620
 5573SOL    HW117618   1.460   3.188   0.640
 5573SOL    HW217619   1.427   3.348   0.639
 5574SOL     OW17620   0.104   6.911   4.261
 5574SOL    HW117621   0.133   6.978   4.328
 5574SOL    HW217622   0.141   6.935   4.171
 5575SOL     OW17623   1.626   1.007   1.253
 5575SOL    HW117624   1.697   1.077   1.245
 5575SOL    HW217625   1.661   0.930   1.307
 5576SOL     OW17626   6.312   5.223   1.500
 5576SOL    HW117627   6.399   5.183   1.472
 5576SOL    HW217628   6.263   5.257   1.420
 5577SOL     OW17629   2.149   3.389   5.800
 5577SOL    HW117630   2.168   3.418   5.706
 5577SOL    HW217631   2.089   3.309   5.798
 5578SOL     OW17632   3.244   2.590   0.010
 5578SOL    HW117633   3.241   2.514   0.075
 5578SOL    HW217634   3.338   2.624   0.002
 5579SOL     OW17635   5.071   3.814   6.518
 5579SOL    HW117636   4.978   3.776   6.518
 5579SOL    HW217637   5.107   3.815   6.425
 5580SOL     OW17638   4.744   2.251   0.580
 5580SOL    HW117639   4.744   2.209   0.490
 5580SOL    HW217640   4.780   2.186   0.647
 5581SOL     OW17641   2.075   0.588   6.573
 5581SOL    HW117642   2.003   0.646   6.611
 5581SOL    HW217643   2.150   0.580   6.638
 5582SOL     OW17644   3.395   3.902   3.747
 5582SOL    HW117645   3.436   3.830   3.692
 5582SOL    HW217646   3.449   3.916   3.830
 5583SOL     OW17647   3.675   6.136   2.256
 5583SOL    HW117648   3.711   6.142   2.349
 5583SOL    HW217649   3.657   6.040   2.234
 5584SOL     OW17650   5.717   4.189   3.141
 5584SOL    HW117651   5.657   4.115   3.173
 5584SOL    HW217652   5.665   4.274   3.134
 5585SOL     OW17653   5.671   0.745   3.594
 5585SOL    HW117654   5.685   0.671   3.659
 5585SOL    HW217655   5.588   0.795   3.616
 5586SOL     OW17656   1.782   1.832   6.099
 5586SOL    HW117657   1.853   1.858   6.164
 5586SOL    HW217658   1.700   1.802   6.148
 5587SOL     OW17659   3.282   0.655   3.341
 5587SOL    HW117660   3.319   0.700   3.260
 5587SOL    HW217661   3.352   0.652   3.413
 5588SOL     OW17662   2.349   6.973   5.076
 5588SOL    HW117663   2.257   6.985   5.037
 5588SOL    HW217664   2.342   6.950   5.173
 5589SOL     OW17665   4.924   2.760   6.146
 5589SOL    HW117666   5.013   2.795   6.176
 5589SOL    HW217667   4.938   2.683   6.083
 5590SOL     OW17668   6.140   5.791   4.363
 5590SOL    HW117669   6.079   5.714   4.341
 5590SOL    HW217670   6.085   5.869   4.393
 5591SOL     OW17671   6.205   0.537   0.292
 5591SOL    HW117672   6.279   0.598   0.264
 5591SOL    HW217673   6.139   0.587   0.349
 5592SOL     OW17674   1.754   4.140   3.714
 5592SOL    HW117675   1.797   4.072   3.655
 5592SOL    HW217676   1.657   4.117   3.725
 5593SOL     OW17677   0.390   2.573   5.807
 5593SOL    HW117678   0.356   2.624   5.886
 5593SOL    HW217679   0.455   2.504   5.837
 5594SOL     OW17680   2.223   0.815   0.283
 5594SOL    HW117681   2.213   0.857   0.193
 5594SOL    HW217682   2.258   0.722   0.273
 5595SOL     OW17683   6.138   1.119   5.766
 5595SOL    HW117684   6.173   1.064   5.691
 5595SOL    HW217685   6.114   1.059   5.843
 5596SOL     OW17686   5.803   0.695   2.896
 5596SOL    HW117687   5.835   0.745   2.977
 5596SOL    HW217688   5.881   0.675   2.836
 5597SOL     OW17689   5.683   1.853   6.506
 5597SOL    HW117690   5.774   1.843   6.545
 5597SOL    HW217691   5.616   1.809   6.566
 5598SOL     OW17692   5.181   1.743   4.347
 5598SOL    HW117693   5.238   1.733   4.428
 5598SOL    HW217694   5.207   1.826   4.298
 5599SOL     OW17695   5.349   3.719   1.259
 5599SOL    HW117696   5.388   3.701   1.349
 5599SOL    HW217697   5.274   3.785   1.268
 5600SOL     OW17698   1.983   0.641   3.007
 5600SOL    HW117699   2.073   0.654   3.048
 5600SOL    HW217700   1.917   0.699   3.055
 5601SOL     OW17701   5.332   3.095   5.902
 5601SOL    HW117702   5.308   3.192   5.906
 5601SOL    HW217703   5.429   3.084   5.922
 5602SOL     OW17704   0.794   2.405   2.765
 5602SOL    HW117705   0.891   2.406   2.788
 5602SOL    HW217706   0.743   2.459   2.831
 5603SOL     OW17707   4.595   2.838   5.385
 5603SOL    HW117708   4.660   2.861   5.312
 5603SOL    HW217709   4.509   2.886   5.370
 5604SOL     OW17710   1.442   0.464   4.242
 5604SOL    HW117711   1.463   0.496   4.149
 5604SOL    HW217712   1.414   0.368   4.238
 5605SOL     OW17713   1.900   6.915   4.257
 5605SOL    HW117714   1.888   7.013   4.243
 5605SOL    HW217715   1.840   6.865   4.194
 5606SOL     OW17716   5.076   1.480   0.733
 5606SOL    HW117717   5.176   1.493   0.733
 5606SOL    HW217718   5.051   1.419   0.808
 5607SOL     OW17719   5.974   2.361   3.084
 5607SOL    HW117720   5.903   2.404   3.139
 5607SOL    HW217721   6.064   2.393   3.115
 5608SOL     OW17722   5.561   0.610   4.103
 5608SOL    HW117723   5.555   0.665   4.186
 5608SOL    HW217724   5.469   0.592   4.068
 5609SOL     OW17725   5.503   6.765   0.308
 5609SOL    HW117726   5.560   6.729   0.383
 5609SOL    HW217727   5.558   6.773   0.225
 5610SOL     OW17728   5.290   3.707   6.939
 5610SOL    HW117729   5.191   3.708   6.929
 5610SOL    HW217730   5.322   3.612   6.934
 5611SOL     OW17731   1.120   5.083   1.717
 5611SOL    HW117732   1.153   5.033   1.797
 5611SOL    HW217733   1.079   5.170   1.747
 5612SOL     OW17734   2.444   2.097   0.563
 5612SOL    HW117735   2.394   2.179   0.536
 5612SOL    HW217736   2.381   2.021   0.573
 5613SOL     OW17737   0.005   5.318   5.099
 5613SOL    HW117738   0.087   5.374   5.087
 5613SOL    HW217739   6.988   5.340   5.186
 5614SOL     OW17740   5.818   1.934   4.846
 5614SOL    HW117741   5.797   2.003   4.777
 5614SOL    HW217742   5.881   1.972   4.914
 5615SOL     OW17743   0.122   2.414   2.197
 5615SOL    HW117744   0.033   2.371   2.211
 5615SOL    HW217745   0.137   2.484   2.267
 5616SOL     OW17746   1.528   2.601   4.203
 5616SOL    HW117747   1.587   2.618   4.123
 5616SOL    HW217748   1.564   2.651   4.282
 5617SOL     OW17749   1.600   5.006   5.756
 5617SOL    HW117750   1.636   4.983   5.666
 5617SOL    HW217751   1.603   4.925   5.815
 5618SOL     OW17752   6.684   5.153   4.298
 5618SOL    HW117753   6.633   5.198   4.224
 5618SOL    HW217754   6.745   5.219   4.342
 5619SOL     OW17755   3.557   2.862   3.514
 5619SOL    HW117756   3.489   2.834   3.446
 5619SOL    HW217757   3.510   2.885   3.600
 5620SOL     OW17758   4.303   3.985   5.943
 5620SOL    HW117759   4.303   4.067   6.000
 5620SOL    HW217760   4.351   4.004   5.858
 5621SOL     OW17761   1.423   2.769   5.651
 5621SOL    HW117762   1.430   2.676   5.616
 5621SOL    HW217763   1.412   2.767   5.750
 5622SOL     OW17764   4.417   5.534   4.801
 5622SOL    HW117765   4.430   5.448   4.752
 5622SOL    HW217766   4.492   5.548   4.865
 5623SOL     OW17767   4.763   6.191   4.192
 5623SOL    HW117768   4.751   6.202   4.093
 5623SOL    HW217769   4.692   6.130   4.227
 5624SOL     OW17770   6.896   5.494   3.773
 5624SOL    HW117771   6.848   5.458   3.693
 5624SOL    HW217772   6.830   5.507   3.848
 5625SOL     OW17773   1.262   5.122   4.476
 5625SOL    HW117774   1.289   5.142   4.570
 5625SOL    HW217775   1.232   5.027   4.469
 5626SOL     OW17776   2.168   4.118   4.505
 5626SOL    HW117777   2.146   4.067   4.423
 5626SOL    HW217778   2.085   4.137   4.557
 5627SOL     OW17779   1.108   5.687   0.111
 5627SOL    HW117780   1.171   5.730   0.047
 5627SOL    HW217781   1.123   5.723   0.203
 5628SOL     OW17782   2.943   3.188   0.717
 5628SOL    HW117783   2.938   3.287   0.703
 5628SOL    HW217784   2.857   3.145   0.689
 5629SOL     OW17785   4.279   3.479   0.943
 5629SOL    HW117786   4.241   3.499   1.034
 5629SOL    HW217787   4.260   3.384   0.919
 5630SOL     OW17788   1.216   4.494   6.630
 5630SOL    HW117789   1.313   4.473   6.617
 5630SOL    HW217790   1.206   4.592   6.650
 5631SOL     OW17791   4.848   0.691   1.657
 5631SOL    HW117792   4.810   0.606   1.695
 5631SOL    HW217793   4.782   0.765   1.670
 5632SOL     OW17794   5.455   0.556   6.170
 5632SOL    HW117795   5.422   0.587   6.081
 5632SOL    HW217796   5.513   0.627   6.210
 5633SOL     OW17797   0.390   4.343   5.359
 5633SOL    HW117798   0.323   4.330   5.286
 5633SOL    HW217799   0.439   4.429   5.345
 5634SOL     OW17800   3.146   5.680   5.816
 5634SOL    HW117801   3.216   5.647   5.752
 5634SOL    HW217802   3.191   5.717   5.897
 5635SOL     OW17803   2.739   0.069   6.893
 5635SOL    HW117804   2.727   0.168   6.900
 5635SOL    HW217805   2.681   0.033   6.820
 5636SOL     OW17806   5.937   0.828   5.536
 5636SOL    HW117807   5.908   0.908   5.485
 5636SOL    HW217808   5.980   0.857   5.622
 5637SOL     OW17809   5.582   5.915   5.151
 5637SOL    HW117810   5.666   5.861   5.139
 5637SOL    HW217811   5.572   5.978   5.075
 5638SOL     OW17812   5.314   5.648   1.058
 5638SOL    HW117813   5.351   5.740   1.052
 5638SOL    HW217814   5.343   5.606   1.144
 5639SOL     OW17815   1.882   0.129   1.578
 5639SOL    HW117816   1.955   0.103   1.515
 5639SOL    HW217817   1.857   0.224   1.563
 5640SOL     OW17818   2.597   6.636   3.121
 5640SOL    HW117819   2.542   6.623   3.039
 5640SOL    HW217820   2.692   6.610   3.103
 5641SOL     OW17821   1.392   4.566   5.160
 5641SOL    HW117822   1.330   4.508   5.108
 5641SOL    HW217823   1.419   4.520   5.245
 5642SOL     OW17824   0.888   4.819   5.800
 5642SOL    HW117825   0.808   4.829   5.859
 5642SOL    HW217826   0.943   4.902   5.803
 5643SOL     OW17827   3.797   2.160   4.727
 5643SOL    HW117828   3.762   2.253   4.739
 5643SOL    HW217829   3.897   2.162   4.721
 5644SOL     OW17830   5.209   1.484   4.601
 5644SOL    HW117831   5.187   1.419   4.673
 5644SOL    HW217832   5.159   1.460   4.518
 5645SOL     OW17833   5.473   4.808   2.483
 5645SOL    HW117834   5.550   4.869   2.462
 5645SOL    HW217835   5.391   4.843   2.439
 5646SOL     OW17836   0.547   5.668   3.583
 5646SOL    HW117837   0.615   5.598   3.604
 5646SOL    HW217838   0.472   5.626   3.531
 5647SOL     OW17839   0.293   5.863   0.091
 5647SOL    HW117840   0.244   5.938   0.136
 5647SOL    HW217841   0.389   5.864   0.119
 5648SOL     OW17842   1.843   1.468   3.477
 5648SOL    HW117843   1.760   1.419   3.451
 5648SOL    HW217844   1.913   1.455   3.406
 5649SOL     OW17845   2.153   0.423   4.801
 5649SOL    HW117846   2.057   0.447   4.815
 5649SOL    HW217847   2.198   0.412   4.890
 5650SOL     OW17848   0.144   4.977   1.037
 5650SOL    HW117849   0.223   4.958   1.096
 5650SOL    HW217850   0.175   4.982   0.942
 5651SOL     OW17851   0.962   1.807   1.852
 5651SOL    HW117852   0.956   1.721   1.903
 5651SOL    HW217853   0.888   1.868   1.881
 5652SOL     OW17854   5.323   5.916   2.060
 5652SOL    HW117855   5.256   5.855   2.103
 5652SOL    HW217856   5.284   5.952   1.974
 5653SOL     OW17857   6.989   6.231   6.064
 5653SOL    HW117858   6.955   6.279   6.145
 5653SOL    HW217859   6.939   6.262   5.983
 5654SOL     OW17860   0.349   0.619   5.772
 5654SOL    HW117861   0.279   0.618   5.843
 5654SOL    HW217862   0.318   0.562   5.695
 5655SOL     OW17863   1.005   3.293   4.148
 5655SOL    HW117864   1.007   3.220   4.080
 5655SOL    HW217865   1.095   3.336   4.153
 5656SOL     OW17866   3.139   4.300   0.929
 5656SOL    HW117867   3.153   4.248   1.013
 5656SOL    HW217868   3.057   4.267   0.883
 5657SOL     OW17869   5.342   6.482   1.442
 5657SOL    HW117870   5.312   6.411   1.379
 5657SOL    HW217871   5.273   6.555   1.446
 5658SOL     OW17872   3.179   6.862   5.660
 5658SOL    HW117873   3.253   6.820   5.712
 5658SOL    HW217874   3.130   6.926   5.719
 5659SOL     OW17875   3.186   3.138   2.775
 5659SOL    HW117876   3.162   3.064   2.838
 5659SOL    HW217877   3.175   3.107   2.681
 5660SOL     OW17878   5.473   0.164   0.482
 5660SOL    HW117879   5.489   0.240   0.420
 5660SOL    HW217880   5.388   0.179   0.533
 5661SOL     OW17881   6.807   5.787   5.657
 5661SOL    HW117882   6.784   5.696   5.691
 5661SOL    HW217883   6.907   5.797   5.654
 5662SOL     OW17884   2.511   5.168   4.227
 5662SOL    HW117885   2.433   5.179   4.166
 5662SOL    HW217886   2.595   5.158   4.173
 5663SOL     OW17887   0.901   4.180   0.703
 5663SOL    HW117888   0.974   4.240   0.670
 5663SOL    HW217889   0.837   4.161   0.629
 5664SOL     OW17890   0.652   4.597   3.334
 5664SOL    HW117891   0.602   4.637   3.411
 5664SOL    HW217892   0.706   4.519   3.365
 5665SOL     OW17893   1.634   2.050   6.540
 5665SOL    HW117894   1.563   1.986   6.511
 5665SOL    HW217895   1.710   2.047   6.475
 5666SOL     OW17896   4.928   5.603   0.831
 5666SOL    HW117897   4.893   5.519   0.788
 5666SOL    HW217898   4.980   5.580   0.913
 5667SOL     OW17899   1.145   4.544   3.115
 5667SOL    HW117900   1.054   4.513   3.087
 5667SOL    HW217901   1.174   4.494   3.196
 5668SOL     OW17902   5.535   1.684   6.648
 5668SOL    HW117903   5.478   1.611   6.609
 5668SOL    HW217904   5.609   1.643   6.702
 5669SOL     OW17905   0.178   4.760   6.171
 5669SOL    HW117906   0.081   4.780   6.161
 5669SOL    HW217907   0.220   4.830   6.229
 5670SOL     OW17908   6.977   2.910   3.756
 5670SOL    HW117909   0.007   2.872   3.830
 5670SOL    HW217910   6.890   2.863   3.752
 5671SOL     OW17911   1.620   6.775   6.338
 5671SOL    HW117912   1.567   6.859   6.333
 5671SOL    HW217913   1.629   6.735   6.247
 5672SOL     OW17914   4.616   3.922   5.948
 5672SOL    HW117915   4.609   3.855   5.874
 5672SOL    HW217916   4.653   3.878   6.030
 5673SOL     OW17917   0.079   0.414   2.159
 5673SOL    HW117918   0.103   0.319   2.139
 5673SOL    HW217919   7.021   0.417   2.213
 5674SOL     OW17920   0.134   3.999   1.868
 5674SOL    HW117921   0.084   3.952   1.795
 5674SOL    HW217922   0.069   4.029   1.938
 5675SOL     OW17923   4.196   2.262   5.446
 5675SOL    HW117924   4.210   2.340   5.507
 5675SOL    HW217925   4.114   2.212   5.474
 5676SOL     OW17926   2.310   1.101   1.062
 5676SOL    HW117927   2.299   1.004   1.043
 5676SOL    HW217928   2.242   1.153   1.010
 5677SOL     OW17929   0.130   1.544   3.493
 5677SOL    HW117930   0.186   1.576   3.416
 5677SOL    HW217931   0.166   1.456   3.525
 5678SOL     OW17932   3.366   6.138   3.235
 5678SOL    HW117933   3.398   6.130   3.140
 5678SOL    HW217934   3.289   6.076   3.250
 5679SOL     OW17935   1.553   6.560   4.627
 5679SOL    HW117936   1.461   6.600   4.629
 5679SOL    HW217937   1.547   6.466   4.593
 5680SOL     OW17938   1.543   5.704   0.087
 5680SOL    HW117939   1.543   5.653   0.001
 5680SOL    HW217940   1.536   5.641   0.164
 5681SOL     OW17941   0.973   3.192   6.713
 5681SOL    HW117942   1.004   3.279   6.751
 5681SOL    HW217943   0.919   3.143   6.781
 5682SOL     OW17944   1.921   3.205   5.817
 5682SOL    HW117945   1.945   3.149   5.896
 5682SOL    HW217946   1.878   3.148   5.747
 5683SOL     OW17947   3.822   2.532   6.407
 5683SOL    HW117948   3.763   2.577   6.339
 5683SOL    HW217949   3.848   2.441   6.373
 5684SOL     OW17950   4.137   3.512   4.274
 5684SOL    HW117951   4.065   3.446   4.296
 5684SOL    HW217952   4.190   3.532   4.357
 5685SOL     OW17953   0.625   4.819   1.915
 5685SOL    HW117954   0.573   4.772   1.844
 5685SOL    HW217955   0.722   4.795   1.907
 5686SOL     OW17956   3.430   0.805   0.322
 5686SOL    HW117957   3.404   0.891   0.367
 5686SOL    HW217958   3.529   0.797   0.320
 5687SOL     OW17959   6.589   4.316   4.456
 5687SOL    HW117960   6.517   4.278   4.398
 5687SOL    HW217961   6.677   4.279   4.427
 5688SOL     OW17962   6.703   1.933   0.921
 5688SOL    HW117963   6.657   2.011   0.877
 5688SOL    HW217964   6.648   1.851   0.907
 5689SOL     OW17965   3.873   1.394   0.896
 5689SOL    HW117966   3.856   1.492   0.882
 5689SOL    HW217967   3.962   1.382   0.940
 5690SOL     OW17968   3.573   6.032   0.760
 5690SOL    HW117969   3.570   5.932   0.756
 5690SOL    HW217970   3.668   6.062   0.758
 5691SOL     OW17971   3.076   6.098   2.122
 5691SOL    HW117972   3.076   6.163   2.198
 5691SOL    HW217973   2.984   6.093   2.082
 5692SOL     OW17974   6.744   2.059   6.425
 5692SOL    HW117975   6.749   2.117   6.343
 5692SOL    HW217976   6.829   2.067   6.476
 5693SOL     OW17977   5.116   2.798   2.046
 5693SOL    HW117978   5.018   2.806   2.061
 5693SOL    HW217979   5.138   2.703   2.023
 5694SOL     OW17980   1.123   1.526   3.367
 5694SOL    HW117981   1.039   1.477   3.390
 5694SOL    HW217982   1.200   1.482   3.412
 5695SOL     OW17983   1.152   2.289   3.308
 5695SOL    HW117984   1.182   2.292   3.403
 5695SOL    HW217985   1.138   2.194   3.280
 5696SOL     OW17986   2.609   0.809   4.286
 5696SOL    HW117987   2.615   0.909   4.284
 5696SOL    HW217988   2.513   0.782   4.279
 5697SOL     OW17989   6.831   2.460   1.703
 5697SOL    HW117990   6.768   2.537   1.702
 5697SOL    HW217991   6.886   2.463   1.787
 5698SOL     OW17992   0.230   1.990   2.355
 5698SOL    HW117993   0.329   1.977   2.363
 5698SOL    HW217994   0.209   2.030   2.265
 5699SOL     OW17995   6.142   1.611   3.857
 5699SOL    HW117996   6.191   1.673   3.796
 5699SOL    HW217997   6.171   1.626   3.951
 5700SOL     OW17998   6.992   6.030   4.915
 5700SOL    HW117999   6.985   6.070   4.824
 5700SOL    HW218000   6.972   6.100   4.984
 5701SOL     OW18001   0.968   5.616   3.328
 5701SOL    HW118002   0.922   5.697   3.291
 5701SOL    HW218003   1.054   5.601   3.279
 5702SOL     OW18004   2.099   0.256   6.164
 5702SOL    HW118005   2.117   0.274   6.261
 5702SOL    HW218006   2.164   0.306   6.108
 5703SOL     OW18007   4.596   4.690   0.120
 5703SOL    HW118008   4.578   4.744   0.202
 5703SOL    HW218009   4.555   4.599   0.130
 5704SOL     OW18010   4.495   5.644   2.466
 5704SOL    HW118011   4.445   5.691   2.393
 5704SOL    HW218012   4.519   5.709   2.537
 5705SOL     OW18013   6.046   1.200   0.696
 5705SOL    HW118014   6.058   1.296   0.671
 5705SOL    HW218015   6.132   1.151   0.683
 5706SOL     OW18016   1.674   1.823   0.351
 5706SOL    HW118017   1.681   1.784   0.443
 5706SOL    HW218018   1.623   1.760   0.292
 5707SOL     OW18019   1.087   6.900   6.866
 5707SOL    HW118020   0.998   6.939   6.844
 5707SOL    HW218021   1.115   6.837   6.794
 5708SOL     OW18022   5.407   0.163   2.084
 5708SOL    HW118023   5.308   0.165   2.098
 5708SOL    HW218024   5.446   0.253   2.104
 5709SOL     OW18025   0.733   5.892   3.529
 5709SOL    HW118026   0.647   5.841   3.525
 5709SOL    HW218027   0.779   5.872   3.616
 5710SOL     OW18028   2.675   3.581   5.359
 5710SOL    HW118029   2.723   3.594   5.446
 5710SOL    HW218030   2.687   3.663   5.303
 5711SOL     OW18031   4.731   0.191   3.598
 5711SOL    HW118032   4.718   0.096   3.568
 5711SOL    HW218033   4.641   0.234   3.608
 5712SOL     OW18034   1.281   6.820   5.618
 5712SOL    HW118035   1.263   6.917   5.635
 5712SOL    HW218036   1.316   6.808   5.524
 5713SOL     OW18037   0.875   2.241   1.460
 5713SOL    HW118038   0.942   2.195   1.517
 5713SOL    HW218039   0.784   2.203   1.478
 5714SOL     OW18040   1.445   6.767   6.700
 5714SOL    HW118041   1.451   6.707   6.621
 5714SOL    HW218042   1.388   6.847   6.678
 5715SOL     OW18043   1.013   5.916   3.081
 5715SOL    HW118044   0.922   5.887   3.110
 5715SOL    HW218045   1.043   5.860   3.005
 5716SOL     OW18046   0.609   4.168   5.393
 5716SOL    HW118047   0.524   4.219   5.389
 5716SOL    HW218048   0.612   4.100   5.320
 5717SOL     OW18049   1.856   5.221   0.189
 5717SOL    HW118050   1.766   5.242   0.151
 5717SOL    HW218051   1.885   5.130   0.159
 5718SOL     OW18052   2.067   4.360   6.894
 5718SOL    HW118053   2.102   4.450   6.920
 5718SOL    HW218054   2.075   4.348   6.795
 5719SOL     OW18055   3.178   1.163   5.669
 5719SOL    HW118056   3.182   1.125   5.761
 5719SOL    HW218057   3.090   1.209   5.656
 5720SOL     OW18058   0.381   5.205   4.817
 5720SOL    HW118059   0.389   5.150   4.901
 5720SOL    HW218060   0.472   5.215   4.776
 5721SOL     OW18061   0.866   3.434   0.131
 5721SOL    HW118062   0.783   3.395   0.092
 5721SOL    HW218063   0.880   3.526   0.092
 5722SOL     OW18064   5.234   1.497   4.966
 5722SOL    HW118065   5.168   1.427   4.938
 5722SOL    HW218066   5.311   1.497   4.903
 5723SOL     OW18067   4.256   4.508   0.524
 5723SOL    HW118068   4.300   4.421   0.547
 5723SOL    HW218069   4.163   4.509   0.559
 5724SOL     OW18070   3.917   2.458   5.342
 5724SOL    HW118071   4.004   2.474   5.297
 5724SOL    HW218072   3.927   2.472   5.441
 5725SOL     OW18073   4.920   5.857   3.606
 5725SOL    HW118074   4.936   5.759   3.605
 5725SOL    HW218075   4.853   5.881   3.535
 5726SOL     OW18076   6.721   3.253   4.072
 5726SOL    HW118077   6.636   3.305   4.072
 5726SOL    HW218078   6.798   3.314   4.054
 5727SOL     OW18079   5.993   3.270   2.700
 5727SOL    HW118080   5.972   3.365   2.675
 5727SOL    HW218081   6.047   3.269   2.784
 5728SOL     OW18082   4.981   1.717   6.616
 5728SOL    HW118083   4.928   1.713   6.701
 5728SOL    HW218084   5.039   1.636   6.610
 5729SOL     OW18085   1.241   1.614   1.455
 5729SOL    HW118086   1.279   1.696   1.411
 5729SOL    HW218087   1.302   1.537   1.441
 5730SOL     OW18088   4.396   5.588   5.380
 5730SOL    HW118089   4.492   5.561   5.381
 5730SOL    HW218090   4.353   5.560   5.466
 5731SOL     OW18091   1.704   6.747   3.449
 5731SOL    HW118092   1.672   6.713   3.538
 5731SOL    HW218093   1.779   6.688   3.417
 5732SOL     OW18094   5.823   4.955   5.063
 5732SOL    HW118095   5.826   5.014   5.143
 5732SOL    HW218096   5.916   4.929   5.037
 5733SOL     OW18097   3.783   1.327   5.850
 5733SOL    HW118098   3.841   1.246   5.856
 5733SOL    HW218099   3.798   1.373   5.762
 5734SOL     OW18100   1.085   6.788   5.342
 5734SOL    HW118101   1.032   6.769   5.425
 5734SOL    HW218102   1.024   6.822   5.271
 5735SOL     OW18103   4.212   0.997   2.302
 5735SOL    HW118104   4.280   0.997   2.375
 5735SOL    HW218105   4.255   0.967   2.216
 5736SOL     OW18106   5.309   4.358   6.840
 5736SOL    HW118107   5.348   4.352   6.932
 5736SOL    HW218108   5.358   4.295   6.779
 5737SOL     OW18109   5.408   5.920   1.027
 5737SOL    HW118110   5.317   5.961   1.019
 5737SOL    HW218111   5.453   5.922   0.938
 5738SOL     OW18112   3.922   1.558   6.616
 5738SOL    HW118113   3.868   1.488   6.569
 5738SOL    HW218114   3.905   1.552   6.714
 5739SOL     OW18115   1.811   6.519   5.533
 5739SOL    HW118116   1.823   6.423   5.558
 5739SOL    HW218117   1.892   6.551   5.484
 5740SOL     OW18118   4.607   3.431   0.799
 5740SOL    HW118119   4.629   3.468   0.889
 5740SOL    HW218120   4.569   3.339   0.809
 5741SOL     OW18121   6.888   3.471   4.030
 5741SOL    HW118122   6.935   3.524   4.100
 5741SOL    HW218123   6.862   3.531   3.954
 5742SOL     OW18124   3.866   0.102   3.292
 5742SOL    HW118125   3.800   0.113   3.219
 5742SOL    HW218126   3.907   0.190   3.315
 5743SOL     OW18127   3.367   5.166   5.949
 5743SOL    HW118128   3.403   5.116   6.028
 5743SOL    HW218129   3.288   5.221   5.978
 5744SOL     OW18130   5.917   1.156   2.794
 5744SOL    HW118131   5.909   1.114   2.704
 5744SOL    HW218132   5.897   1.254   2.786
 5745SOL     OW18133   2.665   1.629   3.894
 5745SOL    HW118134   2.620   1.663   3.976
 5745SOL    HW218135   2.760   1.660   3.892
 5746SOL     OW18136   4.623   6.972   3.069
 5746SOL    HW118137   4.687   6.900   3.095
 5746SOL    HW218138   4.661   0.035   3.093
 5747SOL     OW18139   0.096   6.309   1.929
 5747SOL    HW118140   0.034   6.387   1.917
 5747SOL    HW218141   0.074   6.238   1.863
 5748SOL     OW18142   0.898   0.192   0.830
 5748SOL    HW118143   0.868   0.172   0.923
 5748SOL    HW218144   0.872   0.285   0.806
 5749SOL     OW18145   1.461   6.117   4.851
 5749SOL    HW118146   1.423   6.095   4.941
 5749SOL    HW218147   1.427   6.050   4.784
 5750SOL     OW18148   5.869   5.355   5.647
 5750SOL    HW118149   5.965   5.330   5.657
 5750SOL    HW218150   5.828   5.367   5.737
 5751SOL     OW18151   1.534   3.619   4.754
 5751SOL    HW118152   1.608   3.671   4.797
 5751SOL    HW218153   1.564   3.526   4.736
 5752SOL     OW18154   5.885   0.016   1.366
 5752SOL    HW118155   5.975   7.008   1.339
 5752SOL    HW218156   5.832   0.038   1.284
 5753SOL     OW18157   3.114   3.488   4.806
 5753SOL    HW118158   3.028   3.440   4.787
 5753SOL    HW218159   3.187   3.447   4.752
 5754SOL     OW18160   0.889   5.897   1.680
 5754SOL    HW118161   0.821   5.962   1.715
 5754SOL    HW218162   0.967   5.948   1.642
 5755SOL     OW18163   1.626   2.048   5.455
 5755SOL    HW118164   1.568   2.053   5.373
 5755SOL    HW218165   1.596   2.117   5.521
 5756SOL     OW18166   6.783   0.394   3.397
 5756SOL    HW118167   6.787   0.301   3.435
 5756SOL    HW218168   6.691   0.430   3.408
 5757SOL     OW18169   0.353   5.435   3.830
 5757SOL    HW118170   0.277   5.373   3.852
 5757SOL    HW218171   0.433   5.410   3.884
 5758SOL     OW18172   2.409   0.938   3.284
 5758SOL    HW118173   2.470   0.961   3.360
 5758SOL    HW218174   2.438   0.987   3.202
 5759SOL     OW18175   4.597   0.539   0.923
 5759SOL    HW118176   4.596   0.486   0.838
 5759SOL    HW218177   4.646   0.489   0.994
 5760SOL     OW18178   6.514   2.451   2.009
 5760SOL    HW118179   6.475   2.516   2.074
 5760SOL    HW218180   6.529   2.496   1.921
 5761SOL     OW18181   5.373   5.330   5.533
 5761SOL    HW118182   5.434   5.396   5.576
 5761SOL    HW218183   5.288   5.324   5.586
 5762SOL     OW18184   4.686   4.050   0.379
 5762SOL    HW118185   4.731   3.979   0.326
 5762SOL    HW218186   4.684   4.135   0.326
 5763SOL     OW18187   5.552   6.322   0.606
 5763SOL    HW118188   5.613   6.344   0.530
 5763SOL    HW218189   5.605   6.321   0.691
 5764SOL     OW18190   4.268   5.321   4.348
 5764SOL    HW118191   4.283   5.407   4.299
 5764SOL    HW218192   4.344   5.259   4.331
 5765SOL     OW18193   6.609   3.515   0.880
 5765SOL    HW118194   6.691   3.494   0.933
 5765SOL    HW218195   6.539   3.553   0.940
 5766SOL     OW18196   2.082   1.593   4.901
 5766SOL    HW118197   2.086   1.679   4.951
 5766SOL    HW218198   2.126   1.605   4.811
 5767SOL     OW18199   2.346   0.016   0.068
 5767SOL    HW118200   2.339   0.012   6.994
 5767SOL    HW218201   2.255   0.018   0.108
 5768SOL     OW18202   0.644   6.951   3.310
 5768SOL    HW118203   0.627   6.878   3.244
 5768SOL    HW218204   0.632   6.916   3.403
 5769SOL     OW18205   2.908   5.902   5.172
 5769SOL    HW118206   2.836   5.959   5.133
 5769SOL    HW218207   2.887   5.806   5.157
 5770SOL     OW18208   6.923   6.569   6.846
 5770SOL    HW118209   6.922   6.476   6.810
 5770SOL    HW218210   6.843   6.583   6.904
 5771SOL     OW18211   2.019   0.298   4.199
 5771SOL    HW118212   2.062   0.350   4.273
 5771SOL    HW218213   2.058   0.325   4.111
 5772SOL     OW18214   5.299   1.398   1.472
 5772SOL    HW118215   5.325   1.407   1.568
 5772SOL    HW218216   5.379   1.414   1.414
 5773SOL     OW18217   4.319   1.044   2.827
 5773SOL    HW118218   4.388   0.975   2.846
 5773SOL    HW218219   4.257   1.053   2.905
 5774SOL     OW18220   2.079   0.089   4.609
 5774SOL    HW118221   2.134   0.066   4.529
 5774SOL    HW218222   1.982   0.085   4.586
 5775SOL     OW18223   0.948   6.620   2.729
 5775SOL    HW118224   1.039   6.660   2.736
 5775SOL    HW218225   0.882   6.680   2.774
 5776SOL     OW18226   1.211   0.155   3.533
 5776SOL    HW118227   1.236   0.084   3.467
 5776SOL    HW218228   1.294   0.192   3.575
 5777SOL     OW18229   0.587   6.753   3.567
 5777SOL    HW118230   0.548   6.816   3.635
 5777SOL    HW218231   0.567   6.659   3.594
 5778SOL     OW18232   1.343   0.490   0.563
 5778SOL    HW118233   1.423   0.475   0.505
 5778SOL    HW218234   1.261   0.463   0.514
 5779SOL     OW18235   4.227   2.517   0.340
 5779SOL    HW118236   4.197   2.530   0.246
 5779SOL    HW218237   4.150   2.485   0.395
 5780SOL     OW18238   5.856   6.218   4.718
 5780SOL    HW118239   5.840   6.173   4.806
 5780SOL    HW218240   5.910   6.157   4.659
 5781SOL     OW18241   6.494   4.815   4.717
 5781SOL    HW118242   6.516   4.718   4.708
 5781SOL    HW218243   6.510   4.861   4.630
 5782SOL     OW18244   1.701   1.745   0.608
 5782SOL    HW118245   1.613   1.783   0.638
 5782SOL    HW218246   1.752   1.713   0.688
 5783SOL     OW18247   0.955   0.691   2.278
 5783SOL    HW118248   0.871   0.737   2.305
 5783SOL    HW218249   1.032   0.727   2.331
 5784SOL     OW18250   0.705   6.643   5.379
 5784SOL    HW118251   0.690   6.655   5.281
 5784SOL    HW218252   0.673   6.724   5.427
 5785SOL     OW18253   1.797   2.445   0.449
 5785SOL    HW118254   1.846   2.366   0.487
 5785SOL    HW218255   1.745   2.490   0.522
 5786SOL     OW18256   6.695   4.153   0.640
 5786SOL    HW118257   6.608   4.138   0.687
 5786SOL    HW218258   6.754   4.073   0.651
 5787SOL     OW18259   2.142   2.664   5.130
 5787SOL    HW118260   2.080   2.625   5.197
 5787SOL    HW218261   2.196   2.590   5.088
 5788SOL     OW18262   2.864   1.147   2.243
 5788SOL    HW118263   2.948   1.163   2.295
 5788SOL    HW218264   2.848   1.225   2.182
 5789SOL     OW18265   3.479   4.859   0.193
 5789SOL    HW118266   3.409   4.851   0.122
 5789SOL    HW218267   3.569   4.869   0.150
 5790SOL     OW18268   1.711   4.073   4.490
 5790SOL    HW118269   1.764   4.149   4.454
 5790SOL    HW218270   1.755   4.038   4.573
 5791SOL     OW18271   4.314   0.912   2.059
 5791SOL    HW118272   4.247   0.839   2.055
 5791SOL    HW218273   4.405   0.876   2.038
 5792SOL     OW18274   6.737   2.594   2.795
 5792SOL    HW118275   6.715   2.691   2.783
 5792SOL    HW218276   6.808   2.584   2.864
 5793SOL     OW18277   5.097   0.560   3.797
 5793SOL    HW118278   5.192   0.577   3.824
 5793SOL    HW218279   5.050   0.511   3.870
 5794SOL     OW18280   3.784   1.727   0.598
 5794SOL    HW118281   3.729   1.784   0.658
 5794SOL    HW218282   3.735   1.643   0.576
 5795SOL     OW18283   6.661   6.101   6.998
 5795SOL    HW118284   6.745   6.046   7.006
 5795SOL    HW218285   6.624   6.093   6.906
 5796SOL     OW18286   3.818   1.096   0.078
 5796SOL    HW118287   3.806   0.997   0.078
 5796SOL    HW218288   3.796   1.133   0.168
 5797SOL     OW18289   4.408   1.859   5.828
 5797SOL    HW118290   4.436   1.815   5.914
 5797SOL    HW218291   4.410   1.958   5.839
 5798SOL     OW18292   0.942   4.617   5.023
 5798SOL    HW118293   0.970   4.630   4.928
 5798SOL    HW218294   0.945   4.519   5.045
 5799SOL     OW18295   5.455   1.308   3.666
 5799SOL    HW118296   5.551   1.331   3.650
 5799SOL    HW218297   5.425   1.240   3.599
 5800SOL     OW18298   6.118   6.167   1.276
 5800SOL    HW118299   6.036   6.114   1.253
 5800SOL    HW218300   6.103   6.217   1.361
 5801SOL     OW18301   1.880   2.245   3.940
 5801SOL    HW118302   1.836   2.156   3.946
 5801SOL    HW218303   1.813   2.313   3.908
 5802SOL     OW18304   1.367   4.752   1.220
 5802SOL    HW118305   1.378   4.653   1.210
 5802SOL    HW218306   1.311   4.772   1.301
 5803SOL     OW18307   1.790   4.992   2.381
 5803SOL    HW118308   1.884   4.979   2.349
 5803SOL    HW218309   1.728   4.934   2.328
 5804SOL     OW18310   0.533   5.340   4.090
 5804SOL    HW118311   0.459   5.408   4.094
 5804SOL    HW218312   0.568   5.323   4.182
 5805SOL     OW18313   2.851   3.596   6.021
 5805SOL    HW118314   2.910   3.670   5.989
 5805SOL    HW218315   2.809   3.551   5.942
 5806SOL     OW18316   6.887   6.081   5.757
 5806SOL    HW118317   6.901   6.173   5.794
 5806SOL    HW218318   6.793   6.052   5.774
 5807SOL     OW18319   0.704   3.739   2.017
 5807SOL    HW118320   0.635   3.790   1.966
 5807SOL    HW218321   0.762   3.688   1.953
 5808SOL     OW18322   5.898   4.532   4.539
 5808SOL    HW118323   5.964   4.572   4.476
 5808SOL    HW218324   5.912   4.570   4.631
 5809SOL     OW18325   6.474   2.152   4.815
 5809SOL    HW118326   6.419   2.105   4.746
 5809SOL    HW218327   6.490   2.246   4.785
 5810SOL     OW18328   3.685   1.872   3.933
 5810SOL    HW118329   3.637   1.856   3.847
 5810SOL    HW218330   3.763   1.809   3.940
 5811SOL     OW18331   3.337   0.473   5.642
 5811SOL    HW118332   3.284   0.421   5.709
 5811SOL    HW218333   3.366   0.560   5.682
 5812SOL     OW18334   6.512   1.738   3.998
 5812SOL    HW118335   6.478   1.797   4.071
 5812SOL    HW218336   6.561   1.660   4.036
 5813SOL     OW18337   1.785   1.665   0.878
 5813SOL    HW118338   1.722   1.641   0.951
 5813SOL    HW218339   1.810   1.582   0.827
 5814SOL     OW18340   6.490   4.589   1.257
 5814SOL    HW118341   6.418   4.609   1.191
 5814SOL    HW218342   6.573   4.559   1.209
 5815SOL     OW18343   4.478   2.542   4.128
 5815SOL    HW118344   4.479   2.552   4.227
 5815SOL    HW218345   4.525   2.458   4.102
 5816SOL     OW18346   4.228   5.925   0.318
 5816SOL    HW118347   4.199   6.021   0.323
 5816SOL    HW218348   4.302   5.915   0.253
 5817SOL     OW18349   5.411   3.584   6.203
 5817SOL    HW118350   5.385   3.559   6.296
 5817SOL    HW218351   5.509   3.606   6.200
 5818SOL     OW18352   6.671   5.600   5.027
 5818SOL    HW118353   6.744   5.666   5.010
 5818SOL    HW218354   6.708   5.507   5.021
 5819SOL     OW18355   4.126   6.705   0.111
 5819SOL    HW118356   4.105   6.713   0.014
 5819SOL    HW218357   4.087   6.620   0.147
 5820SOL     OW18358   4.007   5.535   4.255
 5820SOL    HW118359   4.007   5.623   4.207
 5820SOL    HW218360   4.044   5.464   4.195
 5821SOL     OW18361   6.892   0.269   2.330
 5821SOL    HW118362   6.839   0.338   2.280
 5821SOL    HW218363   6.905   0.189   2.272
 5822SOL     OW18364   1.115   2.620   2.123
 5822SOL    HW118365   1.064   2.629   2.208
 5822SOL    HW218366   1.164   2.533   2.123
 5823SOL     OW18367   1.383   1.260   5.442
 5823SOL    HW118368   1.368   1.222   5.533
 5823SOL    HW218369   1.358   1.357   5.442
 5824SOL     OW18370   6.369   4.853   2.400
 5824SOL    HW118371   6.340   4.758   2.412
 5824SOL    HW218372   6.294   4.905   2.359
 5825SOL     OW18373   2.300   2.475   5.016
 5825SOL    HW118374   2.298   2.376   5.024
 5825SOL    HW218375   2.395   2.506   5.012
 5826SOL     OW18376   0.146   5.243   5.702
 5826SOL    HW118377   0.115   5.200   5.787
 5826SOL    HW218378   0.123   5.184   5.625
 5827SOL     OW18379   2.313   4.286   4.693
 5827SOL    HW118380   2.268   4.211   4.643
 5827SOL    HW218381   2.252   4.365   4.696
 5828SOL     OW18382   6.997   3.116   2.211
 5828SOL    HW118383   0.001   3.021   2.218
 5828SOL    HW218384   6.923   3.123   2.144
 5829SOL     OW18385   1.935   1.443   3.212
 5829SOL    HW118386   1.936   1.456   3.113
 5829SOL    HW218387   1.892   1.355   3.234
 5830SOL     OW18388   4.720   0.162   5.589
 5830SOL    HW118389   4.771   0.082   5.557
 5830SOL    HW218390   4.692   0.218   5.510
 5831SOL     OW18391   0.171   0.681   4.450
 5831SOL    HW118392   0.162   0.642   4.358
 5831SOL    HW218393   0.235   0.758   4.447
 5832SOL     OW18394   3.901   4.462   6.113
 5832SOL    HW118395   3.809   4.485   6.145
 5832SOL    HW218396   3.917   4.504   6.024
 5833SOL     OW18397   4.100   3.510   5.211
 5833SOL    HW118398   4.008   3.494   5.245
 5833SOL    HW218399   4.164   3.513   5.289
 5834SOL     OW18400   6.607   3.155   0.252
 5834SOL    HW118401   6.685   3.217   0.246
 5834SOL    HW218402   6.566   3.144   0.161
 5835SOL     OW18403   4.964   3.527   3.822
 5835SOL    HW118404   4.905   3.608   3.817
 5835SOL    HW218405   4.986   3.508   3.917
 5836SOL     OW18406   3.173   6.327   2.530
 5836SOL    HW118407   3.183   6.424   2.553
 5836SOL    HW218408   3.257   6.278   2.551
 5837SOL     OW18409   4.034   4.979   6.185
 5837SOL    HW118410   3.947   4.995   6.231
 5837SOL    HW218411   4.045   5.043   6.109
 5838SOL     OW18412   2.765   1.692   6.387
 5838SOL    HW118413   2.858   1.657   6.374
 5838SOL    HW218414   2.747   1.764   6.320
 5839SOL     OW18415   0.337   2.300   2.426
 5839SOL    HW118416   0.252   2.314   2.477
 5839SOL    HW218417   0.334   2.211   2.380
 5840SOL     OW18418   0.841   5.610   6.734
 5840SOL    HW118419   0.896   5.589   6.815
 5840SOL    HW218420   0.744   5.606   6.758
 5841SOL     OW18421   4.964   1.854   2.307
 5841SOL    HW118422   5.019   1.892   2.381
 5841SOL    HW218423   4.874   1.829   2.343
 5842SOL     OW18424   4.673   3.157   0.982
 5842SOL    HW118425   4.576   3.138   1.002
 5842SOL    HW218426   4.730   3.104   1.045
 5843SOL     OW18427   2.084   3.796   2.692
 5843SOL    HW118428   2.079   3.753   2.602
 5843SOL    HW218429   2.025   3.747   2.756
 5844SOL     OW18430   0.966   6.935   5.865
 5844SOL    HW118431   1.015   6.863   5.913
 5844SOL    HW218432   0.867   6.920   5.872
 5845SOL     OW18433   1.164   0.338   2.720
 5845SOL    HW118434   1.195   0.422   2.677
 5845SOL    HW218435   1.146   0.269   2.650
 5846SOL     OW18436   6.823   2.812   3.349
 5846SOL    HW118437   6.911   2.853   3.373
 5846SOL    HW218438   6.818   2.719   3.385
 5847SOL     OW18439   2.260   2.330   1.893
 5847SOL    HW118440   2.287   2.418   1.931
 5847SOL    HW218441   2.340   2.270   1.890
 5848SOL     OW18442   2.648   5.178   2.863
 5848SOL    HW118443   2.599   5.213   2.783
 5848SOL    HW218444   2.678   5.084   2.846
 5849SOL     OW18445   0.113   6.847   6.716
 5849SOL    HW118446   0.064   6.768   6.680
 5849SOL    HW218447   0.125   6.915   6.644
 5850SOL     OW18448   0.237   4.309   2.359
 5850SOL    HW118449   0.298   4.313   2.280
 5850SOL    HW218450   0.249   4.392   2.414
 5851SOL     OW18451   5.827   3.595   2.953
 5851SOL    HW118452   5.820   3.515   3.013
 5851SOL    HW218453   5.745   3.601   2.896
 5852SOL     OW18454   5.603   6.289   3.130
 5852SOL    HW118455   5.691   6.274   3.177
 5852SOL    HW218456   5.596   6.227   3.052
 5853SOL     OW18457   3.422   5.338   4.253
 5853SOL    HW118458   3.398   5.329   4.157
 5853SOL    HW218459   3.497   5.403   4.264
 5854SOL     OW18460   6.278   4.550   5.576
 5854SOL    HW118461   6.181   4.568   5.558
 5854SOL    HW218462   6.288   4.466   5.629
 5855SOL     OW18463   0.642   0.567   4.981
 5855SOL    HW118464   0.708   0.491   4.975
 5855SOL    HW218465   0.682   0.640   5.036
 5856SOL     OW18466   1.927   6.266   3.786
 5856SOL    HW118467   2.026   6.252   3.790
 5856SOL    HW218468   1.889   6.255   3.878
 5857SOL     OW18469   6.636   2.139   5.842
 5857SOL    HW118470   6.665   2.099   5.929
 5857SOL    HW218471   6.580   2.073   5.792
 5858SOL     OW18472   2.367   2.585   2.008
 5858SOL    HW118473   2.447   2.617   1.957
 5858SOL    HW218474   2.397   2.536   2.089
 5859SOL     OW18475   5.828   6.349   1.666
 5859SOL    HW118476   5.822   6.392   1.756
 5859SOL    HW218477   5.841   6.250   1.677
 5860SOL     OW18478   2.006   3.836   2.144
 5860SOL    HW118479   2.044   3.770   2.079
 5860SOL    HW218480   2.076   3.861   2.211
 5861SOL     OW18481   4.823   1.533   4.358
 5861SOL    HW118482   4.769   1.603   4.405
 5861SOL    HW218483   4.766   1.453   4.340
 5862SOL     OW18484   4.596   5.068   2.839
 5862SOL    HW118485   4.613   5.059   2.937
 5862SOL    HW218486   4.682   5.058   2.789
 5863SOL     OW18487   2.660   0.641   4.636
 5863SOL    HW118488   2.700   0.597   4.717
 5863SOL    HW218489   2.569   0.676   4.659
 5864SOL     OW18490   3.743   3.618   1.567
 5864SOL    HW118491   3.658   3.666   1.545
 5864SOL    HW218492   3.738   3.585   1.661
 5865SOL     OW18493   5.825   0.339   5.598
 5865SOL    HW118494   5.806   0.378   5.688
 5865SOL    HW218495   5.809   0.240   5.601
 5866SOL     OW18496   4.294   5.467   0.368
 5866SOL    HW118497   4.385   5.505   0.389
 5866SOL    HW218498   4.227   5.541   0.365
 5867SOL     OW18499   0.573   3.944   1.119
 5867SOL    HW118500   0.651   3.905   1.070
 5867SOL    HW218501   0.586   4.042   1.132
 5868SOL     OW18502   0.307   0.496   5.162
 5868SOL    HW118503   0.224   0.463   5.207
 5868SOL    HW218504   0.281   0.556   5.086
 5869SOL     OW18505   2.957   5.929   3.446
 5869SOL    HW118506   2.918   5.996   3.509
 5869SOL    HW218507   3.027   5.876   3.492
 5870SOL     OW18508   5.170   6.008   4.931
 5870SOL    HW118509   5.202   6.082   4.990
 5870SOL    HW218510   5.160   6.041   4.837
 5871SOL     OW18511   4.333   2.899   0.366
 5871SOL    HW118512   4.395   2.844   0.310
 5871SOL    HW218513   4.262   2.841   0.405
 5872SOL     OW18514   4.192   4.947   0.571
 5872SOL    HW118515   4.200   5.046   0.561
 5872SOL    HW218516   4.143   4.925   0.655
 5873SOL     OW18517   2.332   2.552   1.208
 5873SOL    HW118518   2.286   2.554   1.297
 5873SOL    HW218519   2.399   2.477   1.207
 5874SOL     OW18520   3.089   3.539   0.436
 5874SOL    HW118521   3.068   3.613   0.371
 5874SOL    HW218522   3.108   3.578   0.526
 5875SOL     OW18523   4.112   1.422   0.674
 5875SOL    HW118524   4.030   1.392   0.722
 5875SOL    HW218525   4.132   1.358   0.600
 5876SOL     OW18526   2.694   3.243   0.060
 5876SOL    HW118527   2.725   3.182   7.014
 5876SOL    HW218528   2.674   3.333   0.021
 5877SOL     OW18529   0.595   6.986   1.101
 5877SOL    HW118530   0.513   7.002   1.046
 5877SOL    HW218531   0.576   6.915   1.169
 5878SOL     OW18532   5.120   5.286   3.377
 5878SOL    HW118533   5.081   5.364   3.329
 5878SOL    HW218534   5.050   5.245   3.436
 5879SOL     OW18535   2.119   3.480   6.188
 5879SOL    HW118536   2.162   3.400   6.145
 5879SOL    HW218537   2.141   3.562   6.136
 5880SOL     OW18538   4.740   4.284   6.583
 5880SOL    HW118539   4.658   4.298   6.527
 5880SOL    HW218540   4.817   4.262   6.523
 5881SOL     OW18541   1.122   0.052   1.676
 5881SOL    HW118542   1.078   0.129   1.629
 5881SOL    HW218543   1.071   0.032   1.760
 5882SOL     OW18544   1.202   6.960   6.186
 5882SOL    HW118545   1.171   6.865   6.193
 5882SOL    HW218546   1.252   6.986   6.268
 5883SOL     OW18547   0.646   1.429   0.530
 5883SOL    HW118548   0.657   1.465   0.622
 5883SOL    HW218549   0.618   1.333   0.534
 5884SOL     OW18550   5.413   0.725   4.869
 5884SOL    HW118551   5.388   0.643   4.817
 5884SOL    HW218552   5.398   0.806   4.812
 5885SOL     OW18553   0.514   5.475   1.890
 5885SOL    HW118554   0.608   5.446   1.908
 5885SOL    HW218555   0.454   5.395   1.891
 5886SOL     OW18556   1.242   2.687   3.780
 5886SOL    HW118557   1.291   2.685   3.693
 5886SOL    HW218558   1.260   2.603   3.831
 5887SOL     OW18559   2.750   2.128   1.862
 5887SOL    HW118560   2.744   2.157   1.766
 5887SOL    HW218561   2.799   2.197   1.915
 5888SOL     OW18562   1.958   6.560   1.308
 5888SOL    HW118563   1.877   6.502   1.296
 5888SOL    HW218564   2.020   6.547   1.230
 5889SOL     OW18565   6.776   1.377   0.206
 5889SOL    HW118566   6.710   1.399   0.277
 5889SOL    HW218567   6.842   1.310   0.241
 5890SOL     OW18568   1.743   6.833   2.627
 5890SOL    HW118569   1.721   6.922   2.587
 5890SOL    HW218570   1.833   6.838   2.671
 5891SOL     OW18571   2.154   4.484   0.570
 5891SOL    HW118572   2.132   4.412   0.505
 5891SOL    HW218573   2.230   4.455   0.628
 5892SOL     OW18574   6.756   5.224   2.166
 5892SOL    HW118575   6.810   5.144   2.141
 5892SOL    HW218576   6.716   5.264   2.083
 5893SOL     OW18577   2.337   4.916   1.658
 5893SOL    HW118578   2.306   4.840   1.601
 5893SOL    HW218579   2.347   4.886   1.752
 5894SOL     OW18580   0.657   5.824   5.505
 5894SOL    HW118581   0.755   5.830   5.486
 5894SOL    HW218582   0.642   5.796   5.600
 5895SOL     OW18583   5.793   3.997   3.450
 5895SOL    HW118584   5.754   4.084   3.476
 5895SOL    HW218585   5.892   4.008   3.435
 5896SOL     OW18586   5.363   1.688   0.905
 5896SOL    HW118587   5.273   1.689   0.948
 5896SOL    HW218588   5.425   1.747   0.956
 5897SOL     OW18589   3.747   1.187   1.921
 5897SOL    HW118590   3.717   1.248   1.847
 5897SOL    HW218591   3.832   1.142   1.894
 5898SOL     OW18592   2.227   1.501   5.603
 5898SOL    HW118593   2.279   1.437   5.660
 5898SOL    HW218594   2.137   1.518   5.643
 5899SOL     OW18595   6.527   5.988   6.790
 5899SOL    HW118596   6.448   6.020   6.739
 5899SOL    HW218597   6.514   5.892   6.815
 5900SOL     OW18598   6.874   5.198   2.909
 5900SOL    HW118599   6.902   5.276   2.853
 5900SOL    HW218600   6.920   5.115   2.877
 5901SOL     OW18601   2.603   1.571   0.286
 5901SOL    HW118602   2.672   1.535   0.223
 5901SOL    HW218603   2.563   1.654   0.248
 5902SOL     OW18604   5.373   3.799   5.338
 5902SOL    HW118605   5.289   3.744   5.335
 5902SOL    HW218606   5.358   3.879   5.395
 5903SOL     OW18607   4.924   3.302   6.615
 5903SOL    HW118608   4.840   3.253   6.590
 5903SOL    HW218609   5.001   3.239   6.610
 5904SOL     OW18610   0.947   4.374   0.922
 5904SOL    HW118611   1.045   4.357   0.924
 5904SOL    HW218612   0.907   4.327   0.843
 5905SOL     OW18613   5.844   0.865   4.311
 5905SOL    HW118614   5.837   0.954   4.265
 5905SOL    HW218615   5.878   0.797   4.247
 5906SOL     OW18616   4.883   2.038   5.416
 5906SOL    HW118617   4.941   2.000   5.344
 5906SOL    HW218618   4.935   2.046   5.500
 5907SOL     OW18619   1.730   0.128   0.236
 5907SOL    HW118620   1.730   0.074   0.152
 5907SOL    HW218621   1.644   0.113   0.285
 5908SOL     OW18622   6.155   4.088   0.006
 5908SOL    HW118623   6.215   4.145   6.975
 5908SOL    HW218624   6.141   3.999   6.987
 5909SOL     OW18625   0.025   5.614   6.549
 5909SOL    HW118626   0.031   5.579   6.456
 5909SOL    HW218627   6.993   5.554   6.604
 5910SOL     OW18628   0.573   5.252   0.354
 5910SOL    HW118629   0.536   5.216   0.440
 5910SOL    HW218630   0.672   5.238   0.352
 5911SOL     OW18631   0.155   5.532   6.197
 5911SOL    HW118632   0.211   5.491   6.270
 5911SOL    HW218633   0.207   5.534   6.112
 5912SOL     OW18634   6.028   3.187   6.696
 5912SOL    HW118635   5.947   3.144   6.654
 5912SOL    HW218636   6.042   3.277   6.655
 5913SOL     OW18637   2.639   2.991   6.040
 5913SOL    HW118638   2.615   3.043   5.958
 5913SOL    HW218639   2.578   2.912   6.049
 5914SOL     OW18640   2.487   5.790   6.808
 5914SOL    HW118641   2.427   5.852   6.758
 5914SOL    HW218642   2.561   5.760   6.749
 5915SOL     OW18643   6.195   3.939   1.649
 5915SOL    HW118644   6.119   3.934   1.583
 5915SOL    HW218645   6.281   3.947   1.599
 5916SOL     OW18646   4.271   6.815   5.909
 5916SOL    HW118647   4.321   6.895   5.875
 5916SOL    HW218648   4.186   6.845   5.953
 5917SOL     OW18649   4.131   3.364   3.992
 5917SOL    HW118650   4.199   3.383   4.062
 5917SOL    HW218651   4.102   3.269   3.998
 5918SOL     OW18652   2.258   3.753   5.280
 5918SOL    HW118653   2.215   3.679   5.229
 5918SOL    HW218654   2.318   3.806   5.220
 5919SOL     OW18655   2.915   2.406   0.124
 5919SOL    HW118656   2.836   2.408   0.062
 5919SOL    HW218657   2.908   2.328   0.185
 5920SOL     OW18658   3.455   6.990   0.351
 5920SOL    HW118659   3.548   7.009   0.319
 5920SOL    HW218660   3.400   6.954   0.275
 5921SOL     OW18661   3.607   5.257   5.393
 5921SOL    HW118662   3.586   5.345   5.351
 5921SOL    HW218663   3.604   5.266   5.493
 5922SOL     OW18664   5.954   5.214   4.169
 5922SOL    HW118665   5.891   5.192   4.244
 5922SOL    HW218666   6.033   5.264   4.205
 5923SOL     OW18667   5.738   1.004   2.121
 5923SOL    HW118668   5.704   0.921   2.166
 5923SOL    HW218669   5.741   0.989   2.022
 5924SOL     OW18670   6.424   2.129   5.248
 5924SOL    HW118671   6.399   2.094   5.339
 5924SOL    HW218672   6.344   2.174   5.207
 5925SOL     OW18673   4.265   5.983   3.001
 5925SOL    HW118674   4.280   6.062   2.942
 5925SOL    HW218675   4.170   5.982   3.032
 5926SOL     OW18676   4.013   5.291   1.820
 5926SOL    HW118677   4.056   5.207   1.852
 5926SOL    HW218678   3.924   5.302   1.865
 5927SOL     OW18679   1.766   4.434   2.831
 5927SOL    HW118680   1.849   4.397   2.874
 5927SOL    HW218681   1.766   4.533   2.838
 5928SOL     OW18682   3.400   0.266   1.868
 5928SOL    HW118683   3.355   0.349   1.901
 5928SOL    HW218684   3.425   0.208   1.945
 5929SOL     OW18685   1.004   0.147   5.759
 5929SOL    HW118686   1.000   0.052   5.789
 5929SOL    HW218687   0.999   0.151   5.660
 5930SOL     OW18688   6.894   1.184   3.527
 5930SOL    HW118689   6.923   1.190   3.622
 5930SOL    HW218690   6.811   1.127   3.522
 5931SOL     OW18691   5.877   5.218   2.783
 5931SOL    HW118692   5.954   5.179   2.731
 5931SOL    HW218693   5.808   5.148   2.798
 5932SOL     OW18694   2.592   6.304   0.773
 5932SOL    HW118695   2.512   6.259   0.813
 5932SOL    HW218696   2.563   6.383   0.719
 5933SOL     OW18697   0.280   4.968   3.007
 5933SOL    HW118698   0.276   4.917   3.093
 5933SOL    HW218699   0.277   5.066   3.026
 5934SOL     OW18700   3.876   4.044   4.128
 5934SOL    HW118701   3.870   4.047   4.028
 5934SOL    HW218702   3.936   3.969   4.155
 5935SOL     OW18703   4.159   3.526   4.640
 5935SOL    HW118704   4.062   3.517   4.620
 5935SOL    HW218705   4.171   3.548   4.737
 5936SOL     OW18706   3.988   3.211   6.668
 5936SOL    HW118707   3.931   3.176   6.743
 5936SOL    HW218708   4.035   3.294   6.698
 5937SOL     OW18709   1.039   4.395   2.065
 5937SOL    HW118710   0.975   4.317   2.068
 5937SOL    HW218711   1.047   4.435   2.156
 5938SOL     OW18712   1.398   5.682   4.407
 5938SOL    HW118713   1.300   5.668   4.417
 5938SOL    HW218714   1.416   5.778   4.383
 5939SOL     OW18715   3.240   0.379   3.379
 5939SOL    HW118716   3.169   0.362   3.448
 5939SOL    HW218717   3.238   0.476   3.353
 5940SOL     OW18718   4.387   6.219   2.506
 5940SOL    HW118719   4.463   6.234   2.568
 5940SOL    HW218720   4.326   6.298   2.506
 5941SOL     OW18721   6.374   3.758   2.173
 5941SOL    HW118722   6.308   3.773   2.247
 5941SOL    HW218723   6.452   3.707   2.207
 5942SOL     OW18724   4.777   2.506   0.258
 5942SOL    HW118725   4.731   2.426   0.297
 5942SOL    HW218726   4.778   2.497   0.158
 5943SOL     OW18727   4.010   4.884   0.768
 5943SOL    HW118728   4.071   4.841   0.834
 5943SOL    HW218729   3.916   4.853   0.785
 5944SOL     OW18730   5.258   1.702   1.648
 5944SOL    HW118731   5.159   1.705   1.643
 5944SOL    HW218732   5.289   1.608   1.662
 5945SOL     OW18733   6.909   5.454   5.394
 5945SOL    HW118734   6.986   5.461   5.458
 5945SOL    HW218735   6.834   5.406   5.439
 5946SOL     OW18736   3.384   3.240   5.768
 5946SOL    HW118737   3.433   3.214   5.685
 5946SOL    HW218738   3.421   3.189   5.846
 5947SOL     OW18739   3.811   3.074   1.761
 5947SOL    HW118740   3.882   3.138   1.730
 5947SOL    HW218741   3.783   3.098   1.854
 5948SOL     OW18742   4.045   5.194   3.724
 5948SOL    HW118743   4.064   5.115   3.782
 5948SOL    HW218744   4.049   5.167   3.628
 5949SOL     OW18745   3.952   3.770   1.235
 5949SOL    HW118746   4.012   3.808   1.304
 5949SOL    HW218747   3.933   3.674   1.256
 5950SOL     OW18748   5.164   3.049   5.130
 5950SOL    HW118749   5.148   3.136   5.084
 5950SOL    HW218750   5.225   3.062   5.208
 5951SOL     OW18751   0.712   5.870   4.783
 5951SOL    HW118752   0.707   5.809   4.862
 5951SOL    HW218753   0.791   5.931   4.794
 5952SOL     OW18754   5.524   5.376   3.875
 5952SOL    HW118755   5.588   5.319   3.823
 5952SOL    HW218756   5.436   5.379   3.828
 5953SOL     OW18757   0.020   2.908   5.409
 5953SOL    HW118758   0.001   2.993   5.359
 5953SOL    HW218759   0.105   2.918   5.460
 5954SOL     OW18760   0.056   4.935   5.817
 5954SOL    HW118761   0.064   5.024   5.860
 5954SOL    HW218762   0.058   4.864   5.888
 5955SOL     OW18763   5.516   6.111   2.516
 5955SOL    HW118764   5.535   6.096   2.419
 5955SOL    HW218765   5.548   6.032   2.568
 5956SOL     OW18766   3.512   2.068   0.543
 5956SOL    HW118767   3.572   2.015   0.603
 5956SOL    HW218768   3.531   2.046   0.448
 5957SOL     OW18769   4.988   0.487   5.175
 5957SOL    HW118770   5.025   0.430   5.101
 5957SOL    HW218771   5.046   0.477   5.256
 5958SOL     OW18772   6.045   6.479   2.951
 5958SOL    HW118773   6.042   6.426   2.866
 5958SOL    HW218774   6.075   6.572   2.932
 5959SOL     OW18775   3.851   1.385   5.572
 5959SOL    HW118776   3.767   1.430   5.543
 5959SOL    HW218777   3.930   1.433   5.533
 5960SOL     OW18778   3.578   6.311   4.815
 5960SOL    HW118779   3.580   6.351   4.907
 5960SOL    HW218780   3.671   6.287   4.787
 5961SOL     OW18781   4.866   0.634   4.163
 5961SOL    HW118782   4.932   0.598   4.098
 5961SOL    HW218783   4.782   0.580   4.159
 5962SOL     OW18784   4.856   5.974   2.036
 5962SOL    HW118785   4.895   5.923   1.960
 5962SOL    HW218786   4.781   5.922   2.076
 5963SOL     OW18787   3.325   2.879   4.866
 5963SOL    HW118788   3.254   2.810   4.875
 5963SOL    HW218789   3.337   2.902   4.770
 5964SOL     OW18790   0.653   4.855   5.951
 5964SOL    HW118791   0.614   4.901   5.870
 5964SOL    HW218792   0.599   4.774   5.973
 5965SOL     OW18793   1.963   1.892   5.665
 5965SOL    HW118794   2.041   1.931   5.714
 5965SOL    HW218795   1.882   1.895   5.723
 5966SOL     OW18796   3.348   5.559   5.471
 5966SOL    HW118797   3.400   5.595   5.548
 5966SOL    HW218798   3.359   5.619   5.392
 5967SOL     OW18799   4.165   6.313   1.694
 5967SOL    HW118800   4.122   6.379   1.633
 5967SOL    HW218801   4.094   6.268   1.749
 5968SOL     OW18802   5.404   1.400   2.934
 5968SOL    HW118803   5.352   1.315   2.948
 5968SOL    HW218804   5.491   1.378   2.890
 5969SOL     OW18805   7.017   1.335   5.345
 5969SOL    HW118806   6.955   1.384   5.284
 5969SOL    HW218807   6.966   1.260   5.390
 5970SOL     OW18808   0.752   4.933   2.386
 5970SOL    HW118809   0.662   4.935   2.343
 5970SOL    HW218810   0.742   4.920   2.484
 5971SOL     OW18811   2.269   0.694   3.159
 5971SOL    HW118812   2.300   0.771   3.215
 5971SOL    HW218813   2.315   0.696   3.071
 5972SOL     OW18814   4.324   6.223   0.471
 5972SOL    HW118815   4.355   6.317   0.488
 5972SOL    HW218816   4.252   6.225   0.402
 5973SOL     OW18817   1.875   5.173   2.893
 5973SOL    HW118818   1.925   5.187   2.979
 5973SOL    HW218819   1.832   5.258   2.865
 5974SOL     OW18820   5.846   4.315   6.488
 5974SOL    HW118821   5.782   4.291   6.415
 5974SOL    HW218822   5.797   4.361   6.562
 5975SOL     OW18823   3.392   2.304   0.485
 5975SOL    HW118824   3.453   2.235   0.524
 5975SOL    HW218825   3.299   2.269   0.482
 5976SOL     OW18826   2.888   3.383   4.716
 5976SOL    HW118827   2.933   3.294   4.719
 5976SOL    HW218828   2.789   3.371   4.725
 5977SOL     OW18829   1.706   4.907   1.455
 5977SOL    HW118830   1.735   4.983   1.398
 5977SOL    HW218831   1.608   4.893   1.446
 5978SOL     OW18832   5.179   4.907   3.191
 5978SOL    HW118833   5.176   4.957   3.278
 5978SOL    HW218834   5.225   4.819   3.205
 5979SOL     OW18835   6.403   0.667   3.185
 5979SOL    HW118836   6.453   0.631   3.263
 5979SOL    HW218837   6.313   0.624   3.180
 5980SOL     OW18838   4.035   3.476   6.710
 5980SOL    HW118839   3.987   3.508   6.628
 5980SOL    HW218840   4.067   3.555   6.763
 5981SOL     OW18841   6.236   0.958   2.392
 5981SOL    HW118842   6.237   0.873   2.445
 5981SOL    HW218843   6.241   0.936   2.295
 5982SOL     OW18844   6.533   2.660   0.244
 5982SOL    HW118845   6.596   2.671   0.167
 5982SOL    HW218846   6.584   2.672   0.329
 5983SOL     OW18847   2.133   1.283   4.707
 5983SOL    HW118848   2.115   1.372   4.664
 5983SOL    HW218849   2.046   1.241   4.733
 5984SOL     OW18850   6.620   6.918   5.172
 5984SOL    HW118851   6.601   7.014   5.193
 5984SOL    HW218852   6.538   6.864   5.191
 5985SOL     OW18853   5.634   3.289   3.983
 5985SOL    HW118854   5.556   3.228   3.996
 5985SOL    HW218855   5.702   3.271   4.054
 5986SOL     OW18856   2.886   3.583   3.423
 5986SOL    HW118857   2.896   3.507   3.358
 5986SOL    HW218858   2.866   3.547   3.514
 5987SOL     OW18859   4.200   1.432   4.770
 5987SOL    HW118860   4.129   1.502   4.761
 5987SOL    HW218861   4.158   1.344   4.794
 5988SOL     OW18862   4.162   6.142   5.102
 5988SOL    HW118863   4.142   6.138   5.004
 5988SOL    HW218864   4.216   6.223   5.122
 5989SOL     OW18865   2.702   5.788   6.628
 5989SOL    HW118866   2.693   5.778   6.529
 5989SOL    HW218867   2.735   5.881   6.648
 5990SOL     OW18868   4.184   4.367   0.894
 5990SOL    HW118869   4.115   4.406   0.834
 5990SOL    HW218870   4.220   4.283   0.854
 5991SOL     OW18871   4.732   4.921   5.297
 5991SOL    HW118872   4.701   4.921   5.392
 5991SOL    HW218873   4.664   4.877   5.240
 5992SOL     OW18874   3.758   0.888   4.291
 5992SOL    HW118875   3.716   0.941   4.365
 5992SOL    HW218876   3.794   0.802   4.328
 5993SOL     OW18877   3.464   6.807   6.176
 5993SOL    HW118878   3.368   6.805   6.148
 5993SOL    HW218879   3.518   6.750   6.115
 5994SOL     OW18880   6.389   1.874   2.421
 5994SOL    HW118881   6.358   1.843   2.510
 5994SOL    HW218882   6.481   1.912   2.428
 5995SOL     OW18883   6.324   4.354   2.357
 5995SOL    HW118884   6.333   4.292   2.280
 5995SOL    HW218885   6.378   4.320   2.434
 5996SOL     OW18886   0.763   5.849   0.729
 5996SOL    HW118887   0.835   5.781   0.712
 5996SOL    HW218888   0.797   5.939   0.703
 5997SOL     OW18889   0.490   6.685   2.392
 5997SOL    HW118890   0.557   6.695   2.466
 5997SOL    HW218891   0.399   6.676   2.431
 5998SOL     OW18892   5.700   2.789   1.637
 5998SOL    HW118893   5.798   2.781   1.653
 5998SOL    HW218894   5.679   2.882   1.607
 5999SOL     OW18895   1.139   2.164   2.306
 5999SOL    HW118896   1.049   2.207   2.312
 5999SOL    HW218897   1.130   2.074   2.264
 6000SOL     OW18898   3.863   6.345   1.725
 6000SOL    HW118899   3.804   6.407   1.776
 6000SOL    HW218900   3.884   6.385   1.636
 6001SOL     OW18901   0.551   4.003   6.399
 6001SOL    HW118902   0.472   3.942   6.406
 6001SOL    HW218903   0.588   3.998   6.306
 6002SOL     OW18904   0.394   6.982   1.331
 6002SOL    HW118905   0.299   6.985   1.361
 6002SOL    HW218906   0.433   6.893   1.353
 6003SOL     OW18907   6.427   1.988   4.578
 6003SOL    HW118908   6.460   1.893   4.584
 6003SOL    HW218909   6.477   2.035   4.505
 6004SOL     OW18910   0.231   4.690   2.948
 6004SOL    HW118911   0.239   4.789   2.957
 6004SOL    HW218912   0.266   4.662   2.858
 6005SOL     OW18913   4.279   5.014   4.900
 6005SOL    HW118914   4.250   4.922   4.925
 6005SOL    HW218915   4.360   5.040   4.953
 6006SOL     OW18916   3.383   6.645   0.098
 6006SOL    HW118917   3.353   6.560   0.055
 6006SOL    HW218918   3.449   6.691   0.038
 6007SOL     OW18919   4.900   3.477   4.249
 6007SOL    HW118920   4.988   3.429   4.245
 6007SOL    HW218921   4.897   3.536   4.330
 6008SOL     OW18922   2.387   5.348   6.443
 6008SOL    HW118923   2.320   5.295   6.390
 6008SOL    HW218924   2.347   5.436   6.469
 6009SOL     OW18925   2.855   1.270   4.494
 6009SOL    HW118926   2.786   1.342   4.480
 6009SOL    HW218927   2.907   1.258   4.410
 6010SOL     OW18928   1.952   4.103   2.082
 6010SOL    HW118929   1.969   4.008   2.057
 6010SOL    HW218930   2.005   4.164   2.022
 6011SOL     OW18931   4.583   2.453   2.525
 6011SOL    HW118932   4.673   2.411   2.514
 6011SOL    HW218933   4.542   2.468   2.435
 6012SOL     OW18934   6.581   2.104   0.537
 6012SOL    HW118935   6.524   2.075   0.461
 6012SOL    HW218936   6.629   2.188   0.513
 6013SOL     OW18937   4.878   2.272   2.923
 6013SOL    HW118938   4.815   2.194   2.923
 6013SOL    HW218939   4.881   2.313   3.014
 6014SOL     OW18940   4.420   1.422   0.443
 6014SOL    HW118941   4.470   1.447   0.359
 6014SOL    HW218942   4.486   1.401   0.515
 6015SOL     OW18943   5.944   2.112   5.640
 6015SOL    HW118944   5.948   2.134   5.738
 6015SOL    HW218945   5.875   2.170   5.597
 6016SOL     OW18946   0.101   1.462   0.083
 6016SOL    HW118947   0.057   1.533   0.027
 6016SOL    HW218948   0.197   1.485   0.095
 6017SOL     OW18949   6.519   4.924   2.755
 6017SOL    HW118950   6.427   4.910   2.718
 6017SOL    HW218951   6.583   4.939   2.680
 6018SOL     OW18952   3.618   2.006   0.301
 6018SOL    HW118953   3.715   2.011   0.275
 6018SOL    HW218954   3.581   1.917   0.272
 6019SOL     OW18955   4.992   1.525   4.065
 6019SOL    HW118956   4.983   1.598   3.997
 6019SOL    HW218957   5.056   1.554   4.136
 6020SOL     OW18958   1.559   6.227   2.387
 6020SOL    HW118959   1.555   6.198   2.291
 6020SOL    HW218960   1.559   6.147   2.446
 6021SOL     OW18961   3.929   0.150   2.477
 6021SOL    HW118962   3.979   0.158   2.391
 6021SOL    HW218963   3.906   0.241   2.511
 6022SOL     OW18964   4.406   0.904   4.685
 6022SOL    HW118965   4.391   0.991   4.732
 6022SOL    HW218966   4.336   0.839   4.714
 6023SOL     OW18967   6.148   1.435   2.737
 6023SOL    HW118968   6.230   1.438   2.681
 6023SOL    HW218969   6.164   1.380   2.819
 6024SOL     OW18970   0.772   4.171   2.970
 6024SOL    HW118971   0.676   4.159   2.944
 6024SOL    HW218972   0.828   4.103   2.922
 6025SOL     OW18973   3.582   0.532   2.359
 6025SOL    HW118974   3.578   0.537   2.259
 6025SOL    HW218975   3.536   0.449   2.390
 6026SOL     OW18976   0.089   3.974   4.294
 6026SOL    HW118977   0.047   3.981   4.204
 6026SOL    HW218978   0.069   3.885   4.334
 6027SOL     OW18979   2.183   3.968   5.669
 6027SOL    HW118980   2.211   4.027   5.745
 6027SOL    HW218981   2.256   3.966   5.600
 6028SOL     OW18982   1.112   3.895   0.259
 6028SOL    HW118983   1.066   3.849   0.335
 6028SOL    HW218984   1.152   3.826   0.198
 6029SOL     OW18985   2.520   6.216   6.212
 6029SOL    HW118986   2.517   6.221   6.312
 6029SOL    HW218987   2.595   6.156   6.184
 6030SOL     OW18988   3.079   0.099   2.451
 6030SOL    HW118989   3.102   0.178   2.507
 6030SOL    HW218990   2.990   0.112   2.409
 6031SOL     OW18991   4.228   4.869   4.279
 6031SOL    HW118992   4.147   4.854   4.223
 6031SOL    HW218993   4.303   4.812   4.245
 6032SOL     OW18994   1.995   3.414   2.906
 6032SOL    HW118995   1.906   3.436   2.945
 6032SOL    HW218996   2.061   3.397   2.979
 6033SOL     OW18997   2.658   2.359   2.407
 6033SOL    HW118998   2.748   2.341   2.368
 6033SOL    HW218999   2.605   2.418   2.345
 6034SOL     OW19000   1.696   5.984   5.083
 6034SOL    HW119001   1.610   6.036   5.089
 6034SOL    HW219002   1.771   6.040   5.120
 6035SOL     OW19003   5.899   1.518   3.775
 6035SOL    HW119004   5.990   1.548   3.805
 6035SOL    HW219005   5.830   1.584   3.808
 6036SOL     OW19006   0.224   6.255   4.393
 6036SOL    HW119007   0.209   6.254   4.294
 6036SOL    HW219008   0.158   6.316   4.437
 6037SOL     OW19009   4.778   5.019   6.515
 6037SOL    HW119010   4.770   4.978   6.424
 6037SOL    HW219011   4.741   5.112   6.514
 6038SOL     OW19012   1.197   3.850   6.379
 6038SOL    HW119013   1.162   3.816   6.466
 6038SOL    HW219014   1.176   3.785   6.306
 6039SOL     OW19015   3.183   3.183   3.184
 6039SOL    HW119016   3.115   3.216   3.118
 6039SOL    HW219017   3.140   3.177   3.274
 6040SOL     OW19018   0.386   2.123   6.629
 6040SOL    HW119019   0.385   2.065   6.710
 6040SOL    HW219020   0.323   2.086   6.561
 6041SOL     OW19021   1.939   1.545   5.399
 6041SOL    HW119022   1.863   1.572   5.340
 6041SOL    HW219023   1.905   1.532   5.493
 6042SOL     OW19024   5.537   5.333   1.716
 6042SOL    HW119025   5.489   5.365   1.635
 6042SOL    HW219026   5.482   5.263   1.761
 6043SOL     OW19027   1.108   4.728   5.229
 6043SOL    HW119028   1.170   4.654   5.255
 6043SOL    HW219029   1.033   4.691   5.175
 6044SOL     OW19030   1.222   2.280   1.241
 6044SOL    HW119031   1.143   2.341   1.240
 6044SOL    HW219032   1.245   2.257   1.336
 6045SOL     OW19033   5.748   5.848   1.118
 6045SOL    HW119034   5.660   5.844   1.166
 6045SOL    HW219035   5.780   5.943   1.114
 6046SOL     OW19036   2.908   2.182   0.820
 6046SOL    HW119037   2.817   2.223   0.810
 6046SOL    HW219038   2.929   2.171   0.917
 6047SOL     OW19039   6.746   1.087   2.601
 6047SOL    HW119040   6.649   1.071   2.621
 6047SOL    HW219041   6.770   1.039   2.516
 6048SOL     OW19042   4.847   6.163   3.464
 6048SOL    HW119043   4.853   6.147   3.365
 6048SOL    HW219044   4.758   6.204   3.485
 6049SOL     OW19045   5.205   3.843   5.958
 6049SOL    HW119046   5.251   3.861   6.045
 6049SOL    HW219047   5.115   3.802   5.975
 6050SOL     OW19048   3.655   4.132   5.704
 6050SOL    HW119049   3.624   4.051   5.655
 6050SOL    HW219050   3.710   4.189   5.643
 6051SOL     OW19051   3.016   1.968   3.795
 6051SOL    HW119052   2.996   2.058   3.757
 6051SOL    HW219053   3.115   1.952   3.793
 6052SOL     OW19054   6.393   6.867   6.710
 6052SOL    HW119055   6.477   6.898   6.755
 6052SOL    HW219056   6.348   6.945   6.666
 6053SOL     OW19057   3.771   0.820   0.053
 6053SOL    HW119058   3.747   0.806   0.149
 6053SOL    HW219059   3.698   0.784   7.021
 6054SOL     OW19060   2.586   4.229   0.663
 6054SOL    HW119061   2.615   4.219   0.567
 6054SOL    HW219062   2.656   4.191   0.723
 6055SOL     OW19063   5.627   0.770   6.256
 6055SOL    HW119064   5.702   0.787   6.193
 6055SOL    HW219065   5.663   0.756   6.348
 6056SOL     OW19066   5.158   3.268   4.929
 6056SOL    HW119067   5.083   3.281   4.865
 6056SOL    HW219068   5.243   3.302   4.887
 6057SOL     OW19069   5.482   2.981   4.457
 6057SOL    HW119070   5.447   2.940   4.541
 6057SOL    HW219071   5.451   3.076   4.450
 6058SOL     OW19072   5.286   2.699   2.615
 6058SOL    HW119073   5.273   2.726   2.520
 6058SOL    HW219074   5.334   2.611   2.619
 6059SOL     OW19075   4.628   5.864   5.566
 6059SOL    HW119076   4.671   5.952   5.547
 6059SOL    HW219077   4.654   5.833   5.658
 6060SOL     OW19078   3.004   4.092   6.005
 6060SOL    HW119079   3.082   4.142   6.041
 6060SOL    HW219080   2.988   4.119   5.910
 6061SOL     OW19081   4.341   2.227   6.899
 6061SOL    HW119082   4.409   2.266   6.836
 6061SOL    HW219083   4.323   2.291   6.973
 6062SOL     OW19084   2.241   0.676   4.427
 6062SOL    HW119085   2.284   0.592   4.392
 6062SOL    HW219086   2.220   0.736   4.350
 6063SOL     OW19087   4.047   1.262   6.802
 6063SOL    HW119088   3.971   1.232   6.744
 6063SOL    HW219089   4.083   1.184   6.853
 6064SOL     OW19090   2.733   6.227   2.284
 6064SOL    HW119091   2.827   6.253   2.308
 6064SOL    HW219092   2.736   6.160   2.210
 6065SOL     OW19093   5.568   0.368   2.399
 6065SOL    HW119094   5.513   0.381   2.316
 6065SOL    HW219095   5.664   0.387   2.379
 6066SOL     OW19096   4.591   1.471   0.208
 6066SOL    HW119097   4.642   1.498   0.126
 6066SOL    HW219098   4.628   1.386   0.244
 6067SOL     OW19099   5.301   1.892   0.015
 6067SOL    HW119100   5.305   1.803   0.060
 6067SOL    HW219101   5.304   1.880   6.942
 6068SOL     OW19102   6.161   2.632   4.732
 6068SOL    HW119103   6.142   2.579   4.650
 6068SOL    HW219104   6.143   2.729   4.714
 6069SOL     OW19105   0.488   3.879   5.440
 6069SOL    HW119106   0.425   3.828   5.498
 6069SOL    HW219107   0.441   3.957   5.399
 6070SOL     OW19108   2.238   1.719   5.827
 6070SOL    HW119109   2.334   1.719   5.799
 6070SOL    HW219110   2.215   1.630   5.868
 6071SOL     OW19111   4.681   6.077   5.076
 6071SOL    HW119112   4.637   5.998   5.119
 6071SOL    HW219113   4.610   6.139   5.041
 6072SOL     OW19114   0.756   0.998   1.943
 6072SOL    HW119115   0.739   0.973   1.847
 6072SOL    HW219116   0.765   1.097   1.950
 6073SOL     OW19117   6.656   3.812   0.554
 6073SOL    HW119118   6.621   3.772   0.469
 6073SOL    HW219119   6.611   3.769   0.632
 6074SOL     OW19120   0.828   6.632   4.364
 6074SOL    HW119121   0.811   6.628   4.266
 6074SOL    HW219122   0.879   6.716   4.386
 6075SOL     OW19123   0.162   2.339   6.244
 6075SOL    HW119124   0.254   2.359   6.278
 6075SOL    HW219125   0.131   2.252   6.280
 6076SOL     OW19126   2.560   6.072   5.291
 6076SOL    HW119127   2.623   6.026   5.353
 6076SOL    HW219128   2.604   6.152   5.252
 6077SOL     OW19129   5.101   5.377   1.754
 6077SOL    HW119130   5.172   5.316   1.790
 6077SOL    HW219131   5.018   5.323   1.737
 6078SOL     OW19132   3.983   5.018   1.915
 6078SOL    HW119133   4.039   4.971   1.983
 6078SOL    HW219134   3.967   4.958   1.838
 6079SOL     OW19135   3.137   3.816   6.267
 6079SOL    HW119136   3.147   3.732   6.213
 6079SOL    HW219137   3.054   3.865   6.238
 6080SOL     OW19138   0.492   1.304   2.025
 6080SOL    HW119139   0.405   1.258   2.006
 6080SOL    HW219140   0.517   1.288   2.121
 6081SOL     OW19141   6.066   3.953   4.692
 6081SOL    HW119142   6.130   4.018   4.652
 6081SOL    HW219143   6.087   3.861   4.657
 6082SOL     OW19144   3.954   1.755   3.670
 6082SOL    HW119145   3.921   1.849   3.680
 6082SOL    HW219146   3.887   1.702   3.617
 6083SOL     OW19147   0.762   5.873   6.281
 6083SOL    HW119148   0.688   5.939   6.295
 6083SOL    HW219149   0.849   5.922   6.270
 6084SOL     OW19150   0.065   5.578   3.945
 6084SOL    HW119151   0.057   5.544   3.852
 6084SOL    HW219152   7.007   5.626   3.971
 6085SOL     OW19153   0.020   4.324   0.605
 6085SOL    HW119154   6.997   4.309   0.691
 6085SOL    HW219155   7.017   4.256   0.538
 6086SOL     OW19156   3.357   1.403   5.460
 6086SOL    HW119157   3.273   1.454   5.443
 6086SOL    HW219158   3.358   1.371   5.555
 6087SOL     OW19159   5.188   6.546   6.736
 6087SOL    HW119160   5.245   6.626   6.754
 6087SOL    HW219161   5.096   6.562   6.772
 6088SOL     OW19162   6.389   5.975   4.729
 6088SOL    HW119163   6.480   5.977   4.771
 6088SOL    HW219164   6.394   6.010   4.636
 6089SOL     OW19165   0.542   3.880   1.471
 6089SOL    HW119166   0.553   3.801   1.411
 6089SOL    HW219167   0.525   3.961   1.416
 6090SOL     OW19168   1.586   6.230   6.130
 6090SOL    HW119169   1.678   6.258   6.104
 6090SOL    HW219170   1.533   6.209   6.048
 6091SOL     OW19171   1.056   1.528   2.440
 6091SOL    HW119172   1.011   1.452   2.394
 6091SOL    HW219173   1.147   1.542   2.399
 6092SOL     OW19174   2.845   0.142   2.929
 6092SOL    HW119175   2.855   0.214   2.998
 6092SOL    HW219176   2.924   0.081   2.933
 6093SOL     OW19177   1.465   2.346   2.585
 6093SOL    HW119178   1.530   2.313   2.654
 6093SOL    HW219179   1.390   2.395   2.631
 6094SOL     OW19180   3.346   1.072   1.250
 6094SOL    HW119181   3.388   1.149   1.297
 6094SOL    HW219182   3.391   1.059   1.162
 6095SOL     OW19183   4.779   2.293   6.953
 6095SOL    HW119184   4.848   2.359   6.924
 6095SOL    HW219185   4.688   2.328   6.932
 6096SOL     OW19186   5.822   0.050   4.473
 6096SOL    HW119187   5.758   0.041   4.549
 6096SOL    HW219188   5.772   0.059   4.387
 6097SOL     OW19189   1.388   0.485   2.188
 6097SOL    HW119190   1.478   0.443   2.198
 6097SOL    HW219191   1.317   0.416   2.199
 6098SOL     OW19192   1.181   2.389   5.800
 6098SOL    HW119193   1.129   2.439   5.730
 6098SOL    HW219194   1.125   2.315   5.836
 6099SOL     OW19195   6.211   5.846   6.883
 6099SOL    HW119196   6.153   5.779   6.930
 6099SOL    HW219197   6.171   5.869   6.795
 6100SOL     OW19198   5.700   2.783   6.769
 6100SOL    HW119199   5.628   2.822   6.712
 6100SOL    HW219200   5.662   2.717   6.833
 6101SOL     OW19201   6.486   1.647   5.529
 6101SOL    HW119202   6.491   1.690   5.438
 6101SOL    HW219203   6.391   1.625   5.550
 6102SOL     OW19204   4.192   0.681   4.001
 6102SOL    HW119205   4.182   0.775   3.968
 6102SOL    HW219206   4.112   0.627   3.975
 6103SOL     OW19207   0.299   1.036   3.533
 6103SOL    HW119208   0.256   1.090   3.461
 6103SOL    HW219209   0.347   1.096   3.596
 6104SOL     OW19210   6.545   2.404   6.096
 6104SOL    HW119211   6.567   2.393   5.999
 6104SOL    HW219212   6.455   2.364   6.115
 6105SOL     OW19213   3.075   0.003   5.844
 6105SOL    HW119214   2.978   7.020   5.822
 6105SOL    HW219215   3.100   0.100   5.844
 6106SOL     OW19216   1.476   4.723   5.576
 6106SOL    HW119217   1.546   4.793   5.577
 6106SOL    HW219218   1.388   4.764   5.553
 6107SOL     OW19219   2.535   5.312   4.479
 6107SOL    HW119220   2.521   5.267   4.391
 6107SOL    HW219221   2.489   5.260   4.551
 6108SOL     OW19222   0.848   2.415   3.195
 6108SOL    HW119223   0.872   2.318   3.201
 6108SOL    HW219224   0.926   2.471   3.221
 6109SOL     OW19225   5.470   2.861   6.586
 6109SOL    HW119226   5.429   2.810   6.511
 6109SOL    HW219227   5.398   2.892   6.648
 6110SOL     OW19228   3.539   2.971   6.892
 6110SOL    HW119229   3.510   3.059   6.855
 6110SOL    HW219230   3.605   2.929   6.830
 6111SOL     OW19231   2.087   4.840   2.653
 6111SOL    HW119232   2.084   4.742   2.632
 6111SOL    HW219233   2.106   4.892   2.570
 6112SOL     OW19234   3.377   1.468   3.193
 6112SOL    HW119235   3.426   1.497   3.275
 6112SOL    HW219236   3.331   1.381   3.211
 6113SOL     OW19237   0.062   0.852   5.885
 6113SOL    HW119238   0.124   0.911   5.936
 6113SOL    HW219239   0.099   0.835   5.793
 6114SOL     OW19240   5.204   4.131   1.082
 6114SOL    HW119241   5.118   4.100   1.041
 6114SOL    HW219242   5.281   4.088   1.036
 6115SOL     OW19243   5.314   6.274   2.574
 6115SOL    HW119244   5.363   6.357   2.603
 6115SOL    HW219245   5.378   6.198   2.569
 6116SOL     OW19246   2.761   1.590   1.366
 6116SOL    HW119247   2.697   1.603   1.291
 6116SOL    HW219248   2.808   1.502   1.355
 6117SOL     OW19249   0.076   0.306   5.453
 6117SOL    HW119250   0.037   0.268   5.370
 6117SOL    HW219251   0.112   0.232   5.510
 6118SOL     OW19252   6.891   1.309   1.737
 6118SOL    HW119253   6.967   1.334   1.797
 6118SOL    HW219254   6.812   1.366   1.757
 6119SOL     OW19255   0.239   3.695   4.219
 6119SOL    HW119256   0.285   3.783   4.233
 6119SOL    HW219257   0.249   3.638   4.301
 6120SOL     OW19258   3.579   6.882   3.128
 6120SOL    HW119259   3.610   6.886   3.223
 6120SOL    HW219260   3.628   6.809   3.080
 6121SOL     OW19261   6.943   2.566   4.241
 6121SOL    HW119262   6.867   2.630   4.253
 6121SOL    HW219263   6.909   2.472   4.247
 6122SOL     OW19264   3.219   6.569   1.903
 6122SOL    HW119265   3.156   6.645   1.886
 6122SOL    HW219266   3.191   6.490   1.850
 6123SOL     OW19267   6.571   0.477   0.296
 6123SOL    HW119268   6.657   0.500   0.340
 6123SOL    HW219269   6.576   0.385   0.258
 6124SOL     OW19270   3.669   0.401   5.311
 6124SOL    HW119271   3.661   0.424   5.408
 6124SOL    HW219272   3.587   0.435   5.263
 6125SOL     OW19273   2.490   5.823   0.799
 6125SOL    HW119274   2.431   5.853   0.725
 6125SOL    HW219275   2.580   5.798   0.762
 6126SOL     OW19276   5.921   6.261   4.250
 6126SOL    HW119277   6.000   6.316   4.221
 6126SOL    HW219278   5.854   6.321   4.294
 6127SOL     OW19279   2.123   0.079   1.856
 6127SOL    HW119280   2.200   0.051   1.912
 6127SOL    HW219281   2.146   0.164   1.808
 6128SOL     OW19282   6.827   3.579   0.500
 6128SOL    HW119283   6.736   3.539   0.510
 6128SOL    HW219284   6.827   3.671   0.540
 6129SOL     OW19285   6.113   4.362   3.464
 6129SOL    HW119286   6.179   4.436   3.450
 6129SOL    HW219287   6.074   4.335   3.376
 6130SOL     OW19288   6.241   2.173   4.077
 6130SOL    HW119289   6.244   2.085   4.124
 6130SOL    HW219290   6.288   2.164   3.989
 6131SOL     OW19291   0.089   1.553   5.538
 6131SOL    HW119292   0.128   1.613   5.468
 6131SOL    HW219293   0.025   1.489   5.495
 6132SOL     OW19294   4.672   0.678   0.620
 6132SOL    HW119295   4.772   0.679   0.621
 6132SOL    HW219296   4.640   0.583   0.623
 6133SOL     OW19297   0.736   2.872   2.402
 6133SOL    HW119298   0.780   2.789   2.437
 6133SOL    HW219299   0.685   2.915   2.476
 6134SOL     OW19300   3.777   3.660   6.903
 6134SOL    HW119301   3.824   3.573   6.918
 6134SOL    HW219302   3.789   3.688   6.808
 6135SOL     OW19303   6.514   6.674   2.495
 6135SOL    HW119304   6.448   6.648   2.425
 6135SOL    HW219305   6.594   6.717   2.452
 6136SOL     OW19306   0.540   2.019   2.430
 6136SOL    HW119307   0.597   2.095   2.463
 6136SOL    HW219308   0.535   2.023   2.330
 6137SOL     OW19309   4.399   1.082   5.204
 6137SOL    HW119310   4.411   1.049   5.298
 6137SOL    HW219311   4.396   1.182   5.204
 6138SOL     OW19312   3.819   6.652   2.605
 6138SOL    HW119313   3.767   6.573   2.638
 6138SOL    HW219314   3.804   6.663   2.507
 6139SOL     OW19315   2.148   3.236   4.680
 6139SOL    HW119316   2.138   3.289   4.596
 6139SOL    HW219317   2.096   3.280   4.753
 6140SOL     OW19318   0.465   5.940   1.635
 6140SOL    HW119319   0.456   5.884   1.718
 6140SOL    HW219320   0.410   6.023   1.644
 6141SOL     OW19321   6.002   6.179   5.092
 6141SOL    HW119322   5.910   6.214   5.072
 6141SOL    HW219323   5.997   6.080   5.105
 6142SOL     OW19324   0.018   5.140   0.645
 6142SOL    HW119325   6.997   5.209   0.700
 6142SOL    HW219326   0.053   5.183   0.562
 6143SOL     OW19327   6.333   5.200   6.779
 6143SOL    HW119328   6.299   5.293   6.794
 6143SOL    HW219329   6.423   5.204   6.736
 6144SOL     OW19330   6.964   4.778   2.160
 6144SOL    HW119331   6.996   4.709   2.095
 6144SOL    HW219332   6.868   4.760   2.182
 6145SOL     OW19333   4.773   5.987   3.835
 6145SOL    HW119334   4.870   5.962   3.838
 6145SOL    HW219335   4.765   6.087   3.828
 6146SOL     OW19336   4.430   1.215   3.421
 6146SOL    HW119337   4.426   1.186   3.325
 6146SOL    HW219338   4.357   1.171   3.473
 6147SOL     OW19339   1.881   3.917   3.557
 6147SOL    HW119340   1.959   3.913   3.619
 6147SOL    HW219341   1.829   3.832   3.563
 6148SOL     OW19342   0.039   0.417   5.078
 6148SOL    HW119343   7.003   0.475   5.025
 6148SOL    HW219344   0.099   0.366   5.016
 6149SOL     OW19345   3.656   4.921   2.892
 6149SOL    HW119346   3.631   4.939   2.797
 6149SOL    HW219347   3.574   4.906   2.946
 6150SOL     OW19348   4.195   4.840   6.933
 6150SOL    HW119349   4.109   4.792   6.953
 6150SOL    HW219350   4.252   4.840   7.015
 6151SOL     OW19351   6.351   4.197   4.311
 6151SOL    HW119352   6.297   4.194   4.395
 6151SOL    HW219353   6.333   4.114   4.257
 6152SOL     OW19354   5.582   4.493   5.124
 6152SOL    HW119355   5.583   4.558   5.200
 6152SOL    HW219356   5.544   4.406   5.156
 6153SOL     OW19357   4.615   3.815   1.556
 6153SOL    HW119358   4.670   3.763   1.491
 6153SOL    HW219359   4.518   3.798   1.539
 6154SOL     OW19360   5.175   1.513   2.136
 6154SOL    HW119361   5.142   1.432   2.089
 6154SOL    HW219362   5.124   1.593   2.105
 6155SOL     OW19363   1.408   2.269   3.980
 6155SOL    HW119364   1.375   2.250   4.073
 6155SOL    HW219365   1.343   2.327   3.933
 6156SOL     OW19366   4.696   5.232   2.440
 6156SOL    HW119367   4.675   5.247   2.344
 6156SOL    HW219368   4.769   5.164   2.448
 6157SOL     OW19369   1.392   1.533   4.213
 6157SOL    HW119370   1.400   1.544   4.312
 6157SOL    HW219371   1.391   1.435   4.191
 6158SOL     OW19372   4.412   0.643   6.507
 6158SOL    HW119373   4.328   0.696   6.522
 6158SOL    HW219374   4.490   0.705   6.504
 6159SOL     OW19375   4.535   1.819   0.520
 6159SOL    HW119376   4.516   1.916   0.501
 6159SOL    HW219377   4.479   1.762   0.461
 6160SOL     OW19378   5.774   5.917   0.616
 6160SOL    HW119379   5.744   5.841   0.558
 6160SOL    HW219380   5.842   5.885   0.682
 6161SOL     OW19381   5.883   1.873   6.018
 6161SOL    HW119382   5.805   1.881   5.956
 6161SOL    HW219383   5.892   1.778   6.048
 6162SOL     OW19384   0.778   5.324   4.529
 6162SOL    HW119385   0.869   5.285   4.528
 6162SOL    HW219386   0.781   5.416   4.568
 6163SOL     OW19387   5.482   5.771   1.626
 6163SOL    HW119388   5.426   5.689   1.615
 6163SOL    HW219389   5.526   5.770   1.716
 6164SOL     OW19390   1.899   3.409   1.620
 6164SOL    HW119391   1.802   3.382   1.626
 6164SOL    HW219392   1.954   3.347   1.675
 6165SOL     OW19393   3.222   6.984   6.616
 6165SOL    HW119394   3.174   0.006   6.690
 6165SOL    HW219395   3.321   6.986   6.633
 6166SOL     OW19396   3.921   0.964   5.080
 6166SOL    HW119397   4.000   0.989   5.137
 6166SOL    HW219398   3.942   0.984   4.984
 6167SOL     OW19399   0.032   4.415   2.135
 6167SOL    HW119400   6.982   4.352   2.150
 6167SOL    HW219401   0.045   4.470   2.218
 6168SOL     OW19402   0.282   3.819   1.188
 6168SOL    HW119403   0.261   3.723   1.171
 6168SOL    HW219404   0.374   3.840   1.157
 6169SOL     OW19405   0.781   3.319   2.625
 6169SOL    HW119406   0.792   3.298   2.527
 6169SOL    HW219407   0.733   3.406   2.635
 6170SOL     OW19408   0.701   3.488   5.081
 6170SOL    HW119409   0.779   3.539   5.046
 6170SOL    HW219410   0.722   3.390   5.080
 6171SOL     OW19411   0.575   1.593   0.349
 6171SOL    HW119412   0.661   1.640   0.328
 6171SOL    HW219413   0.591   1.525   0.421
 6172SOL     OW19414   1.356   2.691   2.398
 6172SOL    HW119415   1.355   2.599   2.359
 6172SOL    HW219416   1.444   2.735   2.379
 6173SOL     OW19417   6.480   5.355   3.612
 6173SOL    HW119418   6.511   5.292   3.541
 6173SOL    HW219419   6.431   5.304   3.683
 6174SOL     OW19420   4.395   5.153   3.772
 6174SOL    HW119421   4.342   5.233   3.743
 6174SOL    HW219422   4.481   5.150   3.721
 6175SOL     OW19423   3.557   0.905   4.507
 6175SOL    HW119424   3.554   0.994   4.552
 6175SOL    HW219425   3.478   0.851   4.536
 6176SOL     OW19426   4.430   3.724   5.299
 6176SOL    HW119427   4.518   3.707   5.256
 6176SOL    HW219428   4.361   3.742   5.228
 6177SOL     OW19429   4.836   2.154   1.649
 6177SOL    HW119430   4.902   2.098   1.601
 6177SOL    HW219431   4.745   2.141   1.609
 6178SOL     OW19432   4.881   3.752   1.937
 6178SOL    HW119433   4.956   3.713   1.990
 6178SOL    HW219434   4.833   3.679   1.888
 6179SOL     OW19435   6.590   4.796   1.692
 6179SOL    HW119436   6.557   4.767   1.601
 6179SOL    HW219437   6.672   4.852   1.682
 6180SOL     OW19438   3.653   4.754   0.581
 6180SOL    HW119439   3.656   4.848   0.616
 6180SOL    HW219440   3.745   4.723   0.558
 6181SOL     OW19441   4.647   6.324   5.954
 6181SOL    HW119442   4.701   6.379   5.890
 6181SOL    HW219443   4.692   6.323   6.043
 6182SOL     OW19444   4.472   2.346   6.339
 6182SOL    HW119445   4.421   2.431   6.355
 6182SOL    HW219446   4.570   2.365   6.341
 6183SOL     OW19447   1.792   2.355   1.801
 6183SOL    HW119448   1.733   2.339   1.723
 6183SOL    HW219449   1.888   2.357   1.771
 6184SOL     OW19450   3.215   0.294   5.847
 6184SOL    HW119451   3.295   0.260   5.897
 6184SOL    HW219452   3.140   0.311   5.911
 6185SOL     OW19453   2.259   4.183   5.822
 6185SOL    HW119454   2.203   4.249   5.772
 6185SOL    HW219455   2.210   4.154   5.904
 6186SOL     OW19456   6.656   1.136   1.637
 6186SOL    HW119457   6.731   1.189   1.678
 6186SOL    HW219458   6.601   1.197   1.579
 6187SOL     OW19459   4.657   2.889   5.113
 6187SOL    HW119460   4.605   2.810   5.082
 6187SOL    HW219461   4.706   2.929   5.035
 6188SOL     OW19462   1.800   1.858   5.414
 6188SOL    HW119463   1.888   1.904   5.412
 6188SOL    HW219464   1.728   1.924   5.433
 6189SOL     OW19465   3.906   5.427   2.598
 6189SOL    HW119466   3.975   5.443   2.528
 6189SOL    HW219467   3.921   5.338   2.641
 6190SOL     OW19468   6.195   2.837   5.553
 6190SOL    HW119469   6.109   2.787   5.559
 6190SOL    HW219470   6.269   2.780   5.589
 6191SOL     OW19471   2.558   3.050   5.578
 6191SOL    HW119472   2.462   3.064   5.555
 6191SOL    HW219473   2.613   3.059   5.495
 6192SOL     OW19474   2.508   1.991   6.246
 6192SOL    HW119475   2.594   1.948   6.216
 6192SOL    HW219476   2.529   2.068   6.306
 6193SOL     OW19477   4.921   6.044   0.755
 6193SOL    HW119478   4.906   6.066   0.659
 6193SOL    HW219479   5.019   6.043   0.774
 6194SOL     OW19480   6.625   0.458   6.334
 6194SOL    HW119481   6.655   0.542   6.379
 6194SOL    HW219482   6.541   0.425   6.379
 6195SOL     OW19483   5.794   6.571   4.907
 6195SOL    HW119484   5.757   6.590   4.816
 6195SOL    HW219485   5.870   6.506   4.899
 6196SOL     OW19486   4.609   4.727   2.929
 6196SOL    HW119487   4.572   4.745   2.838
 6196SOL    HW219488   4.552   4.659   2.975
 6197SOL     OW19489   2.532   5.199   2.637
 6197SOL    HW119490   2.527   5.101   2.618
 6197SOL    HW219491   2.475   5.249   2.572
 6198SOL     OW19492   5.177   6.286   6.931
 6198SOL    HW119493   5.150   6.297   7.026
 6198SOL    HW219494   5.252   6.347   6.910
 6199SOL     OW19495   0.279   0.946   0.199
 6199SOL    HW119496   0.284   0.936   0.299
 6199SOL    HW219497   0.336   1.024   0.171
 6200SOL     OW19498   0.752   1.400   3.142
 6200SOL    HW119499   0.712   1.316   3.104
 6200SOL    HW219500   0.758   1.392   3.241
 6201SOL     OW19501   0.473   3.845   4.057
 6201SOL    HW119502   0.472   3.884   3.965
 6201SOL    HW219503   0.462   3.746   4.052
 6202SOL     OW19504   5.768   1.517   2.892
 6202SOL    HW119505   5.835   1.550   2.825
 6202SOL    HW219506   5.742   1.592   2.952
 6203SOL     OW19507   6.169   5.488   2.306
 6203SOL    HW119508   6.169   5.477   2.206
 6203SOL    HW219509   6.234   5.424   2.347
 6204SOL     OW19510   0.872   6.233   5.117
 6204SOL    HW119511   0.888   6.319   5.165
 6204SOL    HW219512   0.910   6.157   5.170
 6205SOL     OW19513   5.217   4.568   1.690
 6205SOL    HW119514   5.122   4.565   1.658
 6205SOL    HW219515   5.277   4.581   1.611
 6206SOL     OW19516   5.424   1.871   3.481
 6206SOL    HW119517   5.446   1.780   3.516
 6206SOL    HW219518   5.498   1.934   3.502
 6207SOL     OW19519   1.816   5.866   4.851
 6207SOL    HW119520   1.792   5.770   4.865
 6207SOL    HW219521   1.785   5.920   4.929
 6208SOL     OW19522   3.149   2.365   5.724
 6208SOL    HW119523   3.086   2.436   5.757
 6208SOL    HW219524   3.206   2.403   5.651
 6209SOL     OW19525   3.347   4.923   1.127
 6209SOL    HW119526   3.264   4.967   1.092
 6209SOL    HW219527   3.397   4.881   1.051
 6210SOL     OW19528   5.262   3.875   2.641
 6210SOL    HW119529   5.227   3.867   2.735
 6210SOL    HW219530   5.354   3.914   2.643
 6211SOL     OW19531   4.420   5.918   6.123
 6211SOL    HW119532   4.376   6.002   6.091
 6211SOL    HW219533   4.506   5.904   6.074
 6212SOL     OW19534   2.605   4.915   4.271
 6212SOL    HW119535   2.530   4.976   4.246
 6212SOL    HW219536   2.582   4.866   4.355
 6213SOL     OW19537   4.845   6.421   0.481
 6213SOL    HW119538   4.899   6.453   0.403
 6213SOL    HW219539   4.901   6.423   0.564
 6214SOL     OW19540   5.460   5.735   6.104
 6214SOL    HW119541   5.450   5.829   6.072
 6214SOL    HW219542   5.557   5.714   6.116
 6215SOL     OW19543   4.375   3.223   6.367
 6215SOL    HW119544   4.304   3.180   6.310
 6215SOL    HW219545   4.386   3.170   6.451
 6216SOL     OW19546   5.927   2.610   3.472
 6216SOL    HW119547   5.985   2.688   3.497
 6216SOL    HW219548   5.838   2.644   3.440
 6217SOL     OW19549   1.216   4.643   2.311
 6217SOL    HW119550   1.212   4.716   2.379
 6217SOL    HW219551   1.185   4.678   2.223
 6218SOL     OW19552   4.002   6.434   0.352
 6218SOL    HW119553   4.007   6.512   0.416
 6218SOL    HW219554   3.906   6.416   0.330
 6219SOL     OW19555   1.957   0.653   5.578
 6219SOL    HW119556   1.936   0.740   5.534
 6219SOL    HW219557   1.980   0.584   5.509
 6220SOL     OW19558   3.363   1.205   6.976
 6220SOL    HW119559   3.411   1.124   6.942
 6220SOL    HW219560   3.306   1.243   6.903
 6221SOL     OW19561   5.999   6.644   6.755
 6221SOL    HW119562   5.944   6.711   6.706
 6221SOL    HW219563   5.940   6.571   6.789
 6222SOL     OW19564   5.822   0.479   2.373
 6222SOL    HW119565   5.816   0.579   2.379
 6222SOL    HW219566   5.888   0.445   2.441
 6223SOL     OW19567   0.851   5.115   3.740
 6223SOL    HW119568   0.862   5.139   3.644
 6223SOL    HW219569   0.888   5.024   3.757
 6224SOL     OW19570   4.344   1.240   5.841
 6224SOL    HW119571   4.384   1.159   5.798
 6224SOL    HW219572   4.260   1.266   5.792
 6225SOL     OW19573   4.135   1.669   6.181
 6225SOL    HW119574   4.201   1.739   6.208
 6225SOL    HW219575   4.161   1.632   6.091
 6226SOL     OW19576   1.472   1.655   3.972
 6226SOL    HW119577   1.466   1.632   4.069
 6226SOL    HW219578   1.384   1.690   3.940
 6227SOL     OW19579   3.067   4.581   5.336
 6227SOL    HW119580   2.985   4.548   5.290
 6227SOL    HW219581   3.119   4.504   5.372
 6228SOL     OW19582   0.968   2.444   4.139
 6228SOL    HW119583   0.996   2.351   4.164
 6228SOL    HW219584   0.919   2.486   4.216
 6229SOL     OW19585   0.193   2.826   5.170
 6229SOL    HW119586   0.234   2.740   5.201
 6229SOL    HW219587   0.214   2.899   5.235
 6230SOL     OW19588   1.145   2.015   3.257
 6230SOL    HW119589   1.052   1.987   3.234
 6230SOL    HW219590   1.169   1.980   3.348
 6231SOL     OW19591   5.287   5.015   0.421
 6231SOL    HW119592   5.384   5.016   0.396
 6231SOL    HW219593   5.236   5.074   0.358
 6232SOL     OW19594   6.237   1.004   0.655
 6232SOL    HW119595   6.318   1.002   0.714
 6232SOL    HW219596   6.255   0.954   0.571
 6233SOL     OW19597   0.240   3.401   1.966
 6233SOL    HW119598   0.221   3.468   1.895
 6233SOL    HW219599   0.279   3.319   1.925
 6234SOL     OW19600   0.456   0.262   5.097
 6234SOL    HW119601   0.412   0.348   5.121
 6234SOL    HW219602   0.464   0.255   4.998
 6235SOL     OW19603   0.087   0.614   1.855
 6235SOL    HW119604   0.072   0.528   1.806
 6235SOL    HW219605   0.184   0.638   1.852
 6236SOL     OW19606   6.715   4.446   0.689
 6236SOL    HW119607   6.664   4.361   0.693
 6236SOL    HW219608   6.801   4.436   0.739
 6237SOL     OW19609   3.756   6.934   0.591
 6237SOL    HW119610   3.759   6.906   0.687
 6237SOL    HW219611   3.668   6.975   0.571
 6238SOL     OW19612   3.703   6.856   3.397
 6238SOL    HW119613   3.784   6.798   3.390
 6238SOL    HW219614   3.629   6.805   3.441
 6239SOL     OW19615   3.558   6.922   1.718
 6239SOL    HW119616   3.489   6.982   1.677
 6239SOL    HW219617   3.521   6.829   1.725
 6240SOL     OW19618   3.173   4.012   4.721
 6240SOL    HW119619   3.251   4.069   4.696
 6240SOL    HW219620   3.091   4.044   4.674
 6241SOL     OW19621   3.876   0.391   3.597
 6241SOL    HW119622   3.827   0.334   3.663
 6241SOL    HW219623   3.881   0.344   3.509
 6242SOL     OW19624   2.184   1.747   3.468
 6242SOL    HW119625   2.174   1.835   3.513
 6242SOL    HW219626   2.255   1.694   3.514
 6243SOL     OW19627   6.646   0.755   5.596
 6243SOL    HW119628   6.667   0.672   5.543
 6243SOL    HW219629   6.556   0.789   5.571
 6244SOL     OW19630   5.267   4.160   2.646
 6244SOL    HW119631   5.357   4.118   2.639
 6244SOL    HW219632   5.200   4.092   2.674
 6245SOL     OW19633   0.903   5.010   2.023
 6245SOL    HW119634   0.888   4.926   1.972
 6245SOL    HW219635   0.815   5.050   2.049
 6246SOL     OW19636   1.222   6.809   4.086
 6246SOL    HW119637   1.169   6.753   4.023
 6246SOL    HW219638   1.185   6.901   4.088
 6247SOL     OW19639   1.470   5.583   3.231
 6247SOL    HW119640   1.558   5.580   3.185
 6247SOL    HW219641   1.465   5.511   3.300
 6248SOL     OW19642   3.667   3.410   6.837
 6248SOL    HW119643   3.627   3.423   6.927
 6248SOL    HW219644   3.692   3.314   6.825
 6249SOL     OW19645   0.262   2.765   1.683
 6249SOL    HW119646   0.259   2.794   1.587
 6249SOL    HW219647   0.238   2.842   1.742
 6250SOL     OW19648   0.082   6.755   0.705
 6250SOL    HW119649   0.001   6.734   0.651
 6250SOL    HW219650   0.132   6.831   0.662
 6251SOL     OW19651   3.868   5.922   4.469
 6251SOL    HW119652   3.836   5.839   4.425
 6251SOL    HW219653   3.828   5.930   4.561
 6252SOL     OW19654   2.713   5.042   0.277
 6252SOL    HW119655   2.623   5.085   0.268
 6252SOL    HW219656   2.784   5.106   0.248
 6253SOL     OW19657   2.619   5.093   4.827
 6253SOL    HW119658   2.702   5.044   4.851
 6253SOL    HW219659   2.632   5.143   4.742
 6254SOL     OW19660   1.213   6.112   1.154
 6254SOL    HW119661   1.232   6.018   1.183
 6254SOL    HW219662   1.278   6.174   1.198
 6255SOL     OW19663   1.747   2.596   1.010
 6255SOL    HW119664   1.697   2.681   0.992
 6255SOL    HW219665   1.694   2.538   1.072
 6256SOL     OW19666   4.742   5.481   2.575
 6256SOL    HW119667   4.681   5.507   2.649
 6256SOL    HW219668   4.709   5.396   2.533
 6257SOL     OW19669   4.053   3.304   0.406
 6257SOL    HW119670   3.987   3.301   0.330
 6257SOL    HW219671   4.112   3.383   0.395
 6258SOL     OW19672   3.781   6.836   5.271
 6258SOL    HW119673   3.729   6.891   5.205
 6258SOL    HW219674   3.721   6.766   5.310
 6259SOL     OW19675   1.597   1.718   5.547
 6259SOL    HW119676   1.675   1.755   5.497
 6259SOL    HW219677   1.610   1.734   5.645
 6260SOL     OW19678   1.609   0.659   0.547
 6260SOL    HW119679   1.626   0.633   0.642
 6260SOL    HW219680   1.641   0.587   0.485
 6261SOL     OW19681   5.086   0.205   1.416
 6261SOL    HW119682   5.069   0.239   1.508
 6261SOL    HW219683   5.138   0.274   1.365
 6262SOL     OW19684   0.110   6.336   3.151
 6262SOL    HW119685   0.117   6.240   3.124
 6262SOL    HW219686   0.180   6.389   3.103
 6263SOL     OW19687   0.029   6.660   4.823
 6263SOL    HW119688   0.083   6.743   4.840
 6263SOL    HW219689   6.977   6.683   4.764
 6264SOL     OW19690   0.981   7.024   1.315
 6264SOL    HW119691   1.080   0.007   1.307
 6264SOL    HW219692   0.952   0.031   1.405
 6265SOL     OW19693   3.993   2.656   0.698
 6265SOL    HW119694   4.028   2.735   0.648
 6265SOL    HW219695   3.989   2.577   0.638
 6266SOL     OW19696   3.819   6.387   3.234
 6266SOL    HW119697   3.899   6.334   3.262
 6266SOL    HW219698   3.845   6.449   3.160
 6267SOL     OW19699   0.852   6.440   4.901
 6267SOL    HW119700   0.755   6.462   4.908
 6267SOL    HW219701   0.876   6.371   4.969
 6268SOL     OW19702   3.697   6.946   2.087
 6268SOL    HW119703   3.644   6.864   2.066
 6268SOL    HW219704   3.708   6.954   2.186
 6269SOL     OW19705   5.919   5.961   1.353
 6269SOL    HW119706   5.835   6.014   1.338
 6269SOL    HW219707   5.911   5.910   1.438
 6270SOL     OW19708   0.325   6.715   0.084
 6270SOL    HW119709   0.411   6.688   0.127
 6270SOL    HW219710   0.273   6.633   0.060
 6271SOL     OW19711   5.603   2.402   6.398
 6271SOL    HW119712   5.553   2.318   6.420
 6271SOL    HW219713   5.574   2.436   6.308
 6272SOL     OW19714   6.887   0.394   6.832
 6272SOL    HW119715   6.790   0.412   6.843
 6272SOL    HW219716   6.935   0.415   6.917
 6273SOL     OW19717   0.501   6.171   3.165
 6273SOL    HW119718   0.584   6.178   3.219
 6273SOL    HW219719   0.480   6.260   3.123
 6274SOL     OW19720   2.811   6.361   4.691
 6274SOL    HW119721   2.753   6.391   4.767
 6274SOL    HW219722   2.758   6.363   4.607
 6275SOL     OW19723   2.727   6.118   0.443
 6275SOL    HW119724   2.803   6.175   0.410
 6275SOL    HW219725   2.698   6.056   0.370
 6276SOL     OW19726   3.861   5.937   3.747
 6276SOL    HW119727   3.876   5.839   3.745
 6276SOL    HW219728   3.926   5.983   3.687
 6277SOL     OW19729   4.844   1.834   1.600
 6277SOL    HW119730   4.903   1.903   1.557
 6277SOL    HW219731   4.901   1.765   1.645
 6278SOL     OW19732   3.639   0.454   5.587
 6278SOL    HW119733   3.548   0.440   5.626
 6278SOL    HW219734   3.708   0.430   5.656
 6279SOL     OW19735   3.499   5.593   0.456
 6279SOL    HW119736   3.410   5.582   0.499
 6279SOL    HW219737   3.487   5.609   0.358
 6280SOL     OW19738   0.032   1.572   6.793
 6280SOL    HW119739   7.016   1.483   6.812
 6280SOL    HW219740   0.036   1.586   6.694
 6281SOL     OW19741   5.828   4.513   4.054
 6281SOL    HW119742   5.901   4.454   4.089
 6281SOL    HW219743   5.841   4.606   4.089
 6282SOL     OW19744   6.213   3.230   5.138
 6282SOL    HW119745   6.151   3.258   5.211
 6282SOL    HW219746   6.272   3.156   5.171
 6283SOL     OW19747   0.780   5.425   4.831
 6283SOL    HW119748   0.751   5.500   4.772
 6283SOL    HW219749   0.700   5.380   4.871
 6284SOL     OW19750   0.880   5.014   6.561
 6284SOL    HW119751   0.797   5.069   6.571
 6284SOL    HW219752   0.868   4.926   6.607
 6285SOL     OW19753   1.951   3.382   3.788
 6285SOL    HW119754   1.880   3.367   3.856
 6285SOL    HW219755   1.908   3.404   3.700
 6286SOL     OW19756   6.774   3.522   5.052
 6286SOL    HW119757   6.691   3.493   5.100
 6286SOL    HW219758   6.807   3.608   5.092
 6287SOL     OW19759   4.318   4.758   5.658
 6287SOL    HW119760   4.300   4.660   5.649
 6287SOL    HW219761   4.285   4.790   5.747
 6288SOL     OW19762   4.184   3.705   0.314
 6288SOL    HW119763   4.136   3.782   0.356
 6288SOL    HW219764   4.232   3.653   0.385
 6289SOL     OW19765   2.509   4.203   6.956
 6289SOL    HW119766   2.526   4.123   6.899
 6289SOL    HW219767   2.489   4.282   6.898
 6290SOL     OW19768   6.557   5.163   6.647
 6290SOL    HW119769   6.585   5.259   6.636
 6290SOL    HW219770   6.632   5.103   6.620
 6291SOL     OW19771   3.219   2.975   3.029
 6291SOL    HW119772   3.218   3.065   3.072
 6291SOL    HW219773   3.158   2.913   3.079
 6292SOL     OW19774   1.722   2.724   4.911
 6292SOL    HW119775   1.648   2.680   4.860
 6292SOL    HW219776   1.713   2.823   4.904
 6293SOL     OW19777   4.776   1.690   0.500
 6293SOL    HW119778   4.773   1.628   0.578
 6293SOL    HW219779   4.695   1.747   0.499
 6294SOL     OW19780   3.501   0.345   3.305
 6294SOL    HW119781   3.527   0.432   3.264
 6294SOL    HW219782   3.404   0.349   3.332
 6295SOL     OW19783   5.293   5.060   4.731
 6295SOL    HW119784   5.243   5.030   4.813
 6295SOL    HW219785   5.364   5.125   4.758
 6296SOL     OW19786   0.688   3.994   6.150
 6296SOL    HW119787   0.737   4.009   6.064
 6296SOL    HW219788   0.602   3.947   6.132
 6297SOL     OW19789   6.109   0.126   5.317
 6297SOL    HW119790   6.086   0.217   5.284
 6297SOL    HW219791   6.179   0.132   5.389
 6298SOL     OW19792   6.048   4.456   6.849
 6298SOL    HW119793   5.961   4.505   6.857
 6298SOL    HW219794   6.052   4.382   6.915
 6299SOL     OW19795   5.405   2.458   2.631
 6299SOL    HW119796   5.356   2.421   2.552
 6299SOL    HW219797   5.436   2.383   2.689
 6300SOL     OW19798   4.356   0.910   6.337
 6300SOL    HW119799   4.287   0.968   6.380
 6300SOL    HW219800   4.426   0.886   6.404
 6301SOL     OW19801   3.095   6.744   6.629
 6301SOL    HW119802   3.163   6.818   6.621
 6301SOL    HW219803   3.008   6.776   6.592
 6302SOL     OW19804   2.357   1.859   4.984
 6302SOL    HW119805   2.452   1.888   4.979
 6302SOL    HW219806   2.342   1.807   5.068
 6303SOL     OW19807   1.309   6.557   5.940
 6303SOL    HW119808   1.291   6.652   5.914
 6303SOL    HW219809   1.247   6.530   6.013
 6304SOL     OW19810   4.183   1.828   3.571
 6304SOL    HW119811   4.171   1.805   3.474
 6304SOL    HW219812   4.100   1.804   3.621
 6305SOL     OW19813   6.338   5.965   6.519
 6305SOL    HW119814   6.278   6.002   6.448
 6305SOL    HW219815   6.300   5.879   6.553
 6306SOL     OW19816   0.348   3.339   3.693
 6306SOL    HW119817   0.333   3.436   3.676
 6306SOL    HW219818   0.276   3.286   3.648
 6307SOL     OW19819   3.822   3.659   4.167
 6307SOL    HW119820   3.858   3.651   4.074
 6307SOL    HW219821   3.728   3.691   4.164
 6308SOL     OW19822   0.483   1.984   5.680
 6308SOL    HW119823   0.524   1.967   5.591
 6308SOL    HW219824   0.493   2.081   5.703
 6309SOL     OW19825   0.389   6.550   4.004
 6309SOL    HW119826   0.380   6.452   3.984
 6309SOL    HW219827   0.442   6.562   4.088
 6310SOL     OW19828   1.740   0.054   3.084
 6310SOL    HW119829   1.714   6.988   3.056
 6310SOL    HW219830   1.836   0.054   3.112
 6311SOL     OW19831   5.189   0.816   6.776
 6311SOL    HW119832   5.217   0.808   6.680
 6311SOL    HW219833   5.089   0.827   6.780
 6312SOL     OW19834   2.569   6.937   6.398
 6312SOL    HW119835   2.643   6.879   6.364
 6312SOL    HW219836   2.499   6.947   6.327
 6313SOL     OW19837   5.715   6.833   3.510
 6313SOL    HW119838   5.801   6.790   3.536
 6313SOL    HW219839   5.678   6.884   3.587
 6314SOL     OW19840   3.379   6.937   1.204
 6314SOL    HW119841   3.434   7.019   1.196
 6314SOL    HW219842   3.420   6.875   1.271
 6315SOL     OW19843   2.023   2.818   4.794
 6315SOL    HW119844   2.004   2.758   4.872
 6315SOL    HW219845   2.103   2.875   4.814
 6316SOL     OW19846   4.899   2.187   5.775
 6316SOL    HW119847   4.952   2.118   5.727
 6316SOL    HW219848   4.894   2.270   5.719
 6317SOL     OW19849   5.410   4.498   2.939
 6317SOL    HW119850   5.441   4.558   2.865
 6317SOL    HW219851   5.320   4.462   2.917
 6318SOL     OW19852   6.187   0.484   6.785
 6318SOL    HW119853   6.100   0.517   6.750
 6318SOL    HW219854   6.232   0.556   6.838
 6319SOL     OW19855   5.352   2.329   4.829
 6319SOL    HW119856   5.401   2.265   4.769
 6319SOL    HW219857   5.323   2.409   4.776
 6320SOL     OW19858   0.113   0.318   3.718
 6320SOL    HW119859   0.064   0.242   3.674
 6320SOL    HW219860   0.052   0.363   3.783
 6321SOL     OW19861   5.497   3.350   0.596
 6321SOL    HW119862   5.583   3.377   0.552
 6321SOL    HW219863   5.487   3.251   0.590
 6322SOL     OW19864   2.714   1.983   0.644
 6322SOL    HW119865   2.712   2.026   0.735
 6322SOL    HW219866   2.624   1.991   0.602
 6323SOL     OW19867   2.214   3.314   1.294
 6323SOL    HW119868   2.122   3.332   1.258
 6323SOL    HW219869   2.276   3.387   1.264
 6324SOL     OW19870   4.615   1.283   0.608
 6324SOL    HW119871   4.656   1.192   0.605
 6324SOL    HW219872   4.534   1.282   0.665
 6325SOL     OW19873   1.858   2.772   2.341
 6325SOL    HW119874   1.885   2.867   2.355
 6325SOL    HW219875   1.923   2.728   2.280
 6326SOL     OW19876   4.723   4.968   5.575
 6326SOL    HW119877   4.793   5.035   5.599
 6326SOL    HW219878   4.701   4.912   5.655
 6327SOL     OW19879   0.530   1.757   3.180
 6327SOL    HW119880   0.571   1.818   3.113
 6327SOL    HW219881   0.490   1.678   3.133
 6328SOL     OW19882   5.127   4.217   6.686
 6328SOL    HW119883   5.144   4.146   6.754
 6328SOL    HW219884   5.134   4.307   6.729
 6329SOL     OW19885   1.225   2.890   4.758
 6329SOL    HW119886   1.134   2.859   4.731
 6329SOL    HW219887   1.294   2.835   4.711
 6330SOL     OW19888   5.476   0.583   3.235
 6330SOL    HW119889   5.541   0.543   3.169
 6330SOL    HW219890   5.399   0.622   3.186
 6331SOL     OW19891   6.538   3.019   4.740
 6331SOL    HW119892   6.607   2.974   4.683
 6331SOL    HW219893   6.455   3.036   4.686
 6332SOL     OW19894   1.529   1.975   1.697
 6332SOL    HW119895   1.599   1.944   1.761
 6332SOL    HW219896   1.574   2.005   1.612
 6333SOL     OW19897   4.663   0.024   0.253
 6333SOL    HW119898   4.762   0.025   0.264
 6333SOL    HW219899   4.637   0.083   0.176
 6334SOL     OW19900   2.416   1.712   2.045
 6334SOL    HW119901   2.352   1.781   2.011
 6334SOL    HW219902   2.485   1.693   1.974
 6335SOL     OW19903   4.996   1.053   0.964
 6335SOL    HW119904   4.933   0.981   0.936
 6335SOL    HW219905   5.040   1.028   1.050
 6336SOL     OW19906   0.138   4.942   6.503
 6336SOL    HW119907   0.133   4.895   6.592
 6336SOL    HW219908   0.046   4.951   6.465
 6337SOL     OW19909   4.239   5.423   5.167
 6337SOL    HW119910   4.195   5.464   5.087
 6337SOL    HW219911   4.325   5.470   5.185
 6338SOL     OW19912   3.199   1.721   4.558
 6338SOL    HW119913   3.237   1.784   4.626
 6338SOL    HW219914   3.124   1.765   4.510
 6339SOL     OW19915   0.898   3.250   2.868
 6339SOL    HW119916   0.991   3.223   2.844
 6339SOL    HW219917   0.840   3.243   2.787
 6340SOL     OW19918   2.549   3.924   1.553
 6340SOL    HW119919   2.478   3.994   1.557
 6340SOL    HW219920   2.577   3.910   1.457
 6341SOL     OW19921   0.507   3.155   3.367
 6341SOL    HW119922   0.601   3.141   3.335
 6341SOL    HW219923   0.484   3.086   3.435
 6342SOL     OW19924   3.145   1.182   1.606
 6342SOL    HW119925   3.085   1.223   1.676
 6342SOL    HW219926   3.150   1.083   1.621
 6343SOL     OW19927   3.476   6.790   6.871
 6343SOL    HW119928   3.487   6.878   6.825
 6343SOL    HW219929   3.428   6.726   6.811
 6344SOL     OW19930   6.256   2.504   3.594
 6344SOL    HW119931   6.211   2.546   3.515
 6344SOL    HW219932   6.192   2.441   3.639
 6345SOL     OW19933   4.788   3.226   1.291
 6345SOL    HW119934   4.821   3.139   1.255
 6345SOL    HW219935   4.750   3.212   1.383
 6346SOL     OW19936   6.888   4.099   5.207
 6346SOL    HW119937   6.943   4.162   5.152
 6346SOL    HW219938   6.848   4.029   5.148
 6347SOL     OW19939   2.751   2.146   2.187
 6347SOL    HW119940   2.656   2.115   2.179
 6347SOL    HW219941   2.766   2.223   2.125
 6348SOL     OW19942   0.707   1.865   5.847
 6348SOL    HW119943   0.743   1.820   5.766
 6348SOL    HW219944   0.703   1.964   5.832
 6349SOL     OW19945   1.485   0.254   0.015
 6349SOL    HW119946   1.419   0.329   0.026
 6349SOL    HW219947   1.437   0.166   0.020
 6350SOL     OW19948   0.886   5.119   2.642
 6350SOL    HW119949   0.940   5.174   2.706
 6350SOL    HW219950   0.941   5.099   2.561
 6351SOL     OW19951   6.298   4.720   3.771
 6351SOL    HW119952   6.287   4.660   3.851
 6351SOL    HW219953   6.266   4.672   3.689
 6352SOL     OW19954   3.141   0.948   3.735
 6352SOL    HW119955   3.072   1.015   3.709
 6352SOL    HW219956   3.109   0.856   3.712
 6353SOL     OW19957   2.300   5.051   0.240
 6353SOL    HW119958   2.265   4.958   0.230
 6353SOL    HW219959   2.271   5.107   0.162
 6354SOL     OW19960   4.554   5.366   2.807
 6354SOL    HW119961   4.584   5.272   2.796
 6354SOL    HW219962   4.479   5.385   2.744
 6355SOL     OW19963   3.226   5.599   0.560
 6355SOL    HW119964   3.187   5.672   0.615
 6355SOL    HW219965   3.170   5.517   0.568
 6356SOL     OW19966   5.263   4.762   6.973
 6356SOL    HW119967   5.180   4.708   6.958
 6356SOL    HW219968   5.238   4.852   7.010
 6357SOL     OW19969   5.841   2.683   1.402
 6357SOL    HW119970   5.861   2.585   1.395
 6357SOL    HW219971   5.798   2.702   1.490
 6358SOL     OW19972   1.129   1.928   0.086
 6358SOL    HW119973   1.033   1.901   0.083
 6358SOL    HW219974   1.166   1.910   0.177
 6359SOL     OW19975   5.984   6.734   0.667
 6359SOL    HW119976   5.975   6.812   0.605
 6359SOL    HW219977   6.030   6.763   0.751
 6360SOL     OW19978   0.125   2.825   3.946
 6360SOL    HW119979   0.216   2.866   3.943
 6360SOL    HW219980   0.113   2.778   4.034
 6361SOL     OW19981   0.420   0.467   0.425
 6361SOL    HW119982   0.352   0.395   0.437
 6361SOL    HW219983   0.384   0.538   0.366
 6362SOL     OW19984   1.371   6.288   6.675
 6362SOL    HW119985   1.422   6.215   6.720
 6362SOL    HW219986   1.417   6.313   6.590
 6363SOL     OW19987   2.514   5.157   3.764
 6363SOL    HW119988   2.568   5.127   3.842
 6363SOL    HW219989   2.417   5.143   3.783
 6364SOL     OW19990   2.247   2.485   4.743
 6364SOL    HW119991   2.287   2.473   4.834
 6364SOL    HW219992   2.152   2.453   4.744
 6365SOL     OW19993   6.025   5.364   5.246
 6365SOL    HW119994   6.098   5.296   5.240
 6365SOL    HW219995   5.955   5.344   5.177
 6366SOL     OW19996   6.412   6.556   4.663
 6366SOL    HW119997   6.445   6.612   4.587
 6366SOL    HW219998   6.430   6.604   4.749
 6367SOL     OW19999   2.918   1.907   2.859
 6367SOL    HW120000   2.934   2.006   2.860
 6367SOL    HW220001   2.997   1.861   2.817
 6368SOL     OW20002   4.572   4.488   4.275
 6368SOL    HW120003   4.653   4.436   4.250
 6368SOL    HW220004   4.576   4.513   4.372
 6369SOL     OW20005   2.132   6.242   5.608
 6369SOL    HW120006   2.154   6.200   5.696
 6369SOL    HW220007   2.196   6.209   5.539
 6370SOL     OW20008   4.921   3.651   3.301
 6370SOL    HW120009   4.931   3.717   3.227
 6370SOL    HW220010   4.880   3.567   3.265
 6371SOL     OW20011   5.446   3.490   1.676
 6371SOL    HW120012   5.441   3.541   1.590
 6371SOL    HW220013   5.508   3.538   1.739
 6372SOL     OW20014   0.356   0.931   2.847
 6372SOL    HW120015   0.288   0.958   2.914
 6372SOL    HW220016   0.435   0.992   2.853
 6373SOL     OW20017   5.855   3.941   1.789
 6373SOL    HW120018   5.918   3.928   1.865
 6373SOL    HW220019   5.763   3.961   1.825
 6374SOL     OW20020   4.551   3.096   0.335
 6374SOL    HW120021   4.516   3.185   0.304
 6374SOL    HW220022   4.483   3.025   0.317
 6375SOL     OW20023   0.946   2.990   2.107
 6375SOL    HW120024   1.034   3.038   2.104
 6375SOL    HW220025   0.959   2.895   2.077
 6376SOL     OW20026   4.624   1.380   5.775
 6376SOL    HW120027   4.639   1.478   5.779
 6376SOL    HW220028   4.530   1.359   5.803
 6377SOL     OW20029   6.818   0.949   5.894
 6377SOL    HW120030   6.902   0.917   5.938
 6377SOL    HW220031   6.834   0.956   5.795
 6378SOL     OW20032   4.751   6.064   3.188
 6378SOL    HW120033   4.721   6.128   3.117
 6378SOL    HW220034   4.845   6.036   3.172
 6379SOL     OW20035   1.450   4.907   5.152
 6379SOL    HW120036   1.462   5.002   5.123
 6379SOL    HW220037   1.353   4.888   5.165
 6380SOL     OW20038   0.979   2.779   4.674
 6380SOL    HW120039   0.909   2.823   4.617
 6380SOL    HW220040   0.943   2.765   4.766
 6381SOL     OW20041   4.062   2.785   0.453
 6381SOL    HW120042   4.024   2.708   0.402
 6381SOL    HW220043   3.999   2.863   0.447
 6382SOL     OW20044   2.684   1.773   1.596
 6382SOL    HW120045   2.737   1.728   1.524
 6382SOL    HW220046   2.611   1.827   1.553
 6383SOL     OW20047   1.585   2.841   2.348
 6383SOL    HW120048   1.538   2.928   2.362
 6383SOL    HW220049   1.682   2.858   2.331
 6384SOL     OW20050   5.805   2.156   2.220
 6384SOL    HW120051   5.889   2.186   2.174
 6384SOL    HW220052   5.754   2.236   2.251
 6385SOL     OW20053   6.987   3.977   1.203
 6385SOL    HW120054   6.968   4.050   1.138
 6385SOL    HW220055   0.050   3.993   1.246
 6386SOL     OW20056   1.935   4.121   0.487
 6386SOL    HW120057   1.972   4.087   0.573
 6386SOL    HW220058   1.856   4.180   0.504
 6387SOL     OW20059   6.133   1.536   0.449
 6387SOL    HW120060   6.165   1.588   0.371
 6387SOL    HW220061   6.048   1.489   0.427
 6388SOL     OW20062   6.635   4.806   2.968
 6388SOL    HW120063   6.604   4.868   2.895
 6388SOL    HW220064   6.569   4.731   2.979
 6389SOL     OW20065   1.817   6.727   0.511
 6389SOL    HW120066   1.727   6.770   0.511
 6389SOL    HW220067   1.845   6.707   0.417
 6390SOL     OW20068   6.383   0.299   6.810
 6390SOL    HW120069   6.295   0.334   6.778
 6390SOL    HW220070   6.368   0.240   6.890
 6391SOL     OW20071   1.334   1.615   5.675
 6391SOL    HW120072   1.412   1.671   5.704
 6391SOL    HW220073   1.339   1.526   5.720
 6392SOL     OW20074   3.377   5.617   3.779
 6392SOL    HW120075   3.417   5.664   3.857
 6392SOL    HW220076   3.442   5.551   3.742
 6393SOL     OW20077   5.596   6.697   2.063
 6393SOL    HW120078   5.519   6.634   2.071
 6393SOL    HW220079   5.574   6.770   1.998
 6394SOL     OW20080   1.021   4.782   1.056
 6394SOL    HW120081   0.926   4.812   1.057
 6394SOL    HW220082   1.025   4.682   1.068
 6395SOL     OW20083   6.936   3.965   2.620
 6395SOL    HW120084   6.990   4.006   2.694
 6395SOL    HW220085   6.906   3.874   2.647
 6396SOL     OW20086   6.689   3.555   6.391
 6396SOL    HW120087   6.606   3.542   6.444
 6396SOL    HW220088   6.739   3.469   6.385
 6397SOL     OW20089   6.475   1.058   2.615
 6397SOL    HW120090   6.434   1.138   2.570
 6397SOL    HW220091   6.406   1.014   2.673
 6398SOL     OW20092   1.716   6.468   1.402
 6398SOL    HW120093   1.633   6.508   1.362
 6398SOL    HW220094   1.753   6.531   1.470
 6399SOL     OW20095   1.684   0.012   6.710
 6399SOL    HW120096   1.722   6.965   6.765
 6399SOL    HW220097   1.719   0.006   6.617
 6400SOL     OW20098   1.937   5.634   3.010
 6400SOL    HW120099   1.882   5.589   2.940
 6400SOL    HW220100   1.952   5.730   2.985
 6401SOL     OW20101   4.513   4.525   3.102
 6401SOL    HW120102   4.511   4.493   3.008
 6401SOL    HW220103   4.562   4.459   3.159
 6402SOL     OW20104   1.165   3.189   3.298
 6402SOL    HW120105   1.120   3.115   3.348
 6402SOL    HW220106   1.242   3.153   3.246
 6403SOL     OW20107   5.530   6.120   4.981
 6403SOL    HW120108   5.598   6.188   4.957
 6403SOL    HW220109   5.455   6.121   4.914
 6404SOL     OW20110   3.689   1.050   2.877
 6404SOL    HW120111   3.771   0.995   2.894
 6404SOL    HW220112   3.715   1.146   2.867
 6405SOL     OW20113   5.010   1.696   3.710
 6405SOL    HW120114   4.969   1.744   3.632
 6405SOL    HW220115   5.089   1.748   3.743
 6406SOL     OW20116   1.107   2.811   2.431
 6406SOL    HW120117   1.044   2.739   2.402
 6406SOL    HW220118   1.201   2.779   2.420
 6407SOL     OW20119   1.889   6.515   3.336
 6407SOL    HW120120   1.922   6.457   3.262
 6407SOL    HW220121   1.928   6.484   3.423
 6408SOL     OW20122   6.881   0.662   1.241
 6408SOL    HW120123   6.882   0.597   1.317
 6408SOL    HW220124   6.837   0.619   1.162
 6409SOL     OW20125   6.239   4.965   3.860
 6409SOL    HW120126   6.261   4.872   3.829
 6409SOL    HW220127   6.307   4.995   3.926
 6410SOL     OW20128   2.274   1.482   6.015
 6410SOL    HW120129   2.350   1.507   6.075
 6410SOL    HW220130   2.301   1.405   5.958
 6411SOL     OW20131   6.936   3.152   1.735
 6411SOL    HW120132   6.873   3.220   1.771
 6411SOL    HW220133   6.915   3.063   1.775
 6412SOL     OW20134   3.257   1.041   6.545
 6412SOL    HW120135   3.225   1.130   6.579
 6412SOL    HW220136   3.182   0.976   6.546
 6413SOL     OW20137   4.129   4.978   4.502
 6413SOL    HW120138   4.069   4.916   4.552
 6413SOL    HW220139   4.170   4.930   4.424
 6414SOL     OW20140   0.466   6.239   6.489
 6414SOL    HW120141   0.521   6.284   6.419
 6414SOL    HW220142   0.380   6.289   6.502
 6415SOL     OW20143   1.279   3.346   3.043
 6415SOL    HW120144   1.259   3.340   3.140
 6415SOL    HW220145   1.371   3.312   3.026
 6416SOL     OW20146   2.965   0.033   6.702
 6416SOL    HW120147   2.947   6.985   6.638
 6416SOL    HW220148   2.890   0.041   6.767
 6417SOL     OW20149   5.348   2.250   1.208
 6417SOL    HW120150   5.419   2.301   1.256
 6417SOL    HW220151   5.311   2.179   1.268
 6418SOL     OW20152   4.958   4.453   2.172
 6418SOL    HW120153   4.893   4.387   2.209
 6418SOL    HW220154   5.049   4.433   2.208
 6419SOL     OW20155   0.666   6.771   5.714
 6419SOL    HW120156   0.606   6.782   5.634
 6419SOL    HW220157   0.692   6.861   5.749
 6420SOL     OW20158   1.209   2.432   3.901
 6420SOL    HW120159   1.211   2.464   3.996
 6420SOL    HW220160   1.136   2.365   3.891
 6421SOL     OW20161   5.775   0.258   0.889
 6421SOL    HW120162   5.780   0.289   0.794
 6421SOL    HW220163   5.690   0.291   0.930
 6422SOL     OW20164   6.971   1.776   5.723
 6422SOL    HW120165   6.976   1.693   5.668
 6422SOL    HW220166   6.959   1.856   5.663
 6423SOL     OW20167   3.590   5.901   4.367
 6423SOL    HW120168   3.548   5.933   4.452
 6423SOL    HW220169   3.572   5.967   4.294
 6424SOL     OW20170   0.718   3.187   5.032
 6424SOL    HW120171   0.668   3.115   4.983
 6424SOL    HW220172   0.816   3.168   5.028
 6425SOL     OW20173   0.154   5.231   3.064
 6425SOL    HW120174   0.206   5.294   3.121
 6425SOL    HW220175   0.105   5.282   2.993
 6426SOL     OW20176   5.368   5.007   4.223
 6426SOL    HW120177   5.353   5.057   4.308
 6426SOL    HW220178   5.462   5.019   4.193
 6427SOL     OW20179   3.124   3.899   2.794
 6427SOL    HW120180   3.184   3.880   2.872
 6427SOL    HW220181   3.135   3.995   2.767
 6428SOL     OW20182   5.447   2.602   0.356
 6428SOL    HW120183   5.418   2.590   0.451
 6428SOL    HW220184   5.539   2.640   0.354
 6429SOL     OW20185   1.716   0.516   5.427
 6429SOL    HW120186   1.809   0.520   5.390
 6429SOL    HW220187   1.651   0.547   5.357
 6430SOL     OW20188   6.872   0.420   5.536
 6430SOL    HW120189   6.952   0.393   5.482
 6430SOL    HW220190   6.891   0.405   5.633
 6431SOL     OW20191   4.575   5.347   3.078
 6431SOL    HW120192   4.552   5.251   3.090
 6431SOL    HW220193   4.558   5.374   2.983
 6432SOL     OW20194   3.436   4.054   6.221
 6432SOL    HW120195   3.529   4.028   6.197
 6432SOL    HW220196   3.436   4.106   6.306
 6433SOL     OW20197   2.959   5.600   0.036
 6433SOL    HW120198   3.034   5.548   0.078
 6433SOL    HW220199   2.874   5.582   0.087
 6434SOL     OW20200   2.834   6.741   6.340
 6434SOL    HW120201   2.808   6.645   6.352
 6434SOL    HW220202   2.875   6.754   6.250
 6435SOL     OW20203   5.918   0.059   0.540
 6435SOL    HW120204   5.918   6.999   0.491
 6435SOL    HW220205   5.885   0.132   0.480
 6436SOL     OW20206   0.552   2.954   3.542
 6436SOL    HW120207   0.582   2.895   3.467
 6436SOL    HW220208   0.620   2.951   3.615
 6437SOL     OW20209   0.494   1.800   5.287
 6437SOL    HW120210   0.475   1.703   5.279
 6437SOL    HW220211   0.582   1.814   5.331
 6438SOL     OW20212   1.167   5.246   6.306
 6438SOL    HW120213   1.078   5.199   6.303
 6438SOL    HW220214   1.238   5.181   6.332
 6439SOL     OW20215   6.498   0.854   3.533
 6439SOL    HW120216   6.495   0.765   3.579
 6439SOL    HW220217   6.419   0.909   3.560
 6440SOL     OW20218   2.403   0.960   6.823
 6440SOL    HW120219   2.355   1.037   6.782
 6440SOL    HW220220   2.455   0.991   6.903
 6441SOL     OW20221   0.188   1.011   3.037
 6441SOL    HW120222   0.167   0.970   3.126
 6441SOL    HW220223   0.112   1.071   3.010
 6442SOL     OW20224   2.603   2.321   4.697
 6442SOL    HW120225   2.690   2.318   4.648
 6442SOL    HW220226   2.607   2.390   4.769
 6443SOL     OW20227   3.726   2.081   6.246
 6443SOL    HW120228   3.745   2.103   6.342
 6443SOL    HW220229   3.803   2.029   6.208
 6444SOL     OW20230   0.623   2.479   4.997
 6444SOL    HW120231   0.700   2.469   5.059
 6444SOL    HW220232   0.565   2.397   5.002
 6445SOL     OW20233   3.433   3.573   2.956
 6445SOL    HW120234   3.336   3.556   2.943
 6445SOL    HW220235   3.463   3.535   3.043
 6446SOL     OW20236   1.436   1.823   6.893
 6446SOL    HW120237   1.375   1.762   6.944
 6446SOL    HW220238   1.496   1.871   6.957
 6447SOL     OW20239   0.225   4.209   1.684
 6447SOL    HW120240   0.205   4.146   1.759
 6447SOL    HW220241   0.319   4.196   1.653
 6448SOL     OW20242   4.998   5.100   1.464
 6448SOL    HW120243   4.906   5.140   1.467
 6448SOL    HW220244   5.004   5.037   1.387
 6449SOL     OW20245   1.829   5.642   1.304
 6449SOL    HW120246   1.818   5.550   1.267
 6449SOL    HW220247   1.917   5.648   1.351
 6450SOL     OW20248   0.691   4.462   0.668
 6450SOL    HW120249   0.631   4.488   0.592
 6450SOL    HW220250   0.669   4.368   0.696
 6451SOL     OW20251   3.333   1.881   6.779
 6451SOL    HW120252   3.415   1.859   6.833
 6451SOL    HW220253   3.329   1.980   6.763
 6452SOL     OW20254   5.163   3.702   2.458
 6452SOL    HW120255   5.067   3.719   2.437
 6452SOL    HW220256   5.204   3.785   2.497
 6453SOL     OW20257   3.541   6.825   0.843
 6453SOL    HW120258   3.493   6.884   0.778
 6453SOL    HW220259   3.629   6.866   0.865
 6454SOL     OW20260   0.085   1.443   2.763
 6454SOL    HW120261   0.087   1.518   2.697
 6454SOL    HW220262   0.032   1.367   2.726
 6455SOL     OW20263   6.646   4.137   3.336
 6455SOL    HW120264   6.644   4.219   3.394
 6455SOL    HW220265   6.598   4.155   3.251
 6456SOL     OW20266   0.700   0.225   2.829
 6456SOL    HW120267   0.641   0.288   2.778
 6456SOL    HW220268   0.696   0.246   2.927
 6457SOL     OW20269   4.716   6.978   1.891
 6457SOL    HW120270   4.650   0.021   1.862
 6457SOL    HW220271   4.799   6.986   1.837
 6458SOL     OW20272   1.096   5.289   4.350
 6458SOL    HW120273   1.071   5.258   4.258
 6458SOL    HW220274   1.156   5.222   4.393
 6459SOL     OW20275   6.184   2.637   3.027
 6459SOL    HW120276   6.258   2.602   3.085
 6459SOL    HW220277   6.190   2.596   2.937
 6460SOL     OW20278   6.294   5.482   5.749
 6460SOL    HW120279   6.221   5.457   5.686
 6460SOL    HW220280   6.382   5.478   5.702
 6461SOL     OW20281   3.844   4.523   0.328
 6461SOL    HW120282   3.869   4.617   0.348
 6461SOL    HW220283   3.749   4.520   0.297
 6462SOL     OW20284   1.298   3.540   4.228
 6462SOL    HW120285   1.263   3.586   4.310
 6462SOL    HW220286   1.243   3.567   4.149
 6463SOL     OW20287   5.627   6.968   0.468
 6463SOL    HW120288   5.573   6.896   0.423
 6463SOL    HW220289   5.572   0.025   0.476
 6464SOL     OW20290   0.915   6.083   4.855
 6464SOL    HW120291   0.993   6.022   4.869
 6464SOL    HW220292   0.905   6.143   4.934
 6465SOL     OW20293   5.720   2.426   2.284
 6465SOL    HW120294   5.650   2.450   2.217
 6465SOL    HW220295   5.811   2.441   2.244
 6466SOL     OW20296   0.135   2.896   6.521
 6466SOL    HW120297   0.179   2.910   6.609
 6466SOL    HW220298   0.101   2.802   6.515
 6467SOL     OW20299   4.162   1.317   0.975
 6467SOL    HW120300   4.193   1.340   0.883
 6467SOL    HW220301   4.207   1.377   1.041
 6468SOL     OW20302   3.851   6.267   0.978
 6468SOL    HW120303   3.937   6.300   1.016
 6468SOL    HW220304   3.791   6.345   0.959
 6469SOL     OW20305   2.917   2.287   3.997
 6469SOL    HW120306   3.011   2.254   3.998
 6469SOL    HW220307   2.854   2.209   4.001
 6470SOL     OW20308   5.852   2.043   0.791
 6470SOL    HW120309   5.951   2.043   0.775
 6470SOL    HW220310   5.805   2.066   0.706
 6471SOL     OW20311   0.611   6.482   4.589
 6471SOL    HW120312   0.668   6.423   4.532
 6471SOL    HW220313   0.522   6.438   4.603
 6472SOL     OW20314   6.687   6.280   2.492
 6472SOL    HW120315   6.627   6.257   2.416
 6472SOL    HW220316   6.777   6.239   2.478
 6473SOL     OW20317   1.883   1.586   4.596
 6473SOL    HW120318   1.910   1.673   4.640
 6473SOL    HW220319   1.854   1.521   4.667
 6474SOL     OW20320   3.950   5.221   5.634
 6474SOL    HW120321   4.019   5.241   5.565
 6474SOL    HW220322   3.919   5.306   5.677
 6475SOL     OW20323   5.284   5.047   3.417
 6475SOL    HW120324   5.369   5.070   3.464
 6475SOL    HW220325   5.240   5.130   3.384
 6476SOL     OW20326   3.425   2.426   6.495
 6476SOL    HW120327   3.337   2.408   6.540
 6476SOL    HW220328   3.413   2.491   6.421
 6477SOL     OW20329   6.594   5.367   0.716
 6477SOL    HW120330   6.516   5.319   0.676
 6477SOL    HW220331   6.588   5.363   0.816
 6478SOL     OW20332   2.533   5.968   1.557
 6478SOL    HW120333   2.487   5.958   1.469
 6478SOL    HW220334   2.468   5.999   1.625
 6479SOL     OW20335   3.014   5.449   4.583
 6479SOL    HW120336   3.080   5.374   4.581
 6479SOL    HW220337   3.055   5.531   4.546
 6480SOL     OW20338   2.231   1.526   0.190
 6480SOL    HW120339   2.132   1.511   0.190
 6480SOL    HW220340   2.250   1.623   0.207
 6481SOL     OW20341   3.317   2.612   1.739
 6481SOL    HW120342   3.222   2.637   1.760
 6481SOL    HW220343   3.379   2.661   1.801
 6482SOL     OW20344   6.651   2.487   5.559
 6482SOL    HW120345   6.729   2.486   5.498
 6482SOL    HW220346   6.632   2.581   5.589
 6483SOL     OW20347   1.161   5.933   4.027
 6483SOL    HW120348   1.066   5.957   4.007
 6483SOL    HW220349   1.171   5.833   4.028
 6484SOL     OW20350   2.813   1.477   2.420
 6484SOL    HW120351   2.857   1.419   2.488
 6484SOL    HW220352   2.855   1.568   2.422
 6485SOL     OW20353   2.236   6.271   4.629
 6485SOL    HW120354   2.323   6.313   4.602
 6485SOL    HW220355   2.234   6.176   4.600
 6486SOL     OW20356   1.292   4.722   2.947
 6486SOL    HW120357   1.255   4.724   2.854
 6486SOL    HW220358   1.263   4.638   2.993
 6487SOL     OW20359   0.946   5.604   4.348
 6487SOL    HW120360   1.036   5.579   4.383
 6487SOL    HW220361   0.938   5.703   4.345
 6488SOL     OW20362   4.532   5.836   5.046
 6488SOL    HW120363   4.543   5.740   5.020
 6488SOL    HW220364   4.455   5.845   5.109
 6489SOL     OW20365   3.314   2.779   6.082
 6489SOL    HW120366   3.252   2.706   6.052
 6489SOL    HW220367   3.350   2.827   6.003
 6490SOL     OW20368   2.589   1.474   6.251
 6490SOL    HW120369   2.606   1.511   6.160
 6490SOL    HW220370   2.617   1.540   6.320
 6491SOL     OW20371   2.170   0.620   1.330
 6491SOL    HW120372   2.255   0.570   1.315
 6491SOL    HW220373   2.104   0.561   1.378
 6492SOL     OW20374   3.637   4.018   4.284
 6492SOL    HW120375   3.706   4.033   4.213
 6492SOL    HW220376   3.682   3.982   4.366
 6493SOL     OW20377   1.454   4.674   6.522
 6493SOL    HW120378   1.444   4.689   6.424
 6493SOL    HW220379   1.468   4.577   6.540
 6494SOL     OW20380   6.052   6.248   2.665
 6494SOL    HW120381   6.015   6.156   2.657
 6494SOL    HW220382   5.994   6.312   2.616
 6495SOL     OW20383   6.673   6.933   4.854
 6495SOL    HW120384   6.721   6.990   4.788
 6495SOL    HW220385   6.684   6.971   4.946
 6496SOL     OW20386   5.177   6.703   1.417
 6496SOL    HW120387   5.195   6.783   1.359
 6496SOL    HW220388   5.083   6.708   1.451
 6497SOL     OW20389   1.097   1.499   1.174
 6497SOL    HW120390   1.060   1.433   1.240
 6497SOL    HW220391   1.024   1.559   1.142
 6498SOL     OW20392   0.589   4.006   4.246
 6498SOL    HW120393   0.632   3.931   4.296
 6498SOL    HW220394   0.529   3.969   4.176
 6499SOL     OW20395   5.623   3.753   4.195
 6499SOL    HW120396   5.697   3.698   4.232
 6499SOL    HW220397   5.623   3.843   4.240
 6500SOL     OW20398   0.753   3.689   2.468
 6500SOL    HW120399   0.683   3.731   2.410
 6500SOL    HW220400   0.805   3.622   2.415
 6501SOL     OW20401   0.033   1.503   0.957
 6501SOL    HW120402   7.022   1.596   0.969
 6501SOL    HW220403   0.118   1.508   0.904
 6502SOL     OW20404   6.426   3.924   1.488
 6502SOL    HW120405   6.381   3.852   1.435
 6502SOL    HW220406   6.396   4.013   1.455
 6503SOL     OW20407   6.576   1.378   5.101
 6503SOL    HW120408   6.574   1.352   5.005
 6503SOL    HW220409   6.483   1.394   5.133
 6504SOL     OW20410   4.824   6.581   6.524
 6504SOL    HW120411   4.898   6.521   6.495
 6504SOL    HW220412   4.840   6.612   6.618
 6505SOL     OW20413   5.362   6.766   6.779
 6505SOL    HW120414   5.352   6.800   6.873
 6505SOL    HW220415   5.447   6.715   6.772
 6506SOL     OW20416   6.939   3.186   3.674
 6506SOL    HW120417   6.864   3.138   3.630
 6506SOL    HW220418   6.950   3.152   3.768
 6507SOL     OW20419   2.857   5.580   6.300
 6507SOL    HW120420   2.811   5.493   6.317
 6507SOL    HW220421   2.798   5.655   6.331
 6508SOL     OW20422   1.657   6.554   2.639
 6508SOL    HW120423   1.670   6.652   2.654
 6508SOL    HW220424   1.603   6.540   2.557
 6509SOL     OW20425   4.879   1.260   5.358
 6509SOL    HW120426   4.855   1.267   5.455
 6509SOL    HW220427   4.865   1.166   5.327
 6510SOL     OW20428   4.611   6.151   6.543
 6510SOL    HW120429   4.626   6.174   6.447
 6510SOL    HW220430   4.512   6.141   6.559
 6511SOL     OW20431   4.205   0.706   5.661
 6511SOL    HW120432   4.212   0.671   5.567
 6511SOL    HW220433   4.296   0.710   5.702
 6512SOL     OW20434   2.916   6.297   2.688
 6512SOL    HW120435   2.844   6.229   2.670
 6512SOL    HW220436   2.990   6.284   2.622
 6513SOL     OW20437   2.702   6.120   4.461
 6513SOL    HW120438   2.744   6.057   4.396
 6513SOL    HW220439   2.712   6.085   4.554
 6514SOL     OW20440   5.905   0.563   4.980
 6514SOL    HW120441   5.816   0.608   4.988
 6514SOL    HW220442   5.942   0.578   4.888
 6515SOL     OW20443   1.983   4.194   2.340
 6515SOL    HW120444   1.921   4.258   2.294
 6515SOL    HW220445   2.008   4.120   2.277
 6516SOL     OW20446   6.820   3.333   1.909
 6516SOL    HW120447   6.893   3.317   1.976
 6516SOL    HW220448   6.850   3.402   1.843
 6517SOL     OW20449   0.404   2.251   0.642
 6517SOL    HW120450   0.451   2.243   0.730
 6517SOL    HW220451   0.342   2.173   0.631
 6518SOL     OW20452   6.727   0.719   2.013
 6518SOL    HW120453   6.826   0.729   2.022
 6518SOL    HW220454   6.703   0.709   1.916
 6519SOL     OW20455   0.479   0.590   3.077
 6519SOL    HW120456   0.493   0.618   2.982
 6519SOL    HW220457   0.496   0.668   3.137
 6520SOL     OW20458   6.980   5.889   6.584
 6520SOL    HW120459   7.023   5.947   6.515
 6520SOL    HW220460   6.990   5.793   6.557
 6521SOL     OW20461   1.616   2.865   2.743
 6521SOL    HW120462   1.623   2.852   2.842
 6521SOL    HW220463   1.621   2.963   2.723
 6522SOL     OW20464   2.604   4.530   5.582
 6522SOL    HW120465   2.507   4.522   5.559
 6522SOL    HW220466   2.659   4.497   5.505
 6523SOL     OW20467   4.900   6.822   6.905
 6523SOL    HW120468   4.868   6.893   6.842
 6523SOL    HW220469   4.835   6.746   6.905
 6524SOL     OW20470   3.059   2.710   1.780
 6524SOL    HW120471   3.000   2.631   1.789
 6524SOL    HW220472   3.007   2.794   1.798
 6525SOL     OW20473   2.480   5.402   3.261
 6525SOL    HW120474   2.472   5.340   3.340
 6525SOL    HW220475   2.571   5.394   3.221
 6526SOL     OW20476   0.389   6.980   0.920
 6526SOL    HW120477   0.315   6.929   0.962
 6526SOL    HW220478   0.380   6.976   0.820
 6527SOL     OW20479   0.312   2.063   0.329
 6527SOL    HW120480   0.331   1.966   0.342
 6527SOL    HW220481   0.391   2.117   0.357
 6528SOL     OW20482   6.778   1.649   6.405
 6528SOL    HW120483   6.774   1.697   6.317
 6528SOL    HW220484   6.685   1.624   6.433
 6529SOL     OW20485   0.539   0.433   2.749
 6529SOL    HW120486   0.471   0.386   2.693
 6529SOL    HW220487   0.512   0.528   2.762
 6530SOL     OW20488   0.450   2.207   1.598
 6530SOL    HW120489   0.380   2.274   1.571
 6530SOL    HW220490   0.414   2.148   1.670
 6531SOL     OW20491   4.248   3.473   5.445
 6531SOL    HW120492   4.235   3.556   5.499
 6531SOL    HW220493   4.346   3.452   5.439
 6532SOL     OW20494   1.805   1.403   0.719
 6532SOL    HW120495   1.715   1.381   0.757
 6532SOL    HW220496   1.858   1.318   0.709
 6533SOL     OW20497   4.104   5.681   0.382
 6533SOL    HW120498   4.007   5.694   0.362
 6533SOL    HW220499   4.156   5.759   0.347
 6534SOL     OW20500   5.243   4.777   1.470
 6534SOL    HW120501   5.324   4.827   1.503
 6534SOL    HW220502   5.272   4.702   1.411
 6535SOL     OW20503   5.902   4.291   4.422
 6535SOL    HW120504   5.819   4.239   4.439
 6535SOL    HW220505   5.895   4.381   4.465
 6536SOL     OW20506   0.380   2.048   5.351
 6536SOL    HW120507   0.409   1.956   5.323
 6536SOL    HW220508   0.363   2.103   5.270
 6537SOL     OW20509   6.951   4.841   4.571
 6537SOL    HW120510   0.024   4.856   4.575
 6537SOL    HW220511   6.929   4.792   4.487
 6538SOL     OW20512   1.521   3.606   5.780
 6538SOL    HW120513   1.549   3.631   5.872
 6538SOL    HW220514   1.558   3.672   5.714
 6539SOL     OW20515   4.911   0.452   6.870
 6539SOL    HW120516   4.972   0.380   6.836
 6539SOL    HW220517   4.851   0.482   6.797
 6540SOL     OW20518   2.089   2.758   6.212
 6540SOL    HW120519   2.099   2.856   6.231
 6540SOL    HW220520   2.016   2.744   6.146
 6541SOL     OW20521   5.160   2.427   5.816
 6541SOL    HW120522   5.183   2.330   5.815
 6541SOL    HW220523   5.083   2.444   5.755
 6542SOL     OW20524   1.081   3.481   4.600
 6542SOL    HW120525   0.984   3.487   4.623
 6542SOL    HW220526   1.136   3.489   4.683
 6543SOL     OW20527   3.385   2.486   5.505
 6543SOL    HW120528   3.477   2.506   5.538
 6543SOL    HW220529   3.384   2.395   5.462
 6544SOL     OW20530   0.253   6.395   2.423
 6544SOL    HW120531   0.208   6.469   2.372
 6544SOL    HW220532   0.199   6.312   2.415
 6545SOL     OW20533   4.366   6.701   0.511
 6545SOL    HW120534   4.403   6.777   0.458
 6545SOL    HW220535   4.356   6.729   0.606
 6546SOL     OW20536   4.245   4.274   6.831
 6546SOL    HW120537   4.256   4.278   6.732
 6546SOL    HW220538   4.325   4.314   6.875
 6547SOL     OW20539   4.512   0.534   5.573
 6547SOL    HW120540   4.497   0.436   5.556
 6547SOL    HW220541   4.480   0.586   5.494
 6548SOL     OW20542   1.198   3.034   6.726
 6548SOL    HW120543   1.248   3.051   6.810
 6548SOL    HW220544   1.122   3.098   6.718
 6549SOL     OW20545   4.544   0.391   2.149
 6549SOL    HW120546   4.489   0.384   2.065
 6549SOL    HW220547   4.602   0.310   2.157
 6550SOL     OW20548   7.023   6.859   3.721
 6550SOL    HW120549   0.092   6.847   3.693
 6550SOL    HW220550   6.972   6.774   3.705
 6551SOL     OW20551   2.613   3.558   1.587
 6551SOL    HW120552   2.679   3.625   1.620
 6551SOL    HW220553   2.661   3.477   1.554
 6552SOL     OW20554   2.256   0.127   0.404
 6552SOL    HW120555   2.332   0.174   0.359
 6552SOL    HW220556   2.186   0.193   0.430
 6553SOL     OW20557   0.949   1.609   3.120
 6553SOL    HW120558   1.039   1.574   3.092
 6553SOL    HW220559   0.885   1.533   3.126
 6554SOL     OW20560   2.767   0.940   5.302
 6554SOL    HW120561   2.707   0.888   5.362
 6554SOL    HW220562   2.713   0.982   5.229
 6555SOL     OW20563   6.199   1.666   4.136
 6555SOL    HW120564   6.197   1.729   4.213
 6555SOL    HW220565   6.228   1.575   4.168
 6556SOL     OW20566   6.119   3.416   2.481
 6556SOL    HW120567   6.069   3.501   2.465
 6556SOL    HW220568   6.067   3.339   2.445
 6557SOL     OW20569   2.627   0.595   2.298
 6557SOL    HW120570   2.530   0.614   2.289
 6557SOL    HW220571   2.680   0.676   2.271
 6558SOL     OW20572   5.708   5.290   0.266
 6558SOL    HW120573   5.795   5.320   0.306
 6558SOL    HW220574   5.633   5.340   0.311
 6559SOL     OW20575   6.935   3.713   6.362
 6559SOL    HW120576   6.839   3.738   6.382
 6559SOL    HW220577   6.976   3.784   6.305
 6560SOL     OW20578   4.018   4.495   0.635
 6560SOL    HW120579   3.981   4.576   0.591
 6560SOL    HW220580   3.990   4.413   0.583
 6561SOL     OW20581   3.864   4.552   0.893
 6561SOL    HW120582   3.914   4.539   0.808
 6561SOL    HW220583   3.777   4.504   0.888
 6562SOL     OW20584   5.547   2.369   1.345
 6562SOL    HW120585   5.632   2.350   1.394
 6562SOL    HW220586   5.517   2.462   1.364
 6563SOL     OW20587   5.121   0.706   6.207
 6563SOL    HW120588   5.194   0.772   6.191
 6563SOL    HW220589   5.121   0.679   6.304
 6564SOL     OW20590   6.282   3.513   1.961
 6564SOL    HW120591   6.312   3.434   1.907
 6564SOL    HW220592   6.230   3.576   1.902
 6565SOL     OW20593   6.391   6.407   3.144
 6565SOL    HW120594   6.347   6.478   3.200
 6565SOL    HW220595   6.436   6.449   3.066
 6566SOL     OW20596   3.413   5.159   2.091
 6566SOL    HW120597   3.352   5.230   2.127
 6566SOL    HW220598   3.360   5.075   2.075
 6567SOL     OW20599   4.650   0.880   1.673
 6567SOL    HW120600   4.600   0.875   1.587
 6567SOL    HW220601   4.653   0.975   1.704
 6568SOL     OW20602   3.949   2.152   3.055
 6568SOL    HW120603   3.990   2.187   3.139
 6568SOL    HW220604   3.987   2.200   2.976
 6569SOL     OW20605   1.049   3.460   6.392
 6569SOL    HW120606   0.986   3.416   6.456
 6569SOL    HW220607   1.135   3.480   6.439
 6570SOL     OW20608   3.988   1.330   2.810
 6570SOL    HW120609   3.994   1.246   2.755
 6570SOL    HW220610   4.062   1.392   2.786
 6571SOL     OW20611   2.928   4.857   2.528
 6571SOL    HW120612   2.929   4.903   2.439
 6571SOL    HW220613   2.841   4.809   2.539
 6572SOL     OW20614   0.376   3.785   4.563
 6572SOL    HW120615   0.369   3.794   4.662
 6572SOL    HW220616   0.439   3.855   4.527
 6573SOL     OW20617   1.389   1.418   3.348
 6573SOL    HW120618   1.396   1.384   3.254
 6573SOL    HW220619   1.451   1.365   3.406
 6574SOL     OW20620   2.468   6.454   3.614
 6574SOL    HW120621   2.480   6.372   3.558
 6574SOL    HW220622   2.448   6.532   3.555
 6575SOL     OW20623   0.463   6.417   3.093
 6575SOL    HW120624   0.555   6.439   3.123
 6575SOL    HW220625   0.400   6.488   3.125
 6576SOL     OW20626   3.112   5.399   0.726
 6576SOL    HW120627   3.015   5.377   0.715
 6576SOL    HW220628   3.149   5.348   0.805
 6577SOL     OW20629   1.718   2.085   3.604
 6577SOL    HW120630   1.770   2.009   3.565
 6577SOL    HW220631   1.749   2.171   3.564
 6578SOL     OW20632   0.754   5.937   2.071
 6578SOL    HW120633   0.788   5.988   2.150
 6578SOL    HW220634   0.779   5.985   1.987
 6579SOL     OW20635   6.947   2.299   4.266
 6579SOL    HW120636   6.896   2.265   4.187
 6579SOL    HW220637   6.925   2.243   4.346
 6580SOL     OW20638   0.911   1.293   0.796
 6580SOL    HW120639   1.000   1.304   0.841
 6580SOL    HW220640   0.860   1.379   0.803
 6581SOL     OW20641   1.278   0.737   0.464
 6581SOL    HW120642   1.328   0.664   0.512
 6581SOL    HW220643   1.341   0.790   0.409
 6582SOL     OW20644   6.472   0.417   2.991
 6582SOL    HW120645   6.531   0.465   2.926
 6582SOL    HW220646   6.517   0.333   3.021
 6583SOL     OW20647   5.145   6.429   5.169
 6583SOL    HW120648   5.082   6.502   5.195
 6583SOL    HW220649   5.170   6.376   5.249
 6584SOL     OW20650   3.488   2.689   0.776
 6584SOL    HW120651   3.427   2.627   0.727
 6584SOL    HW220652   3.572   2.702   0.722
 6585SOL     OW20653   6.887   6.708   0.086
 6585SOL    HW120654   6.798   6.706   0.131
 6585SOL    HW220655   6.881   6.761   0.002
 6586SOL     OW20656   6.455   1.757   6.098
 6586SOL    HW120657   6.416   1.665   6.099
 6586SOL    HW220658   6.536   1.760   6.156
 6587SOL     OW20659   1.283   4.904   6.433
 6587SOL    HW120660   1.336   4.828   6.470
 6587SOL    HW220661   1.196   4.870   6.398
 6588SOL     OW20662   0.642   3.342   1.104
 6588SOL    HW120663   0.656   3.294   1.017
 6588SOL    HW220664   0.636   3.440   1.088
 6589SOL     OW20665   4.948   1.177   2.375
 6589SOL    HW120666   5.038   1.216   2.398
 6589SOL    HW220667   4.961   1.100   2.312
 6590SOL     OW20668   0.457   0.117   5.352
 6590SOL    HW120669   0.389   0.143   5.421
 6590SOL    HW220670   0.440   0.168   5.268
 6591SOL     OW20671   5.414   6.302   3.537
 6591SOL    HW120672   5.442   6.348   3.453
 6591SOL    HW220673   5.316   6.280   3.532
 6592SOL     OW20674   5.053   0.503   2.800
 6592SOL    HW120675   5.067   0.413   2.841
 6592SOL    HW220676   5.089   0.504   2.707
 6593SOL     OW20677   2.959   2.234   2.334
 6593SOL    HW120678   2.992   2.293   2.260
 6593SOL    HW220679   2.886   2.175   2.298
 6594SOL     OW20680   3.574   1.680   5.783
 6594SOL    HW120681   3.530   1.737   5.714
 6594SOL    HW220682   3.643   1.734   5.831
 6595SOL     OW20683   1.036   3.132   5.426
 6595SOL    HW120684   1.053   3.090   5.515
 6595SOL    HW220685   1.116   3.119   5.367
 6596SOL     OW20686   3.681   6.255   3.533
 6596SOL    HW120687   3.656   6.163   3.504
 6596SOL    HW220688   3.710   6.308   3.454
 6597SOL     OW20689   1.607   5.207   1.930
 6597SOL    HW120690   1.612   5.203   1.830
 6597SOL    HW220691   1.690   5.167   1.969
 6598SOL     OW20692   2.102   4.488   4.210
 6598SOL    HW120693   2.128   4.578   4.245
 6598SOL    HW220694   2.137   4.476   4.118
 6599SOL     OW20695   4.605   6.287   0.067
 6599SOL    HW120696   4.547   6.213   0.035
 6599SOL    HW220697   4.580   6.311   0.161
 6600SOL     OW20698   3.796   6.685   4.518
 6600SOL    HW120699   3.850   6.611   4.479
 6600SOL    HW220700   3.735   6.649   4.588
 6601SOL     OW20701   0.513   2.311   3.196
 6601SOL    HW120702   0.540   2.379   3.265
 6601SOL    HW220703   0.592   2.254   3.175
 6602SOL     OW20704   2.257   0.164   1.123
 6602SOL    HW120705   2.296   0.242   1.074
 6602SOL    HW220706   2.323   0.131   1.190
 6603SOL     OW20707   0.976   3.049   4.039
 6603SOL    HW120708   1.030   2.967   4.019
 6603SOL    HW220709   0.943   3.045   4.133
 6604SOL     OW20710   1.688   0.423   1.121
 6604SOL    HW120711   1.664   0.329   1.146
 6604SOL    HW220712   1.648   0.486   1.188
 6605SOL     OW20713   5.642   5.900   2.679
 6605SOL    HW120714   5.582   5.821   2.664
 6605SOL    HW220715   5.618   5.944   2.766
 6606SOL     OW20716   6.864   4.766   2.827
 6606SOL    HW120717   6.782   4.781   2.882
 6606SOL    HW220718   6.933   4.834   2.850
 6607SOL     OW20719   6.593   5.132   3.845
 6607SOL    HW120720   6.494   5.146   3.849
 6607SOL    HW220721   6.639   5.215   3.875
 6608SOL     OW20722   6.700   0.310   0.570
 6608SOL    HW120723   6.684   0.325   0.667
 6608SOL    HW220724   6.693   0.213   0.549
 6609SOL     OW20725   5.160   1.459   6.357
 6609SOL    HW120726   5.085   1.454   6.292
 6609SOL    HW220727   5.216   1.376   6.349
 6610SOL     OW20728   2.598   6.492   0.349
 6610SOL    HW120729   2.653   6.529   0.423
 6610SOL    HW220730   2.617   6.542   0.265
 6611SOL     OW20731   5.177   2.965   3.304
 6611SOL    HW120732   5.193   3.056   3.267
 6611SOL    HW220733   5.163   2.900   3.230
 6612SOL     OW20734   6.744   2.277   6.231
 6612SOL    HW120735   6.805   2.340   6.279
 6612SOL    HW220736   6.674   2.330   6.182
 6613SOL     OW20737   5.372   0.082   5.985
 6613SOL    HW120738   5.305   0.145   6.025
 6613SOL    HW220739   5.437   0.134   5.929
 6614SOL     OW20740   4.849   6.854   0.618
 6614SOL    HW120741   4.930   6.914   0.620
 6614SOL    HW220742   4.878   6.759   0.630
 6615SOL     OW20743   2.005   5.610   0.525
 6615SOL    HW120744   2.041   5.543   0.589
 6615SOL    HW220745   2.077   5.638   0.461
 6616SOL     OW20746   4.523   6.990   6.115
 6616SOL    HW120747   4.622   6.983   6.112
 6616SOL    HW220748   4.491   0.020   6.038
 6617SOL     OW20749   4.462   6.284   3.354
 6617SOL    HW120750   4.530   6.275   3.426
 6617SOL    HW220751   4.391   6.349   3.383
 6618SOL     OW20752   1.077   1.259   2.773
 6618SOL    HW120753   1.048   1.257   2.869
 6618SOL    HW220754   1.020   1.325   2.723
 6619SOL     OW20755   4.399   0.025   3.779
 6619SOL    HW120756   4.460   0.103   3.792
 6619SOL    HW220757   4.413   7.013   3.687
 6620SOL     OW20758   2.066   3.371   4.439
 6620SOL    HW120759   2.076   3.469   4.457
 6620SOL    HW220760   1.972   3.344   4.459
 6621SOL     OW20761   3.707   2.900   5.172
 6621SOL    HW120762   3.638   2.909   5.100
 6621SOL    HW220763   3.798   2.902   5.131
 6622SOL     OW20764   6.558   5.733   2.062
 6622SOL    HW120765   6.596   5.692   2.145
 6622SOL    HW220766   6.563   5.666   1.987
 6623SOL     OW20767   3.370   4.085   5.036
 6623SOL    HW120768   3.446   4.027   5.005
 6623SOL    HW220769   3.394   4.128   5.123
 6624SOL     OW20770   0.617   3.730   5.883
 6624SOL    HW120771   0.665   3.676   5.814
 6624SOL    HW220772   0.640   3.827   5.871
 6625SOL     OW20773   5.446   2.124   5.021
 6625SOL    HW120774   5.374   2.069   4.979
 6625SOL    HW220775   5.433   2.220   4.997
 6626SOL     OW20776   3.362   6.766   5.819
 6626SOL    HW120777   3.461   6.758   5.807
 6626SOL    HW220778   3.343   6.821   5.900
 6627SOL     OW20779   1.820   6.326   4.071
 6627SOL    HW120780   1.864   6.394   4.130
 6627SOL    HW220781   1.753   6.372   4.012
 6628SOL     OW20782   5.074   4.683   4.037
 6628SOL    HW120783   5.042   4.732   3.956
 6628SOL    HW220784   5.171   4.664   4.029
 6629SOL     OW20785   4.351   5.560   6.592
 6629SOL    HW120786   4.427   5.533   6.650
 6629SOL    HW220787   4.379   5.558   6.496
 6630SOL     OW20788   3.252   1.467   1.904
 6630SOL    HW120789   3.313   1.388   1.907
 6630SOL    HW220790   3.258   1.517   1.991
 6631SOL     OW20791   2.287   5.564   4.291
 6631SOL    HW120792   2.239   5.477   4.303
 6631SOL    HW220793   2.356   5.574   4.362
 6632SOL     OW20794   1.455   1.042   1.008
 6632SOL    HW120795   1.515   1.002   1.077
 6632SOL    HW220796   1.369   1.069   1.051
 6633SOL     OW20797   2.542   4.815   5.999
 6633SOL    HW120798   2.611   4.776   5.939
 6633SOL    HW220799   2.528   4.912   5.977
 6634SOL     OW20800   4.552   1.833   4.868
 6634SOL    HW120801   4.559   1.784   4.955
 6634SOL    HW220802   4.523   1.771   4.796
 6635SOL     OW20803   4.869   3.973   3.392
 6635SOL    HW120804   4.945   3.926   3.436
 6635SOL    HW220805   4.805   3.906   3.355
 6636SOL     OW20806   3.218   1.669   0.759
 6636SOL    HW120807   3.143   1.627   0.810
 6636SOL    HW220808   3.292   1.690   0.823
 6637SOL     OW20809   3.040   0.261   6.071
 6637SOL    HW120810   3.071   0.312   6.151
 6637SOL    HW220811   2.952   0.217   6.091
 6638SOL     OW20812   3.243   3.650   3.260
 6638SOL    HW120813   3.194   3.687   3.339
 6638SOL    HW220814   3.191   3.575   3.220
 6639SOL     OW20815   3.518   3.665   6.466
 6639SOL    HW120816   3.505   3.762   6.484
 6639SOL    HW220817   3.593   3.653   6.400
 6640SOL     OW20818   0.129   2.351   5.136
 6640SOL    HW120819   0.091   2.274   5.085
 6640SOL    HW220820   0.158   2.423   5.073
 6641SOL     OW20821   3.876   1.471   6.892
 6641SOL    HW120822   3.945   1.398   6.899
 6641SOL    HW220823   3.785   1.431   6.893
 6642SOL     OW20824   2.291   5.429   6.140
 6642SOL    HW120825   2.268   5.373   6.220
 6642SOL    HW220826   2.374   5.394   6.097
 6643SOL     OW20827   6.508   6.829   0.722
 6643SOL    HW120828   6.576   6.758   0.703
 6643SOL    HW220829   6.476   6.819   0.817
 6644SOL     OW20830   2.135   5.867   3.214
 6644SOL    HW120831   2.209   5.802   3.231
 6644SOL    HW220832   2.153   5.952   3.263
 6645SOL     OW20833   6.119   3.103   0.834
 6645SOL    HW120834   6.202   3.150   0.807
 6645SOL    HW220835   6.089   3.042   0.761
 6646SOL     OW20836   4.499   1.053   5.724
 6646SOL    HW120837   4.452   0.965   5.732
 6646SOL    HW220838   4.595   1.037   5.701
 6647SOL     OW20839   4.279   6.585   1.033
 6647SOL    HW120840   4.350   6.581   0.963
 6647SOL    HW220841   4.320   6.574   1.123
 6648SOL     OW20842   3.365   5.893   4.554
 6648SOL    HW120843   3.342   5.809   4.604
 6648SOL    HW220844   3.382   5.966   4.620
 6649SOL     OW20845   5.777   3.114   6.641
 6649SOL    HW120846   5.764   3.052   6.719
 6649SOL    HW220847   5.731   3.075   6.561
 6650SOL     OW20848   3.615   1.616   4.982
 6650SOL    HW120849   3.531   1.611   4.928
 6650SOL    HW220850   3.607   1.559   5.063
 6651SOL     OW20851   2.014   2.061   6.581
 6651SOL    HW120852   1.965   2.008   6.650
 6651SOL    HW220853   2.070   2.131   6.626
 6652SOL     OW20854   0.600   4.894   0.190
 6652SOL    HW120855   0.513   4.917   0.233
 6652SOL    HW220856   0.583   4.852   0.101
 6653SOL     OW20857   4.964   2.913   0.769
 6653SOL    HW120858   4.914   2.865   0.841
 6653SOL    HW220859   4.928   2.887   0.680
 6654SOL     OW20860   0.494   5.345   2.651
 6654SOL    HW120861   0.545   5.406   2.589
 6654SOL    HW220862   0.504   5.251   2.620
 6655SOL     OW20863   0.134   6.084   2.303
 6655SOL    HW120864   0.186   6.102   2.386
 6655SOL    HW220865   0.173   6.136   2.227
 6656SOL     OW20866   5.403   2.414   3.166
 6656SOL    HW120867   5.408   2.318   3.137
 6656SOL    HW220868   5.450   2.471   3.099
 6657SOL     OW20869   5.822   3.042   4.956
 6657SOL    HW120870   5.745   3.002   5.005
 6657SOL    HW220871   5.908   3.004   4.990
 6658SOL     OW20872   6.774   0.058   6.090
 6658SOL    HW120873   6.676   0.078   6.097
 6658SOL    HW220874   6.824   0.141   6.068
 6659SOL     OW20875   1.192   3.768   1.768
 6659SOL    HW120876   1.220   3.847   1.713
 6659SOL    HW220877   1.100   3.782   1.802
 6660SOL     OW20878   1.756   5.439   1.624
 6660SOL    HW120879   1.841   5.479   1.589
 6660SOL    HW220880   1.724   5.493   1.702
 6661SOL     OW20881   2.775   0.716   4.953
 6661SOL    HW120882   2.752   0.812   4.970
 6661SOL    HW220883   2.699   0.672   4.905
 6662SOL     OW20884   1.972   0.886   0.628
 6662SOL    HW120885   1.906   0.884   0.703
 6662SOL    HW220886   2.024   0.800   0.628
 6663SOL     OW20887   0.606   6.552   4.852
 6663SOL    HW120888   0.610   6.542   4.753
 6663SOL    HW220889   0.511   6.557   4.882
 6664SOL     OW20890   2.132   0.414   0.792
 6664SOL    HW120891   2.041   0.423   0.751
 6664SOL    HW220892   2.171   0.326   0.768
 6665SOL     OW20893   1.569   6.635   5.582
 6665SOL    HW120894   1.656   6.595   5.554
 6665SOL    HW220895   1.553   6.719   5.529
 6666SOL     OW20896   6.142   5.344   5.552
 6666SOL    HW120897   6.107   5.417   5.494
 6666SOL    HW220898   6.130   5.256   5.505
 6667SOL     OW20899   6.607   6.530   5.831
 6667SOL    HW120900   6.550   6.530   5.913
 6667SOL    HW220901   6.565   6.472   5.761
 6668SOL     OW20902   6.669   5.987   1.149
 6668SOL    HW120903   6.601   6.051   1.112
 6668SOL    HW220904   6.722   5.947   1.074
 6669SOL     OW20905   3.325   2.140   1.542
 6669SOL    HW120906   3.330   2.202   1.621
 6669SOL    HW220907   3.310   2.047   1.575
 6670SOL     OW20908   3.728   0.862   6.113
 6670SOL    HW120909   3.696   0.772   6.143
 6670SOL    HW220910   3.827   0.861   6.103
 6671SOL     OW20911   5.747   6.571   7.007
 6671SOL    HW120912   5.730   6.521   0.065
 6671SOL    HW220913   5.786   6.510   6.938
 6672SOL     OW20914   1.024   2.509   0.305
 6672SOL    HW120915   1.060   2.598   0.333
 6672SOL    HW220916   1.098   2.454   0.266
 6673SOL     OW20917   4.887   4.271   3.553
 6673SOL    HW120918   4.793   4.300   3.571
 6673SOL    HW220919   4.904   4.275   3.454
 6674SOL     OW20920   0.804   3.406   6.835
 6674SOL    HW120921   0.889   3.458   6.845
 6674SOL    HW220922   0.726   3.468   6.842
 6675SOL     OW20923   6.123   2.393   0.402
 6675SOL    HW120924   6.118   2.477   0.456
 6675SOL    HW220925   6.136   2.315   0.463
 6676SOL     OW20926   0.432   3.165   3.094
 6676SOL    HW120927   0.470   3.118   3.173
 6676SOL    HW220928   0.373   3.240   3.124
 6677SOL     OW20929   0.577   1.015   6.512
 6677SOL    HW120930   0.490   1.064   6.498
 6677SOL    HW220931   0.559   0.917   6.516
 6678SOL     OW20932   2.553   4.693   0.907
 6678SOL    HW120933   2.576   4.764   0.974
 6678SOL    HW220934   2.579   4.604   0.942
 6679SOL     OW20935   3.840   0.846   4.028
 6679SOL    HW120936   3.815   0.856   4.125
 6679SOL    HW220937   3.935   0.875   4.016
 6680SOL     OW20938   4.546   6.458   6.575
 6680SOL    HW120939   4.639   6.495   6.580
 6680SOL    HW220940   4.535   6.387   6.645
 6681SOL     OW20941   4.862   5.326   1.035
 6681SOL    HW120942   4.790   5.266   1.069
 6681SOL    HW220943   4.836   5.363   0.945
 6682SOL     OW20944   2.319   4.883   6.769
 6682SOL    HW120945   2.349   4.802   6.718
 6682SOL    HW220946   2.399   4.936   6.798
 6683SOL     OW20947   6.186   3.155   6.019
 6683SOL    HW120948   6.121   3.129   5.947
 6683SOL    HW220949   6.211   3.251   6.008
 6684SOL     OW20950   3.877   6.448   2.204
 6684SOL    HW120951   3.931   6.466   2.121
 6684SOL    HW220952   3.882   6.351   2.227
 6685SOL     OW20953   4.894   2.502   6.011
 6685SOL    HW120954   4.971   2.509   5.947
 6685SOL    HW220955   4.887   2.407   6.043
 6686SOL     OW20956   5.671   5.940   3.700
 6686SOL    HW120957   5.667   6.037   3.722
 6686SOL    HW220958   5.650   5.886   3.782
 6687SOL     OW20959   0.664   2.740   1.937
 6687SOL    HW120960   0.582   2.794   1.920
 6687SOL    HW220961   0.676   2.728   2.036
 6688SOL     OW20962   4.004   4.353   0.181
 6688SOL    HW120963   3.929   4.392   0.233
 6688SOL    HW220964   4.078   4.420   0.171
 6689SOL     OW20965   4.517   3.624   6.109
 6689SOL    HW120966   4.420   3.634   6.086
 6689SOL    HW220967   4.530   3.543   6.166
 6690SOL     OW20968   0.727   6.618   0.825
 6690SOL    HW120969   0.772   6.567   0.751
 6690SOL    HW220970   0.726   6.561   0.907
 6691SOL     OW20971   2.087   0.460   2.543
 6691SOL    HW120972   2.167   0.404   2.520
 6691SOL    HW220973   2.103   0.506   2.630
 6692SOL     OW20974   4.381   4.043   1.705
 6692SOL    HW120975   4.467   4.056   1.755
 6692SOL    HW220976   4.345   3.952   1.725
 6693SOL     OW20977   4.464   2.143   4.898
 6693SOL    HW120978   4.444   2.240   4.909
 6693SOL    HW220979   4.561   2.126   4.914
 6694SOL     OW20980   4.346   6.487   1.280
 6694SOL    HW120981   4.380   6.556   1.344
 6694SOL    HW220982   4.307   6.410   1.331
 6695SOL     OW20983   2.578   2.242   6.854
 6695SOL    HW120984   2.504   2.203   6.909
 6695SOL    HW220985   2.575   2.203   6.762
 6696SOL     OW20986   3.812   3.025   3.910
 6696SOL    HW120987   3.725   2.993   3.947
 6696SOL    HW220988   3.840   2.966   3.834
 6697SOL     OW20989   4.619   2.418   3.083
 6697SOL    HW120990   4.716   2.415   3.107
 6697SOL    HW220991   4.609   2.434   2.985
 6698SOL     OW20992   3.412   3.315   0.706
 6698SOL    HW120993   3.359   3.251   0.762
 6698SOL    HW220994   3.364   3.331   0.619
 6699SOL     OW20995   2.158   6.783   5.502
 6699SOL    HW120996   2.105   6.785   5.417
 6699SOL    HW220997   2.178   6.688   5.526
 6700SOL     OW20998   6.480   1.387   1.194
 6700SOL    HW120999   6.511   1.479   1.218
 6700SOL    HW221000   6.380   1.384   1.194
 6701SOL     OW21001   5.473   6.147   1.752
 6701SOL    HW121002   5.431   6.069   1.798
 6701SOL    HW221003   5.547   6.183   1.810
 6702SOL     OW21004   1.823   2.544   2.013
 6702SOL    HW121005   1.918   2.552   2.041
 6702SOL    HW221006   1.763   2.558   2.092
 6703SOL     OW21007   0.923   1.140   0.137
 6703SOL    HW121008   0.867   1.211   0.095
 6703SOL    HW221009   1.008   1.131   0.086
 6704SOL     OW21010   3.953   2.170   4.349
 6704SOL    HW121011   3.901   2.175   4.264
 6704SOL    HW221012   3.890   2.165   4.427
 6705SOL     OW21013   6.050   2.629   0.830
 6705SOL    HW121014   6.128   2.684   0.861
 6705SOL    HW221015   5.993   2.606   0.909
 6706SOL     OW21016   1.408   5.751   0.530
 6706SOL    HW121017   1.445   5.661   0.554
 6706SOL    HW221018   1.402   5.807   0.612
 6707SOL     OW21019   5.266   6.742   3.570
 6707SOL    HW121020   5.288   6.835   3.543
 6707SOL    HW221021   5.322   6.716   3.649
 6708SOL     OW21022   5.744   5.452   1.321
 6708SOL    HW121023   5.810   5.408   1.381
 6708SOL    HW221024   5.669   5.389   1.300
 6709SOL     OW21025   0.588   5.248   3.253
 6709SOL    HW121026   0.594   5.181   3.179
 6709SOL    HW221027   0.654   5.321   3.237
 6710SOL     OW21028   4.510   0.925   7.024
 6710SOL    HW121029   4.492   1.004   0.057
 6710SOL    HW221030   4.437   0.858   0.009
 6711SOL     OW21031   4.800   6.471   5.788
 6711SOL    HW121032   4.891   6.444   5.756
 6711SOL    HW221033   4.790   6.571   5.780
 6712SOL     OW21034   5.818   3.248   1.201
 6712SOL    HW121035   5.839   3.183   1.275
 6712SOL    HW221036   5.832   3.341   1.234
 6713SOL     OW21037   1.219   0.637   3.095
 6713SOL    HW121038   1.190   0.549   3.057
 6713SOL    HW221039   1.141   0.683   3.135
 6714SOL     OW21040   5.697   1.508   0.560
 6714SOL    HW121041   5.611   1.537   0.518
 6714SOL    HW221042   5.709   1.554   0.647
 6715SOL     OW21043   1.599   0.186   1.193
 6715SOL    HW121044   1.665   0.110   1.196
 6715SOL    HW221045   1.543   0.184   1.276
 6716SOL     OW21046   0.582   5.448   2.243
 6716SOL    HW121047   0.600   5.464   2.340
 6716SOL    HW221048   0.588   5.535   2.194
 6717SOL     OW21049   2.166   2.203   6.338
 6717SOL    HW121050   2.088   2.261   6.361
 6717SOL    HW221051   2.184   2.141   6.414
 6718SOL     OW21052   4.803   0.018   1.124
 6718SOL    HW121053   4.877   0.029   1.057
 6718SOL    HW221054   4.735   6.980   1.088
 6719SOL     OW21055   2.399   6.923   0.443
 6719SOL    HW121056   2.494   6.930   0.412
 6719SOL    HW221057   2.349   7.004   0.414
 6720SOL     OW21058   2.355   1.052   4.032
 6720SOL    HW121059   2.316   1.113   3.962
 6720SOL    HW221060   2.362   1.100   4.119
 6721SOL     OW21061   6.728   6.670   0.775
 6721SOL    HW121062   6.774   6.707   0.856
 6721SOL    HW221063   6.769   6.582   0.751
 6722SOL     OW21064   0.150   2.885   0.044
 6722SOL    HW121065   0.120   2.796   0.079
 6722SOL    HW221066   0.072   2.948   0.043
 6723SOL     OW21067   1.438   6.927   5.194
 6723SOL    HW121068   1.425   6.936   5.293
 6723SOL    HW221069   1.526   6.884   5.175
 6724SOL     OW21070   2.218   2.608   6.403
 6724SOL    HW121071   2.184   2.659   6.324
 6724SOL    HW221072   2.314   2.632   6.419
 6725SOL     OW21073   7.025   1.937   2.519
 6725SOL    HW121074   6.953   1.905   2.457
 6725SOL    HW221075   0.074   1.975   2.465
 6726SOL     OW21076   0.327   2.377   3.775
 6726SOL    HW121077   0.402   2.316   3.752
 6726SOL    HW221078   0.260   2.378   3.701
 6727SOL     OW21079   0.175   4.499   6.047
 6727SOL    HW121080   0.099   4.491   5.982
 6727SOL    HW221081   0.172   4.589   6.091
 6728SOL     OW21082   3.972   1.884   2.587
 6728SOL    HW121083   3.972   1.983   2.568
 6728SOL    HW221084   3.976   1.834   2.500
 6729SOL     OW21085   0.048   1.507   0.608
 6729SOL    HW121086   7.014   1.572   0.654
 6729SOL    HW221087   0.115   1.471   0.674
 6730SOL     OW21088   1.890   0.111   0.907
 6730SOL    HW121089   1.866   0.180   0.976
 6730SOL    HW221090   1.977   0.069   0.931
 6731SOL     OW21091   1.291   0.026   0.753
 6731SOL    HW121092   1.225   0.024   0.828
 6731SOL    HW221093   1.381   7.024   0.787
 6732SOL     OW21094   5.378   4.664   4.651
 6732SOL    HW121095   5.319   4.590   4.617
 6732SOL    HW221096   5.324   4.727   4.706
 6733SOL     OW21097   3.842   5.504   6.088
 6733SOL    HW121098   3.799   5.485   6.177
 6733SOL    HW221099   3.940   5.520   6.102
 6734SOL     OW21100   5.581   2.245   5.660
 6734SOL    HW121101   5.602   2.335   5.623
 6734SOL    HW221102   5.608   2.175   5.595
 6735SOL     OW21103   5.843   3.388   4.646
 6735SOL    HW121104   5.940   3.408   4.659
 6735SOL    HW221105   5.793   3.472   4.629
 6736SOL     OW21106   3.351   3.842   6.015
 6736SOL    HW121107   3.287   3.771   6.047
 6736SOL    HW221108   3.348   3.920   6.078
 6737SOL     OW21109   1.552   3.251   1.300
 6737SOL    HW121110   1.640   3.227   1.341
 6737SOL    HW221111   1.555   3.232   1.202
 6738SOL     OW21112   1.902   5.694   4.256
 6738SOL    HW121113   1.839   5.772   4.259
 6738SOL    HW221114   1.976   5.710   4.321
 6739SOL     OW21115   5.950   5.915   3.974
 6739SOL    HW121116   5.851   5.909   3.960
 6739SOL    HW221117   5.974   6.006   4.008
 6740SOL     OW21118   6.341   0.676   5.732
 6740SOL    HW121119   6.359   0.705   5.826
 6740SOL    HW221120   6.273   0.738   5.691
 6741SOL     OW21121   3.597   2.208   5.463
 6741SOL    HW121122   3.521   2.234   5.403
 6741SOL    HW221123   3.657   2.287   5.477
 6742SOL     OW21124   5.290   5.696   3.522
 6742SOL    HW121125   5.328   5.726   3.609
 6742SOL    HW221126   5.361   5.702   3.451
 6743SOL     OW21127   3.710   4.003   6.157
 6743SOL    HW121128   3.725   4.101   6.174
 6743SOL    HW221129   3.741   3.980   6.065
 6744SOL     OW21130   0.397   6.332   5.200
 6744SOL    HW121131   0.384   6.424   5.164
 6744SOL    HW221132   0.482   6.293   5.162
 6745SOL     OW21133   6.685   6.085   3.901
 6745SOL    HW121134   6.691   6.144   3.820
 6745SOL    HW221135   6.711   5.991   3.876
 6746SOL     OW21136   1.001   0.031   3.707
 6746SOL    HW121137   1.066   0.074   3.643
 6746SOL    HW221138   0.959   6.978   3.663
 6747SOL     OW21139   5.822   0.356   6.939
 6747SOL    HW121140   5.861   0.264   6.929
 6747SOL    HW221141   5.810   0.377   0.009
 6748SOL     OW21142   3.701   1.739   3.051
 6748SOL    HW121143   3.784   1.768   3.004
 6748SOL    HW221144   3.621   1.757   2.993
 6749SOL     OW21145   4.004   4.151   1.044
 6749SOL    HW121146   4.088   4.098   1.035
 6749SOL    HW221147   4.015   4.220   1.116
 6750SOL     OW21148   2.965   1.851   4.373
 6750SOL    HW121149   2.900   1.834   4.299
 6750SOL    HW221150   2.995   1.947   4.369
 6751SOL     OW21151   4.643   0.699   3.428
 6751SOL    HW121152   4.703   0.630   3.469
 6751SOL    HW221153   4.692   0.786   3.422
 6752SOL     OW21154   2.278   0.120   2.633
 6752SOL    HW121155   2.343   0.176   2.685
 6752SOL    HW221156   2.188   0.125   2.676
 6753SOL     OW21157   3.693   1.445   6.216
 6753SOL    HW121158   3.780   1.489   6.240
 6753SOL    HW221159   3.621   1.479   6.275
 6754SOL     OW21160   6.635   0.589   0.776
 6754SOL    HW121161   6.573   0.516   0.804
 6754SOL    HW221162   6.630   0.600   0.676
 6755SOL     OW21163   4.201   3.655   1.365
 6755SOL    HW121164   4.161   3.744   1.390
 6755SOL    HW221165   4.301   3.664   1.360
 6756SOL     OW21166   3.733   6.349   5.462
 6756SOL    HW121167   3.671   6.271   5.464
 6756SOL    HW221168   3.798   6.343   5.537
 6757SOL     OW21169   3.606   2.490   0.399
 6757SOL    HW121170   3.652   2.478   0.487
 6757SOL    HW221171   3.517   2.443   0.401
 6758SOL     OW21172   6.214   2.974   1.821
 6758SOL    HW121173   6.128   3.013   1.855
 6758SOL    HW221174   6.274   2.954   1.899
 6759SOL     OW21175   0.405   3.343   2.708
 6759SOL    HW121176   0.438   3.432   2.677
 6759SOL    HW221177   0.390   3.284   2.629
 6760SOL     OW21178   6.561   3.856   2.450
 6760SOL    HW121179   6.641   3.796   2.438
 6760SOL    HW221180   6.480   3.801   2.465
 6761SOL     OW21181   6.343   2.550   4.963
 6761SOL    HW121182   6.283   2.590   4.894
 6761SOL    HW221183   6.429   2.522   4.921
 6762SOL     OW21184   0.598   4.752   3.865
 6762SOL    HW121185   0.503   4.755   3.896
 6762SOL    HW221186   0.645   4.675   3.907
 6763SOL     OW21187   5.843   4.996   4.026
 6763SOL    HW121188   5.884   5.072   4.076
 6763SOL    HW221189   5.879   4.996   3.932
 6764SOL     OW21190   2.518   5.436   1.516
 6764SOL    HW121191   2.455   5.424   1.439
 6764SOL    HW221192   2.550   5.531   1.519
 6765SOL     OW21193   5.542   5.146   3.112
 6765SOL    HW121194   5.467   5.203   3.145
 6765SOL    HW221195   5.612   5.205   3.069
 6766SOL     OW21196   5.447   6.571   5.535
 6766SOL    HW121197   5.409   6.623   5.611
 6766SOL    HW221198   5.432   6.473   5.551
 6767SOL     OW21199   2.974   0.753   1.602
 6767SOL    HW121200   2.900   0.809   1.639
 6767SOL    HW221201   2.948   0.719   1.511
 6768SOL     OW21202   1.982   0.483   5.327
 6768SOL    HW121203   2.067   0.492   5.275
 6768SOL    HW221204   1.942   0.392   5.311
 6769SOL     OW21205   3.284   1.392   0.669
 6769SOL    HW121206   3.315   1.386   0.575
 6769SOL    HW221207   3.272   1.488   0.694
 6770SOL     OW21208   6.998   0.734   2.078
 6770SOL    HW121209   0.019   0.699   1.998
 6770SOL    HW221210   0.020   0.705   2.161
 6771SOL     OW21211   5.093   2.676   3.383
 6771SOL    HW121212   5.148   2.743   3.434
 6771SOL    HW221213   4.996   2.695   3.397
 6772SOL     OW21214   3.973   1.899   3.125
 6772SOL    HW121215   3.985   1.899   3.224
 6772SOL    HW221216   3.947   1.991   3.094
 6773SOL     OW21217   6.472   5.196   2.623
 6773SOL    HW121218   6.496   5.252   2.703
 6773SOL    HW221219   6.555   5.154   2.586
 6774SOL     OW21220   0.787   2.281   5.611
 6774SOL    HW121221   0.823   2.308   5.522
 6774SOL    HW221222   0.773   2.182   5.612
 6775SOL     OW21223   2.555   2.666   1.802
 6775SOL    HW121224   2.601   2.742   1.755
 6775SOL    HW221225   2.457   2.669   1.782
 6776SOL     OW21226   4.476   5.271   0.243
 6776SOL    HW121227   4.533   5.226   0.312
 6776SOL    HW221228   4.398   5.314   0.288
 6777SOL     OW21229   4.475   4.439   0.140
 6777SOL    HW121230   4.383   4.462   0.169
 6777SOL    HW221231   4.478   4.431   0.040
 6778SOL     OW21232   6.031   4.761   1.980
 6778SOL    HW121233   6.013   4.725   1.888
 6778SOL    HW221234   6.002   4.694   2.048
 6779SOL     OW21235   6.294   5.671   6.655
 6779SOL    HW121236   6.326   5.707   6.743
 6779SOL    HW221237   6.360   5.606   6.619
 6780SOL     OW21238   1.173   3.130   2.066
 6780SOL    HW121239   1.178   3.213   2.011
 6780SOL    HW221240   1.228   3.058   2.024
 6781SOL     OW21241   6.668   1.048   4.324
 6781SOL    HW121242   6.711   0.958   4.332
 6781SOL    HW221243   6.571   1.040   4.344
 6782SOL     OW21244   6.782   0.543   3.714
 6782SOL    HW121245   6.706   0.492   3.673
 6782SOL    HW221246   6.808   0.618   3.654
 6783SOL     OW21247   6.421   1.942   5.903
 6783SOL    HW121248   6.323   1.962   5.899
 6783SOL    HW221249   6.439   1.875   5.975
 6784SOL     OW21250   2.470   3.742   1.050
 6784SOL    HW121251   2.447   3.829   1.092
 6784SOL    HW221252   2.486   3.755   0.952
 6785SOL     OW21253   5.477   5.110   3.570
 6785SOL    HW121254   5.574   5.088   3.567
 6785SOL    HW221255   5.465   5.209   3.582
 6786SOL     OW21256   2.006   2.123   6.878
 6786SOL    HW121257   1.998   2.150   6.974
 6786SOL    HW221258   2.089   2.162   6.839
 6787SOL     OW21259   1.790   2.742   1.487
 6787SOL    HW121260   1.781   2.766   1.584
 6787SOL    HW221261   1.879   2.772   1.453
 6788SOL     OW21262   2.265   4.319   1.442
 6788SOL    HW121263   2.322   4.396   1.411
 6788SOL    HW221264   2.188   4.308   1.380
 6789SOL     OW21265   6.753   5.364   3.599
 6789SOL    HW121266   6.661   5.400   3.581
 6789SOL    HW221267   6.746   5.276   3.645
 6790SOL     OW21268   0.829   3.781   1.508
 6790SOL    HW121269   0.872   3.796   1.597
 6790SOL    HW221270   0.731   3.797   1.515
 6791SOL     OW21271   3.610   2.257   1.417
 6791SOL    HW121272   3.543   2.195   1.457
 6791SOL    HW221273   3.685   2.271   1.481
 6792SOL     OW21274   6.552   5.987   5.151
 6792SOL    HW121275   6.555   5.935   5.065
 6792SOL    HW221276   6.589   5.931   5.225
 6793SOL     OW21277   1.211   1.751   1.105
 6793SOL    HW121278   1.146   1.781   1.034
 6793SOL    HW221279   1.165   1.686   1.166
 6794SOL     OW21280   5.017   1.674   6.002
 6794SOL    HW121281   5.108   1.675   5.961
 6794SOL    HW221282   5.008   1.750   6.067
 6795SOL     OW21283   2.320   6.950   1.615
 6795SOL    HW121284   2.226   6.917   1.629
 6795SOL    HW221285   2.356   6.985   1.701
 6796SOL     OW21286   6.241   0.949   2.117
 6796SOL    HW121287   6.280   1.031   2.076
 6796SOL    HW221288   6.244   0.874   2.051
 6797SOL     OW21289   5.559   2.462   2.058
 6797SOL    HW121290   5.620   2.406   2.003
 6797SOL    HW221291   5.483   2.494   2.000
 6798SOL     OW21292   4.582   6.868   2.095
 6798SOL    HW121293   4.620   6.913   2.014
 6798SOL    HW221294   4.614   6.915   2.177
 6799SOL     OW21295   6.368   6.342   1.458
 6799SOL    HW121296   6.372   6.245   1.434
 6799SOL    HW221297   6.273   6.374   1.449
 6800SOL     OW21298   1.940   3.694   1.738
 6800SOL    HW121299   1.854   3.681   1.789
 6800SOL    HW221300   1.956   3.615   1.679
 6801SOL     OW21301   0.438   0.178   3.061
 6801SOL    HW121302   0.446   0.094   3.007
 6801SOL    HW221303   0.528   0.217   3.076
 6802SOL     OW21304   3.431   5.562   0.819
 6802SOL    HW121305   3.348   5.512   0.793
 6802SOL    HW221306   3.468   5.608   0.738
 6803SOL     OW21307   5.050   3.261   6.137
 6803SOL    HW121308   5.076   3.218   6.051
 6803SOL    HW221309   5.095   3.350   6.146
 6804SOL     OW21310   3.742   5.120   3.698
 6804SOL    HW121311   3.787   5.031   3.688
 6804SOL    HW221312   3.810   5.193   3.696
 6805SOL     OW21313   6.651   4.753   6.465
 6805SOL    HW121314   6.694   4.664   6.452
 6805SOL    HW221315   6.560   4.741   6.505
 6806SOL     OW21316   5.806   0.433   4.220
 6806SOL    HW121317   5.811   0.529   4.191
 6806SOL    HW221318   5.722   0.392   4.185
 6807SOL     OW21319   3.318   3.214   0.021
 6807SOL    HW121320   3.260   3.135   0.003
 6807SOL    HW221321   3.410   3.183   0.044
 6808SOL     OW21322   7.019   1.803   4.752
 6808SOL    HW121323   6.972   1.762   4.830
 6808SOL    HW221324   0.055   1.874   4.785
 6809SOL     OW21325   1.308   3.133   1.369
 6809SOL    HW121326   1.356   3.204   1.318
 6809SOL    HW221327   1.225   3.107   1.321
 6810SOL     OW21328   1.924   0.496   2.340
 6810SOL    HW121329   1.993   0.477   2.410
 6810SOL    HW221330   1.917   0.595   2.326
 6811SOL     OW21331   5.976   3.801   0.895
 6811SOL    HW121332   5.981   3.805   0.795
 6811SOL    HW221333   5.973   3.705   0.923
 6812SOL     OW21334   3.140   3.491   3.052
 6812SOL    HW121335   3.055   3.543   3.062
 6812SOL    HW221336   3.168   3.492   2.956
 6813SOL     OW21337   4.883   2.160   2.622
 6813SOL    HW121338   4.949   2.150   2.696
 6813SOL    HW221339   4.792   2.176   2.659
 6814SOL     OW21340   3.247   1.631   5.792
 6814SOL    HW121341   3.296   1.547   5.770
 6814SOL    HW221342   3.203   1.666   5.709
 6815SOL     OW21343   3.386   0.028   1.568
 6815SOL    HW121344   3.360   6.957   1.563
 6815SOL    HW221345   3.322   0.075   1.630
 6816SOL     OW21346   0.452   0.103   6.877
 6816SOL    HW121347   0.391   0.140   6.806
 6816SOL    HW221348   0.417   0.014   6.907
 6817SOL     OW21349   1.758   2.560   3.329
 6817SOL    HW121350   1.729   2.527   3.419
 6817SOL    HW221351   1.850   2.526   3.310
 6818SOL     OW21352   3.263   5.416   2.031
 6818SOL    HW121353   3.174   5.443   2.068
 6818SOL    HW221354   3.318   5.498   2.015
 6819SOL     OW21355   5.227   0.858   4.105
 6819SOL    HW121356   5.223   0.841   4.006
 6819SOL    HW221357   5.153   0.920   4.130
 6820SOL     OW21358   2.128   5.778   2.812
 6820SOL    HW121359   2.108   5.686   2.847
 6820SOL    HW221360   2.164   5.771   2.719
 6821SOL     OW21361   3.733   1.599   4.245
 6821SOL    HW121362   3.830   1.580   4.230
 6821SOL    HW221363   3.699   1.543   4.321
 6822SOL     OW21364   5.855   2.382   6.602
 6822SOL    HW121365   5.774   2.362   6.658
 6822SOL    HW221366   5.826   2.431   6.520
 6823SOL     OW21367   3.970   3.063   4.668
 6823SOL    HW121368   4.040   3.130   4.693
 6823SOL    HW221369   3.976   3.044   4.570
 6824SOL     OW21370   0.845   2.387   6.763
 6824SOL    HW121371   0.891   2.422   6.845
 6824SOL    HW221372   0.751   2.420   6.761
 6825SOL     OW21373   5.089   6.897   2.243
 6825SOL    HW121374   5.166   6.873   2.302
 6825SOL    HW221375   5.008   6.847   2.272
 6826SOL     OW21376   1.934   4.021   2.632
 6826SOL    HW121377   2.004   3.950   2.647
 6826SOL    HW221378   1.884   4.001   2.547
 6827SOL     OW21379   4.420   5.423   6.325
 6827SOL    HW121380   4.493   5.355   6.338
 6827SOL    HW221381   4.356   5.388   6.257
 6828SOL     OW21382   2.863   2.458   1.543
 6828SOL    HW121383   2.788   2.451   1.477
 6828SOL    HW221384   2.838   2.410   1.627
 6829SOL     OW21385   4.348   6.828   4.396
 6829SOL    HW121386   4.257   6.787   4.393
 6829SOL    HW221387   4.414   6.761   4.430
 6830SOL     OW21388   4.982   1.054   4.060
 6830SOL    HW121389   4.932   1.009   4.134
 6830SOL    HW221390   4.935   1.140   4.036
 6831SOL     OW21391   1.363   0.812   6.888
 6831SOL    HW121392   1.403   0.757   6.962
 6831SOL    HW221393   1.312   0.752   6.826
 6832SOL     OW21394   2.459   4.527   1.413
 6832SOL    HW121395   2.515   4.444   1.414
 6832SOL    HW221396   2.519   4.607   1.421
 6833SOL     OW21397   4.095   4.073   6.402
 6833SOL    HW121398   4.067   4.167   6.423
 6833SOL    HW221399   4.105   4.062   6.303
 6834SOL     OW21400   5.046   6.351   0.705
 6834SOL    HW121401   5.049   6.353   0.805
 6834SOL    HW221402   5.130   6.311   0.669
 6835SOL     OW21403   3.504   0.390   4.025
 6835SOL    HW121404   3.435   0.461   4.011
 6835SOL    HW221405   3.460   0.300   4.020
 6836SOL     OW21406   2.723   5.563   0.165
 6836SOL    HW121407   2.627   5.570   0.136
 6836SOL    HW221408   2.728   5.566   0.265
 6837SOL     OW21409   1.031   2.006   2.641
 6837SOL    HW121410   1.072   2.098   2.642
 6837SOL    HW221411   1.077   1.950   2.572
 6838SOL     OW21412   3.063   6.352   0.462
 6838SOL    HW121413   3.097   6.279   0.520
 6838SOL    HW221414   3.029   6.427   0.520
 6839SOL     OW21415   5.059   0.722   0.175
 6839SOL    HW121416   5.085   0.688   0.265
 6839SOL    HW221417   5.133   0.706   0.110
 6840SOL     OW21418   3.298   1.305   4.924
 6840SOL    HW121419   3.398   1.294   4.918
 6840SOL    HW221420   3.262   1.242   4.993
 6841SOL     OW21421   4.966   4.178   6.466
 6841SOL    HW121422   5.014   4.180   6.554
 6841SOL    HW221423   4.916   4.092   6.458
 6842SOL     OW21424   3.190   4.194   1.167
 6842SOL    HW121425   3.100   4.153   1.181
 6842SOL    HW221426   3.257   4.148   1.224
 6843SOL     OW21427   6.105   6.765   0.917
 6843SOL    HW121428   6.062   6.692   0.969
 6843SOL    HW221429   6.073   6.854   0.951
 6844SOL     OW21430   5.555   0.501   4.395
 6844SOL    HW121431   5.620   0.466   4.328
 6844SOL    HW221432   5.583   0.593   4.423
 6845SOL     OW21433   6.212   3.692   3.166
 6845SOL    HW121434   6.187   3.625   3.096
 6845SOL    HW221435   6.185   3.784   3.135
 6846SOL     OW21436   3.873   3.293   0.189
 6846SOL    HW121437   3.773   3.297   0.181
 6846SOL    HW221438   3.912   3.381   0.162
 6847SOL     OW21439   6.881   3.622   4.827
 6847SOL    HW121440   6.850   3.586   4.915
 6847SOL    HW221441   6.819   3.696   4.799
 6848SOL     OW21442   4.939   4.688   3.542
 6848SOL    HW121443   4.877   4.658   3.469
 6848SOL    HW221444   4.975   4.779   3.520
 6849SOL     OW21445   4.829   4.077   5.290
 6849SOL    HW121446   4.828   4.016   5.211
 6849SOL    HW221447   4.874   4.163   5.265
 6850SOL     OW21448   5.378   3.192   2.932
 6850SOL    HW121449   5.340   3.266   2.877
 6850SOL    HW221450   5.315   3.115   2.933
 6851SOL     OW21451   0.023   2.240   3.171
 6851SOL    HW121452   6.984   2.167   3.192
 6851SOL    HW221453   0.116   2.203   3.175
 6852SOL     OW21454   2.652   4.726   1.373
 6852SOL    HW121455   2.668   4.766   1.463
 6852SOL    HW221456   2.615   4.796   1.311
 6853SOL     OW21457   5.676   4.459   6.726
 6853SOL    HW121458   5.724   4.534   6.771
 6853SOL    HW221459   5.622   4.494   6.650
 6854SOL     OW21460   5.050   0.792   5.438
 6854SOL    HW121461   5.057   0.883   5.397
 6854SOL    HW221462   5.057   0.800   5.538
 6855SOL     OW21463   4.334   6.161   3.732
 6855SOL    HW121464   4.295   6.227   3.669
 6855SOL    HW221465   4.330   6.069   3.692
 6856SOL     OW21466   0.260   2.542   4.974
 6856SOL    HW121467   0.272   2.569   4.878
 6856SOL    HW221468   0.294   2.616   5.033
 6857SOL     OW21469   1.652   2.766   6.616
 6857SOL    HW121470   1.747   2.738   6.631
 6857SOL    HW221471   1.601   2.755   6.702
 6858SOL     OW21472   4.087   4.140   1.685
 6858SOL    HW121473   4.166   4.179   1.733
 6858SOL    HW221474   4.020   4.108   1.752
 6859SOL     OW21475   1.057   1.166   1.438
 6859SOL    HW121476   1.115   1.231   1.487
 6859SOL    HW221477   1.025   1.208   1.353
 6860SOL     OW21478   0.385   4.909   1.184
 6860SOL    HW121479   0.439   4.988   1.155
 6860SOL    HW221480   0.440   4.826   1.180
 6861SOL     OW21481   4.747   3.975   6.409
 6861SOL    HW121482   4.680   3.996   6.480
 6861SOL    HW221483   4.714   4.010   6.321
 6862SOL     OW21484   0.941   5.771   5.435
 6862SOL    HW121485   0.921   5.727   5.348
 6862SOL    HW221486   1.040   5.788   5.442
 6863SOL     OW21487   6.329   6.657   5.909
 6863SOL    HW121488   6.268   6.585   5.876
 6863SOL    HW221489   6.344   6.723   5.835
 6864SOL     OW21490   2.573   4.793   5.442
 6864SOL    HW121491   2.618   4.742   5.368
 6864SOL    HW221492   2.623   4.779   5.527
 6865SOL     OW21493   0.357   6.569   4.325
 6865SOL    HW121494   0.432   6.528   4.273
 6865SOL    HW221495   0.338   6.512   4.405
 6866SOL     OW21496   5.736   5.347   3.044
 6866SOL    HW121497   5.833   5.327   3.061
 6866SOL    HW221498   5.726   5.383   2.951
 6867SOL     OW21499   2.127   3.692   1.932
 6867SOL    HW121500   2.153   3.596   1.941
 6867SOL    HW221501   2.051   3.700   1.867
 6868SOL     OW21502   2.078   6.668   6.231
 6868SOL    HW121503   2.141   6.673   6.154
 6868SOL    HW221504   2.059   6.573   6.253
 6869SOL     OW21505   4.878   0.746   6.068
 6869SOL    HW121506   4.955   0.730   6.129
 6869SOL    HW221507   4.877   0.677   5.996
 6870SOL     OW21508   0.245   4.500   1.041
 6870SOL    HW121509   0.210   4.525   0.950
 6870SOL    HW221510   0.344   4.509   1.042
 6871SOL     OW21511   6.111   4.229   2.797
 6871SOL    HW121512   6.059   4.183   2.725
 6871SOL    HW221513   6.050   4.252   2.872
 6872SOL     OW21514   0.302   2.496   1.680
 6872SOL    HW121515   0.299   2.596   1.685
 6872SOL    HW221516   0.217   2.458   1.717
 6873SOL     OW21517   0.059   3.000   4.482
 6873SOL    HW121518   0.107   3.083   4.510
 6873SOL    HW221519   0.051   2.998   4.382
 6874SOL     OW21520   0.002   4.806   3.403
 6874SOL    HW121521   6.962   4.842   3.469
 6874SOL    HW221522   0.094   4.819   3.439
 6875SOL     OW21523   2.035   1.878   2.552
 6875SOL    HW121524   2.076   1.791   2.526
 6875SOL    HW221525   2.091   1.953   2.518
 6876SOL     OW21526   4.239   0.185   3.526
 6876SOL    HW121527   4.303   0.109   3.539
 6876SOL    HW221528   4.160   0.172   3.585
 6877SOL     OW21529   3.188   4.387   1.446
 6877SOL    HW121530   3.201   4.290   1.428
 6877SOL    HW221531   3.220   4.408   1.539
 6878SOL     OW21532   3.179   1.742   3.972
 6878SOL    HW121533   3.227   1.828   3.959
 6878SOL    HW221534   3.245   1.668   3.987
 6879SOL     OW21535   1.946   2.816   0.696
 6879SOL    HW121536   1.983   2.741   0.751
 6879SOL    HW221537   1.981   2.809   0.603
 6880SOL     OW21538   1.198   5.829   5.561
 6880SOL    HW121539   1.261   5.857   5.488
 6880SOL    HW221540   1.196   5.899   5.632
 6881SOL     OW21541   1.196   4.020   1.622
 6881SOL    HW121542   1.110   4.036   1.670
 6881SOL    HW221543   1.183   4.034   1.524
 6882SOL     OW21544   2.582   0.506   0.453
 6882SOL    HW121545   2.575   0.599   0.416
 6882SOL    HW221546   2.677   0.476   0.451
 6883SOL     OW21547   5.075   1.935   0.544
 6883SOL    HW121548   5.170   1.918   0.519
 6883SOL    HW221549   5.071   1.995   0.624
 6884SOL     OW21550   0.920   4.117   3.217
 6884SOL    HW121551   1.003   4.149   3.172
 6884SOL    HW221552   0.854   4.087   3.148
 6885SOL     OW21553   4.603   4.879   3.343
 6885SOL    HW121554   4.620   4.783   3.322
 6885SOL    HW221555   4.604   4.893   3.442
 6886SOL     OW21556   0.005   1.281   4.444
 6886SOL    HW121557   0.050   1.318   4.526
 6886SOL    HW221558   0.041   1.190   4.425
 6887SOL     OW21559   4.516   5.455   6.804
 6887SOL    HW121560   4.603   5.505   6.804
 6887SOL    HW221561   4.524   5.373   6.861
 6888SOL     OW21562   5.217   5.176   6.644
 6888SOL    HW121563   5.119   5.156   6.649
 6888SOL    HW221564   5.231   5.261   6.594
 6889SOL     OW21565   1.636   2.759   6.332
 6889SOL    HW121566   1.634   2.859   6.327
 6889SOL    HW221567   1.651   2.731   6.426
 6890SOL     OW21568   4.302   6.325   2.162
 6890SOL    HW121569   4.313   6.227   2.179
 6890SOL    HW221570   4.247   6.365   2.235
 6891SOL     OW21571   1.817   4.173   1.672
 6891SOL    HW121572   1.878   4.245   1.705
 6891SOL    HW221573   1.869   4.088   1.662
 6892SOL     OW21574   3.632   2.104   4.072
 6892SOL    HW121575   3.627   2.009   4.040
 6892SOL    HW221576   3.727   2.130   4.085
 6893SOL     OW21577   4.728   3.816   6.705
 6893SOL    HW121578   4.781   3.856   6.780
 6893SOL    HW221579   4.663   3.883   6.670
 6894SOL     OW21580   5.920   4.622   1.463
 6894SOL    HW121581   5.915   4.546   1.399
 6894SOL    HW221582   5.864   4.698   1.430
 6895SOL     OW21583   1.898   5.240   1.345
 6895SOL    HW121584   1.804   5.259   1.374
 6895SOL    HW221585   1.900   5.152   1.297
 6896SOL     OW21586   3.247   1.884   3.532
 6896SOL    HW121587   3.345   1.866   3.523
 6896SOL    HW221588   3.233   1.981   3.549
 6897SOL     OW21589   4.924   3.604   4.835
 6897SOL    HW121590   4.907   3.682   4.775
 6897SOL    HW221591   4.872   3.615   4.919
 6898SOL     OW21592   4.176   1.539   1.363
 6898SOL    HW121593   4.086   1.578   1.346
 6898SOL    HW221594   4.225   1.527   1.276
 6899SOL     OW21595   4.460   6.026   2.004
 6899SOL    HW121596   4.465   5.975   2.090
 6899SOL    HW221597   4.541   6.084   1.995
 6900SOL     OW21598   6.807   5.265   4.726
 6900SOL    HW121599   6.812   5.170   4.758
 6900SOL    HW221600   6.717   5.281   4.686
 6901SOL     OW21601   6.252   6.542   6.231
 6901SOL    HW121602   6.215   6.589   6.312
 6901SOL    HW221603   6.216   6.585   6.148
 6902SOL     OW21604   6.382   5.504   6.013
 6902SOL    HW121605   6.367   5.408   6.034
 6902SOL    HW221606   6.354   5.522   5.918
 6903SOL     OW21607   3.437   4.918   5.115
 6903SOL    HW121608   3.377   4.996   5.099
 6903SOL    HW221609   3.386   4.846   5.163
 6904SOL     OW21610   5.849   0.442   6.097
 6904SOL    HW121611   5.933   0.472   6.141
 6904SOL    HW221612   5.772   0.458   6.158
 6905SOL     OW21613   5.524   5.777   6.929
 6905SOL    HW121614   5.531   5.871   6.897
 6905SOL    HW221615   5.521   5.776   0.003
 6906SOL     OW21616   3.917   1.397   3.885
 6906SOL    HW121617   3.891   1.493   3.897
 6906SOL    HW221618   3.860   1.339   3.943
 6907SOL     OW21619   5.950   2.400   1.449
 6907SOL    HW121620   5.923   2.337   1.376
 6907SOL    HW221621   5.879   2.401   1.519
 6908SOL     OW21622   2.047   5.538   6.229
 6908SOL    HW121623   2.146   5.528   6.230
 6908SOL    HW221624   2.013   5.524   6.136
 6909SOL     OW21625   5.269   3.661   0.587
 6909SOL    HW121626   5.366   3.679   0.606
 6909SOL    HW221627   5.227   3.742   0.547
 6910SOL     OW21628   1.225   3.491   3.307
 6910SOL    HW121629   1.209   3.403   3.352
 6910SOL    HW221630   1.160   3.558   3.342
 6911SOL     OW21631   4.226   7.025   4.052
 6911SOL    HW121632   4.275   7.008   3.967
 6911SOL    HW221633   4.292   0.008   4.127
 6912SOL     OW21634   2.949   3.277   6.121
 6912SOL    HW121635   3.019   3.303   6.187
 6912SOL    HW221636   2.889   3.208   6.161
 6913SOL     OW21637   5.382   6.178   4.750
 6913SOL    HW121638   5.364   6.262   4.803
 6913SOL    HW221639   5.409   6.202   4.657
 6914SOL     OW21640   5.528   4.492   3.969
 6914SOL    HW121641   5.569   4.469   4.057
 6914SOL    HW221642   5.595   4.478   3.896
 6915SOL     OW21643   0.066   2.707   2.017
 6915SOL    HW121644   0.030   2.745   2.102
 6915SOL    HW221645   0.164   2.694   2.024
 6916SOL     OW21646   5.457   1.195   0.797
 6916SOL    HW121647   5.527   1.202   0.725
 6916SOL    HW221648   5.379   1.142   0.762
 6917SOL     OW21649   4.092   6.795   1.078
 6917SOL    HW121650   4.039   6.801   0.994
 6917SOL    HW221651   4.144   6.710   1.078
 6918SOL     OW21652   0.377   2.506   4.214
 6918SOL    HW121653   0.404   2.531   4.121
 6918SOL    HW221654   0.404   2.412   4.232
 6919SOL     OW21655   5.552   5.294   4.504
 6919SOL    HW121656   5.581   5.390   4.499
 6919SOL    HW221657   5.594   5.250   4.583
 6920SOL     OW21658   4.710   6.617   5.144
 6920SOL    HW121659   4.763   6.547   5.096
 6920SOL    HW221660   4.613   6.603   5.125
 6921SOL     OW21661   4.626   6.253   3.569
 6921SOL    HW121662   4.651   6.292   3.658
 6921SOL    HW221663   4.596   6.158   3.582
 6922SOL     OW21664   1.810   6.108   5.786
 6922SOL    HW121665   1.789   6.016   5.753
 6922SOL    HW221666   1.742   6.172   5.750
 6923SOL     OW21667   5.144   5.511   2.316
 6923SOL    HW121668   5.193   5.500   2.402
 6923SOL    HW221669   5.209   5.513   2.240
 6924SOL     OW21670   2.300   4.556   0.093
 6924SOL    HW121671   2.278   4.459   0.090
 6924SOL    HW221672   2.304   4.593   7.026
 6925SOL     OW21673   5.265   5.571   4.534
 6925SOL    HW121674   5.280   5.506   4.608
 6925SOL    HW221675   5.222   5.525   4.457
 6926SOL     OW21676   2.699   2.482   0.591
 6926SOL    HW121677   2.727   2.508   0.684
 6926SOL    HW221678   2.762   2.414   0.555
 6927SOL     OW21679   3.630   2.649   5.790
 6927SOL    HW121680   3.711   2.707   5.779
 6927SOL    HW221681   3.631   2.607   5.881
 6928SOL     OW21682   5.469   5.611   1.281
 6928SOL    HW121683   5.487   5.709   1.284
 6928SOL    HW221684   5.550   5.560   1.312
 6929SOL     OW21685   4.914   5.897   2.352
 6929SOL    HW121686   4.903   5.806   2.392
 6929SOL    HW221687   4.829   5.923   2.306
 6930SOL     OW21688   1.497   0.804   1.695
 6930SOL    HW121689   1.578   0.790   1.638
 6930SOL    HW221690   1.420   0.753   1.658
 6931SOL     OW21691   1.652   1.166   2.449
 6931SOL    HW121692   1.617   1.203   2.535
 6931SOL    HW221693   1.746   1.198   2.435
 6932SOL     OW21694   4.611   6.836   0.427
 6932SOL    HW121695   4.627   6.905   0.356
 6932SOL    HW221696   4.683   6.842   0.495
 6933SOL     OW21697   3.460   6.277   5.565
 6933SOL    HW121698   3.427   6.293   5.658
 6933SOL    HW221699   3.496   6.184   5.557
 6934SOL     OW21700   4.784   3.343   6.140
 6934SOL    HW121701   4.733   3.342   6.226
 6934SOL    HW221702   4.872   3.298   6.153
 6935SOL     OW21703   4.668   5.919   2.226
 6935SOL    HW121704   4.655   5.984   2.301
 6935SOL    HW221705   4.589   5.858   2.221
 6936SOL     OW21706   6.303   3.194   4.230
 6936SOL    HW121707   6.356   3.146   4.299
 6936SOL    HW221708   6.364   3.249   4.173
 6937SOL     OW21709   6.134   6.316   1.041
 6937SOL    HW121710   6.138   6.256   1.121
 6937SOL    HW221711   6.211   6.297   0.981
 6938SOL     OW21712   6.791   2.505   4.518
 6938SOL    HW121713   6.866   2.446   4.550
 6938SOL    HW221714   6.763   2.476   4.427
 6939SOL     OW21715   6.974   5.118   2.328
 6939SOL    HW121716   7.010   5.212   2.325
 6939SOL    HW221717   7.001   5.069   2.246
 6940SOL     OW21718   3.722   0.783   0.327
 6940SOL    HW121719   3.729   0.718   0.402
 6940SOL    HW221720   3.776   0.864   0.347
 6941SOL     OW21721   3.329   3.901   1.941
 6941SOL    HW121722   3.282   3.924   2.026
 6941SOL    HW221723   3.317   3.804   1.921
 6942SOL     OW21724   5.957   6.677   2.379
 6942SOL    HW121725   5.912   6.712   2.296
 6942SOL    HW221726   5.999   6.588   2.359
 6943SOL     OW21727   3.747   5.649   1.036
 6943SOL    HW121728   3.722   5.673   1.130
 6943SOL    HW221729   3.840   5.680   1.017
 6944SOL     OW21730   1.282   5.384   5.997
 6944SOL    HW121731   1.186   5.368   6.022
 6944SOL    HW221732   1.340   5.335   6.062
 6945SOL     OW21733   6.976   1.789   1.090
 6945SOL    HW121734   6.898   1.851   1.086
 6945SOL    HW221735   0.034   1.841   1.103
 6946SOL     OW21736   4.286   6.795   1.327
 6946SOL    HW121737   4.244   6.758   1.409
 6946SOL    HW221738   4.216   6.812   1.258
 6947SOL     OW21739   3.798   5.287   6.625
 6947SOL    HW121740   3.733   5.332   6.685
 6947SOL    HW221741   3.882   5.341   6.619
 6948SOL     OW21742   1.144   6.322   0.976
 6948SOL    HW121743   1.164   6.229   1.008
 6948SOL    HW221744   1.209   6.386   1.017
 6949SOL     OW21745   2.875   0.485   3.310
 6949SOL    HW121746   2.819   0.421   3.257
 6949SOL    HW221747   2.824   0.514   3.391
 6950SOL     OW21748   1.508   0.933   4.784
 6950SOL    HW121749   1.460   1.011   4.744
 6950SOL    HW221750   1.460   0.902   4.866
 6951SOL     OW21751   0.670   5.675   6.131
 6951SOL    HW121752   0.588   5.727   6.107
 6951SOL    HW221753   0.730   5.731   6.189
 6952SOL     OW21754   1.436   5.368   3.372
 6952SOL    HW121755   1.361   5.303   3.385
 6952SOL    HW221756   1.507   5.325   3.316
 6953SOL     OW21757   5.163   6.307   0.954
 6953SOL    HW121758   5.236   6.371   0.981
 6953SOL    HW221759   5.077   6.335   0.997
 6954SOL     OW21760   1.248   4.468   1.694
 6954SOL    HW121761   1.194   4.502   1.772
 6954SOL    HW221762   1.278   4.375   1.712
 6955SOL     OW21763   5.184   0.619   2.546
 6955SOL    HW121764   5.171   0.709   2.589
 6955SOL    HW221765   5.280   0.590   2.558
 6956SOL     OW21766   4.698   5.860   3.388
 6956SOL    HW121767   4.664   5.917   3.463
 6956SOL    HW221768   4.732   5.919   3.315
 6957SOL     OW21769   6.184   6.009   0.457
 6957SOL    HW121770   6.217   6.049   0.371
 6957SOL    HW221771   6.105   5.951   0.438
 6958SOL     OW21772   4.114   3.286   4.770
 6958SOL    HW121773   4.142   3.362   4.712
 6958SOL    HW221774   4.166   3.287   4.855
 6959SOL     OW21775   1.887   3.375   3.428
 6959SOL    HW121776   1.980   3.368   3.393
 6959SOL    HW221777   1.824   3.329   3.365
 6960SOL     OW21778   1.918   4.048   1.055
 6960SOL    HW121779   1.918   3.951   1.030
 6960SOL    HW221780   1.831   4.072   1.097
 6961SOL     OW21781   6.077   0.921   5.174
 6961SOL    HW121782   6.127   0.918   5.087
 6961SOL    HW221783   6.142   0.918   5.250
 6962SOL     OW21784   4.439   6.032   1.135
 6962SOL    HW121785   4.530   6.070   1.118
 6962SOL    HW221786   4.422   6.030   1.233
 6963SOL     OW21787   5.344   5.579   0.713
 6963SOL    HW121788   5.279   5.536   0.776
 6963SOL    HW221789   5.397   5.509   0.666
 6964SOL     OW21790   3.995   1.153   5.854
 6964SOL    HW121791   4.010   1.179   5.950
 6964SOL    HW221792   4.041   1.066   5.836
 6965SOL     OW21793   1.914   1.434   6.587
 6965SOL    HW121794   1.909   1.478   6.497
 6965SOL    HW221795   1.822   1.415   6.621
 6966SOL     OW21796   0.498   0.702   2.791
 6966SOL    HW121797   0.570   0.758   2.749
 6966SOL    HW221798   0.418   0.758   2.810
 6967SOL     OW21799   3.449   1.125   5.738
 6967SOL    HW121800   3.361   1.112   5.693
 6967SOL    HW221801   3.476   1.040   5.785
 6968SOL     OW21802   3.072   1.460   3.670
 6968SOL    HW121803   3.096   1.366   3.646
 6968SOL    HW221804   2.987   1.486   3.625
 6969SOL     OW21805   3.083   2.430   1.364
 6969SOL    HW121806   3.159   2.457   1.423
 6969SOL    HW221807   2.997   2.453   1.408
 6970SOL     OW21808   4.082   3.954   5.628
 6970SOL    HW121809   4.053   3.892   5.701
 6970SOL    HW221810   4.014   3.952   5.555
 6971SOL     OW21811   6.260   4.696   1.131
 6971SOL    HW121812   6.239   4.691   1.033
 6971SOL    HW221813   6.179   4.728   1.180
 6972SOL     OW21814   5.076   4.344   2.960
 6972SOL    HW121815   5.117   4.386   2.878
 6972SOL    HW221816   4.983   4.379   2.972
 6973SOL     OW21817   0.637   2.521   3.382
 6973SOL    HW121818   0.602   2.529   3.475
 6973SOL    HW221819   0.728   2.480   3.384
 6974SOL     OW21820   3.383   4.034   2.676
 6974SOL    HW121821   3.335   3.960   2.629
 6974SOL    HW221822   3.440   4.083   2.611
 6975SOL     OW21823   1.093   6.688   4.665
 6975SOL    HW121824   1.186   6.657   4.684
 6975SOL    HW221825   1.093   6.747   4.584
 6976SOL     OW21826   6.473   4.770   6.066
 6976SOL    HW121827   6.442   4.747   5.974
 6976SOL    HW221828   6.410   4.835   6.107
 6977SOL     OW21829   3.703   3.301   0.541
 6977SOL    HW121830   3.617   3.275   0.585
 6977SOL    HW221831   3.735   3.226   0.483
 6978SOL     OW21832   5.097   2.536   1.940
 6978SOL    HW121833   5.027   2.568   1.876
 6978SOL    HW221834   5.066   2.452   1.984
 6979SOL     OW21835   0.990   4.055   1.073
 6979SOL    HW121836   0.955   3.977   1.126
 6979SOL    HW221837   1.024   4.023   0.985
 6980SOL     OW21838   1.742   1.036   3.459
 6980SOL    HW121839   1.766   0.940   3.470
 6980SOL    HW221840   1.769   1.087   3.541
 6981SOL     OW21841   3.533   3.487   5.805
 6981SOL    HW121842   3.570   3.537   5.727
 6981SOL    HW221843   3.480   3.409   5.773
 6982SOL     OW21844   1.261   1.308   4.474
 6982SOL    HW121845   1.169   1.287   4.507
 6982SOL    HW221846   1.267   1.292   4.376
 6983SOL     OW21847   4.648   1.490   4.865
 6983SOL    HW121848   4.591   1.448   4.935
 6983SOL    HW221849   4.590   1.531   4.795
 6984SOL     OW21850   2.465   1.534   3.286
 6984SOL    HW121851   2.474   1.622   3.333
 6984SOL    HW221852   2.376   1.493   3.306
 6985SOL     OW21853   6.044   4.998   0.934
 6985SOL    HW121854   6.114   4.995   1.006
 6985SOL    HW221855   5.955   5.020   0.975
 6986SOL     OW21856   3.178   0.425   6.750
 6986SOL    HW121857   3.234   0.356   6.796
 6986SOL    HW221858   3.224   0.457   6.668
 6987SOL     OW21859   6.521   1.386   6.457
 6987SOL    HW121860   6.546   1.294   6.427
 6987SOL    HW221861   6.424   1.389   6.478
 6988SOL     OW21862   1.465   0.213   6.282
 6988SOL    HW121863   1.389   0.250   6.230
 6988SOL    HW221864   1.480   0.269   6.364
 6989SOL     OW21865   0.713   4.585   2.957
 6989SOL    HW121866   0.684   4.620   2.868
 6989SOL    HW221867   0.641   4.528   2.996
 6990SOL     OW21868   4.403   3.117   1.051
 6990SOL    HW121869   4.399   3.125   1.150
 6990SOL    HW221870   4.361   3.030   1.023
 6991SOL     OW21871   4.937   4.220   3.280
 6991SOL    HW121872   5.026   4.189   3.246
 6991SOL    HW221873   4.893   4.146   3.332
 6992SOL     OW21874   5.609   0.538   6.927
 6992SOL    HW121875   5.696   0.493   6.947
 6992SOL    HW221876   5.556   0.547   7.012
 6993SOL     OW21877   5.820   0.430   2.114
 6993SOL    HW121878   5.874   0.348   2.097
 6993SOL    HW221879   5.831   0.459   2.209
 6994SOL     OW21880   0.720   2.267   4.152
 6994SOL    HW121881   0.731   2.228   4.243
 6994SOL    HW221882   0.740   2.365   4.154
 6995SOL     OW21883   0.679   3.899   6.661
 6995SOL    HW121884   0.691   3.974   6.597
 6995SOL    HW221885   0.692   3.812   6.613
 6996SOL     OW21886   2.089   0.425   0.014
 6996SOL    HW121887   2.041   0.506   7.004
 6996SOL    HW221888   2.133   0.448   0.101
 6997SOL     OW21889   0.378   5.034   5.050
 6997SOL    HW121890   0.424   4.946   5.067
 6997SOL    HW221891   0.297   5.040   5.108
 6998SOL     OW21892   1.870   1.582   1.515
 6998SOL    HW121893   1.925   1.525   1.577
 6998SOL    HW221894   1.774   1.578   1.543
 6999SOL     OW21895   1.714   2.624   5.806
 6999SOL    HW121896   1.647   2.671   5.864
 6999SOL    HW221897   1.752   2.546   5.857
 7000SOL     OW21898   6.199   6.756   2.446
 7000SOL    HW121899   6.237   6.698   2.519
 7000SOL    HW221900   6.103   6.732   2.431
 7001SOL     OW21901   0.721   3.195   5.311
 7001SOL    HW121902   0.796   3.182   5.375
 7001SOL    HW221903   0.740   3.148   5.226
 7002SOL     OW21904   1.996   5.497   4.592
 7002SOL    HW121905   1.978   5.444   4.509
 7002SOL    HW221906   1.917   5.489   4.653
 7003SOL     OW21907   4.747   6.132   1.333
 7003SOL    HW121908   4.824   6.075   1.304
 7003SOL    HW221909   4.710   6.180   1.253
 7004SOL     OW21910   0.253   6.125   1.286
 7004SOL    HW121911   0.208   6.136   1.374
 7004SOL    HW221912   0.333   6.185   1.282
 7005SOL     OW21913   1.254   0.622   0.825
 7005SOL    HW121914   1.289   0.590   0.737
 7005SOL    HW221915   1.324   0.676   0.871
 7006SOL     OW21916   5.848   5.796   3.546
 7006SOL    HW121917   5.809   5.856   3.616
 7006SOL    HW221918   5.939   5.829   3.520
 7007SOL     OW21919   4.050   0.660   4.558
 7007SOL    HW121920   4.088   0.640   4.468
 7007SOL    HW221921   3.961   0.615   4.568
 7008SOL     OW21922   0.507   4.061   4.488
 7008SOL    HW121923   0.417   4.100   4.468
 7008SOL    HW221924   0.557   4.047   4.403
 7009SOL     OW21925   4.151   6.657   2.304
 7009SOL    HW121926   4.210   6.737   2.290
 7009SOL    HW221927   4.105   6.635   2.219
 7010SOL     OW21928   5.229   4.002   3.795
 7010SOL    HW121929   5.229   3.908   3.828
 7010SOL    HW221930   5.238   4.003   3.696
 7011SOL     OW21931   3.712   0.104   6.934
 7011SOL    HW121932   3.719   0.203   6.939
 7011SOL    HW221933   3.690   0.066   7.024
 7012SOL     OW21934   0.740   1.547   1.257
 7012SOL    HW121935   0.798   1.568   1.178
 7012SOL    HW221936   0.664   1.612   1.261
 7013SOL     OW21937   1.135   6.643   6.448
 7013SOL    HW121938   1.224   6.657   6.493
 7013SOL    HW221939   1.066   6.622   6.517
 7014SOL     OW21940   5.615   3.131   6.887
 7014SOL    HW121941   5.596   3.051   6.945
 7014SOL    HW221942   5.646   3.207   6.944
 7015SOL     OW21943   5.925   4.159   1.604
 7015SOL    HW121944   5.979   4.215   1.667
 7015SOL    HW221945   5.877   4.088   1.655
 7016SOL     OW21946   4.139   4.751   1.229
 7016SOL    HW121947   4.105   4.783   1.317
 7016SOL    HW221948   4.155   4.653   1.233
 7017SOL     OW21949   3.228   5.494   3.164
 7017SOL    HW121950   3.129   5.502   3.169
 7017SOL    HW221951   3.266   5.575   3.119
 7018SOL     OW21952   5.021   3.766   4.360
 7018SOL    HW121953   5.064   3.690   4.311
 7018SOL    HW221954   5.006   3.740   4.455
 7019SOL     OW21955   3.934   4.283   0.497
 7019SOL    HW121956   3.950   4.187   0.522
 7019SOL    HW221957   3.934   4.291   0.397
 7020SOL     OW21958   6.814   3.986   5.529
 7020SOL    HW121959   6.912   4.004   5.534
 7020SOL    HW221960   6.766   4.070   5.505
 7021SOL     OW21961   1.707   2.637   3.994
 7021SOL    HW121962   1.804   2.645   4.015
 7021SOL    HW221963   1.674   2.724   3.958
 7022SOL     OW21964   4.928   6.994   6.650
 7022SOL    HW121965   4.894   6.974   6.558
 7022SOL    HW221966   5.013   0.020   6.644
 7023SOL     OW21967   0.573   3.280   1.567
 7023SOL    HW121968   0.538   3.312   1.478
 7023SOL    HW221969   0.590   3.182   1.563
 7024SOL     OW21970   3.321   3.330   4.251
 7024SOL    HW121971   3.247   3.380   4.296
 7024SOL    HW221972   3.297   3.233   4.247
 7025SOL     OW21973   4.280   0.886   1.249
 7025SOL    HW121974   4.349   0.871   1.177
 7025SOL    HW221975   4.226   0.967   1.227
 7026SOL     OW21976   3.486   2.043   2.139
 7026SOL    HW121977   3.559   2.106   2.115
 7026SOL    HW221978   3.405   2.064   2.084
 7027SOL     OW21979   2.659   5.856   4.132
 7027SOL    HW121980   2.718   5.936   4.121
 7027SOL    HW221981   2.581   5.863   4.071
 7028SOL     OW21982   3.768   0.645   3.867
 7028SOL    HW121983   3.772   0.737   3.906
 7028SOL    HW221984   3.842   0.590   3.906
 7029SOL     OW21985   4.496   3.982   5.395
 7029SOL    HW121986   4.455   3.895   5.368
 7029SOL    HW221987   4.594   3.969   5.409
 7030SOL     OW21988   0.300   1.137   4.476
 7030SOL    HW121989   0.224   1.072   4.474
 7030SOL    HW221990   0.379   1.097   4.430
 7031SOL     OW21991   4.153   6.067   0.054
 7031SOL    HW121992   4.141   6.049   6.983
 7031SOL    HW221993   4.220   6.002   0.091
 7032SOL     OW21994   4.450   1.753   3.580
 7032SOL    HW121995   4.354   1.780   3.569
 7032SOL    HW221996   4.496   1.759   3.491
 7033SOL     OW21997   1.191   2.823   3.390
 7033SOL    HW121998   1.269   2.885   3.392
 7033SOL    HW221999   1.206   2.747   3.453
 7034SOL     OW22000   6.976   1.216   2.666
 7034SOL    HW122001   6.885   1.212   2.625
 7034SOL    HW222002   0.004   1.139   2.632
 7035SOL     OW22003   1.759   0.336   0.532
 7035SOL    HW122004   1.751   0.362   0.436
 7035SOL    HW222005   1.668   0.324   0.571
 7036SOL     OW22006   6.872   1.218   2.229
 7036SOL    HW122007   6.918   1.150   2.173
 7036SOL    HW222008   6.935   1.251   2.299
 7037SOL     OW22009   1.075   1.073   6.360
 7037SOL    HW122010   0.977   1.096   6.361
 7037SOL    HW222011   1.091   0.993   6.418
 7038SOL     OW22012   2.559   4.592   4.898
 7038SOL    HW122013   2.653   4.612   4.925
 7038SOL    HW222014   2.546   4.614   4.802
 7039SOL     OW22015   0.218   5.874   3.214
 7039SOL    HW122016   0.306   5.878   3.166
 7039SOL    HW222017   0.149   5.923   3.161
 7040SOL     OW22018   4.479   2.741   5.967
 7040SOL    HW122019   4.506   2.833   5.996
 7040SOL    HW222020   4.517   2.674   6.031
 7041SOL     OW22021   7.016   1.699   2.876
 7041SOL    HW122022   6.982   1.622   2.822
 7041SOL    HW222023   7.014   1.675   2.973
 7042SOL     OW22024   4.149   6.172   4.417
 7042SOL    HW122025   4.092   6.137   4.343
 7042SOL    HW222026   4.244   6.147   4.401
 7043SOL     OW22027   2.458   5.238   3.501
 7043SOL    HW122028   2.516   5.167   3.460
 7043SOL    HW222029   2.466   5.235   3.600
 7044SOL     OW22030   5.328   5.999   5.525
 7044SOL    HW122031   5.279   5.981   5.440
 7044SOL    HW222032   5.263   5.997   5.602
 7045SOL     OW22033   5.107   5.786   2.150
 7045SOL    HW122034   5.041   5.741   2.210
 7045SOL    HW222035   5.121   5.730   2.068
 7046SOL     OW22036   3.489   1.540   3.448
 7046SOL    HW122037   3.432   1.565   3.526
 7046SOL    HW222038   3.586   1.550   3.472
 7047SOL     OW22039   6.719   0.741   1.726
 7047SOL    HW122040   6.676   0.831   1.725
 7047SOL    HW222041   6.814   0.750   1.693
 7048SOL     OW22042   5.933   6.866   4.747
 7048SOL    HW122043   6.027   6.839   4.727
 7048SOL    HW222044   5.920   6.962   4.723
 7049SOL     OW22045   3.440   1.791   1.387
 7049SOL    HW122046   3.493   1.775   1.471
 7049SOL    HW222047   3.390   1.708   1.364
 7050SOL     OW22048   3.929   3.672   0.979
 7050SOL    HW122049   3.915   3.725   1.063
 7050SOL    HW222050   4.000   3.603   0.994
 7051SOL     OW22051   6.777   6.477   1.221
 7051SOL    HW122052   6.768   6.387   1.264
 7051SOL    HW222053   6.694   6.497   1.168
 7052SOL     OW22054   6.492   0.753   4.260
 7052SOL    HW122055   6.471   0.842   4.300
 7052SOL    HW222056   6.572   0.760   4.201
 7053SOL     OW22057   1.390   3.907   4.359
 7053SOL    HW122058   1.354   3.835   4.418
 7053SOL    HW222059   1.350   3.995   4.386
 7054SOL     OW22060   0.204   6.860   1.063
 7054SOL    HW122061   0.198   6.889   1.158
 7054SOL    HW222062   0.114   6.827   1.032
 7055SOL     OW22063   2.826   0.618   0.131
 7055SOL    HW122064   2.913   0.620   0.082
 7055SOL    HW222065   2.828   0.545   0.199
 7056SOL     OW22066   6.895   5.420   1.344
 7056SOL    HW122067   6.923   5.328   1.372
 7056SOL    HW222068   6.974   5.470   1.310
 7057SOL     OW22069   3.131   5.101   3.950
 7057SOL    HW122070   3.195   5.024   3.957
 7057SOL    HW222071   3.142   5.160   4.031
 7058SOL     OW22072   5.278   1.995   5.982
 7058SOL    HW122073   5.278   1.897   5.964
 7058SOL    HW222074   5.359   2.020   6.035
 7059SOL     OW22075   1.412   1.133   3.916
 7059SOL    HW122076   1.425   1.043   3.957
 7059SOL    HW222077   1.335   1.130   3.851
 7060SOL     OW22078   3.779   6.974   0.917
 7060SOL    HW122079   3.752   6.995   1.011
 7060SOL    HW222080   3.798   0.033   0.869
 7061SOL     OW22081   0.050   2.639   3.476
 7061SOL    HW122082   0.122   2.609   3.413
 7061SOL    HW222083   0.076   2.726   3.517
 7062SOL     OW22084   3.860   2.188   5.356
 7062SOL    HW122085   3.895   2.279   5.337
 7062SOL    HW222086   3.839   2.141   5.270
 7063SOL     OW22087   1.214   0.750   1.498
 7063SOL    HW122088   1.146   0.816   1.467
 7063SOL    HW222089   1.278   0.730   1.424
 7064SOL     OW22090   4.424   1.782   6.374
 7064SOL    HW122091   4.374   1.768   6.459
 7064SOL    HW222092   4.399   1.870   6.334
 7065SOL     OW22093   3.079   3.963   5.016
 7065SOL    HW122094   2.995   3.918   4.986
 7065SOL    HW222095   3.130   3.994   4.936
 7066SOL     OW22096   4.383   6.614   5.738
 7066SOL    HW122097   4.381   6.528   5.788
 7066SOL    HW222098   4.334   6.684   5.790
 7067SOL     OW22099   1.083   3.784   5.950
 7067SOL    HW122100   1.182   3.773   5.961
 7067SOL    HW222101   1.036   3.748   6.030
 7068SOL     OW22102   5.614   4.050   4.211
 7068SOL    HW122103   5.676   4.059   4.133
 7068SOL    HW222104   5.631   4.123   4.276
 7069SOL     OW22105   5.706   1.809   5.168
 7069SOL    HW122106   5.715   1.906   5.188
 7069SOL    HW222107   5.657   1.796   5.082
 7070SOL     OW22108   0.847   6.146   4.171
 7070SOL    HW122109   0.756   6.185   4.190
 7070SOL    HW222110   0.867   6.154   4.074
 7071SOL     OW22111   4.422   5.899   6.499
 7071SOL    HW122112   4.378   5.969   6.555
 7071SOL    HW222113   4.516   5.886   6.531
 7072SOL     OW22114   2.574   4.792   7.000
 7072SOL    HW122115   2.548   4.855   0.047
 7072SOL    HW222116   2.583   4.700   0.010
 7073SOL     OW22117   3.256   0.434   2.988
 7073SOL    HW122118   3.238   0.346   2.943
 7073SOL    HW222119   3.329   0.421   3.056
 7074SOL     OW22120   6.368   3.159   2.770
 7074SOL    HW122121   6.420   3.165   2.855
 7074SOL    HW222122   6.312   3.077   2.771
 7075SOL     OW22123   2.794   5.275   4.541
 7075SOL    HW122124   2.859   5.345   4.513
 7075SOL    HW222125   2.703   5.298   4.508
 7076SOL     OW22126   5.848   2.444   0.608
 7076SOL    HW122127   5.928   2.498   0.581
 7076SOL    HW222128   5.866   2.397   0.695
 7077SOL     OW22129   2.191   3.886   3.667
 7077SOL    HW122130   2.234   3.853   3.583
 7077SOL    HW222131   2.182   3.811   3.731
 7078SOL     OW22132   5.991   6.563   1.081
 7078SOL    HW122133   5.978   6.577   1.179
 7078SOL    HW222134   6.066   6.498   1.066
 7079SOL     OW22135   1.413   6.692   3.298
 7079SOL    HW122136   1.512   6.680   3.298
 7079SOL    HW222137   1.390   6.779   3.256
 7080SOL     OW22138   3.910   2.149   4.057
 7080SOL    HW122139   3.922   2.051   4.037
 7080SOL    HW222140   3.961   2.203   3.990
 7081SOL     OW22141   1.143   5.559   0.520
 7081SOL    HW122142   1.188   5.471   0.503
 7081SOL    HW222143   1.211   5.632   0.516
 7082SOL     OW22144   6.734   4.164   0.271
 7082SOL    HW122145   6.702   4.121   0.356
 7082SOL    HW222146   6.825   4.129   0.248
 7083SOL     OW22147   0.195   1.102   2.174
 7083SOL    HW122148   0.175   1.173   2.242
 7083SOL    HW222149   0.291   1.107   2.148
 7084SOL     OW22150   0.454   5.654   5.404
 7084SOL    HW122151   0.528   5.713   5.436
 7084SOL    HW222152   0.450   5.571   5.460
 7085SOL     OW22153   6.303   2.457   2.843
 7085SOL    HW122154   6.310   2.397   2.763
 7085SOL    HW222155   6.347   2.413   2.921
 7086SOL     OW22156   5.605   1.019   6.475
 7086SOL    HW122157   5.688   1.039   6.528
 7086SOL    HW222158   5.622   0.944   6.412
 7087SOL     OW22159   5.489   4.267   2.425
 7087SOL    HW122160   5.471   4.200   2.354
 7087SOL    HW222161   5.447   4.237   2.511
 7088SOL     OW22162   5.254   2.559   5.524
 7088SOL    HW122163   5.247   2.459   5.522
 7088SOL    HW222164   5.188   2.595   5.590
 7089SOL     OW22165   2.223   3.980   3.343
 7089SOL    HW122166   2.267   4.039   3.275
 7089SOL    HW222167   2.129   4.009   3.356
 7090SOL     OW22168   2.288   1.786   0.312
 7090SOL    HW122169   2.299   1.805   0.410
 7090SOL    HW222170   2.193   1.762   0.294
 7091SOL     OW22171   0.672   0.904   1.695
 7091SOL    HW122172   0.768   0.883   1.679
 7091SOL    HW222173   0.626   0.921   1.608
 7092SOL     OW22174   3.921   3.322   5.518
 7092SOL    HW122175   3.971   3.237   5.537
 7092SOL    HW222176   3.853   3.304   5.447
 7093SOL     OW22177   3.232   3.951   1.628
 7093SOL    HW122178   3.248   3.852   1.629
 7093SOL    HW222179   3.262   3.990   1.715
 7094SOL     OW22180   1.504   0.251   5.654
 7094SOL    HW122181   1.434   0.187   5.623
 7094SOL    HW222182   1.544   0.218   5.739
 7095SOL     OW22183   3.269   4.875   5.802
 7095SOL    HW122184   3.254   4.817   5.722
 7095SOL    HW222185   3.234   4.967   5.783
 7096SOL     OW22186   6.213   0.699   1.983
 7096SOL    HW122187   6.257   0.715   1.894
 7096SOL    HW222188   6.282   0.674   2.050
 7097SOL     OW22189   5.339   0.900   1.626
 7097SOL    HW122190   5.421   0.934   1.672
 7097SOL    HW222191   5.261   0.905   1.689
 7098SOL     OW22192   1.588   5.719   5.889
 7098SOL    HW122193   1.661   5.725   5.957
 7098SOL    HW222194   1.504   5.690   5.934
 7099SOL     OW22195   3.632   2.110   4.354
 7099SOL    HW122196   3.634   2.118   4.254
 7099SOL    HW222197   3.663   2.019   4.380
 7100SOL     OW22198   6.561   3.216   0.508
 7100SOL    HW122199   6.520   3.153   0.574
 7100SOL    HW222200   6.558   3.175   0.417
 7101SOL     OW22201   2.636   0.778   5.463
 7101SOL    HW122202   2.712   0.724   5.501
 7101SOL    HW222203   2.573   0.803   5.536
 7102SOL     OW22204   5.689   0.416   1.472
 7102SOL    HW122205   5.629   0.400   1.551
 7102SOL    HW222206   5.759   0.345   1.469
 7103SOL     OW22207   5.532   5.247   1.355
 7103SOL    HW122208   5.524   5.214   1.449
 7103SOL    HW222209   5.443   5.280   1.323
 7104SOL     OW22210   5.964   3.619   2.309
 7104SOL    HW122211   5.868   3.637   2.331
 7104SOL    HW222212   6.001   3.696   2.257
 7105SOL     OW22213   3.528   3.553   4.688
 7105SOL    HW122214   3.570   3.592   4.606
 7105SOL    HW222215   3.540   3.616   4.765
 7106SOL     OW22216   3.640   3.032   1.393
 7106SOL    HW122217   3.567   2.974   1.427
 7106SOL    HW222218   3.614   3.128   1.405
 7107SOL     OW22219   3.737   0.596   0.842
 7107SOL    HW122220   3.834   0.598   0.819
 7107SOL    HW222221   3.683   0.604   0.757
 7108SOL     OW22222   2.763   6.085   2.536
 7108SOL    HW122223   2.682   6.043   2.575
 7108SOL    HW222224   2.738   6.130   2.450
 7109SOL     OW22225   1.731   1.351   6.880
 7109SOL    HW122226   1.706   1.283   6.810
 7109SOL    HW222227   1.819   1.327   6.920
 7110SOL     OW22228   3.318   5.899   4.267
 7110SOL    HW122229   3.301   5.995   4.244
 7110SOL    HW222230   3.347   5.893   4.363
 7111SOL     OW22231   1.595   1.927   4.065
 7111SOL    HW122232   1.595   1.961   3.971
 7111SOL    HW222233   1.652   1.844   4.071
 7112SOL     OW22234   1.971   4.503   4.534
 7112SOL    HW122235   1.910   4.578   4.557
 7112SOL    HW222236   1.922   4.435   4.479
 7113SOL     OW22237   3.394   4.229   5.306
 7113SOL    HW122238   3.398   4.141   5.353
 7113SOL    HW222239   3.435   4.299   5.364
 7114SOL     OW22240   4.618   5.067   1.479
 7114SOL    HW122241   4.530   5.025   1.499
 7114SOL    HW222242   4.664   5.015   1.406
 7115SOL     OW22243   5.373   3.459   6.705
 7115SOL    HW122244   5.280   3.469   6.740
 7115SOL    HW222245   5.436   3.511   6.762
 7116SOL     OW22246   5.414   4.069   3.036
 7116SOL    HW122247   5.400   3.993   3.100
 7116SOL    HW222248   5.481   4.042   2.967
 7117SOL     OW22249   0.189   6.994   4.513
 7117SOL    HW122250   0.289   6.993   4.512
 7117SOL    HW222251   0.155   6.928   4.581
 7118SOL     OW22252   4.075   4.246   5.481
 7118SOL    HW122253   4.070   4.197   5.394
 7118SOL    HW222254   4.119   4.189   5.550
 7119SOL     OW22255   5.572   0.982   4.996
 7119SOL    HW122256   5.491   0.996   4.938
 7119SOL    HW222257   5.615   0.895   4.972
 7120SOL     OW22258   4.168   1.698   1.925
 7120SOL    HW122259   4.220   1.644   1.992
 7120SOL    HW222260   4.070   1.688   1.942
 7121SOL     OW22261   0.199   6.675   2.979
 7121SOL    HW122262   0.118   6.733   2.980
 7121SOL    HW222263   0.218   6.644   2.886
 7122SOL     OW22264   1.836   0.382   5.670
 7122SOL    HW122265   1.845   0.480   5.653
 7122SOL    HW222266   1.906   0.353   5.735
 7123SOL     OW22267   0.386   5.087   3.673
 7123SOL    HW122268   0.395   5.166   3.611
 7123SOL    HW222269   0.473   5.073   3.721
 7124SOL     OW22270   0.802   2.496   1.388
 7124SOL    HW122271   0.830   2.403   1.414
 7124SOL    HW222272   0.736   2.530   1.454
 7125SOL     OW22273   1.370   1.302   1.775
 7125SOL    HW122274   1.396   1.254   1.859
 7125SOL    HW222275   1.362   1.236   1.700
 7126SOL     OW22276   4.336   5.803   0.543
 7126SOL    HW122277   4.284   5.823   0.460
 7126SOL    HW222278   4.295   5.851   0.621
 7127SOL     OW22279   2.427   6.222   5.712
 7127SOL    HW122280   2.515   6.210   5.759
 7127SOL    HW222281   2.419   6.156   5.638
 7128SOL     OW22282   3.906   3.704   6.556
 7128SOL    HW122283   3.954   3.729   6.472
 7128SOL    HW222284   3.888   3.786   6.610
 7129SOL     OW22285   1.474   1.161   1.457
 7129SOL    HW122286   1.467   1.125   1.550
 7129SOL    HW222287   1.481   1.085   1.392
 7130SOL     OW22288   3.816   6.359   4.210
 7130SOL    HW122289   3.811   6.325   4.304
 7130SOL    HW222290   3.807   6.458   4.210
 7131SOL     OW22291   3.168   0.927   1.665
 7131SOL    HW122292   3.250   0.911   1.609
 7131SOL    HW222293   3.105   0.851   1.653
 7132SOL     OW22294   5.076   4.133   0.326
 7132SOL    HW122295   5.007   4.204   0.338
 7132SOL    HW222296   5.155   4.171   0.277
 7133SOL     OW22297   4.390   4.764   4.612
 7133SOL    HW122298   4.301   4.800   4.586
 7133SOL    HW222299   4.461   4.832   4.593
 7134SOL     OW22300   5.251   6.556   2.446
 7134SOL    HW122301   5.154   6.573   2.460
 7134SOL    HW222302   5.298   6.643   2.432
 7135SOL     OW22303   2.153   3.041   2.857
 7135SOL    HW122304   2.112   3.132   2.847
 7135SOL    HW222305   2.183   3.028   2.951
 7136SOL     OW22306   3.028   1.715   1.238
 7136SOL    HW122307   3.034   1.773   1.157
 7136SOL    HW222308   2.941   1.731   1.284
 7137SOL     OW22309   2.966   1.927   0.695
 7137SOL    HW122310   2.874   1.931   0.654
 7137SOL    HW222311   2.999   2.020   0.711
 7138SOL     OW22312   1.968   1.140   0.937
 7138SOL    HW122313   2.029   1.215   0.911
 7138SOL    HW222314   1.916   1.111   0.856
 7139SOL     OW22315   5.568   4.691   1.999
 7139SOL    HW122316   5.640   4.685   1.929
 7139SOL    HW222317   5.589   4.767   2.061
 7140SOL     OW22318   6.334   4.271   1.079
 7140SOL    HW122319   6.327   4.345   1.013
 7140SOL    HW222320   6.251   4.215   1.076
 7141SOL     OW22321   4.576   6.840   1.287
 7141SOL    HW122322   4.477   6.854   1.282
 7141SOL    HW222323   4.597   6.777   1.362
 7142SOL     OW22324   3.274   0.370   3.811
 7142SOL    HW122325   3.356   0.314   3.801
 7142SOL    HW222326   3.299   0.462   3.839
 7143SOL     OW22327   1.759   3.977   0.313
 7143SOL    HW122328   1.835   4.019   0.363
 7143SOL    HW222329   1.794   3.931   0.232
 7144SOL     OW22330   0.526   1.082   3.340
 7144SOL    HW122331   0.622   1.110   3.345
 7144SOL    HW222332   0.513   0.998   3.392
 7145SOL     OW22333   3.912   0.963   6.686
 7145SOL    HW122334   3.919   0.926   6.593
 7145SOL    HW222335   3.857   1.046   6.684
 7146SOL     OW22336   1.695   1.597   5.965
 7146SOL    HW122337   1.623   1.630   5.903
 7146SOL    HW222338   1.751   1.675   5.993
 7147SOL     OW22339   6.290   5.851   3.238
 7147SOL    HW122340   6.381   5.880   3.268
 7147SOL    HW222341   6.228   5.851   3.316
 7148SOL     OW22342   6.296   5.862   2.047
 7148SOL    HW122343   6.394   5.842   2.044
 7148SOL    HW222344   6.279   5.951   2.005
 7149SOL     OW22345   0.930   5.392   3.815
 7149SOL    HW122346   0.896   5.303   3.783
 7149SOL    HW222347   0.936   5.391   3.915
 7150SOL     OW22348   3.419   3.142   0.301
 7150SOL    HW122349   3.415   3.048   0.334
 7150SOL    HW222350   3.328   3.183   0.307
 7151SOL     OW22351   3.013   6.660   1.079
 7151SOL    HW122352   3.065   6.608   1.146
 7151SOL    HW222353   3.066   6.741   1.052
 7152SOL     OW22354   6.179   1.083   6.554
 7152SOL    HW122355   6.143   1.022   6.625
 7152SOL    HW222356   6.151   1.050   6.464
 7153SOL     OW22357   3.761   5.332   1.916
 7153SOL    HW122358   3.709   5.336   1.831
 7153SOL    HW222359   3.719   5.263   1.977
 7154SOL     OW22360   4.003   0.329   2.987
 7154SOL    HW122361   3.986   0.428   2.984
 7154SOL    HW222362   4.078   0.307   2.923
 7155SOL     OW22363   3.233   3.115   1.248
 7155SOL    HW122364   3.186   3.193   1.206
 7155SOL    HW222365   3.287   3.067   1.179
 7156SOL     OW22366   4.909   3.430   2.473
 7156SOL    HW122367   4.909   3.530   2.477
 7156SOL    HW222368   4.879   3.401   2.382
 7157SOL     OW22369   0.085   4.426   1.512
 7157SOL    HW122370   0.154   4.364   1.549
 7157SOL    HW222371   0.118   4.467   1.427
 7158SOL     OW22372   6.734   0.153   3.583
 7158SOL    HW122373   6.811   0.119   3.637
 7158SOL    HW222374   6.652   0.157   3.641
 7159SOL     OW22375   0.929   4.617   4.358
 7159SOL    HW122376   0.946   4.524   4.324
 7159SOL    HW222377   0.940   4.682   4.283
 7160SOL     OW22378   6.283   6.556   2.634
 7160SOL    HW122379   6.314   6.466   2.663
 7160SOL    HW222380   6.361   6.612   2.606
 7161SOL     OW22381   3.728   4.095   2.964
 7161SOL    HW122382   3.773   4.074   2.877
 7161SOL    HW222383   3.629   4.081   2.954
 7162SOL     OW22384   0.505   4.782   6.992
 7162SOL    HW122385   0.419   4.830   6.974
 7162SOL    HW222386   0.556   4.772   6.906
 7163SOL     OW22387   2.427   0.354   2.726
 7163SOL    HW122388   2.523   0.327   2.716
 7163SOL    HW222389   2.403   0.416   2.651
 7164SOL     OW22390   1.802   0.547   4.931
 7164SOL    HW122391   1.731   0.586   4.872
 7164SOL    HW222392   1.778   0.453   4.954
 7165SOL     OW22393   6.022   5.806   2.027
 7165SOL    HW122394   6.007   5.749   2.107
 7165SOL    HW222395   6.119   5.829   2.020
 7166SOL     OW22396   5.583   0.772   6.805
 7166SOL    HW122397   5.609   0.684   6.846
 7166SOL    HW222398   5.511   0.814   6.859
 7167SOL     OW22399   5.092   2.549   5.216
 7167SOL    HW122400   5.058   2.640   5.193
 7167SOL    HW222401   5.124   2.548   5.311
 7168SOL     OW22402   2.664   1.870   2.744
 7168SOL    HW122403   2.764   1.868   2.745
 7168SOL    HW222404   2.629   1.830   2.828
 7169SOL     OW22405   0.667   3.908   4.708
 7169SOL    HW122406   0.626   3.888   4.797
 7169SOL    HW222407   0.596   3.944   4.647
 7170SOL     OW22408   3.831   6.163   2.486
 7170SOL    HW122409   3.881   6.094   2.538
 7170SOL    HW222410   3.797   6.234   2.547
 7171SOL     OW22411   6.346   3.911   1.108
 7171SOL    HW122412   6.290   3.992   1.126
 7171SOL    HW222413   6.417   3.934   1.042
 7172SOL     OW22414   2.118   1.755   5.179
 7172SOL    HW122415   2.123   1.803   5.266
 7172SOL    HW222416   2.114   1.656   5.196
 7173SOL     OW22417   6.430   5.306   0.246
 7173SOL    HW122418   6.496   5.300   0.171
 7173SOL    HW222419   6.469   5.360   0.320
 7174SOL     OW22420   6.385   4.801   0.626
 7174SOL    HW122421   6.454   4.747   0.673
 7174SOL    HW222422   6.414   4.821   0.533
 7175SOL     OW22423   6.584   3.310   5.418
 7175SOL    HW122424   6.630   3.243   5.477
 7175SOL    HW222425   6.598   3.283   5.322
 7176SOL     OW22426   0.514   1.086   4.311
 7176SOL    HW122427   0.576   1.018   4.350
 7176SOL    HW222428   0.553   1.123   4.227
 7177SOL     OW22429   1.449   5.252   5.592
 7177SOL    HW122430   1.483   5.337   5.631
 7177SOL    HW222431   1.517   5.180   5.605
 7178SOL     OW22432   1.243   1.113   6.135
 7178SOL    HW122433   1.179   1.108   6.212
 7178SOL    HW222434   1.213   1.183   6.070
 7179SOL     OW22435   1.762   3.983   4.733
 7179SOL    HW122436   1.776   3.885   4.752
 7179SOL    HW222437   1.687   4.017   4.789
 7180SOL     OW22438   2.478   4.031   1.154
 7180SOL    HW122439   2.530   4.116   1.167
 7180SOL    HW222440   2.381   4.053   1.143
 7181SOL     OW22441   2.157   1.466   6.410
 7181SOL    HW122442   2.220   1.519   6.467
 7181SOL    HW222443   2.116   1.526   6.341
 7182SOL     OW22444   0.565   3.398   3.291
 7182SOL    HW122445   0.581   3.385   3.193
 7182SOL    HW222446   0.533   3.312   3.331
 7183SOL     OW22447   2.265   6.012   1.978
 7183SOL    HW122448   2.266   6.072   2.058
 7183SOL    HW222449   2.172   6.006   1.942
 7184SOL     OW22450   6.066   0.891   3.991
 7184SOL    HW122451   6.159   0.916   3.963
 7184SOL    HW222452   6.005   0.969   3.979
 7185SOL     OW22453   5.487   1.109   5.656
 7185SOL    HW122454   5.481   1.100   5.756
 7185SOL    HW222455   5.507   1.020   5.616
 7186SOL     OW22456   0.300   1.007   1.126
 7186SOL    HW122457   0.221   1.022   1.067
 7186SOL    HW222458   0.375   1.066   1.096
 7187SOL     OW22459   2.954   3.710   5.272
 7187SOL    HW122460   2.962   3.695   5.173
 7187SOL    HW222461   2.871   3.762   5.291
 7188SOL     OW22462   4.809   5.133   0.051
 7188SOL    HW122463   4.762   5.176   7.000
 7188SOL    HW222464   4.853   5.048   0.020
 7189SOL     OW22465   6.105   3.338   5.469
 7189SOL    HW122466   6.123   3.241   5.488
 7189SOL    HW222467   6.036   3.372   5.534
 7190SOL     OW22468   6.003   6.072   1.672
 7190SOL    HW122469   6.064   6.046   1.747
 7190SOL    HW222470   5.970   5.990   1.627
 7191SOL     OW22471   0.313   4.010   3.106
 7191SOL    HW122472   0.281   3.948   3.034
 7191SOL    HW222473   0.240   4.027   3.171
 7192SOL     OW22474   1.125   4.535   6.356
 7192SOL    HW122475   1.109   4.634   6.360
 7192SOL    HW222476   1.152   4.502   6.447
 7193SOL     OW22477   2.947   1.477   3.129
 7193SOL    HW122478   2.992   1.415   3.065
 7193SOL    HW222479   2.953   1.570   3.095
 7194SOL     OW22480   2.372   2.477   0.301
 7194SOL    HW122481   2.343   2.381   0.303
 7194SOL    HW222482   2.466   2.483   0.267
 7195SOL     OW22483   6.211   4.196   6.741
 7195SOL    HW122484   6.287   4.259   6.729
 7195SOL    HW222485   6.157   4.194   6.657
 7196SOL     OW22486   2.981   4.028   1.694
 7196SOL    HW122487   3.055   3.987   1.641
 7196SOL    HW222488   2.907   4.053   1.633
 7197SOL     OW22489   0.729   3.982   5.877
 7197SOL    HW122490   0.829   3.974   5.871
 7197SOL    HW222491   0.693   4.015   5.790
 7198SOL     OW22492   0.276   0.912   6.686
 7198SOL    HW122493   0.242   0.834   6.633
 7198SOL    HW222494   0.375   0.903   6.699
 7199SOL     OW22495   0.903   0.218   2.588
 7199SOL    HW122496   0.869   0.188   2.677
 7199SOL    HW222497   0.865   0.308   2.566
 7200SOL     OW22498   1.698   3.176   0.650
 7200SOL    HW122499   1.710   3.081   0.679
 7200SOL    HW222500   1.682   3.179   0.552
 7201SOL     OW22501   0.263   5.490   4.176
 7201SOL    HW122502   0.212   5.428   4.234
 7201SOL    HW222503   0.219   5.497   4.086
 7202SOL     OW22504   5.306   6.858   6.042
 7202SOL    HW122505   5.298   6.860   6.142
 7202SOL    HW222506   5.342   6.945   6.010
 7203SOL     OW22507   0.753   1.285   1.931
 7203SOL    HW122508   0.819   1.339   1.982
 7203SOL    HW222509   0.662   1.296   1.972
 7204SOL     OW22510   6.938   1.418   6.482
 7204SOL    HW122511   6.898   1.370   6.560
 7204SOL    HW222512   6.889   1.504   6.466
 7205SOL     OW22513   1.344   3.843   4.733
 7205SOL    HW122514   1.372   3.934   4.763
 7205SOL    HW222515   1.426   3.787   4.715
 7206SOL     OW22516   1.376   1.568   1.890
 7206SOL    HW122517   1.295   1.601   1.843
 7206SOL    HW222518   1.400   1.477   1.856
 7207SOL     OW22519   2.815   1.054   3.895
 7207SOL    HW122520   2.780   1.139   3.934
 7207SOL    HW222521   2.885   1.075   3.827
 7208SOL     OW22522   4.917   0.185   4.159
 7208SOL    HW122523   4.906   0.088   4.176
 7208SOL    HW222524   4.958   0.229   4.239
 7209SOL     OW22525   2.241   2.829   2.226
 7209SOL    HW122526   2.316   2.827   2.161
 7209SOL    HW222527   2.244   2.747   2.284
 7210SOL     OW22528   3.732   2.161   3.811
 7210SOL    HW122529   3.634   2.174   3.795
 7210SOL    HW222530   3.757   2.205   3.897
 7211SOL     OW22531   2.940   6.147   5.596
 7211SOL    HW122532   3.019   6.101   5.635
 7211SOL    HW222533   2.971   6.230   5.548
 7212SOL     OW22534   0.396   6.477   6.147
 7212SOL    HW122535   0.297   6.485   6.139
 7212SOL    HW222536   0.428   6.398   6.095
 7213SOL     OW22537   3.648   5.997   6.230
 7213SOL    HW122538   3.713   5.968   6.159
 7213SOL    HW222539   3.601   6.080   6.199
 7214SOL     OW22540   6.899   1.220   5.602
 7214SOL    HW122541   6.857   1.129   5.599
 7214SOL    HW222542   6.830   1.289   5.578
 7215SOL     OW22543   6.170   2.729   4.416
 7215SOL    HW122544   6.098   2.738   4.484
 7215SOL    HW222545   6.135   2.679   4.336
 7216SOL     OW22546   3.197   5.845   2.113
 7216SOL    HW122547   3.113   5.898   2.111
 7216SOL    HW222548   3.265   5.892   2.171
 7217SOL     OW22549   1.581   3.741   3.585
 7217SOL    HW122550   1.537   3.734   3.495
 7217SOL    HW222551   1.675   3.708   3.579
 7218SOL     OW22552   6.810   3.011   4.317
 7218SOL    HW122553   6.886   3.015   4.252
 7218SOL    HW222554   6.841   3.041   4.407
 7219SOL     OW22555   2.828   6.920   2.236
 7219SOL    HW122556   2.733   6.910   2.265
 7219SOL    HW222557   2.856   7.015   2.246
 7220SOL     OW22558   6.539   4.825   3.966
 7220SOL    HW122559   6.614   4.882   3.999
 7220SOL    HW222560   6.572   4.732   3.948
 7221SOL     OW22561   3.451   6.065   4.777
 7221SOL    HW122562   3.415   6.043   4.868
 7221SOL    HW222563   3.509   6.147   4.784
 7222SOL     OW22564   5.948   6.860   3.258
 7222SOL    HW122565   5.850   6.881   3.267
 7222SOL    HW222566   5.982   6.894   3.171
 7223SOL     OW22567   2.931   1.028   0.880
 7223SOL    HW122568   2.959   1.083   0.959
 7223SOL    HW222569   2.876   1.084   0.819
 7224SOL     OW22570   4.699   2.711   4.822
 7224SOL    HW122571   4.721   2.659   4.905
 7224SOL    HW222572   4.784   2.742   4.779
 7225SOL     OW22573   1.589   6.636   0.734
 7225SOL    HW122574   1.554   6.709   0.676
 7225SOL    HW222575   1.674   6.667   0.777
 7226SOL     OW22576   5.888   0.262   1.496
 7226SOL    HW122577   5.986   0.270   1.513
 7226SOL    HW222578   5.871   0.183   1.437
 7227SOL     OW22579   2.956   1.660   2.013
 7227SOL    HW122580   2.916   1.750   2.026
 7227SOL    HW222581   2.955   1.636   1.916
 7228SOL     OW22582   1.419   1.316   3.109
 7228SOL    HW122583   1.361   1.235   3.111
 7228SOL    HW222584   1.500   1.296   3.052
 7229SOL     OW22585   0.752   6.893   4.679
 7229SOL    HW122586   0.784   6.873   4.772
 7229SOL    HW222587   0.755   6.809   4.624
 7230SOL     OW22588   3.108   5.737   3.574
 7230SOL    HW122589   3.205   5.750   3.596
 7230SOL    HW222590   3.096   5.650   3.526
 7231SOL     OW22591   4.425   0.628   0.106
 7231SOL    HW122592   4.521   0.651   0.088
 7231SOL    HW222593   4.372   0.636   0.022
 7232SOL     OW22594   4.951   6.402   2.799
 7232SOL    HW122595   4.991   6.314   2.776
 7232SOL    HW222596   4.981   6.429   2.891
 7233SOL     OW22597   1.149   1.278   5.150
 7233SOL    HW122598   1.147   1.215   5.072
 7233SOL    HW222599   1.243   1.291   5.180
 7234SOL     OW22600   5.590   3.334   2.626
 7234SOL    HW122601   5.669   3.363   2.681
 7234SOL    HW222602   5.582   3.235   2.630
 7235SOL     OW22603   6.289   4.443   1.893
 7235SOL    HW122604   6.305   4.520   1.832
 7235SOL    HW222605   6.271   4.477   1.985
 7236SOL     OW22606   2.610   2.422   2.795
 7236SOL    HW122607   2.641   2.460   2.707
 7236SOL    HW222608   2.654   2.334   2.810
 7237SOL     OW22609   3.705   0.105   6.198
 7237SOL    HW122610   3.619   0.080   6.242
 7237SOL    HW222611   3.777   0.110   6.267
 7238SOL     OW22612   4.562   2.297   6.035
 7238SOL    HW122613   4.590   2.304   6.130
 7238SOL    HW222614   4.615   2.361   5.980
 7239SOL     OW22615   0.971   3.042   1.626
 7239SOL    HW122616   0.920   2.986   1.692
 7239SOL    HW222617   1.067   3.013   1.625
 7240SOL     OW22618   0.171   1.315   6.533
 7240SOL    HW122619   0.075   1.337   6.516
 7240SOL    HW222620   0.192   1.332   6.629
 7241SOL     OW22621   2.515   0.238   0.600
 7241SOL    HW122622   2.555   0.320   0.559
 7241SOL    HW222623   2.561   0.157   0.563
 7242SOL     OW22624   6.964   5.331   6.439
 7242SOL    HW122625   6.941   5.397   6.367
 7242SOL    HW222626   6.910   5.351   6.520
 7243SOL     OW22627   6.822   4.477   6.000
 7243SOL    HW122628   6.830   4.378   6.013
 7243SOL    HW222629   6.802   4.520   6.088
 7244SOL     OW22630   0.562   0.328   1.398
 7244SOL    HW122631   0.497   0.396   1.365
 7244SOL    HW222632   0.575   0.257   1.330
 7245SOL     OW22633   0.721   3.168   5.635
 7245SOL    HW122634   0.767   3.082   5.612
 7245SOL    HW222635   0.790   3.239   5.650
 7246SOL     OW22636   1.691   0.248   3.583
 7246SOL    HW122637   1.777   0.268   3.630
 7246SOL    HW222638   1.710   0.191   3.502
 7247SOL     OW22639   2.633   1.720   5.355
 7247SOL    HW122640   2.604   1.814   5.370
 7247SOL    HW222641   2.620   1.696   5.258
 7248SOL     OW22642   3.235   0.745   2.812
 7248SOL    HW122643   3.331   0.768   2.827
 7248SOL    HW222644   3.177   0.809   2.862
 7249SOL     OW22645   5.069   4.947   1.739
 7249SOL    HW122646   5.087   4.951   1.837
 7249SOL    HW222647   5.012   5.024   1.712
 7250SOL     OW22648   5.256   5.607   5.930
 7250SOL    HW122649   5.274   5.510   5.916
 7250SOL    HW222650   5.319   5.643   5.999
 7251SOL     OW22651   0.962   6.865   4.403
 7251SOL    HW122652   1.049   6.866   4.354
 7251SOL    HW222653   0.954   6.948   4.458
 7252SOL     OW22654   3.215   3.656   1.836
 7252SOL    HW122655   3.203   3.682   1.741
 7252SOL    HW222656   3.127   3.661   1.884
 7253SOL     OW22657   1.811   5.867   6.732
 7253SOL    HW122658   1.759   5.919   6.800
 7253SOL    HW222659   1.749   5.813   6.675
 7254SOL     OW22660   5.656   5.116   4.666
 7254SOL    HW122661   5.680   5.021   4.686
 7254SOL    HW222662   5.627   5.161   4.750
 7255SOL     OW22663   4.591   3.533   0.004
 7255SOL    HW122664   4.505   3.487   7.011
 7255SOL    HW222665   4.608   3.532   0.102
 7256SOL     OW22666   3.307   5.743   5.258
 7256SOL    HW122667   3.300   5.705   5.166
 7256SOL    HW222668   3.215   5.757   5.296
 7257SOL     OW22669   0.230   2.078   3.489
 7257SOL    HW122670   0.147   2.025   3.475
 7257SOL    HW222671   0.262   2.113   3.401
 7258SOL     OW22672   4.512   2.186   2.965
 7258SOL    HW122673   4.434   2.144   3.012
 7258SOL    HW222674   4.553   2.255   3.025
 7259SOL     OW22675   1.881   3.473   2.115
 7259SOL    HW122676   1.975   3.504   2.130
 7259SOL    HW222677   1.866   3.388   2.166
 7260SOL     OW22678   6.013   1.724   2.027
 7260SOL    HW122679   5.932   1.665   2.028
 7260SOL    HW222680   6.010   1.784   1.946
 7261SOL     OW22681   0.947   4.879   1.574
 7261SOL    HW122682   0.976   4.963   1.620
 7261SOL    HW222683   0.945   4.894   1.475
 7262SOL     OW22684   5.472   2.165   6.416
 7262SOL    HW122685   5.482   2.075   6.459
 7262SOL    HW222686   5.451   2.153   6.319
 7263SOL     OW22687   0.378   6.565   6.720
 7263SOL    HW122688   0.298   6.553   6.780
 7263SOL    HW222689   0.352   6.543   6.626
 7264SOL     OW22690   5.340   1.464   0.756
 7264SOL    HW122691   5.374   1.375   0.787
 7264SOL    HW222692   5.355   1.532   0.828
 7265SOL     OW22693   5.561   4.838   6.182
 7265SOL    HW122694   5.483   4.780   6.161
 7265SOL    HW222695   5.646   4.786   6.169
 7266SOL     OW22696   5.309   1.127   2.961
 7266SOL    HW122697   5.228   1.087   3.005
 7266SOL    HW222698   5.389   1.111   3.018
 7267SOL     OW22699   6.477   6.262   5.153
 7267SOL    HW122700   6.542   6.321   5.105
 7267SOL    HW222701   6.509   6.167   5.148
 7268SOL     OW22702   6.820   5.752   4.677
 7268SOL    HW122703   6.737   5.696   4.684
 7268SOL    HW222704   6.855   5.771   4.769
 7269SOL     OW22705   1.859   6.270   6.007
 7269SOL    HW122706   1.828   6.212   5.932
 7269SOL    HW222707   1.907   6.349   5.970
 7270SOL     OW22708   0.732   2.828   5.175
 7270SOL    HW122709   0.796   2.903   5.192
 7270SOL    HW222710   0.639   2.860   5.186
 7271SOL     OW22711   1.456   5.031   4.050
 7271SOL    HW122712   1.474   5.128   4.031
 7271SOL    HW222713   1.393   4.995   3.982
 7272SOL     OW22714   6.262   5.909   2.606
 7272SOL    HW122715   6.253   5.830   2.545
 7272SOL    HW222716   6.343   5.962   2.579
 7273SOL     OW22717   6.434   4.082   0.719
 7273SOL    HW122718   6.412   4.020   0.643
 7273SOL    HW222719   6.368   4.156   0.722
 7274SOL     OW22720   0.447   5.303   6.607
 7274SOL    HW122721   0.368   5.248   6.580
 7274SOL    HW222722   0.422   5.361   6.685
 7275SOL     OW22723   0.032   5.055   3.243
 7275SOL    HW122724   0.017   4.965   3.202
 7275SOL    HW222725   0.068   5.118   3.174
 7276SOL     OW22726   4.584   0.987   3.607
 7276SOL    HW122727   4.628   1.070   3.639
 7276SOL    HW222728   4.495   0.977   3.651
 7277SOL     OW22729   4.743   0.572   4.446
 7277SOL    HW122730   4.832   0.560   4.491
 7277SOL    HW222731   4.751   0.547   4.350
 7278SOL     OW22732   3.935   2.779   0.930
 7278SOL    HW122733   3.899   2.713   0.995
 7278SOL    HW222734   3.955   2.734   0.843
 7279SOL     OW22735   4.119   4.937   6.616
 7279SOL    HW122736   4.208   4.923   6.660
 7279SOL    HW222737   4.047   4.894   6.670
 7280SOL     OW22738   0.278   1.688   3.819
 7280SOL    HW122739   0.306   1.607   3.870
 7280SOL    HW222740   0.358   1.729   3.775
 7281SOL     OW22741   2.697   1.772   6.635
 7281SOL    HW122742   2.713   1.746   6.540
 7281SOL    HW222743   2.620   1.721   6.672
 7282SOL     OW22744   5.331   5.307   3.217
 7282SOL    HW122745   5.407   5.372   3.224
 7282SOL    HW222746   5.272   5.316   3.297
 7283SOL     OW22747   4.190   1.489   2.695
 7283SOL    HW122748   4.212   1.586   2.708
 7283SOL    HW222749   4.270   1.441   2.659
 7284SOL     OW22750   0.394   3.047   6.242
 7284SOL    HW122751   0.448   3.046   6.158
 7284SOL    HW222752   0.359   2.955   6.261
 7285SOL     OW22753   5.146   3.053   2.230
 7285SOL    HW122754   5.219   3.100   2.180
 7285SOL    HW222755   5.057   3.086   2.199
 7286SOL     OW22756   2.859   0.872   0.304
 7286SOL    HW122757   2.802   0.954   0.311
 7286SOL    HW222758   2.829   0.817   0.227
 7287SOL     OW22759   0.047   2.656   5.946
 7287SOL    HW122760   6.985   2.697   5.924
 7287SOL    HW222761   0.052   2.564   5.909
 7288SOL     OW22762   3.005   0.707   0.492
 7288SOL    HW122763   2.936   0.643   0.526
 7288SOL    HW222764   2.961   0.778   0.437
 7289SOL     OW22765   4.925   2.785   4.686
 7289SOL    HW122766   4.991   2.710   4.693
 7289SOL    HW222767   4.971   2.871   4.710
 7290SOL     OW22768   3.854   0.224   5.439
 7290SOL    HW122769   3.832   0.192   5.531
 7290SOL    HW222770   3.770   0.253   5.393
 7291SOL     OW22771   2.145   6.969   0.643
 7291SOL    HW122772   2.128   7.010   0.553
 7291SOL    HW222773   2.092   6.884   0.651
 7292SOL     OW22774   3.920   0.822   3.211
 7292SOL    HW122775   3.913   0.891   3.139
 7292SOL    HW222776   3.830   0.806   3.250
 7293SOL     OW22777   1.156   2.164   4.783
 7293SOL    HW122778   1.191   2.204   4.867
 7293SOL    HW222779   1.116   2.235   4.726
 7294SOL     OW22780   2.780   4.952   6.901
 7294SOL    HW122781   2.874   4.916   6.904
 7294SOL    HW222782   2.720   4.893   6.955
 7295SOL     OW22783   0.775   2.473   0.885
 7295SOL    HW122784   0.762   2.460   0.787
 7295SOL    HW222785   0.693   2.518   0.923
 7296SOL     OW22786   3.188   5.239   1.815
 7296SOL    HW122787   3.171   5.289   1.900
 7296SOL    HW222788   3.161   5.143   1.827
 7297SOL     OW22789   3.951   6.667   1.731
 7297SOL    HW122790   4.033   6.627   1.690
 7297SOL    HW222791   3.934   6.756   1.691
 7298SOL     OW22792   5.196   4.452   5.400
 7298SOL    HW122793   5.293   4.448   5.427
 7298SOL    HW222794   5.142   4.486   5.477
 7299SOL     OW22795   0.966   1.601   0.575
 7299SOL    HW122796   0.929   1.659   0.502
 7299SOL    HW222797   1.060   1.575   0.553
 7300SOL     OW22798   6.690   5.624   3.320
 7300SOL    HW122799   6.643   5.711   3.304
 7300SOL    HW222800   6.624   5.555   3.350
 7301SOL     OW22801   5.698   0.725   4.946
 7301SOL    HW122802   5.606   0.710   4.910
 7301SOL    HW222803   5.758   0.759   4.873
 7302SOL     OW22804   1.118   1.802   5.384
 7302SOL    HW122805   1.177   1.721   5.384
 7302SOL    HW222806   1.175   1.885   5.386
 7303SOL     OW22807   3.728   0.529   0.460
 7303SOL    HW122808   3.696   0.503   0.369
 7303SOL    HW222809   3.652   0.524   0.525
 7304SOL     OW22810   4.085   4.711   0.979
 7304SOL    HW122811   4.099   4.723   1.077
 7304SOL    HW222812   4.008   4.648   0.965
 7305SOL     OW22813   4.888   1.014   0.207
 7305SOL    HW122814   4.834   1.022   0.124
 7305SOL    HW222815   4.844   0.951   0.271
 7306SOL     OW22816   4.947   2.055   1.198
 7306SOL    HW122817   4.868   2.116   1.189
 7306SOL    HW222818   4.996   2.052   1.110
 7307SOL     OW22819   2.023   6.755   2.084
 7307SOL    HW122820   2.073   6.671   2.102
 7307SOL    HW222821   2.087   6.832   2.078
 7308SOL     OW22822   6.919   3.114   5.994
 7308SOL    HW122823   6.826   3.116   5.957
 7308SOL    HW222824   6.983   3.085   5.923
 7309SOL     OW22825   4.702   5.544   1.395
 7309SOL    HW122826   4.681   5.534   1.298
 7309SOL    HW222827   4.637   5.607   1.437
 7310SOL     OW22828   2.369   4.118   1.604
 7310SOL    HW122829   2.297   4.073   1.659
 7310SOL    HW222830   2.326   4.175   1.534
 7311SOL     OW22831   2.770   1.995   1.392
 7311SOL    HW122832   2.725   2.071   1.438
 7311SOL    HW222833   2.869   2.014   1.387
 7312SOL     OW22834   0.513   3.315   4.553
 7312SOL    HW122835   0.467   3.334   4.640
 7312SOL    HW222836   0.604   3.280   4.570
 7313SOL     OW22837   2.353   1.310   6.293
 7313SOL    HW122838   2.289   1.359   6.352
 7313SOL    HW222839   2.432   1.368   6.274
 7314SOL     OW22840   6.767   5.646   6.423
 7314SOL    HW122841   6.784   5.743   6.439
 7314SOL    HW222842   6.784   5.624   6.326
 7315SOL     OW22843   6.487   0.303   2.442
 7315SOL    HW122844   6.486   0.299   2.343
 7315SOL    HW222845   6.512   0.214   2.479
 7316SOL     OW22846   2.846   3.877   6.223
 7316SOL    HW122847   2.824   3.874   6.125
 7316SOL    HW222848   2.826   3.968   6.258
 7317SOL     OW22849   5.145   1.864   2.917
 7317SOL    HW122850   5.120   1.959   2.897
 7317SOL    HW222851   5.234   1.844   2.877
 7318SOL     OW22852   1.758   0.778   1.408
 7318SOL    HW122853   1.759   0.839   1.488
 7318SOL    HW222854   1.826   0.810   1.342
 7319SOL     OW22855   0.094   4.126   6.421
 7319SOL    HW122856   0.121   4.208   6.472
 7319SOL    HW222857   0.071   4.053   6.486
 7320SOL     OW22858   6.355   3.666   2.472
 7320SOL    HW122859   6.378   3.574   2.440
 7320SOL    HW222860   6.293   3.659   2.550
 7321SOL     OW22861   2.540   0.686   5.799
 7321SOL    HW122862   2.493   0.735   5.873
 7321SOL    HW222863   2.617   0.742   5.767
 7322SOL     OW22864   6.796   2.807   3.060
 7322SOL    HW122865   6.849   2.722   3.058
 7322SOL    HW222866   6.788   2.838   3.155
 7323SOL     OW22867   1.881   2.003   2.084
 7323SOL    HW122868   1.862   1.968   1.992
 7323SOL    HW222869   1.851   2.098   2.090
 7324SOL     OW22870   4.637   6.337   2.203
 7324SOL    HW122871   4.636   6.332   2.303
 7324SOL    HW222872   4.580   6.413   2.174
 7325SOL     OW22873   3.405   6.941   0.611
 7325SOL    HW122874   3.317   6.895   0.626
 7325SOL    HW222875   3.411   6.970   0.516
 7326SOL     OW22876   3.054   5.771   5.383
 7326SOL    HW122877   2.988   5.820   5.327
 7326SOL    HW222878   3.044   5.799   5.479
 7327SOL     OW22879   5.889   1.641   6.205
 7327SOL    HW122880   5.895   1.660   6.303
 7327SOL    HW222881   5.913   1.546   6.188
 7328SOL     OW22882   3.670   0.761   6.446
 7328SOL    HW122883   3.668   0.718   6.356
 7328SOL    HW222884   3.584   0.808   6.463
 7329SOL     OW22885   6.024   3.658   1.477
 7329SOL    HW122886   5.995   3.666   1.573
 7329SOL    HW222887   5.992   3.737   1.425
 7330SOL     OW22888   2.344   2.174   6.989
 7330SOL    HW122889   2.310   2.081   6.980
 7330SOL    HW222890   2.267   2.238   6.992
 7331SOL     OW22891   5.198   6.964   1.784
 7331SOL    HW122892   5.252   7.015   1.717
 7331SOL    HW222893   5.194   6.868   1.757
 7332SOL     OW22894   2.091   6.155   0.280
 7332SOL    HW122895   2.174   6.183   0.230
 7332SOL    HW222896   2.104   6.063   0.317
 7333SOL     OW22897   0.660   2.675   2.190
 7333SOL    HW122898   0.674   2.731   2.272
 7333SOL    HW222899   0.572   2.627   2.197
 7334SOL     OW22900   2.875   5.620   5.893
 7334SOL    HW122901   2.952   5.668   5.849
 7334SOL    HW222902   2.897   5.605   5.989
 7335SOL     OW22903   1.875   2.619   2.873
 7335SOL    HW122904   1.780   2.594   2.856
 7335SOL    HW222905   1.921   2.545   2.921
 7336SOL     OW22906   1.659   6.840   2.971
 7336SOL    HW122907   1.743   6.788   2.955
 7336SOL    HW222908   1.580   6.784   2.947
 7337SOL     OW22909   0.014   3.535   2.098
 7337SOL    HW122910   0.100   3.492   2.072
 7337SOL    HW222911   0.007   3.538   2.198
 7338SOL     OW22912   6.515   2.100   1.744
 7338SOL    HW122913   6.515   2.042   1.825
 7338SOL    HW222914   6.608   2.134   1.728
 7339SOL     OW22915   6.000   6.945   4.129
 7339SOL    HW122916   5.996   6.924   4.227
 7339SOL    HW222917   5.977   0.015   4.114
 7340SOL     OW22918   2.598   1.209   1.078
 7340SOL    HW122919   2.550   1.121   1.085
 7340SOL    HW222920   2.696   1.195   1.092
 7341SOL     OW22921   0.226   3.221   6.790
 7341SOL    HW122922   0.214   3.122   6.781
 7341SOL    HW222923   0.224   3.246   6.887
 7342SOL     OW22924   0.234   1.735   1.299
 7342SOL    HW122925   0.204   1.828   1.279
 7342SOL    HW222926   0.173   1.694   1.367
 7343SOL     OW22927   5.966   3.759   0.588
 7343SOL    HW122928   6.044   3.706   0.554
 7343SOL    HW222929   5.890   3.697   0.606
 7344SOL     OW22930   0.710   1.216   6.648
 7344SOL    HW122931   0.684   1.133   6.598
 7344SOL    HW222932   0.792   1.198   6.702
 7345SOL     OW22933   4.400   4.440   5.977
 7345SOL    HW122934   4.364   4.527   6.011
 7345SOL    HW222935   4.454   4.458   5.894
 7346SOL     OW22936   4.188   5.728   2.072
 7346SOL    HW122937   4.257   5.742   2.001
 7346SOL    HW222938   4.124   5.805   2.072
 7347SOL     OW22939   1.231   1.523   0.539
 7347SOL    HW122940   1.200   1.432   0.568
 7347SOL    HW222941   1.329   1.533   0.558
 7348SOL     OW22942   1.614   4.083   4.001
 7348SOL    HW122943   1.707   4.068   4.035
 7348SOL    HW222944   1.549   4.079   4.077
 7349SOL     OW22945   4.822   0.959   1.326
 7349SOL    HW122946   4.749   0.938   1.262
 7349SOL    HW222947   4.902   0.903   1.306
 7350SOL     OW22948   2.667   2.377   5.709
 7350SOL    HW122949   2.615   2.458   5.737
 7350SOL    HW222950   2.692   2.385   5.612
 7351SOL     OW22951   5.418   5.698   4.719
 7351SOL    HW122952   5.336   5.672   4.669
 7351SOL    HW222953   5.394   5.733   4.809
 7352SOL     OW22954   1.750   1.734   3.125
 7352SOL    HW122955   1.828   1.696   3.175
 7352SOL    HW222956   1.768   1.729   3.027
 7353SOL     OW22957   0.445   0.390   5.935
 7353SOL    HW122958   0.444   0.484   5.900
 7353SOL    HW222959   0.365   0.377   5.994
 7354SOL     OW22960   1.117   1.704   4.463
 7354SOL    HW122961   1.124   1.727   4.366
 7354SOL    HW222962   1.113   1.789   4.517
 7355SOL     OW22963   1.470   0.753   0.986
 7355SOL    HW122964   1.504   0.832   0.935
 7355SOL    HW222965   1.448   0.780   1.079
 7356SOL     OW22966   3.950   3.442   6.390
 7356SOL    HW122967   4.047   3.446   6.364
 7356SOL    HW222968   3.905   3.527   6.363
 7357SOL     OW22969   3.126   6.401   1.743
 7357SOL    HW122970   3.065   6.416   1.665
 7357SOL    HW222971   3.159   6.307   1.742
 7358SOL     OW22972   6.386   3.400   2.411
 7358SOL    HW122973   6.287   3.416   2.414
 7358SOL    HW222974   6.422   3.400   2.505
 7359SOL     OW22975   4.341   2.021   5.434
 7359SOL    HW122976   4.283   2.103   5.431
 7359SOL    HW222977   4.428   2.043   5.477
 7360SOL     OW22978   3.015   3.425   5.263
 7360SOL    HW122979   3.007   3.513   5.309
 7360SOL    HW222980   3.075   3.365   5.317
 7361SOL     OW22981   5.024   0.359   2.560
 7361SOL    HW122982   5.107   0.303   2.563
 7361SOL    HW222983   5.042   0.443   2.509
 7362SOL     OW22984   1.272   6.062   6.420
 7362SOL    HW122985   1.330   6.135   6.458
 7362SOL    HW222986   1.297   6.047   6.324
 7363SOL     OW22987   4.194   1.793   1.024
 7363SOL    HW122988   4.234   1.883   1.004
 7363SOL    HW222989   4.122   1.803   1.092
 7364SOL     OW22990   4.600   0.765   1.907
 7364SOL    HW122991   4.526   0.706   1.876
 7364SOL    HW222992   4.626   0.827   1.833
 7365SOL     OW22993   0.371   6.198   1.732
 7365SOL    HW122994   0.352   6.160   1.822
 7365SOL    HW222995   0.461   6.240   1.731
 7366SOL     OW22996   2.302   6.684   6.060
 7366SOL    HW122997   2.358   6.620   6.113
 7366SOL    HW222998   2.301   6.772   6.106
 7367SOL     OW22999   4.847   2.744   0.949
 7367SOL    HW123000   4.824   2.661   0.899
 7367SOL    HW223001   4.763   2.787   0.981
 7368SOL     OW23002   3.809   2.979   2.670
 7368SOL    HW123003   3.732   2.965   2.607
 7368SOL    HW223004   3.880   3.032   2.624
 7369SOL     OW23005   2.803   2.325   1.098
 7369SOL    HW123006   2.873   2.256   1.080
 7369SOL    HW223007   2.845   2.407   1.135
 7370SOL     OW23008   2.171   1.475   5.205
 7370SOL    HW123009   2.136   1.399   5.150
 7370SOL    HW223010   2.120   1.481   5.290
 7371SOL     OW23011   2.528   6.853   3.361
 7371SOL    HW123012   2.506   6.800   3.279
 7371SOL    HW223013   2.535   6.950   3.338
 7372SOL     OW23014   4.224   0.191   4.396
 7372SOL    HW123015   4.136   0.207   4.352
 7372SOL    HW223016   4.210   0.154   4.488
 7373SOL     OW23017   6.151   1.604   4.519
 7373SOL    HW123018   6.161   1.506   4.536
 7373SOL    HW223019   6.078   1.641   4.577
 7374SOL     OW23020   2.683   2.271   5.144
 7374SOL    HW123021   2.710   2.223   5.227
 7374SOL    HW223022   2.752   2.256   5.073
 7375SOL     OW23023   2.152   2.490   2.307
 7375SOL    HW123024   2.062   2.457   2.336
 7375SOL    HW223025   2.148   2.518   2.211
 7376SOL     OW23026   1.636   1.590   1.111
 7376SOL    HW123027   1.590   1.667   1.155
 7376SOL    HW223028   1.577   1.509   1.114
 7377SOL     OW23029   5.189   4.795   0.546
 7377SOL    HW123030   5.185   4.828   0.640
 7377SOL    HW223031   5.239   4.861   0.490
 7378SOL     OW23032   0.937   0.317   5.157
 7378SOL    HW123033   0.964   0.223   5.135
 7378SOL    HW223034   0.848   0.316   5.202
 7379SOL     OW23035   3.579   1.502   2.322
 7379SOL    HW123036   3.603   1.521   2.418
 7379SOL    HW223037   3.481   1.513   2.309
 7380SOL     OW23038   0.705   4.480   3.994
 7380SOL    HW123039   0.803   4.471   3.977
 7380SOL    HW223040   0.677   4.415   4.064
 7381SOL     OW23041   4.266   3.141   0.503
 7381SOL    HW123042   4.204   3.208   0.461
 7381SOL    HW223043   4.265   3.057   0.450
 7382SOL     OW23044   0.019   1.090   4.779
 7382SOL    HW123045   0.020   0.991   4.763
 7382SOL    HW223046   0.088   1.133   4.722
 7383SOL     OW23047   2.840   6.433   1.171
 7383SOL    HW123048   2.910   6.496   1.137
 7383SOL    HW223049   2.885   6.355   1.215
 7384SOL     OW23050   6.804   6.331   3.085
 7384SOL    HW123051   6.886   6.311   3.139
 7384SOL    HW223052   6.751   6.247   3.073
 7385SOL     OW23053   3.015   5.403   2.336
 7385SOL    HW123054   3.029   5.494   2.374
 7385SOL    HW223055   3.008   5.336   2.411
 7386SOL     OW23056   6.841   2.773   6.759
 7386SOL    HW123057   6.894   2.714   6.820
 7386SOL    HW223058   6.770   2.820   6.811
 7387SOL     OW23059   6.666   5.114   5.626
 7387SOL    HW123060   6.699   5.199   5.584
 7387SOL    HW223061   6.698   5.108   5.720
 7388SOL     OW23062   1.007   5.028   2.405
 7388SOL    HW123063   1.045   5.038   2.313
 7388SOL    HW223064   0.908   5.016   2.399
 7389SOL     OW23065   6.277   4.208   6.017
 7389SOL    HW123066   6.314   4.286   6.067
 7389SOL    HW223067   6.177   4.216   6.013
 7390SOL     OW23068   2.171   2.166   2.121
 7390SOL    HW123069   2.222   2.208   2.046
 7390SOL    HW223070   2.074   2.162   2.096
 7391SOL     OW23071   3.835   3.373   3.514
 7391SOL    HW123072   3.894   3.339   3.588
 7391SOL    HW223073   3.867   3.462   3.484
 7392SOL     OW23074   3.164   6.169   6.779
 7392SOL    HW123075   3.251   6.131   6.747
 7392SOL    HW223076   3.158   6.161   6.878
 7393SOL     OW23077   5.989   4.833   3.243
 7393SOL    HW123078   5.974   4.736   3.262
 7393SOL    HW223079   6.036   4.875   3.321
 7394SOL     OW23080   1.459   3.024   5.584
 7394SOL    HW123081   1.422   2.935   5.609
 7394SOL    HW223082   1.533   3.012   5.518
 7395SOL     OW23083   2.129   3.777   1.235
 7395SOL    HW123084   2.146   3.814   1.326
 7395SOL    HW223085   2.158   3.682   1.231
 7396SOL     OW23086   1.953   6.793   1.034
 7396SOL    HW123087   2.006   6.877   1.020
 7396SOL    HW223088   1.953   6.769   1.131
 7397SOL     OW23089   4.650   5.836   4.531
 7397SOL    HW123090   4.672   5.907   4.598
 7397SOL    HW223091   4.551   5.819   4.532
 7398SOL     OW23092   1.274   5.116   3.390
 7398SOL    HW123093   1.204   5.046   3.387
 7398SOL    HW223094   1.346   5.089   3.455
 7399SOL     OW23095   0.593   2.276   4.453
 7399SOL    HW123096   0.494   2.283   4.436
 7399SOL    HW223097   0.608   2.237   4.544
 7400SOL     OW23098   4.110   2.792   5.950
 7400SOL    HW123099   4.141   2.705   5.909
 7400SOL    HW223100   4.186   2.856   5.953
 7401SOL     OW23101   0.980   3.031   3.449
 7401SOL    HW123102   1.004   3.058   3.543
 7401SOL    HW223103   1.015   2.939   3.432
 7402SOL     OW23104   3.246   4.244   6.121
 7402SOL    HW123105   3.326   4.186   6.135
 7402SOL    HW223106   3.194   4.249   6.206
 7403SOL     OW23107   1.418   4.186   2.445
 7403SOL    HW123108   1.351   4.258   2.460
 7403SOL    HW223109   1.395   4.107   2.502
 7404SOL     OW23110   2.728   4.917   1.947
 7404SOL    HW123111   2.739   4.980   2.023
 7404SOL    HW223112   2.772   4.830   1.969
 7405SOL     OW23113   3.978   4.828   4.166
 7405SOL    HW123114   3.944   4.823   4.259
 7405SOL    HW223115   3.903   4.848   4.103
 7406SOL     OW23116   0.787   1.818   4.533
 7406SOL    HW123117   0.713   1.846   4.471
 7406SOL    HW223118   0.776   1.863   4.621
 7407SOL     OW23119   0.904   6.826   5.142
 7407SOL    HW123120   0.919   6.783   5.053
 7407SOL    HW223121   0.816   6.796   5.179
 7408SOL     OW23122   3.807   4.016   5.902
 7408SOL    HW123123   3.868   3.944   5.871
 7408SOL    HW223124   3.745   4.042   5.828
 7409SOL     OW23125   5.466   3.203   6.668
 7409SOL    HW123126   5.534   3.164   6.730
 7409SOL    HW223127   5.439   3.294   6.701
 7410SOL     OW23128   0.756   0.781   6.845
 7410SOL    HW123129   0.819   0.806   6.772
 7410SOL    HW223130   0.695   0.709   6.814
 7411SOL     OW23131   2.359   1.139   0.151
 7411SOL    HW123132   2.364   1.218   0.089
 7411SOL    HW223133   2.331   1.170   0.241
 7412SOL     OW23134   4.298   0.051   1.457
 7412SOL    HW123135   4.281   7.015   1.381
 7412SOL    HW223136   4.255   0.014   1.540
 7413SOL     OW23137   4.389   5.025   4.000
 7413SOL    HW123138   4.376   5.086   3.922
 7413SOL    HW223139   4.301   5.008   4.043
 7414SOL     OW23140   2.002   0.909   3.531
 7414SOL    HW123141   1.949   0.945   3.608
 7414SOL    HW223142   2.031   0.985   3.472
 7415SOL     OW23143   2.041   4.459   5.032
 7415SOL    HW123144   2.112   4.395   5.001
 7415SOL    HW223145   2.076   4.552   5.029
 7416SOL     OW23146   2.523   0.382   2.184
 7416SOL    HW123147   2.496   0.469   2.226
 7416SOL    HW223148   2.622   0.380   2.171
 7417SOL     OW23149   2.066   2.342   1.723
 7417SOL    HW123150   2.087   2.414   1.657
 7417SOL    HW223151   2.147   2.325   1.780
 7418SOL     OW23152   1.560   5.495   6.930
 7418SOL    HW123153   1.615   5.491   6.847
 7418SOL    HW223154   1.463   5.495   6.906
 7419SOL     OW23155   6.676   3.946   4.012
 7419SOL    HW123156   6.738   3.916   4.085
 7419SOL    HW223157   6.603   3.879   4.001
 7420SOL     OW23158   0.199   6.538   0.879
 7420SOL    HW123159   0.166   6.553   0.972
 7420SOL    HW223160   0.169   6.612   0.819
 7421SOL     OW23161   4.115   3.489   1.156
 7421SOL    HW123162   4.129   3.555   1.230
 7421SOL    HW223163   4.063   3.411   1.191
 7422SOL     OW23164   0.310   4.303   2.054
 7422SOL    HW123165   0.358   4.364   1.991
 7422SOL    HW223166   0.212   4.322   2.049
 7423SOL     OW23167   6.271   2.218   5.629
 7423SOL    HW123168   6.293   2.307   5.591
 7423SOL    HW223169   6.239   2.229   5.723
 7424SOL     OW23170   6.920   1.472   6.007
 7424SOL    HW123171   6.969   1.391   5.974
 7424SOL    HW223172   6.842   1.490   5.947
 7425SOL     OW23173   5.036   0.025   0.520
 7425SOL    HW123174   5.056   0.122   0.537
 7425SOL    HW223175   5.121   7.004   0.495
 7426SOL     OW23176   2.897   1.688   5.296
 7426SOL    HW123177   2.910   1.772   5.244
 7426SOL    HW223178   2.802   1.681   5.325
 7427SOL     OW23179   4.820   0.889   4.222
 7427SOL    HW123180   4.726   0.889   4.257
 7427SOL    HW223181   4.850   0.796   4.206
 7428SOL     OW23182   4.064   0.447   5.186
 7428SOL    HW123183   4.022   0.432   5.097
 7428SOL    HW223184   3.995   0.477   5.252
 7429SOL     OW23185   0.573   6.076   3.687
 7429SOL    HW123186   0.645   6.034   3.632
 7429SOL    HW223187   0.613   6.142   3.750
 7430SOL     OW23188   0.215   3.759   1.465
 7430SOL    HW123189   0.272   3.751   1.547
 7430SOL    HW223190   0.267   3.803   1.392
 7431SOL     OW23191   1.074   2.385   2.835
 7431SOL    HW123192   1.127   2.329   2.772
 7431SOL    HW223193   1.113   2.379   2.927
 7432SOL     OW23194   2.135   0.502   3.298
 7432SOL    HW123195   2.191   0.561   3.239
 7432SOL    HW223196   2.104   0.554   3.377
 7433SOL     OW23197   3.916   6.097   6.354
 7433SOL    HW123198   3.947   6.008   6.386
 7433SOL    HW223199   3.831   6.121   6.401
 7434SOL     OW23200   4.882   5.381   5.744
 7434SOL    HW123201   4.865   5.477   5.722
 7434SOL    HW223202   4.801   5.341   5.787
 7435SOL     OW23203   4.987   6.423   1.128
 7435SOL    HW123204   4.931   6.347   1.160
 7435SOL    HW223205   4.934   6.508   1.136
 7436SOL     OW23206   4.650   4.121   6.198
 7436SOL    HW123207   4.597   4.149   6.118
 7436SOL    HW223208   4.747   4.128   6.178
 7437SOL     OW23209   2.907   5.894   0.224
 7437SOL    HW123210   2.856   5.846   0.152
 7437SOL    HW223211   2.872   5.988   0.232
 7438SOL     OW23212   0.736   0.003   0.017
 7438SOL    HW123213   0.674   0.079   0.038
 7438SOL    HW223214   0.701   6.945   0.059
 7439SOL     OW23215   1.889   6.860   6.248
 7439SOL    HW123216   1.952   6.783   6.244
 7439SOL    HW223217   1.798   6.827   6.275
 7440SOL     OW23218   6.760   2.762   4.021
 7440SOL    HW123219   6.726   2.843   3.973
 7440SOL    HW223220   6.738   2.769   4.118
 7441SOL     OW23221   5.860   0.102   5.021
 7441SOL    HW123222   5.898   0.189   5.053
 7441SOL    HW223223   5.873   0.095   4.922
 7442SOL     OW23224   6.092   1.538   6.976
 7442SOL    HW123225   6.043   1.605   0.007
 7442SOL    HW223226   6.182   1.521   7.016
 7443SOL     OW23227   5.921   5.656   1.816
 7443SOL    HW123228   5.983   5.706   1.876
 7443SOL    HW223229   5.866   5.592   1.869
 7444SOL     OW23230   5.481   1.738   0.176
 7444SOL    HW123231   5.435   1.650   0.181
 7444SOL    HW223232   5.479   1.783   0.265
 7445SOL     OW23233   3.166   0.717   1.198
 7445SOL    HW123234   3.159   0.817   1.199
 7445SOL    HW223235   3.262   0.691   1.184
 7446SOL     OW23236   5.529   2.399   0.005
 7446SOL    HW123237   5.597   2.401   0.078
 7446SOL    HW223238   5.451   2.343   0.034
 7447SOL     OW23239   6.486   4.847   0.348
 7447SOL    HW123240   6.578   4.865   0.381
 7447SOL    HW223241   6.490   4.817   0.253
 7448SOL     OW23242   6.167   6.688   4.827
 7448SOL    HW123243   6.169   6.603   4.775
 7448SOL    HW223244   6.093   6.685   4.894
 7449SOL     OW23245   0.611   5.351   0.999
 7449SOL    HW123246   0.709   5.338   0.983
 7449SOL    HW223247   0.596   5.443   1.036
 7450SOL     OW23248   5.627   2.574   4.696
 7450SOL    HW123249   5.661   2.667   4.711
 7450SOL    HW223250   5.528   2.572   4.709
 7451SOL     OW23251   6.322   6.262   2.561
 7451SOL    HW123252   6.370   6.208   2.630
 7451SOL    HW223253   6.223   6.249   2.570
 7452SOL     OW23254   5.671   5.886   3.958
 7452SOL    HW123255   5.671   5.947   4.037
 7452SOL    HW223256   5.629   5.799   3.984
 7453SOL     OW23257   4.866   5.300   4.791
 7453SOL    HW123258   4.903   5.274   4.702
 7453SOL    HW223259   4.777   5.256   4.804
 7454SOL     OW23260   2.458   2.166   1.385
 7454SOL    HW123261   2.428   2.130   1.473
 7454SOL    HW223262   2.377   2.184   1.328
 7455SOL     OW23263   6.735   2.813   2.002
 7455SOL    HW123264   6.822   2.804   2.049
 7455SOL    HW223265   6.679   2.883   2.046
 7456SOL     OW23266   1.892   1.152   4.829
 7456SOL    HW123267   1.896   1.126   4.925
 7456SOL    HW223268   1.874   1.071   4.773
 7457SOL     OW23269   3.078   0.452   4.854
 7457SOL    HW123270   3.050   0.436   4.759
 7457SOL    HW223271   2.997   0.466   4.911
 7458SOL     OW23272   2.084   0.364   5.818
 7458SOL    HW123273   2.164   0.422   5.801
 7458SOL    HW223274   2.111   0.285   5.874
 7459SOL     OW23275   5.802   1.163   2.433
 7459SOL    HW123276   5.875   1.124   2.490
 7459SOL    HW223277   5.725   1.100   2.430
 7460SOL     OW23278   0.719   5.735   0.131
 7460SOL    HW123279   0.789   5.772   0.192
 7460SOL    HW223280   0.630   5.774   0.156
 7461SOL     OW23281   6.176   6.917   6.360
 7461SOL    HW123282   6.203   6.915   6.263
 7461SOL    HW223283   6.170   6.824   6.395
 7462SOL     OW23284   1.742   4.526   2.277
 7462SOL    HW123285   1.754   4.544   2.375
 7462SOL    HW223286   1.706   4.433   2.265
 7463SOL     OW23287   3.120   4.373   0.026
 7463SOL    HW123288   3.120   4.310   6.974
 7463SOL    HW223289   3.033   4.422   0.029
 7464SOL     OW23290   5.625   0.063   5.535
 7464SOL    HW123291   5.688   0.081   5.459
 7464SOL    HW223292   5.654   7.007   5.583
 7465SOL     OW23293   2.477   5.116   6.835
 7465SOL    HW123294   2.502   5.154   6.746
 7465SOL    HW223295   2.553   5.127   6.899
 7466SOL     OW23296   6.738   0.595   5.383
 7466SOL    HW123297   6.798   0.524   5.420
 7466SOL    HW223298   6.790   0.651   5.318
 7467SOL     OW23299   0.534   2.371   5.995
 7467SOL    HW123300   0.534   2.282   6.041
 7467SOL    HW223301   0.559   2.442   6.060
 7468SOL     OW23302   5.417   3.113   3.973
 7468SOL    HW123303   5.334   3.169   3.975
 7468SOL    HW223304   5.393   3.017   3.988
 7469SOL     OW23305   6.927   1.012   6.606
 7469SOL    HW123306   7.008   1.010   6.547
 7469SOL    HW223307   6.845   1.018   6.549
 7470SOL     OW23308   5.507   3.680   3.584
 7470SOL    HW123309   5.511   3.714   3.678
 7470SOL    HW223310   5.481   3.583   3.585
 7471SOL     OW23311   5.198   6.499   6.175
 7471SOL    HW123312   5.146   6.456   6.101
 7471SOL    HW223313   5.135   6.520   6.251
 7472SOL     OW23314   6.828   0.971   5.598
 7472SOL    HW123315   6.908   0.936   5.550
 7472SOL    HW223316   6.757   0.900   5.600
 7473SOL     OW23317   5.249   5.483   3.849
 7473SOL    HW123318   5.208   5.442   3.768
 7473SOL    HW223319   5.193   5.463   3.929
 7474SOL     OW23320   6.537   1.892   6.586
 7474SOL    HW123321   6.522   1.958   6.660
 7474SOL    HW223322   6.632   1.897   6.555
 7475SOL     OW23323   4.333   2.447   1.827
 7475SOL    HW123324   4.420   2.494   1.844
 7475SOL    HW223325   4.349   2.369   1.766
 7476SOL     OW23326   2.727   1.308   2.990
 7476SOL    HW123327   2.764   1.376   3.053
 7476SOL    HW223328   2.688   1.232   3.041
 7477SOL     OW23329   6.845   2.320   4.789
 7477SOL    HW123330   6.874   2.414   4.806
 7477SOL    HW223331   6.881   2.289   4.701
 7478SOL     OW23332   6.001   3.574   5.382
 7478SOL    HW123333   5.913   3.554   5.427
 7478SOL    HW223334   6.052   3.490   5.368
 7479SOL     OW23335   4.864   2.328   1.863
 7479SOL    HW123336   4.872   2.253   1.798
 7479SOL    HW223337   4.873   2.415   1.814
 7480SOL     OW23338   1.738   4.810   2.610
 7480SOL    HW123339   1.726   4.722   2.565
 7480SOL    HW223340   1.793   4.870   2.551
 7481SOL     OW23341   5.644   4.794   0.770
 7481SOL    HW123342   5.627   4.706   0.725
 7481SOL    HW223343   5.694   4.854   0.707
 7482SOL     OW23344   4.716   2.685   2.658
 7482SOL    HW123345   4.794   2.719   2.606
 7482SOL    HW223346   4.652   2.639   2.596
 7483SOL     OW23347   4.905   3.281   4.805
 7483SOL    HW123348   4.864   3.208   4.860
 7483SOL    HW223349   4.853   3.366   4.819
 7484SOL     OW23350   1.790   6.015   4.600
 7484SOL    HW123351   1.696   5.986   4.616
 7484SOL    HW223352   1.851   5.968   4.664
 7485SOL     OW23353   2.717   0.428   4.857
 7485SOL    HW123354   2.619   0.410   4.849
 7485SOL    HW223355   2.735   0.472   4.945
 7486SOL     OW23356   0.970   6.278   6.751
 7486SOL    HW123357   0.998   6.241   6.662
 7486SOL    HW223358   1.027   6.357   6.774
 7487SOL     OW23359   3.102   0.693   3.647
 7487SOL    HW123360   3.193   0.667   3.614
 7487SOL    HW223361   3.039   0.699   3.569
 7488SOL     OW23362   1.858   5.603   4.888
 7488SOL    HW123363   1.888   5.645   4.973
 7488SOL    HW223364   1.911   5.521   4.870
 7489SOL     OW23365   6.424   2.987   6.805
 7489SOL    HW123366   6.396   3.078   6.835
 7489SOL    HW223367   6.356   2.950   6.742
 7490SOL     OW23368   1.532   0.340   3.329
 7490SOL    HW123369   1.492   0.250   3.346
 7490SOL    HW223370   1.621   0.328   3.284
 7491SOL     OW23371   4.408   3.053   6.903
 7491SOL    HW123372   4.460   2.968   6.905
 7491SOL    HW223373   4.447   3.116   6.836
 7492SOL     OW23374   2.223   0.593   3.670
 7492SOL    HW123375   2.248   0.686   3.700
 7492SOL    HW223376   2.299   0.531   3.688
 7493SOL     OW23377   6.473   2.639   6.195
 7493SOL    HW123378   6.566   2.672   6.184
 7493SOL    HW223379   6.472   2.539   6.192
 7494SOL     OW23380   5.954   1.580   3.486
 7494SOL    HW123381   5.896   1.586   3.405
 7494SOL    HW223382   5.935   1.495   3.535
 7495SOL     OW23383   0.926   3.079   6.219
 7495SOL    HW123384   0.918   2.985   6.186
 7495SOL    HW223385   0.951   3.078   6.316
 7496SOL     OW23386   5.997   3.846   4.051
 7496SOL    HW123387   5.924   3.808   3.993
 7496SOL    HW223388   6.049   3.913   3.999
 7497SOL     OW23389   1.593   4.896   1.112
 7497SOL    HW123390   1.546   4.980   1.085
 7497SOL    HW223391   1.531   4.839   1.166
 7498SOL     OW23392   3.303   0.954   4.290
 7498SOL    HW123393   3.401   0.964   4.277
 7498SOL    HW223394   3.254   1.016   4.228
 7499SOL     OW23395   4.234   2.356   3.507
 7499SOL    HW123396   4.271   2.402   3.587
 7499SOL    HW223397   4.307   2.339   3.441
 7500SOL     OW23398   3.639   5.648   3.137
 7500SOL    HW123399   3.629   5.576   3.205
 7500SOL    HW223400   3.735   5.676   3.131
 7501SOL     OW23401   5.289   4.297   3.989
 7501SOL    HW123402   5.313   4.272   4.083
 7501SOL    HW223403   5.350   4.371   3.958
 7502SOL     OW23404   3.004   0.253   4.396
 7502SOL    HW123405   2.987   0.303   4.311
 7502SOL    HW223406   2.948   0.170   4.397
 7503SOL     OW23407   2.731   6.677   1.222
 7503SOL    HW123408   2.770   6.587   1.202
 7503SOL    HW223409   2.771   6.745   1.159
 7504SOL     OW23410   0.454   6.249   3.499
 7504SOL    HW123411   0.405   6.195   3.431
 7504SOL    HW223412   0.493   6.187   3.568
 7505SOL     OW23413   1.527   2.451   6.281
 7505SOL    HW123414   1.592   2.375   6.291
 7505SOL    HW223415   1.574   2.537   6.304
 7506SOL     OW23416   5.108   2.689   4.022
 7506SOL    HW123417   5.008   2.696   4.017
 7506SOL    HW223418   5.141   2.748   4.095
 7507SOL     OW23419   5.887   2.001   3.049
 7507SOL    HW123420   5.901   2.100   3.046
 7507SOL    HW223421   5.960   1.956   2.998
 7508SOL     OW23422   2.385   5.191   0.710
 7508SOL    HW123423   2.327   5.111   0.725
 7508SOL    HW223424   2.470   5.163   0.665
 7509SOL     OW23425   6.089   3.479   0.536
 7509SOL    HW123426   6.080   3.506   0.440
 7509SOL    HW223427   6.004   3.435   0.566
 7510SOL     OW23428   3.875   3.537   4.602
 7510SOL    HW123429   3.859   3.521   4.504
 7510SOL    HW223430   3.850   3.454   4.653
 7511SOL     OW23431   3.068   6.177   3.271
 7511SOL    HW123432   3.053   6.091   3.320
 7511SOL    HW223433   3.085   6.251   3.337
 7512SOL     OW23434   2.814   1.060   6.972
 7512SOL    HW123435   2.725   1.020   6.994
 7512SOL    HW223436   2.803   1.126   6.897
 7513SOL     OW23437   1.685   0.828   2.439
 7513SOL    HW123438   1.688   0.928   2.448
 7513SOL    HW223439   1.774   0.795   2.408
 7514SOL     OW23440   2.419   4.915   2.942
 7514SOL    HW123441   2.371   4.830   2.921
 7514SOL    HW223442   2.509   4.914   2.899
 7515SOL     OW23443   6.784   4.990   4.741
 7515SOL    HW123444   6.741   4.914   4.789
 7515SOL    HW223445   6.843   4.954   4.668
 7516SOL     OW23446   0.580   5.455   5.890
 7516SOL    HW123447   0.618   5.499   5.971
 7516SOL    HW223448   0.615   5.361   5.884
 7517SOL     OW23449   0.631   1.994   0.438
 7517SOL    HW123450   0.602   2.087   0.415
 7517SOL    HW223451   0.623   1.936   0.356
 7518SOL     OW23452   5.255   3.447   3.698
 7518SOL    HW123453   5.165   3.420   3.664
 7518SOL    HW223454   5.324   3.427   3.628
 7519SOL     OW23455   6.846   6.680   4.617
 7519SOL    HW123456   6.834   6.581   4.622
 7519SOL    HW223457   6.770   6.725   4.665
 7520SOL     OW23458   2.192   0.551   2.816
 7520SOL    HW123459   2.272   0.494   2.796
 7520SOL    HW223460   2.222   0.644   2.838
 7521SOL     OW23461   5.583   2.920   5.046
 7521SOL    HW123462   5.530   2.872   5.116
 7521SOL    HW223463   5.642   2.854   4.999
 7522SOL     OW23464   1.501   0.492   5.928
 7522SOL    HW123465   1.472   0.560   5.996
 7522SOL    HW223466   1.473   0.522   5.837
 7523SOL     OW23467   4.937   0.793   6.491
 7523SOL    HW123468   4.950   0.892   6.495
 7523SOL    HW223469   5.026   0.747   6.501
 7524SOL     OW23470   0.677   2.663   5.394
 7524SOL    HW123471   0.721   2.731   5.336
 7524SOL    HW223472   0.616   2.709   5.459
 7525SOL     OW23473   4.083   0.102   7.026
 7525SOL    HW123474   4.138   0.116   6.944
 7525SOL    HW223475   4.109   0.170   0.069
 7526SOL     OW23476   2.860   3.224   1.813
 7526SOL    HW123477   2.959   3.223   1.823
 7526SOL    HW223478   2.818   3.238   1.903
 7527SOL     OW23479   3.216   5.411   3.840
 7527SOL    HW123480   3.258   5.500   3.824
 7527SOL    HW223481   3.275   5.357   3.901
 7528SOL     OW23482   6.015   2.091   6.751
 7528SOL    HW123483   6.050   2.185   6.742
 7528SOL    HW223484   5.941   2.077   6.685
 7529SOL     OW23485   5.580   1.828   4.379
 7529SOL    HW123486   5.564   1.816   4.281
 7529SOL    HW223487   5.540   1.751   4.429
 7530SOL     OW23488   6.000   2.453   2.174
 7530SOL    HW123489   6.065   2.393   2.129
 7530SOL    HW223490   6.020   2.548   2.150
 7531SOL     OW23491   5.246   3.494   3.973
 7531SOL    HW123492   5.279   3.464   3.884
 7531SOL    HW223493   5.321   3.490   4.040
 7532SOL     OW23494   4.485   6.081   0.722
 7532SOL    HW123495   4.512   6.064   0.627
 7532SOL    HW223496   4.396   6.038   0.739
 7533SOL     OW23497   3.538   2.010   1.802
 7533SOL    HW123498   3.614   2.070   1.777
 7533SOL    HW223499   3.464   2.065   1.841
 7534SOL     OW23500   5.266   5.842   4.464
 7534SOL    HW123501   5.304   5.756   4.498
 7534SOL    HW223502   5.183   5.823   4.411
 7535SOL     OW23503   1.717   6.595   5.042
 7535SOL    HW123504   1.722   6.536   5.123
 7535SOL    HW223505   1.722   6.540   4.959
 7536SOL     OW23506   4.672   5.290   3.952
 7536SOL    HW123507   4.701   5.385   3.950
 7536SOL    HW223508   4.687   5.248   3.862
 7537SOL     OW23509   1.720   4.698   2.866
 7537SOL    HW123510   1.621   4.683   2.872
 7537SOL    HW223511   1.742   4.737   2.777
 7538SOL     OW23512   2.070   2.588   1.601
 7538SOL    HW123513   2.024   2.633   1.525
 7538SOL    HW223514   2.015   2.597   1.684
 7539SOL     OW23515   1.900   4.151   3.965
 7539SOL    HW123516   1.831   4.142   3.893
 7539SOL    HW223517   1.892   4.241   4.008
 7540SOL     OW23518   4.136   0.009   4.594
 7540SOL    HW123519   4.045   6.996   4.601
 7540SOL    HW223520   4.205   6.963   4.604
 7541SOL     OW23521   0.262   4.001   5.948
 7541SOL    HW123522   0.336   3.945   5.983
 7541SOL    HW223523   0.238   4.071   6.015
 7542SOL     OW23524   6.606   6.114   0.238
 7542SOL    HW123525   6.617   6.125   0.140
 7542SOL    HW223526   6.593   6.017   0.259
 7543SOL     OW23527   3.366   1.274   5.202
 7543SOL    HW123528   3.382   1.326   5.286
 7543SOL    HW223529   3.453   1.262   5.153
 7544SOL     OW23530   6.730   2.757   4.311
 7544SOL    HW123531   6.697   2.713   4.394
 7544SOL    HW223532   6.768   2.847   4.335
 7545SOL     OW23533   0.671   6.376   6.299
 7545SOL    HW123534   0.769   6.359   6.306
 7545SOL    HW223535   0.654   6.473   6.283
 7546SOL     OW23536   4.600   2.072   1.234
 7546SOL    HW123537   4.604   2.012   1.314
 7546SOL    HW223538   4.545   2.153   1.255
 7547SOL     OW23539   5.160   0.981   1.213
 7547SOL    HW123540   5.244   0.932   1.189
 7547SOL    HW223541   5.174   1.031   1.298
 7548SOL     OW23542   4.761   2.383   6.371
 7548SOL    HW123543   4.819   2.465   6.375
 7548SOL    HW223544   4.818   2.301   6.372
 7549SOL     OW23545   3.620   3.144   6.374
 7549SOL    HW123546   3.528   3.146   6.412
 7549SOL    HW223547   3.680   3.202   6.430
 7550SOL     OW23548   2.078   4.521   3.437
 7550SOL    HW123549   2.148   4.580   3.398
 7550SOL    HW223550   2.055   4.448   3.372
 7551SOL     OW23551   6.078   3.071   5.535
 7551SOL    HW123552   6.006   3.039   5.473
 7551SOL    HW223553   6.134   2.994   5.564
 7552SOL     OW23554   1.745   5.923   4.310
 7552SOL    HW123555   1.767   5.969   4.396
 7552SOL    HW223556   1.646   5.911   4.303
 7553SOL     OW23557   4.691   6.815   5.586
 7553SOL    HW123558   4.607   6.780   5.545
 7553SOL    HW223559   4.705   6.910   5.558
 7554SOL     OW23560   4.770   0.597   6.683
 7554SOL    HW123561   4.835   0.652   6.630
 7554SOL    HW223562   4.702   0.657   6.725
 7555SOL     OW23563   3.097   5.475   6.431
 7555SOL    HW123564   3.012   5.523   6.411
 7555SOL    HW223565   3.081   5.408   6.505
 7556SOL     OW23566   2.541   1.801   0.190
 7556SOL    HW123567   2.447   1.822   0.218
 7556SOL    HW223568   2.604   1.867   0.231
 7557SOL     OW23569   4.689   0.428   6.235
 7557SOL    HW123570   4.699   0.366   6.313
 7557SOL    HW223571   4.731   0.516   6.256
 7558SOL     OW23572   2.095   2.844   4.303
 7558SOL    HW123573   2.117   2.910   4.231
 7558SOL    HW223574   2.178   2.797   4.331
 7559SOL     OW23575   3.835   2.810   5.880
 7559SOL    HW123576   3.930   2.793   5.905
 7559SOL    HW223577   3.814   2.907   5.891
 7560SOL     OW23578   5.807   0.281   0.372
 7560SOL    HW123579   5.714   0.313   0.356
 7560SOL    HW223580   5.851   0.259   0.285
 7561SOL     OW23581   6.362   2.655   5.675
 7561SOL    HW123582   6.449   2.701   5.661
 7561SOL    HW223583   6.343   2.648   5.773
 7562SOL     OW23584   0.865   4.881   5.266
 7562SOL    HW123585   0.945   4.825   5.289
 7562SOL    HW223586   0.797   4.823   5.221
 7563SOL     OW23587   2.675   6.389   1.744
 7563SOL    HW123588   2.664   6.427   1.652
 7563SOL    HW223589   2.589   6.349   1.774
 7564SOL     OW23590   3.610   0.111   4.381
 7564SOL    HW123591   3.681   0.095   4.449
 7564SOL    HW223592   3.636   0.068   4.295
 7565SOL     OW23593   5.546   3.746   5.980
 7565SOL    HW123594   5.488   3.675   5.940
 7565SOL    HW223595   5.608   3.704   6.046
 7566SOL     OW23596   5.566   5.112   2.040
 7566SOL    HW123597   5.639   5.137   2.104
 7566SOL    HW223598   5.605   5.058   1.965
 7567SOL     OW23599   1.167   1.280   5.748
 7567SOL    HW123600   1.179   1.284   5.847
 7567SOL    HW223601   1.212   1.199   5.711
 7568SOL     OW23602   5.329   4.588   2.225
 7568SOL    HW123603   5.306   4.618   2.132
 7568SOL    HW223604   5.420   4.546   2.225
 7569SOL     OW23605   3.082   4.849   6.134
 7569SOL    HW123606   3.172   4.809   6.116
 7569SOL    HW223607   3.011   4.787   6.101
 7570SOL     OW23608   5.951   3.835   4.304
 7570SOL    HW123609   5.938   3.870   4.212
 7570SOL    HW223610   5.951   3.735   4.302
 7571SOL     OW23611   4.879   3.403   3.137
 7571SOL    HW123612   4.892   3.478   3.072
 7571SOL    HW223613   4.880   3.316   3.089
 7572SOL     OW23614   5.046   0.706   2.992
 7572SOL    HW123615   4.956   0.741   3.017
 7572SOL    HW223616   5.035   0.617   2.946
 7573SOL     OW23617   6.126   0.648   5.943
 7573SOL    HW123618   6.049   0.610   5.995
 7573SOL    HW223619   6.211   0.635   5.994
 7574SOL     OW23620   5.825   1.127   4.174
 7574SOL    HW123621   5.755   1.189   4.137
 7574SOL    HW223622   5.906   1.128   4.115
 7575SOL     OW23623   5.866   6.838   0.376
 7575SOL    HW123624   5.785   6.889   0.405
 7575SOL    HW223625   5.851   6.801   0.284
 7576SOL     OW23626   5.066   2.703   0.022
 7576SOL    HW123627   5.048   2.610   0.055
 7576SOL    HW223628   5.133   2.747   0.082
 7577SOL     OW23629   0.350   6.310   0.037
 7577SOL    HW123630   0.322   6.375   6.993
 7577SOL    HW223631   0.439   6.271   0.013
 7578SOL     OW23632   2.014   5.214   2.624
 7578SOL    HW123633   1.926   5.224   2.579
 7578SOL    HW223634   2.075   5.287   2.595
 7579SOL     OW23635   0.137   1.432   1.263
 7579SOL    HW123636   0.189   1.366   1.317
 7579SOL    HW223637   0.180   1.522   1.268
 7580SOL     OW23638   0.995   4.189   3.539
 7580SOL    HW123639   0.906   4.233   3.548
 7580SOL    HW223640   1.008   4.159   3.444
 7581SOL     OW23641   0.843   1.442   1.563
 7581SOL    HW123642   0.831   1.401   1.472
 7581SOL    HW223643   0.896   1.381   1.621
 7582SOL     OW23644   4.055   1.871   4.066
 7582SOL    HW123645   4.079   1.869   4.163
 7582SOL    HW223646   4.138   1.859   4.011
 7583SOL     OW23647   5.336   3.192   2.083
 7583SOL    HW123648   5.422   3.200   2.133
 7583SOL    HW223649   5.347   3.229   1.991
 7584SOL     OW23650   1.807   0.454   2.722
 7584SOL    HW123651   1.863   0.379   2.688
 7584SOL    HW223652   1.751   0.491   2.647
 7585SOL     OW23653   1.741   2.283   6.276
 7585SOL    HW123654   1.778   2.198   6.312
 7585SOL    HW223655   1.747   2.282   6.176
 7586SOL     OW23656   1.633   6.407   3.316
 7586SOL    HW123657   1.710   6.463   3.348
 7586SOL    HW223658   1.651   6.311   3.336
 7587SOL     OW23659   2.915   1.494   6.870
 7587SOL    HW123660   2.986   1.562   6.889
 7587SOL    HW223661   2.879   1.509   6.778
 7588SOL     OW23662   1.967   2.254   3.663
 7588SOL    HW123663   2.015   2.171   3.637
 7588SOL    HW223664   1.920   2.239   3.750
 7589SOL     OW23665   6.891   0.568   2.649
 7589SOL    HW123666   6.950   0.546   2.571
 7589SOL    HW223667   6.925   0.649   2.695
 7590SOL     OW23668   5.294   1.133   0.447
 7590SOL    HW123669   5.272   1.148   0.543
 7590SOL    HW223670   5.213   1.149   0.391
 7591SOL     OW23671   5.346   4.087   0.154
 7591SOL    HW123672   5.400   4.164   0.120
 7591SOL    HW223673   5.298   4.043   0.078
 7592SOL     OW23674   6.046   5.120   4.924
 7592SOL    HW123675   6.135   5.165   4.930
 7592SOL    HW223676   6.052   5.042   4.862
 7593SOL     OW23677   6.888   3.272   6.969
 7593SOL    HW123678   6.867   3.208   6.894
 7593SOL    HW223679   6.940   3.349   6.933
 7594SOL     OW23680   1.236   4.743   1.456
 7594SOL    HW123681   1.147   4.751   1.500
 7594SOL    HW223682   1.307   4.737   1.526
 7595SOL     OW23683   6.616   2.986   6.483
 7595SOL    HW123684   6.579   2.957   6.571
 7595SOL    HW223685   6.716   2.986   6.486
 7596SOL     OW23686   2.953   6.698   4.284
 7596SOL    HW123687   2.978   6.602   4.302
 7596SOL    HW223688   2.996   6.756   4.353
 7597SOL     OW23689   2.027   6.393   3.117
 7597SOL    HW123690   2.059   6.483   3.089
 7597SOL    HW223691   1.998   6.341   3.037
 7598SOL     OW23692   6.083   0.650   3.505
 7598SOL    HW123693   6.020   0.633   3.581
 7598SOL    HW223694   6.137   0.568   3.487
 7599SOL     OW23695   5.293   2.599   1.551
 7599SOL    HW123696   5.372   2.574   1.607
 7599SOL    HW223697   5.250   2.681   1.588
 7600SOL     OW23698   0.868   0.743   3.602
 7600SOL    HW123699   0.805   0.705   3.534
 7600SOL    HW223700   0.959   0.702   3.590
 7601SOL     OW23701   2.697   5.132   2.172
 7601SOL    HW123702   2.745   5.215   2.145
 7601SOL    HW223703   2.599   5.144   2.159
 7602SOL     OW23704   1.270   3.248   6.505
 7602SOL    HW123705   1.296   3.328   6.452
 7602SOL    HW223706   1.311   3.254   6.596
 7603SOL     OW23707   2.213   6.346   6.394
 7603SOL    HW123708   2.278   6.295   6.338
 7603SOL    HW223709   2.128   6.359   6.343
 7604SOL     OW23710   1.077   2.136   5.139
 7604SOL    HW123711   1.132   2.215   5.109
 7604SOL    HW223712   0.990   2.136   5.090
 7605SOL     OW23713   1.539   0.416   0.347
 7605SOL    HW123714   1.543   0.451   0.253
 7605SOL    HW223715   1.505   0.322   0.345
 7606SOL     OW23716   5.416   3.319   4.791
 7606SOL    HW123717   5.430   3.417   4.780
 7606SOL    HW223718   5.495   3.279   4.838
 7607SOL     OW23719   4.286   5.056   0.186
 7607SOL    HW123720   4.195   5.088   0.211
 7607SOL    HW223721   4.352   5.129   0.201
 7608SOL     OW23722   5.623   2.588   0.681
 7608SOL    HW123723   5.572   2.593   0.767
 7608SOL    HW223724   5.706   2.534   0.694
 7609SOL     OW23725   0.843   3.378   3.643
 7609SOL    HW123726   0.858   3.438   3.722
 7609SOL    HW223727   0.753   3.335   3.651
 7610SOL     OW23728   3.941   4.596   5.865
 7610SOL    HW123729   4.017   4.656   5.840
 7610SOL    HW223730   3.877   4.590   5.789
 7611SOL     OW23731   5.054   3.706   0.940
 7611SOL    HW123732   5.123   3.643   0.903
 7611SOL    HW223733   4.981   3.654   0.983
 7612SOL     OW23734   4.707   2.736   3.125
 7612SOL    HW123735   4.614   2.737   3.089
 7612SOL    HW223736   4.766   2.790   3.066
 7613SOL     OW23737   0.123   1.634   1.518
 7613SOL    HW123738   0.130   1.560   1.584
 7613SOL    HW223739   0.037   1.684   1.531
 7614SOL     OW23740   5.301   3.359   1.256
 7614SOL    HW123741   5.254   3.378   1.169
 7614SOL    HW223742   5.242   3.387   1.332
 7615SOL     OW23743   4.933   4.131   6.171
 7615SOL    HW123744   5.011   4.124   6.233
 7615SOL    HW223745   4.964   4.116   6.077
 7616SOL     OW23746   6.938   6.899   4.482
 7616SOL    HW123747   6.908   6.812   4.521
 7616SOL    HW223748   6.992   6.882   4.400
 7617SOL     OW23749   5.275   6.017   3.788
 7617SOL    HW123750   5.303   6.076   3.863
 7617SOL    HW223751   5.269   6.070   3.704
 7618SOL     OW23752   0.922   2.749   6.893
 7618SOL    HW123753   0.924   2.782   6.988
 7618SOL    HW223754   1.014   2.749   6.856
 7619SOL     OW23755   0.090   2.495   4.440
 7619SOL    HW123756   0.118   2.578   4.488
 7619SOL    HW223757   0.025   2.517   4.369
 7620SOL     OW23758   4.499   5.577   1.141
 7620SOL    HW123759   4.436   5.650   1.169
 7620SOL    HW223760   4.449   5.490   1.137
 7621SOL     OW23761   0.641   0.716   1.318
 7621SOL    HW123762   0.599   0.797   1.360
 7621SOL    HW223763   0.579   0.678   1.249
 7622SOL     OW23764   4.736   4.896   6.276
 7622SOL    HW123765   4.800   4.828   6.240
 7622SOL    HW223766   4.681   4.934   6.202
 7623SOL     OW23767   4.682   4.352   1.158
 7623SOL    HW123768   4.651   4.262   1.187
 7623SOL    HW223769   4.756   4.343   1.091
 7624SOL     OW23770   6.781   3.429   3.710
 7624SOL    HW123771   6.851   3.361   3.734
 7624SOL    HW223772   6.806   3.517   3.751
 7625SOL     OW23773   6.353   1.537   0.067
 7625SOL    HW123774   6.409   1.454   0.070
 7625SOL    HW223775   6.350   1.579   0.157
 7626SOL     OW23776   6.576   0.957   6.075
 7626SOL    HW123777   6.629   0.995   6.000
 7626SOL    HW223778   6.514   0.887   6.041
 7627SOL     OW23779   3.247   2.405   0.225
 7627SOL    HW123780   3.231   2.315   0.265
 7627SOL    HW223781   3.184   2.471   0.265
 7628SOL     OW23782   3.925   2.843   1.664
 7628SOL    HW123783   3.871   2.759   1.659
 7628SOL    HW223784   3.874   2.912   1.716
 7629SOL     OW23785   0.046   3.975   3.527
 7629SOL    HW123786   0.060   4.030   3.445
 7629SOL    HW223787   0.129   3.977   3.583
 7630SOL     OW23788   0.745   0.821   6.169
 7630SOL    HW123789   0.842   0.827   6.147
 7630SOL    HW223790   0.734   0.776   6.258
 7631SOL     OW23791   1.299   1.534   5.420
 7631SOL    HW123792   1.332   1.589   5.498
 7631SOL    HW223793   1.349   1.560   5.338
 7632SOL     OW23794   4.376   4.744   0.591
 7632SOL    HW123795   4.340   4.656   0.561
 7632SOL    HW223796   4.312   4.817   0.566
 7633SOL     OW23797   4.894   0.491   1.883
 7633SOL    HW123798   4.954   0.560   1.924
 7633SOL    HW223799   4.894   0.409   1.940
 7634SOL     OW23800   2.509   1.521   1.478
 7634SOL    HW123801   2.486   1.453   1.547
 7634SOL    HW223802   2.606   1.546   1.487
 7635SOL     OW23803   3.252   4.950   4.360
 7635SOL    HW123804   3.264   4.933   4.458
 7635SOL    HW223805   3.181   4.889   4.324
 7636SOL     OW23806   1.069   4.014   4.132
 7636SOL    HW123807   1.116   3.973   4.055
 7636SOL    HW223808   0.976   3.976   4.139
 7637SOL     OW23809   2.229   6.106   2.812
 7637SOL    HW123810   2.279   6.020   2.806
 7637SOL    HW223811   2.276   6.176   2.758
 7638SOL     OW23812   1.537   5.492   2.657
 7638SOL    HW123813   1.515   5.443   2.742
 7638SOL    HW223814   1.458   5.547   2.629
 7639SOL     OW23815   0.564   1.179   0.583
 7639SOL    HW123816   0.535   1.212   0.673
 7639SOL    HW223817   0.576   1.080   0.586
 7640SOL     OW23818   2.556   2.957   6.724
 7640SOL    HW123819   2.601   2.912   6.647
 7640SOL    HW223820   2.457   2.958   6.709
 7641SOL     OW23821   6.626   4.096   2.592
 7641SOL    HW123822   6.722   4.118   2.613
 7641SOL    HW223823   6.620   4.002   2.558
 7642SOL     OW23824   5.209   1.293   2.450
 7642SOL    HW123825   5.287   1.351   2.423
 7642SOL    HW223826   5.220   1.266   2.546
 7643SOL     OW23827   5.117   1.575   2.556
 7643SOL    HW123828   5.177   1.559   2.477
 7643SOL    HW223829   5.170   1.617   2.630
 7644SOL     OW23830   4.896   3.078   2.147
 7644SOL    HW123831   4.871   3.016   2.222
 7644SOL    HW223832   4.839   3.058   2.067
 7645SOL     OW23833   4.312   3.746   5.574
 7645SOL    HW123834   4.241   3.814   5.553
 7645SOL    HW223835   4.396   3.770   5.525
 7646SOL     OW23836   0.432   2.560   3.940
 7646SOL    HW123837   0.484   2.622   3.882
 7646SOL    HW223838   0.376   2.500   3.883
 7647SOL     OW23839   0.332   3.053   4.794
 7647SOL    HW123840   0.253   3.111   4.815
 7647SOL    HW223841   0.358   3.065   4.699
 7648SOL     OW23842   2.518   1.365   2.550
 7648SOL    HW123843   2.429   1.350   2.506
 7648SOL    HW223844   2.562   1.445   2.511
 7649SOL     OW23845   1.439   0.890   4.043
 7649SOL    HW123846   1.495   0.810   4.065
 7649SOL    HW223847   1.364   0.863   3.983
 7650SOL     OW23848   6.360   0.746   0.863
 7650SOL    HW123849   6.312   0.666   0.828
 7650SOL    HW223850   6.458   0.728   0.864
 7651SOL     OW23851   2.741   6.382   4.415
 7651SOL    HW123852   2.751   6.405   4.319
 7651SOL    HW223853   2.745   6.283   4.426
 7652SOL     OW23854   5.777   2.357   4.823
 7652SOL    HW123855   5.740   2.429   4.763
 7652SOL    HW223856   5.802   2.278   4.767
 7653SOL     OW23857   1.487   1.614   0.246
 7653SOL    HW123858   1.409   1.555   0.270
 7653SOL    HW223859   1.535   1.574   0.168
 7654SOL     OW23860   4.998   3.176   4.556
 7654SOL    HW123861   4.934   3.217   4.622
 7654SOL    HW223862   4.967   3.196   4.463
 7655SOL     OW23863   3.485   0.152   3.828
 7655SOL    HW123864   3.513   0.146   3.732
 7655SOL    HW223865   3.457   0.061   3.859
 7656SOL     OW23866   4.927   2.871   6.606
 7656SOL    HW123867   4.978   2.957   6.608
 7656SOL    HW223868   4.972   2.804   6.665
 7657SOL     OW23869   2.156   2.154   3.932
 7657SOL    HW123870   2.200   2.203   3.857
 7657SOL    HW223871   2.057   2.159   3.922
 7658SOL     OW23872   2.957   0.454   0.631
 7658SOL    HW123873   2.891   0.519   0.670
 7658SOL    HW223874   3.048   0.496   0.629
 7659SOL     OW23875   4.804   4.107   6.930
 7659SOL    HW123876   4.712   4.126   6.894
 7659SOL    HW223877   4.870   4.113   6.855
 7660SOL     OW23878   6.498   5.403   4.080
 7660SOL    HW123879   6.438   5.468   4.034
 7660SOL    HW223880   6.443   5.330   4.121
 7661SOL     OW23881   5.227   2.293   5.523
 7661SOL    HW123882   5.239   2.219   5.589
 7661SOL    HW223883   5.248   2.259   5.431
 7662SOL     OW23884   1.068   2.632   3.108
 7662SOL    HW123885   1.140   2.690   3.070
 7662SOL    HW223886   1.093   2.536   3.096
 7663SOL     OW23887   5.010   5.395   6.515
 7663SOL    HW123888   4.939   5.426   6.451
 7663SOL    HW223889   5.099   5.431   6.485
 7664SOL     OW23890   4.085   1.254   2.433
 7664SOL    HW123891   4.092   1.204   2.520
 7664SOL    HW223892   4.102   1.191   2.357
 7665SOL     OW23893   5.656   1.191   4.401
 7665SOL    HW123894   5.708   1.133   4.338
 7665SOL    HW223895   5.561   1.162   4.403
 7666SOL     OW23896   0.230   4.825   3.590
 7666SOL    HW123897   0.307   4.854   3.648
 7666SOL    HW223898   0.151   4.882   3.610
 7667SOL     OW23899   4.455   0.389   2.837
 7667SOL    HW123900   4.507   0.392   2.922
 7667SOL    HW223901   4.500   0.446   2.769
 7668SOL     OW23902   2.551   4.937   1.222
 7668SOL    HW123903   2.544   4.954   1.124
 7668SOL    HW223904   2.532   5.021   1.273
 7669SOL     OW23905   4.970   0.939   5.046
 7669SOL    HW123906   5.021   1.020   5.076
 7669SOL    HW223907   5.034   0.871   5.011
 7670SOL     OW23908   1.209   5.843   0.326
 7670SOL    HW123909   1.203   5.940   0.304
 7670SOL    HW223910   1.300   5.823   0.363
 7671SOL     OW23911   3.867   0.429   2.444
 7671SOL    HW123912   3.785   0.461   2.396
 7671SOL    HW223913   3.946   0.434   2.383
 7672SOL     OW23914   6.596   5.126   3.504
 7672SOL    HW123915   6.688   5.145   3.468
 7672SOL    HW223916   6.593   5.032   3.538
 7673SOL     OW23917   1.941   5.571   2.550
 7673SOL    HW123918   2.024   5.531   2.588
 7673SOL    HW223919   1.907   5.514   2.475
 7674SOL     OW23920   4.628   0.497   4.169
 7674SOL    HW123921   4.540   0.544   4.168
 7674SOL    HW223922   4.613   0.398   4.169
 7675SOL     OW23923   5.149   6.178   3.520
 7675SOL    HW123924   5.050   6.194   3.517
 7675SOL    HW223925   5.171   6.092   3.473
 7676SOL     OW23926   2.991   2.053   6.281
 7676SOL    HW123927   3.053   2.069   6.205
 7676SOL    HW223928   3.001   2.127   6.348
 7677SOL     OW23929   0.630   4.238   0.835
 7677SOL    HW123930   0.563   4.252   0.907
 7677SOL    HW223931   0.715   4.202   0.874
 7678SOL     OW23932   1.854   3.066   5.583
 7678SOL    HW123933   1.832   2.983   5.634
 7678SOL    HW223934   1.939   3.052   5.532
 7679SOL     OW23935   1.801   5.312   5.754
 7679SOL    HW123936   1.763   5.244   5.816
 7679SOL    HW223937   1.764   5.298   5.662
 7680SOL     OW23938   1.738   0.588   0.154
 7680SOL    HW123939   1.784   0.598   0.065
 7680SOL    HW223940   1.790   0.635   0.224
 7681SOL     OW23941   3.011   1.115   0.195
 7681SOL    HW123942   2.913   1.132   0.199
 7681SOL    HW223943   3.030   1.043   0.128
 7682SOL     OW23944   4.623   0.678   2.424
 7682SOL    HW123945   4.670   0.653   2.339
 7682SOL    HW223946   4.600   0.775   2.422
 7683SOL     OW23947   0.422   1.410   4.902
 7683SOL    HW123948   0.328   1.393   4.933
 7683SOL    HW223949   0.428   1.390   4.804
 7684SOL     OW23950   3.706   2.312   0.902
 7684SOL    HW123951   3.607   2.297   0.912
 7684SOL    HW223952   3.732   2.395   0.951
 7685SOL     OW23953   3.405   1.823   6.504
 7685SOL    HW123954   3.344   1.855   6.432
 7685SOL    HW223955   3.375   1.858   6.592
 7686SOL     OW23956   6.408   6.954   4.480
 7686SOL    HW123957   6.319   6.925   4.514
 7686SOL    HW223958   6.420   6.924   4.386
 7687SOL     OW23959   4.905   5.640   4.962
 7687SOL    HW123960   4.945   5.712   4.907
 7687SOL    HW223961   4.949   5.553   4.940
 7688SOL     OW23962   0.095   5.955   6.313
 7688SOL    HW123963   0.077   5.925   6.219
 7688SOL    HW223964   0.179   5.913   6.346
 7689SOL     OW23965   5.124   6.593   3.371
 7689SOL    HW123966   5.211   6.580   3.323
 7689SOL    HW223967   5.135   6.663   3.441
 7690SOL     OW23968   5.130   5.515   0.445
 7690SOL    HW123969   5.138   5.613   0.462
 7690SOL    HW223970   5.153   5.464   0.528
 7691SOL     OW23971   5.512   4.209   1.960
 7691SOL    HW123972   5.502   4.212   1.860
 7691SOL    HW223973   5.503   4.302   1.997
 7692SOL     OW23974   0.527   5.860   1.909
 7692SOL    HW123975   0.605   5.892   1.962
 7692SOL    HW223976   0.554   5.778   1.858
 7693SOL     OW23977   3.110   0.462   1.291
 7693SOL    HW123978   3.051   0.403   1.236
 7693SOL    HW223979   3.132   0.545   1.239
 7694SOL     OW23980   5.551   2.875   4.235
 7694SOL    HW123981   5.608   2.936   4.179
 7694SOL    HW223982   5.521   2.924   4.317
 7695SOL     OW23983   6.128   0.591   1.284
 7695SOL    HW123984   6.159   0.679   1.248
 7695SOL    HW223985   6.035   0.599   1.318
 7696SOL     OW23986   6.160   1.646   6.306
 7696SOL    HW123987   6.235   1.591   6.266
 7696SOL    HW223988   6.151   1.731   6.254
 7697SOL     OW23989   2.934   0.843   2.538
 7697SOL    HW123990   2.881   0.758   2.530
 7697SOL    HW223991   2.998   0.849   2.462
 7698SOL     OW23992   6.539   1.165   5.306
 7698SOL    HW123993   6.613   1.098   5.301
 7698SOL    HW223994   6.559   1.242   5.246
 7699SOL     OW23995   2.508   5.411   6.691
 7699SOL    HW123996   2.447   5.415   6.771
 7699SOL    HW223997   2.455   5.382   6.611
 7700SOL     OW23998   4.068   6.082   3.288
 7700SOL    HW123999   4.026   6.031   3.213
 7700SOL    HW224000   4.164   6.058   3.295
 7701SOL     OW24001   0.286   2.601   6.567
 7701SOL    HW124002   0.345   2.675   6.598
 7701SOL    HW224003   0.191   2.633   6.564
 7702SOL     OW24004   4.300   5.769   5.219
 7702SOL    HW124005   4.345   5.702   5.278
 7702SOL    HW224006   4.224   5.725   5.170
 7703SOL     OW24007   6.269   6.369   5.897
 7703SOL    HW124008   6.351   6.357   5.841
 7703SOL    HW224009   6.190   6.387   5.839
 7704SOL     OW24010   6.204   1.651   3.420
 7704SOL    HW124011   6.274   1.580   3.432
 7704SOL    HW224012   6.115   1.614   3.446
 7705SOL     OW24013   2.537   5.414   1.198
 7705SOL    HW124014   2.595   5.476   1.251
 7705SOL    HW224015   2.449   5.459   1.178
 7706SOL     OW24016   3.976   3.293   3.772
 7706SOL    HW124017   4.032   3.332   3.846
 7706SOL    HW224018   3.995   3.195   3.765
 7707SOL     OW24019   0.291   4.504   6.775
 7707SOL    HW124020   0.372   4.455   6.807
 7707SOL    HW224021   0.318   4.588   6.729
 7708SOL     OW24022   1.425   6.616   4.187
 7708SOL    HW124023   1.435   6.528   4.233
 7708SOL    HW224024   1.327   6.639   4.181
 7709SOL     OW24025   6.955   5.048   2.041
 7709SOL    HW124026   6.897   4.967   2.048
 7709SOL    HW224027   0.024   5.023   2.054
 7710SOL     OW24028   1.854   2.195   0.892
 7710SOL    HW124029   1.893   2.248   0.817
 7710SOL    HW224030   1.917   2.195   0.970
 7711SOL     OW24031   5.357   5.989   6.013
 7711SOL    HW124032   5.403   6.057   6.070
 7711SOL    HW224033   5.262   6.017   5.997
 7712SOL     OW24034   6.009   4.536   0.708
 7712SOL    HW124035   6.013   4.447   0.661
 7712SOL    HW224036   6.023   4.609   0.641
 7713SOL     OW24037   1.651   3.391   0.788
 7713SOL    HW124038   1.697   3.317   0.739
 7713SOL    HW224039   1.647   3.369   0.886
 7714SOL     OW24040   0.279   6.097   5.116
 7714SOL    HW124041   0.267   6.035   5.193
 7714SOL    HW224042   0.331   6.177   5.145
 7715SOL     OW24043   2.609   2.190   6.423
 7715SOL    HW124044   2.557   2.271   6.398
 7715SOL    HW224045   2.705   2.201   6.395
 7716SOL     OW24046   6.201   5.213   0.847
 7716SOL    HW124047   6.252   5.268   0.914
 7716SOL    HW224048   6.181   5.123   0.886
 7717SOL     OW24049   1.279   2.045   5.290
 7717SOL    HW124050   1.363   2.052   5.235
 7717SOL    HW224051   1.200   2.044   5.229
 7718SOL     OW24052   6.879   3.986   3.173
 7718SOL    HW124053   6.801   4.020   3.225
 7718SOL    HW224054   6.964   4.005   3.223
 7719SOL     OW24055   0.858   4.199   4.881
 7719SOL    HW124056   0.939   4.248   4.914
 7719SOL    HW224057   0.884   4.140   4.804
 7720SOL     OW24058   6.176   1.870   6.119
 7720SOL    HW124059   6.215   1.897   6.031
 7720SOL    HW224060   6.077   1.881   6.116
 7721SOL     OW24061   0.297   6.611   2.735
 7721SOL    HW124062   0.275   6.562   2.651
 7721SOL    HW224063   0.293   6.710   2.718
 7722SOL     OW24064   2.017   5.073   3.998
 7722SOL    HW124065   2.020   5.083   4.097
 7722SOL    HW224066   1.930   5.106   3.964
 7723SOL     OW24067   4.338   3.751   6.406
 7723SOL    HW124068   4.325   3.804   6.489
 7723SOL    HW224069   4.373   3.811   6.333
 7724SOL     OW24070   3.348   4.345   0.149
 7724SOL    HW124071   3.260   4.364   0.105
 7724SOL    HW224072   3.340   4.263   0.205
 7725SOL     OW24073   6.069   1.874   2.881
 7725SOL    HW124074   6.031   1.831   2.799
 7725SOL    HW224075   6.086   1.971   2.864
 7726SOL     OW24076   1.343   3.533   6.389
 7726SOL    HW124077   1.395   3.608   6.431
 7726SOL    HW224078   1.368   3.525   6.293
 7727SOL     OW24079   5.956   3.044   1.916
 7727SOL    HW124080   5.865   3.060   1.956
 7727SOL    HW224081   6.023   3.102   1.963
 7728SOL     OW24082   2.197   3.005   4.855
 7728SOL    HW124083   2.205   3.095   4.812
 7728SOL    HW224084   2.271   2.993   4.921
 7729SOL     OW24085   5.797   1.554   2.113
 7729SOL    HW124086   5.826   1.465   2.079
 7729SOL    HW224087   5.721   1.542   2.177
 7730SOL     OW24088   0.058   4.751   6.717
 7730SOL    HW124089   0.047   4.653   6.697
 7730SOL    HW224090   0.035   4.767   6.813
 7731SOL     OW24091   6.393   6.819   0.363
 7731SOL    HW124092   6.323   6.763   0.407
 7731SOL    HW224093   6.399   6.794   0.266
 7732SOL     OW24094   3.998   0.499   0.473
 7732SOL    HW124095   3.903   0.520   0.450
 7732SOL    HW224096   4.012   0.400   0.465
 7733SOL     OW24097   6.355   5.268   2.375
 7733SOL    HW124098   6.387   5.188   2.324
 7733SOL    HW224099   6.378   5.258   2.471
 7734SOL     OW24100   2.157   4.522   4.727
 7734SOL    HW124101   2.110   4.585   4.790
 7734SOL    HW224102   2.098   4.504   4.649
 7735SOL     OW24103   5.859   5.685   0.140
 7735SOL    HW124104   5.798   5.638   0.076
 7735SOL    HW224105   5.954   5.670   0.112
 7736SOL     OW24106   2.266   3.225   0.586
 7736SOL    HW124107   2.179   3.263   0.555
 7736SOL    HW224108   2.263   3.213   0.685
 7737SOL     OW24109   3.534   6.365   1.672
 7737SOL    HW124110   3.499   6.281   1.713
 7737SOL    HW224111   3.503   6.371   1.577
 7738SOL     OW24112   2.633   5.458   0.427
 7738SOL    HW124113   2.578   5.486   0.506
 7738SOL    HW224114   2.583   5.389   0.375
 7739SOL     OW24115   1.982   2.058   1.771
 7739SOL    HW124116   1.996   2.155   1.753
 7739SOL    HW224117   2.041   2.004   1.710
 7740SOL     OW24118   1.834   0.998   2.688
 7740SOL    HW124119   1.853   0.900   2.696
 7740SOL    HW224120   1.739   1.016   2.712
 7741SOL     OW24121   0.487   3.661   5.232
 7741SOL    HW124122   0.565   3.612   5.193
 7741SOL    HW224123   0.520   3.730   5.297
 7742SOL     OW24124   4.710   1.791   3.669
 7742SOL    HW124125   4.614   1.783   3.642
 7742SOL    HW224126   4.766   1.802   3.587
 7743SOL     OW24127   4.983   1.162   6.813
 7743SOL    HW124128   5.079   1.171   6.839
 7743SOL    HW224129   4.957   1.066   6.810
 7744SOL     OW24130   1.127   5.931   3.329
 7744SOL    HW124131   1.097   5.947   3.234
 7744SOL    HW224132   1.217   5.887   3.329
 7745SOL     OW24133   2.442   0.331   0.274
 7745SOL    HW124134   2.497   0.384   0.338
 7745SOL    HW224135   2.503   0.279   0.213
 7746SOL     OW24136   1.162   0.136   0.527
 7746SOL    HW124137   1.067   0.107   0.544
 7746SOL    HW224138   1.217   0.116   0.608
 7747SOL     OW24139   6.943   6.151   1.773
 7747SOL    HW124140   6.878   6.206   1.826
 7747SOL    HW224141   6.951   6.188   1.681
 7748SOL     OW24142   3.429   4.151   3.928
 7748SOL    HW124143   3.443   4.195   3.839
 7748SOL    HW224144   3.485   4.069   3.934
 7749SOL     OW24145   3.870   4.031   3.590
 7749SOL    HW124146   3.928   3.971   3.536
 7749SOL    HW224147   3.922   4.111   3.619
 7750SOL     OW24148   6.199   6.006   6.263
 7750SOL    HW124149   6.196   6.105   6.258
 7750SOL    HW224150   6.234   5.969   6.177
 7751SOL     OW24151   0.718   2.264   2.526
 7751SOL    HW124152   0.762   2.300   2.609
 7751SOL    HW224153   0.637   2.319   2.505
 7752SOL     OW24154   5.406   6.303   5.551
 7752SOL    HW124155   5.411   6.292   5.650
 7752SOL    HW224156   5.362   6.223   5.510
 7753SOL     OW24157   2.917   1.104   3.623
 7753SOL    HW124158   2.982   1.156   3.569
 7753SOL    HW224159   2.832   1.091   3.571
 7754SOL     OW24160   5.394   0.130   1.654
 7754SOL    HW124161   5.465   0.142   1.723
 7754SOL    HW224162   5.370   0.218   1.615
 7755SOL     OW24163   1.569   1.795   5.803
 7755SOL    HW124164   1.625   1.877   5.817
 7755SOL    HW224165   1.482   1.804   5.852
 7756SOL     OW24166   3.051   5.684   2.375
 7756SOL    HW124167   3.146   5.705   2.396
 7756SOL    HW224168   2.993   5.760   2.403
 7757SOL     OW24169   5.238   6.041   4.154
 7757SOL    HW124170   5.172   6.111   4.124
 7757SOL    HW224171   5.266   6.060   4.248
 7758SOL     OW24172   2.182   2.239   6.686
 7758SOL    HW124173   2.270   2.192   6.686
 7758SOL    HW224174   2.195   2.335   6.664
 7759SOL     OW24175   1.617   1.618   4.878
 7759SOL    HW124176   1.667   1.555   4.819
 7759SOL    HW224177   1.520   1.596   4.876
 7760SOL     OW24178   5.939   3.189   2.331
 7760SOL    HW124179   5.956   3.140   2.417
 7760SOL    HW224180   5.871   3.261   2.347
 7761SOL     OW24181   1.608   6.806   6.065
 7761SOL    HW124182   1.551   6.783   5.986
 7761SOL    HW224183   1.621   6.905   6.070
 7762SOL     OW24184   4.143   0.798   4.772
 7762SOL    HW124185   4.116   0.730   4.703
 7762SOL    HW224186   4.080   0.792   4.850
 7763SOL     OW24187   1.602   1.515   1.592
 7763SOL    HW124188   1.548   1.468   1.522
 7763SOL    HW224189   1.565   1.495   1.682
 7764SOL     OW24190   3.571   3.230   2.799
 7764SOL    HW124191   3.584   3.205   2.703
 7764SOL    HW224192   3.536   3.323   2.805
 7765SOL     OW24193   6.000   3.090   4.464
 7765SOL    HW124194   5.932   3.101   4.536
 7765SOL    HW224195   5.985   3.159   4.393
 7766SOL     OW24196   5.025   1.741   0.798
 7766SOL    HW124197   5.014   1.799   0.717
 7766SOL    HW224198   5.040   1.646   0.769
 7767SOL     OW24199   3.953   6.705   3.403
 7767SOL    HW124200   3.949   6.681   3.500
 7767SOL    HW224201   4.005   6.636   3.353
 7768SOL     OW24202   4.208   5.231   1.993
 7768SOL    HW124203   4.263   5.192   2.067
 7768SOL    HW224204   4.176   5.322   2.020
 7769SOL     OW24205   4.861   1.967   1.939
 7769SOL    HW124206   4.845   2.016   2.024
 7769SOL    HW224207   4.842   2.028   1.862
 7770SOL     OW24208   1.057   3.998   2.554
 7770SOL    HW124209   1.097   3.907   2.548
 7770SOL    HW224210   1.116   4.057   2.609
 7771SOL     OW24211   2.434   2.819   5.334
 7771SOL    HW124212   2.337   2.794   5.333
 7771SOL    HW224213   2.445   2.911   5.299
 7772SOL     OW24214   4.647   0.755   3.813
 7772SOL    HW124215   4.644   0.796   3.722
 7772SOL    HW224216   4.628   0.657   3.806
 7773SOL     OW24217   3.084   5.495   5.442
 7773SOL    HW124218   3.046   5.571   5.389
 7773SOL    HW224219   3.160   5.528   5.498
 7774SOL     OW24220   6.480   2.175   6.485
 7774SOL    HW124221   6.544   2.100   6.470
 7774SOL    HW224222   6.388   2.139   6.494
 7775SOL     OW24223   3.902   6.686   3.027
 7775SOL    HW124224   3.842   6.741   2.969
 7775SOL    HW224225   3.955   6.746   3.087
 7776SOL     OW24226   3.195   4.018   6.483
 7776SOL    HW124227   3.174   3.943   6.421
 7776SOL    HW224228   3.278   3.996   6.535
 7777SOL     OW24229   2.560   1.297   5.201
 7777SOL    HW124230   2.535   1.273   5.107
 7777SOL    HW224231   2.511   1.380   5.227
 7778SOL     OW24232   5.010   6.543   0.262
 7778SOL    HW124233   4.922   6.582   0.235
 7778SOL    HW224234   5.064   6.613   0.309
 7779SOL     OW24235   3.168   3.045   0.488
 7779SOL    HW124236   3.179   2.950   0.460
 7779SOL    HW224237   3.106   3.050   0.567
 7780SOL     OW24238   1.822   5.340   4.772
 7780SOL    HW124239   1.732   5.301   4.754
 7780SOL    HW224240   1.893   5.275   4.745
 7781SOL     OW24241   1.777   4.767   6.784
 7781SOL    HW124242   1.777   4.851   6.837
 7781SOL    HW224243   1.791   4.788   6.687
 7782SOL     OW24244   1.443   3.954   5.738
 7782SOL    HW124245   1.542   3.950   5.723
 7782SOL    HW224246   1.420   4.044   5.776
 7783SOL     OW24247   1.702   5.869   5.692
 7783SOL    HW124248   1.646   5.809   5.748
 7783SOL    HW224249   1.701   5.837   5.597
 7784SOL     OW24250   2.358   2.809   0.480
 7784SOL    HW124251   2.385   2.905   0.476
 7784SOL    HW224252   2.297   2.788   0.403
 7785SOL     OW24253   1.222   6.415   4.193
 7785SOL    HW124254   1.304   6.366   4.163
 7785SOL    HW224255   1.176   6.363   4.265
 7786SOL     OW24256   3.055   5.868   6.687
 7786SOL    HW124257   3.056   5.795   6.755
 7786SOL    HW224258   3.005   5.947   6.725
 7787SOL     OW24259   2.506   3.382   5.605
 7787SOL    HW124260   2.459   3.320   5.543
 7787SOL    HW224261   2.447   3.462   5.622
 7788SOL     OW24262   1.714   6.686   1.592
 7788SOL    HW124263   1.622   6.706   1.625
 7788SOL    HW224264   1.755   6.769   1.555
 7789SOL     OW24265   3.034   0.032   0.194
 7789SOL    HW124266   3.110   6.995   0.176
 7789SOL    HW224267   3.068   0.111   0.244
 7790SOL     OW24268   5.750   4.896   2.180
 7790SOL    HW124269   5.733   4.899   2.278
 7790SOL    HW224270   5.819   4.965   2.156
 7791SOL     OW24271   3.013   6.353   3.807
 7791SOL    HW124272   2.980   6.337   3.900
 7791SOL    HW224273   2.935   6.364   3.746
 7792SOL     OW24274   1.342   5.642   5.991
 7792SOL    HW124275   1.272   5.678   6.052
 7792SOL    HW224276   1.325   5.544   5.975
 7793SOL     OW24277   2.100   0.909   6.398
 7793SOL    HW124278   2.046   0.987   6.428
 7793SOL    HW224279   2.176   0.895   6.462
 7794SOL     OW24280   5.034   4.951   3.556
 7794SOL    HW124281   5.017   4.995   3.644
 7794SOL    HW224282   5.133   4.950   3.538
 7795SOL     OW24283   1.849   3.582   5.519
 7795SOL    HW124284   1.908   3.653   5.479
 7795SOL    HW224285   1.878   3.492   5.486
 7796SOL     OW24286   3.055   3.972   3.500
 7796SOL    HW124287   3.089   4.060   3.466
 7796SOL    HW224288   3.084   3.959   3.595
 7797SOL     OW24289   0.867   6.582   3.044
 7797SOL    HW124290   0.866   6.620   3.136
 7797SOL    HW224291   0.837   6.652   2.979
 7798SOL     OW24292   1.439   4.920   6.089
 7798SOL    HW124293   1.506   4.993   6.105
 7798SOL    HW224294   1.354   4.960   6.057
 7799SOL     OW24295   6.725   6.578   1.461
 7799SOL    HW124296   6.740   6.540   1.370
 7799SOL    HW224297   6.738   6.677   1.459
 7800SOL     OW24298   1.774   5.518   0.407
 7800SOL    HW124299   1.856   5.557   0.447
 7800SOL    HW224300   1.793   5.488   0.314
 7801SOL     OW24301   2.630   2.206   1.607
 7801SOL    HW124302   2.542   2.160   1.615
 7801SOL    HW224303   2.638   2.277   1.677
 7802SOL     OW24304   5.390   2.169   1.782
 7802SOL    HW124305   5.340   2.234   1.725
 7802SOL    HW224306   5.325   2.118   1.839
 7803SOL     OW24307   4.527   2.913   6.370
 7803SOL    HW124308   4.439   2.939   6.331
 7803SOL    HW224309   4.599   2.926   6.302
 7804SOL     OW24310   5.907   1.778   3.980
 7804SOL    HW124311   5.876   1.701   4.035
 7804SOL    HW224312   5.846   1.856   3.993
 7805SOL     OW24313   5.278   1.306   1.065
 7805SOL    HW124314   5.284   1.207   1.048
 7805SOL    HW224315   5.185   1.337   1.050
 7806SOL     OW24316   5.806   2.379   6.031
 7806SOL    HW124317   5.794   2.439   5.953
 7806SOL    HW224318   5.870   2.421   6.096
 7807SOL     OW24319   6.986   4.199   5.993
 7807SOL    HW124320   0.046   4.193   6.043
 7807SOL    HW224321   6.993   4.144   5.909
 7808SOL     OW24322   0.147   2.748   4.559
 7808SOL    HW124323   0.132   2.847   4.554
 7808SOL    HW224324   0.108   2.713   4.644
 7809SOL     OW24325   2.334   5.778   4.722
 7809SOL    HW124326   2.293   5.726   4.647
 7809SOL    HW224327   2.265   5.796   4.792
 7810SOL     OW24328   3.663   6.964   5.031
 7810SOL    HW124329   3.633   6.956   4.935
 7810SOL    HW224330   3.682   0.034   5.052
 7811SOL     OW24331   0.601   4.964   3.373
 7811SOL    HW124332   0.619   4.899   3.299
 7811SOL    HW224333   0.517   5.015   3.353
 7812SOL     OW24334   1.467   1.996   3.467
 7812SOL    HW124335   1.524   1.956   3.395
 7812SOL    HW224336   1.525   2.036   3.538
 7813SOL     OW24337   3.775   2.348   6.591
 7813SOL    HW124338   3.779   2.435   6.542
 7813SOL    HW224339   3.681   2.330   6.618
 7814SOL     OW24340   6.267   3.460   3.861
 7814SOL    HW124341   6.180   3.495   3.898
 7814SOL    HW224342   6.317   3.535   3.819
 7815SOL     OW24343   4.765   0.341   6.504
 7815SOL    HW124344   4.756   0.437   6.530
 7815SOL    HW224345   4.759   0.284   6.586
 7816SOL     OW24346   1.209   2.755   6.740
 7816SOL    HW124347   1.256   2.726   6.657
 7816SOL    HW224348   1.214   2.855   6.748
 7817SOL     OW24349   5.429   4.340   3.707
 7817SOL    HW124350   5.461   4.275   3.776
 7817SOL    HW224351   5.329   4.341   3.706
 7818SOL     OW24352   4.151   1.118   3.026
 7818SOL    HW124353   4.159   1.218   3.024
 7818SOL    HW224354   4.143   1.088   3.121
 7819SOL     OW24355   6.583   3.016   2.097
 7819SOL    HW124356   6.575   3.091   2.032
 7819SOL    HW224357   6.492   2.989   2.130
 7820SOL     OW24358   1.061   2.328   4.581
 7820SOL    HW124359   0.970   2.309   4.616
 7820SOL    HW224360   1.060   2.412   4.527
 7821SOL     OW24361   5.194   6.046   0.834
 7821SOL    HW124362   5.190   6.142   0.862
 7821SOL    HW224363   5.277   6.030   0.781
 7822SOL     OW24364   0.740   0.878   5.559
 7822SOL    HW124365   0.680   0.866   5.480
 7822SOL    HW224366   0.814   0.941   5.536
 7823SOL     OW24367   2.716   3.873   5.248
 7823SOL    HW124368   2.788   3.943   5.245
 7823SOL    HW224369   2.626   3.918   5.251
 7824SOL     OW24370   6.058   2.058   4.407
 7824SOL    HW124371   5.977   2.006   4.436
 7824SOL    HW224372   6.050   2.152   4.439
 7825SOL     OW24373   1.382   2.857   0.624
 7825SOL    HW124374   1.476   2.832   0.648
 7825SOL    HW224375   1.378   2.888   0.529
 7826SOL     OW24376   6.127   1.223   1.287
 7826SOL    HW124377   6.043   1.276   1.275
 7826SOL    HW224378   6.139   1.163   1.208
 7827SOL     OW24379   1.874   6.084   0.963
 7827SOL    HW124380   1.865   6.070   0.864
 7827SOL    HW224381   1.870   5.995   1.009
 7828SOL     OW24382   6.248   4.477   0.437
 7828SOL    HW124383   6.315   4.510   0.370
 7828SOL    HW224384   6.199   4.555   0.476
 7829SOL     OW24385   2.423   3.656   1.416
 7829SOL    HW124386   2.508   3.637   1.463
 7829SOL    HW224387   2.383   3.740   1.452
 7830SOL     OW24388   2.528   5.071   5.665
 7830SOL    HW124389   2.576   5.153   5.632
 7830SOL    HW224390   2.489   5.022   5.587
 7831SOL     OW24391   1.340   0.109   1.414
 7831SOL    HW124392   1.273   0.054   1.465
 7831SOL    HW224393   1.422   0.055   1.399
 7832SOL     OW24394   6.517   0.633   4.743
 7832SOL    HW124395   6.489   0.625   4.647
 7832SOL    HW224396   6.536   0.728   4.765
 7833SOL     OW24397   0.755   0.793   5.087
 7833SOL    HW124398   0.782   0.861   5.018
 7833SOL    HW224399   0.730   0.840   5.172
 7834SOL     OW24400   6.844   1.425   3.821
 7834SOL    HW124401   6.897   1.365   3.762
 7834SOL    HW224402   6.889   1.514   3.826
 7835SOL     OW24403   3.663   1.960   5.346
 7835SOL    HW124404   3.620   1.961   5.256
 7835SOL    HW224405   3.691   2.053   5.370
 7836SOL     OW24406   3.343   3.803   4.758
 7836SOL    HW124407   3.274   3.875   4.761
 7836SOL    HW224408   3.307   3.724   4.707
 7837SOL     OW24409   4.552   5.733   0.110
 7837SOL    HW124410   4.577   5.647   0.155
 7837SOL    HW224411   4.635   5.786   0.091
 7838SOL     OW24412   4.340   6.810   0.767
 7838SOL    HW124413   4.327   6.743   0.840
 7838SOL    HW224414   4.373   6.896   0.806
 7839SOL     OW24415   6.176   4.422   4.773
 7839SOL    HW124416   6.233   4.399   4.852
 7839SOL    HW224417   6.159   4.521   4.772
 7840SOL     OW24418   7.018   3.565   4.251
 7840SOL    HW124419   0.079   3.591   4.211
 7840SOL    HW224420   0.007   3.519   4.339
 7841SOL     OW24421   3.863   1.852   6.157
 7841SOL    HW124422   3.867   1.763   6.204
 7841SOL    HW224423   3.954   1.873   6.119
 7842SOL     OW24424   2.393   1.444   2.806
 7842SOL    HW124425   2.389   1.544   2.797
 7842SOL    HW224426   2.453   1.407   2.735
 7843SOL     OW24427   0.164   5.608   3.243
 7843SOL    HW124428   0.183   5.705   3.254
 7843SOL    HW224429   0.071   5.595   3.210
 7844SOL     OW24430   2.839   0.498   2.418
 7844SOL    HW124431   2.927   0.531   2.383
 7844SOL    HW224432   2.765   0.534   2.362
 7845SOL     OW24433   4.911   1.825   2.766
 7845SOL    HW124434   5.001   1.823   2.810
 7845SOL    HW224435   4.889   1.734   2.732
 7846SOL     OW24436   1.024   2.480   1.232
 7846SOL    HW124437   0.937   2.475   1.281
 7846SOL    HW224438   1.009   2.523   1.143
 7847SOL     OW24439   6.578   1.341   3.162
 7847SOL    HW124440   6.504   1.365   3.100
 7847SOL    HW224441   6.591   1.415   3.228
 7848SOL     OW24442   3.481   4.870   0.873
 7848SOL    HW124443   3.503   4.962   0.904
 7848SOL    HW224444   3.425   4.875   0.791
 7849SOL     OW24445   6.799   4.113   4.434
 7849SOL    HW124446   6.836   4.181   4.371
 7849SOL    HW224447   6.742   4.048   4.383
 7850SOL     OW24448   0.627   1.476   3.633
 7850SOL    HW124449   0.631   1.527   3.547
 7850SOL    HW224450   0.604   1.539   3.707
 7851SOL     OW24451   0.102   2.079   1.750
 7851SOL    HW124452   0.195   2.045   1.737
 7851SOL    HW224453   0.058   2.092   1.661
 7852SOL     OW24454   3.184   1.571   0.151
 7852SOL    HW124455   3.228   1.485   0.122
 7852SOL    HW224456   3.185   1.636   0.076
 7853SOL     OW24457   5.138   2.968   1.318
 7853SOL    HW124458   5.112   2.874   1.298
 7853SOL    HW224459   5.071   3.009   1.380
 7854SOL     OW24460   3.140   3.069   5.712
 7854SOL    HW124461   3.069   3.128   5.673
 7854SOL    HW224462   3.216   3.124   5.745
 7855SOL     OW24463   4.154   6.411   4.677
 7855SOL    HW124464   4.114   6.335   4.729
 7855SOL    HW224465   4.253   6.398   4.671
 7856SOL     OW24466   0.018   5.662   5.294
 7856SOL    HW124467   6.982   5.585   5.310
 7856SOL    HW224468   6.993   5.738   5.255
 7857SOL     OW24469   4.686   2.783   0.528
 7857SOL    HW124470   4.657   2.859   0.587
 7857SOL    HW224471   4.619   2.710   0.534
 7858SOL     OW24472   6.786   6.421   4.598
 7858SOL    HW124473   6.703   6.458   4.557
 7858SOL    HW224474   6.762   6.350   4.664
 7859SOL     OW24475   4.463   3.189   6.666
 7859SOL    HW124476   4.428   3.282   6.664
 7859SOL    HW224477   4.553   3.186   6.623
 7860SOL     OW24478   4.478   0.852   4.019
 7860SOL    HW124479   4.456   0.783   4.088
 7860SOL    HW224480   4.531   0.809   3.945
 7861SOL     OW24481   3.128   4.947   1.787
 7861SOL    HW124482   3.225   4.927   1.803
 7861SOL    HW224483   3.071   4.884   1.840
 7862SOL     OW24484   2.173   5.011   2.452
 7862SOL    HW124485   2.140   5.105   2.445
 7862SOL    HW224486   2.156   4.964   2.366
 7863SOL     OW24487   0.395   4.178   4.059
 7863SOL    HW124488   0.387   4.277   4.045
 7863SOL    HW224489   0.452   4.160   4.138
 7864SOL     OW24490   0.480   5.400   5.584
 7864SOL    HW124491   0.482   5.336   5.660
 7864SOL    HW224492   0.573   5.420   5.555
 7865SOL     OW24493   6.345   5.772   4.178
 7865SOL    HW124494   6.273   5.758   4.246
 7865SOL    HW224495   6.423   5.818   4.221
 7866SOL     OW24496   1.206   0.661   5.513
 7866SOL    HW124497   1.125   0.677   5.569
 7866SOL    HW224498   1.179   0.647   5.418
 7867SOL     OW24499   6.159   5.851   3.513
 7867SOL    HW124500   6.182   5.782   3.581
 7867SOL    HW224501   6.171   5.943   3.552
 7868SOL     OW24502   4.243   6.006   1.409
 7868SOL    HW124503   4.324   6.017   1.466
 7868SOL    HW224504   4.188   5.930   1.443
 7869SOL     OW24505   5.570   4.367   6.376
 7869SOL    HW124506   5.579   4.452   6.429
 7869SOL    HW224507   5.486   4.320   6.404
 7870SOL     OW24508   5.069   6.325   4.412
 7870SOL    HW124509   4.988   6.381   4.394
 7870SOL    HW224510   5.145   6.358   4.356
 7871SOL     OW24511   4.631   2.424   1.588
 7871SOL    HW124512   4.681   2.404   1.504
 7871SOL    HW224513   4.586   2.342   1.621
 7872SOL     OW24514   1.630   3.881   2.840
 7872SOL    HW124515   1.696   3.955   2.827
 7872SOL    HW224516   1.581   3.865   2.754
 7873SOL     OW24517   6.325   0.180   0.051
 7873SOL    HW124518   6.294   0.275   0.050
 7873SOL    HW224519   6.246   0.119   0.038
 7874SOL     OW24520   4.802   2.550   0.789
 7874SOL    HW124521   4.880   2.502   0.749
 7874SOL    HW224522   4.764   2.494   0.863
 7875SOL     OW24523   4.345   2.473   0.013
 7875SOL    HW124524   4.437   2.491   7.004
 7875SOL    HW224525   4.286   2.551   7.017
 7876SOL     OW24526   1.262   6.026   3.610
 7876SOL    HW124527   1.214   5.967   3.545
 7876SOL    HW224528   1.273   6.117   3.571
 7877SOL     OW24529   0.442   1.568   2.756
 7877SOL    HW124530   0.526   1.561   2.810
 7877SOL    HW224531   0.365   1.533   2.810
 7878SOL     OW24532   4.543   4.458   3.992
 7878SOL    HW124533   4.630   4.506   3.989
 7878SOL    HW224534   4.515   4.444   4.087
 7879SOL     OW24535   3.922   5.187   2.730
 7879SOL    HW124536   3.825   5.165   2.742
 7879SOL    HW224537   3.967   5.185   2.819
 7880SOL     OW24538   1.965   3.950   1.681
 7880SOL    HW124539   2.058   3.971   1.712
 7880SOL    HW224540   1.944   3.854   1.701
 7881SOL     OW24541   5.044   4.399   4.722
 7881SOL    HW124542   4.957   4.360   4.690
 7881SOL    HW224543   5.090   4.444   4.646
 7882SOL     OW24544   1.682   3.829   1.866
 7882SOL    HW124545   1.646   3.909   1.819
 7882SOL    HW224546   1.752   3.858   1.932
 7883SOL     OW24547   1.300   0.379   6.120
 7883SOL    HW124548   1.345   0.468   6.116
 7883SOL    HW224549   1.250   0.362   6.036
 7884SOL     OW24550   1.451   4.092   4.860
 7884SOL    HW124551   1.426   4.127   4.950
 7884SOL    HW224552   1.399   4.141   4.790
 7885SOL     OW24553   6.734   5.655   1.091
 7885SOL    HW124554   6.669   5.712   1.140
 7885SOL    HW224555   6.713   5.559   1.108
 7886SOL     OW24556   4.113   6.065   6.778
 7886SOL    HW124557   4.164   6.058   6.692
 7886SOL    HW224558   4.025   6.018   6.768
 7887SOL     OW24559   3.293   2.380   5.968
 7887SOL    HW124560   3.255   2.355   5.879
 7887SOL    HW224561   3.246   2.461   6.003
 7888SOL     OW24562   6.111   0.229   5.621
 7888SOL    HW124563   6.031   0.286   5.603
 7888SOL    HW224564   6.164   0.269   5.697
 7889SOL     OW24565   2.052   4.606   2.487
 7889SOL    HW124566   2.040   4.621   2.389
 7889SOL    HW224567   2.035   4.510   2.509
 7890SOL     OW24568   1.678   3.503   2.950
 7890SOL    HW124569   1.665   3.574   3.019
 7890SOL    HW224570   1.637   3.533   2.864
 7891SOL     OW24571   1.471   3.655   3.318
 7891SOL    HW124572   1.439   3.749   3.302
 7891SOL    HW224573   1.397   3.591   3.294
 7892SOL     OW24574   1.674   2.397   3.885
 7892SOL    HW124575   1.578   2.369   3.876
 7892SOL    HW224576   1.678   2.492   3.916
 7893SOL     OW24577   6.703   6.907   2.726
 7893SOL    HW124578   6.756   6.984   2.760
 7893SOL    HW224579   6.759   6.825   2.728
 7894SOL     OW24580   2.667   6.515   1.513
 7894SOL    HW124581   2.616   6.477   1.435
 7894SOL    HW224582   2.626   6.602   1.541
 7895SOL     OW24583   6.682   1.337   5.831
 7895SOL    HW124584   6.582   1.341   5.837
 7895SOL    HW224585   6.711   1.360   5.739
 7896SOL     OW24586   5.034   3.703   6.778
 7896SOL    HW124587   5.040   3.754   6.692
 7896SOL    HW224588   4.975   3.752   6.841
 7897SOL     OW24589   2.362   4.092   6.233
 7897SOL    HW124590   2.419   4.038   6.171
 7897SOL    HW224591   2.376   4.060   6.327
 7898SOL     OW24592   5.373   2.121   4.035
 7898SOL    HW124593   5.392   2.219   4.029
 7898SOL    HW224594   5.413   2.074   3.957
 7899SOL     OW24595   5.952   1.406   1.635
 7899SOL    HW124596   5.855   1.429   1.624
 7899SOL    HW224597   5.972   1.323   1.583
 7900SOL     OW24598   1.360   5.719   1.477
 7900SOL    HW124599   1.423   5.684   1.408
 7900SOL    HW224600   1.372   5.818   1.486
 7901SOL     OW24601   4.808   0.647   6.304
 7901SOL    HW124602   4.819   0.693   6.216
 7901SOL    HW224603   4.849   0.702   6.377
 7902SOL     OW24604   5.797   5.334   1.805
 7902SOL    HW124605   5.709   5.292   1.783
 7902SOL    HW224606   5.795   5.368   1.899
 7903SOL     OW24607   6.329   2.065   0.903
 7903SOL    HW124608   6.406   2.092   0.846
 7903SOL    HW224609   6.359   2.055   0.998
 7904SOL     OW24610   5.537   0.445   3.477
 7904SOL    HW124611   5.619   0.391   3.458
 7904SOL    HW224612   5.534   0.525   3.416
 7905SOL     OW24613   4.479   1.730   0.272
 7905SOL    HW124614   4.501   1.635   0.249
 7905SOL    HW224615   4.552   1.789   0.241
 7906SOL     OW24616   0.613   5.930   0.468
 7906SOL    HW124617   0.602   6.027   0.485
 7906SOL    HW224618   0.706   5.902   0.491
 7907SOL     OW24619   6.056   1.987   3.818
 7907SOL    HW124620   6.133   1.973   3.880
 7907SOL    HW224621   6.031   1.899   3.776
 7908SOL     OW24622   0.913   1.561   4.136
 7908SOL    HW124623   1.004   1.592   4.165
 7908SOL    HW224624   0.901   1.580   4.038
 7909SOL     OW24625   5.526   4.038   5.056
 7909SOL    HW124626   5.517   3.938   5.054
 7909SOL    HW224627   5.623   4.062   5.054
 7910SOL     OW24628   2.957   2.877   5.705
 7910SOL    HW124629   3.021   2.949   5.732
 7910SOL    HW224630   2.977   2.849   5.611
 7911SOL     OW24631   1.043   3.101   6.462
 7911SOL    HW124632   1.001   3.147   6.540
 7911SOL    HW224633   1.132   3.142   6.443
 7912SOL     OW24634   0.222   5.535   0.535
 7912SOL    HW124635   0.136   5.586   0.529
 7912SOL    HW224636   0.269   5.538   0.447
 7913SOL     OW24637   1.630   4.955   0.687
 7913SOL    HW124638   1.552   4.961   0.748
 7913SOL    HW224639   1.714   4.971   0.739
 7914SOL     OW24640   0.320   4.783   6.696
 7914SOL    HW124641   0.359   4.836   6.771
 7914SOL    HW224642   0.220   4.783   6.703
 7915SOL     OW24643   4.805   2.937   2.362
 7915SOL    HW124644   4.709   2.919   2.387
 7915SOL    HW224645   4.854   2.851   2.353
 7916SOL     OW24646   6.012   3.988   5.633
 7916SOL    HW124647   6.088   4.028   5.582
 7916SOL    HW224648   6.033   3.893   5.656
 7917SOL     OW24649   3.137   3.037   4.012
 7917SOL    HW124650   3.214   2.993   3.965
 7917SOL    HW224651   3.077   3.080   3.944
 7918SOL     OW24652   0.239   1.395   0.769
 7918SOL    HW124653   0.336   1.401   0.791
 7918SOL    HW224654   0.203   1.307   0.798
 7919SOL     OW24655   0.793   4.377   3.325
 7919SOL    HW124656   0.708   4.343   3.284
 7919SOL    HW224657   0.858   4.399   3.252
 7920SOL     OW24658   0.710   5.107   1.432
 7920SOL    HW124659   0.658   5.077   1.513
 7920SOL    HW224660   0.780   5.173   1.460
 7921SOL     OW24661   3.642   5.735   0.650
 7921SOL    HW124662   3.675   5.681   0.727
 7921SOL    HW224663   3.610   5.674   0.578
 7922SOL     OW24664   6.307   5.539   0.622
 7922SOL    HW124665   6.315   5.628   0.577
 7922SOL    HW224666   6.334   5.547   0.718
 7923SOL     OW24667   2.889   0.348   2.636
 7923SOL    HW124668   2.988   0.335   2.634
 7923SOL    HW224669   2.861   0.407   2.560
 7924SOL     OW24670   3.891   6.199   2.864
 7924SOL    HW124671   3.841   6.176   2.947
 7924SOL    HW224672   3.941   6.284   2.877
 7925SOL     OW24673   0.540   1.908   6.537
 7925SOL    HW124674   0.474   1.983   6.526
 7925SOL    HW224675   0.491   1.821   6.536
 7926SOL     OW24676   4.774   1.091   4.707
 7926SOL    HW124677   4.723   1.166   4.664
 7926SOL    HW224678   4.736   1.073   4.797
 7927SOL     OW24679   3.908   5.506   4.502
 7927SOL    HW124680   3.809   5.512   4.488
 7927SOL    HW224681   3.955   5.530   4.417
 7928SOL     OW24682   1.154   3.366   3.876
 7928SOL    HW124683   1.184   3.299   3.944
 7928SOL    HW224684   1.191   3.456   3.900
 7929SOL     OW24685   4.238   4.042   5.296
 7929SOL    HW124686   4.330   4.039   5.336
 7929SOL    HW224687   4.215   3.952   5.260
 7930SOL     OW24688   4.727   5.571   3.907
 7930SOL    HW124689   4.704   5.626   3.987
 7930SOL    HW224690   4.667   5.596   3.831
 7931SOL     OW24691   1.434   1.882   6.443
 7931SOL    HW124692   1.386   1.969   6.445
 7931SOL    HW224693   1.388   1.817   6.504
 7932SOL     OW24694   2.793   6.653   0.438
 7932SOL    HW124695   2.785   6.682   0.534
 7932SOL    HW224696   2.766   6.729   0.378
 7933SOL     OW24697   7.020   7.014   0.185
 7933SOL    HW124698   6.959   0.043   0.129
 7933SOL    HW224699   6.986   6.920   0.190
 7934SOL     OW24700   2.482   4.660   6.758
 7934SOL    HW124701   2.550   4.722   6.795
 7934SOL    HW224702   2.525   4.601   6.690
 7935SOL     OW24703   5.355   5.424   6.980
 7935SOL    HW124704   5.441   5.453   6.937
 7935SOL    HW224705   5.279   5.473   6.938
 7936SOL     OW24706   3.706   5.391   2.303
 7936SOL    HW124707   3.705   5.298   2.268
 7936SOL    HW224708   3.697   5.389   2.403
 7937SOL     OW24709   5.791   0.102   3.860
 7937SOL    HW124710   5.775   0.004   3.851
 7937SOL    HW224711   5.705   0.152   3.847
 7938SOL     OW24712   5.906   4.775   5.308
 7938SOL    HW124713   5.915   4.874   5.295
 7938SOL    HW224714   5.877   4.733   5.223
 7939SOL     OW24715   0.487   2.067   6.072
 7939SOL    HW124716   0.392   2.097   6.062
 7939SOL    HW224717   0.508   2.055   6.169
 7940SOL     OW24718   1.975   4.355   2.577
 7940SOL    HW124719   1.993   4.284   2.509
 7940SOL    HW224720   1.890   4.334   2.625
 7941SOL     OW24721   6.899   7.015   1.292
 7941SOL    HW124722   6.802   7.007   1.271
 7941SOL    HW224723   6.941   0.058   1.234
 7942SOL     OW24724   6.569   6.429   2.912
 7942SOL    HW124725   6.586   6.478   2.826
 7942SOL    HW224726   6.656   6.403   2.953
 7943SOL     OW24727   5.658   2.056   0.986
 7943SOL    HW124728   5.744   2.074   0.939
 7943SOL    HW224729   5.584   2.052   0.918
 7944SOL     OW24730   0.290   3.194   0.873
 7944SOL    HW124731   0.348   3.174   0.795
 7944SOL    HW224732   0.230   3.272   0.852
 7945SOL     OW24733   5.715   6.857   2.610
 7945SOL    HW124734   5.623   6.897   2.613
 7945SOL    HW224735   5.782   6.926   2.637
 7946SOL     OW24736   2.130   2.763   5.661
 7946SOL    HW124737   2.198   2.805   5.721
 7946SOL    HW224738   2.176   2.712   5.589
 7947SOL     OW24739   3.594   2.706   6.551
 7947SOL    HW124740   3.586   2.687   6.453
 7947SOL    HW224741   3.555   2.630   6.603
 7948SOL     OW24742   0.350   6.570   1.200
 7948SOL    HW124743   0.252   6.553   1.194
 7948SOL    HW224744   0.366   6.653   1.252
 7949SOL     OW24745   4.475   4.636   3.586
 7949SOL    HW124746   4.523   4.723   3.579
 7949SOL    HW224747   4.387   4.649   3.633
 7950SOL     OW24748   4.908   5.586   3.667
 7950SOL    HW124749   4.985   5.532   3.633
 7950SOL    HW224750   4.880   5.552   3.757
 7951SOL     OW24751   1.949   3.763   1.012
 7951SOL    HW124752   1.995   3.743   0.926
 7951SOL    HW224753   2.017   3.775   1.084
 7952SOL     OW24754   0.554   3.244   6.759
 7952SOL    HW124755   0.509   3.333   6.767
 7952SOL    HW224756   0.504   3.186   6.695
 7953SOL     OW24757   2.176   3.011   3.438
 7953SOL    HW124758   2.085   3.033   3.403
 7953SOL    HW224759   2.173   2.926   3.489
 7954SOL     OW24760   4.580   4.573   5.466
 7954SOL    HW124761   4.656   4.508   5.472
 7954SOL    HW224762   4.551   4.598   5.559
 7955SOL     OW24763   1.469   6.497   6.177
 7955SOL    HW124764   1.507   6.409   6.147
 7955SOL    HW224765   1.476   6.563   6.102
 7956SOL     OW24766   1.080   6.343   2.459
 7956SOL    HW124767   1.100   6.255   2.416
 7956SOL    HW224768   0.984   6.367   2.445
 7957SOL     OW24769   1.980   1.211   0.622
 7957SOL    HW124770   2.061   1.258   0.587
 7957SOL    HW224771   1.994   1.112   0.617
 7958SOL     OW24772   3.120   5.686   4.544
 7958SOL    HW124773   3.097   5.753   4.474
 7958SOL    HW224774   3.105   5.726   4.635
 7959SOL     OW24775   4.352   5.349   1.192
 7959SOL    HW124776   4.306   5.295   1.262
 7959SOL    HW224777   4.289   5.417   1.156
 7960SOL     OW24778   3.618   1.305   0.776
 7960SOL    HW124779   3.565   1.318   0.860
 7960SOL    HW224780   3.709   1.345   0.787
 7961SOL     OW24781   1.065   6.306   0.163
 7961SOL    HW124782   1.003   6.354   0.101
 7961SOL    HW224783   1.131   6.253   0.110
 7962SOL     OW24784   1.933   0.629   6.933
 7962SOL    HW124785   1.911   0.577   6.850
 7962SOL    HW224786   1.963   0.721   6.907
 7963SOL     OW24787   6.274   0.707   4.127
 7963SOL    HW124788   6.346   0.733   4.192
 7963SOL    HW224789   6.191   0.683   4.176
 7964SOL     OW24790   5.981   5.013   3.794
 7964SOL    HW124791   5.983   5.016   3.694
 7964SOL    HW224792   6.071   4.986   3.829
 7965SOL     OW24793   3.357   2.658   6.318
 7965SOL    HW124794   3.306   2.695   6.241
 7965SOL    HW224795   3.447   2.702   6.323
 7966SOL     OW24796   0.463   3.194   5.350
 7966SOL    HW124797   0.414   3.281   5.348
 7966SOL    HW224798   0.561   3.210   5.343
 7967SOL     OW24799   3.069   6.478   4.108
 7967SOL    HW124800   3.156   6.433   4.087
 7967SOL    HW224801   3.080   6.577   4.098
 7968SOL     OW24802   2.476   2.603   3.515
 7968SOL    HW124803   2.398   2.663   3.498
 7968SOL    HW224804   2.509   2.567   3.428
 7969SOL     OW24805   4.625   6.987   2.345
 7969SOL    HW124806   4.655   0.041   2.293
 7969SOL    HW224807   4.590   7.016   2.434
 7970SOL     OW24808   6.889   3.345   2.786
 7970SOL    HW124809   6.820   3.274   2.769
 7970SOL    HW224810   6.937   3.365   2.700
 7971SOL     OW24811   3.446   1.687   0.934
 7971SOL    HW124812   3.398   1.764   0.977
 7971SOL    HW224813   3.534   1.674   0.979
 7972SOL     OW24814   0.781   4.084   1.446
 7972SOL    HW124815   0.823   3.999   1.412
 7972SOL    HW224816   0.768   4.147   1.370
 7973SOL     OW24817   5.316   3.400   2.730
 7973SOL    HW124818   5.254   3.394   2.652
 7973SOL    HW224819   5.410   3.404   2.697
 7974SOL     OW24820   5.583   0.267   4.936
 7974SOL    HW124821   5.597   0.349   4.881
 7974SOL    HW224822   5.667   0.245   4.985
 7975SOL     OW24823   5.586   0.467   3.754
 7975SOL    HW124824   5.551   0.465   3.660
 7975SOL    HW224825   5.681   0.436   3.755
 7976SOL     OW24826   0.805   0.518   5.443
 7976SOL    HW124827   0.730   0.534   5.508
 7976SOL    HW224828   0.812   0.421   5.424
 7977SOL     OW24829   4.592   5.644   2.032
 7977SOL    HW124830   4.609   5.597   2.119
 7977SOL    HW224831   4.631   5.591   1.957
 7978SOL     OW24832   5.923   3.457   5.976
 7978SOL    HW124833   5.907   3.542   5.927
 7978SOL    HW224834   5.837   3.423   6.013
 7979SOL     OW24835   3.214   0.655   5.447
 7979SOL    HW124836   3.180   0.673   5.355
 7979SOL    HW224837   3.238   0.558   5.456
 7980SOL     OW24838   3.106   6.143   0.029
 7980SOL    HW124839   3.195   6.188   0.038
 7980SOL    HW224840   3.118   6.044   0.038
 7981SOL     OW24841   0.536   5.782   2.610
 7981SOL    HW124842   0.455   5.796   2.552
 7981SOL    HW224843   0.613   5.833   2.571
 7982SOL     OW24844   6.663   1.557   0.627
 7982SOL    HW124845   6.733   1.577   0.696
 7982SOL    HW224846   6.693   1.594   0.539
 7983SOL     OW24847   5.362   2.145   3.063
 7983SOL    HW124848   5.410   2.070   3.109
 7983SOL    HW224849   5.263   2.135   3.077
 7984SOL     OW24850   1.633   2.086   1.456
 7984SOL    HW124851   1.699   2.075   1.382
 7984SOL    HW224852   1.624   2.183   1.479
 7985SOL     OW24853   2.329   7.012   3.671
 7985SOL    HW124854   2.276   0.052   3.724
 7985SOL    HW224855   2.302   7.017   3.575
 7986SOL     OW24856   3.512   0.993   6.587
 7986SOL    HW124857   3.420   1.009   6.553
 7986SOL    HW224858   3.577   1.044   6.531
 7987SOL     OW24859   0.828   3.408   6.541
 7987SOL    HW124860   0.798   3.343   6.471
 7987SOL    HW224861   0.793   3.380   6.630
 7988SOL     OW24862   1.818   2.079   4.499
 7988SOL    HW124863   1.775   2.097   4.411
 7988SOL    HW224864   1.750   2.041   4.562
 7989SOL     OW24865   3.350   2.239   5.335
 7989SOL    HW124866   3.291   2.159   5.319
 7989SOL    HW224867   3.308   2.320   5.293
 7990SOL     OW24868   6.393   4.053   3.763
 7990SOL    HW124869   6.418   3.990   3.690
 7990SOL    HW224870   6.476   4.097   3.799
 7991SOL     OW24871   6.301   1.147   5.174
 7991SOL    HW124872   6.384   1.136   5.227
 7991SOL    HW224873   6.277   1.244   5.168
 7992SOL     OW24874   1.373   6.414   0.639
 7992SOL    HW124875   1.336   6.503   0.610
 7992SOL    HW224876   1.405   6.422   0.734
 7993SOL     OW24877   1.386   5.821   6.772
 7993SOL    HW124878   1.422   5.728   6.765
 7993SOL    HW224879   1.297   5.826   6.725
 7994SOL     OW24880   4.523   0.692   3.192
 7994SOL    HW124881   4.554   0.612   3.141
 7994SOL    HW224882   4.568   0.694   3.281
 7995SOL     OW24883   4.260   5.550   3.557
 7995SOL    HW124884   4.328   5.526   3.487
 7995SOL    HW224885   4.168   5.540   3.518
 7996SOL     OW24886   3.025   6.488   4.457
 7996SOL    HW124887   2.926   6.486   4.471
 7996SOL    HW224888   3.071   6.497   4.545
 7997SOL     OW24889   0.165   1.136   0.810
 7997SOL    HW124890   0.096   1.140   0.882
 7997SOL    HW224891   0.250   1.098   0.848
 7998SOL     OW24892   4.155   5.489   1.043
 7998SOL    HW124893   4.128   5.581   1.014
 7998SOL    HW224894   4.198   5.441   0.966
 7999SOL     OW24895   1.264   0.636   6.474
 7999SOL    HW124896   1.355   0.621   6.437
 7999SOL    HW224897   1.264   0.620   6.573
 8000SOL     OW24898   5.480   0.658   0.110
 8000SOL    HW124899   5.506   0.712   0.190
 8000SOL    HW224900   5.398   0.697   0.068
 8001SOL     OW24901   3.408   6.468   1.446
 8001SOL    HW124902   3.387   6.533   1.373
 8001SOL    HW224903   3.375   6.377   1.419
 8002SOL     OW24904   0.194   2.799   5.712
 8002SOL    HW124905   0.104   2.788   5.752
 8002SOL    HW224906   0.261   2.747   5.765
 8003SOL     OW24907   2.365   4.826   1.928
 8003SOL    HW124908   2.431   4.869   1.991
 8003SOL    HW224909   2.289   4.789   1.981
 8004SOL     OW24910   1.577   4.419   3.076
 8004SOL    HW124911   1.642   4.401   3.002
 8004SOL    HW224912   1.620   4.401   3.164
 8005SOL     OW24913   3.337   1.652   2.097
 8005SOL    HW124914   3.249   1.687   2.129
 8005SOL    HW224915   3.394   1.729   2.067
 8006SOL     OW24916   2.628   6.716   0.682
 8006SOL    HW124917   2.568   6.795   0.694
 8006SOL    HW224918   2.705   6.724   0.746
 8007SOL     OW24919   1.339   6.594   3.905
 8007SOL    HW124920   1.268   6.542   3.858
 8007SOL    HW224921   1.367   6.546   3.988
 8008SOL     OW24922   4.845   6.734   5.834
 8008SOL    HW124923   4.788   6.766   5.759
 8008SOL    HW224924   4.933   6.782   5.831
 8009SOL     OW24925   6.257   0.407   3.530
 8009SOL    HW124926   6.323   0.419   3.603
 8009SOL    HW224927   6.231   0.310   3.524
 8010SOL     OW24928   1.629   1.537   0.021
 8010SOL    HW124929   1.678   1.467   6.995
 8010SOL    HW224930   1.693   1.608   0.051
 8011SOL     OW24931   2.516   2.925   1.405
 8011SOL    HW124932   2.558   2.859   1.342
 8011SOL    HW224933   2.534   2.897   1.499
 8012SOL     OW24934   2.215   5.762   1.406
 8012SOL    HW124935   2.290   5.819   1.374
 8012SOL    HW224936   2.128   5.804   1.381
 8013SOL     OW24937   0.627   5.201   4.729
 8013SOL    HW124938   0.675   5.223   4.644
 8013SOL    HW224939   0.687   5.219   4.807
 8014SOL     OW24940   0.906   6.454   5.299
 8014SOL    HW124941   0.995   6.439   5.343
 8014SOL    HW224942   0.877   6.548   5.313
 8015SOL     OW24943   2.856   1.548   0.146
 8015SOL    HW124944   2.937   1.595   0.182
 8015SOL    HW224945   2.871   1.525   0.050
 8016SOL     OW24946   4.206   0.177   6.348
 8016SOL    HW124947   4.275   0.247   6.331
 8016SOL    HW224948   4.249   0.094   6.382
 8017SOL     OW24949   6.667   5.020   6.361
 8017SOL    HW124950   6.683   4.931   6.404
 8017SOL    HW224951   6.569   5.036   6.354
 8018SOL     OW24952   4.131   2.469   6.331
 8018SOL    HW124953   4.100   2.550   6.381
 8018SOL    HW224954   4.058   2.400   6.331
 8019SOL     OW24955   2.240   4.005   0.016
 8019SOL    HW124956   2.162   4.039   6.990
 8019SOL    HW224957   2.310   3.971   6.980
 8020SOL     OW24958   6.375   6.170   0.844
 8020SOL    HW124959   6.434   6.144   0.767
 8020SOL    HW224960   6.428   6.169   0.929
 8021SOL     OW24961   1.290   2.483   1.906
 8021SOL    HW124962   1.297   2.411   1.975
 8021SOL    HW224963   1.356   2.556   1.927
 8022SOL     OW24964   4.189   0.271   2.783
 8022SOL    HW124965   4.283   0.300   2.797
 8022SOL    HW224966   4.150   0.320   2.705
 8023SOL     OW24967   6.181   5.825   3.826
 8023SOL    HW124968   6.092   5.854   3.862
 8023SOL    HW224969   6.220   5.899   3.770
 8024SOL     OW24970   2.805   4.774   0.192
 8024SOL    HW124971   2.768   4.865   0.207
 8024SOL    HW224972   2.874   4.777   0.120
 8025SOL     OW24973   2.721   6.152   5.786
 8025SOL    HW124974   2.686   6.064   5.820
 8025SOL    HW224975   2.776   6.136   5.704
 8026SOL     OW24976   0.531   4.563   0.112
 8026SOL    HW124977   0.533   4.629   0.036
 8026SOL    HW224978   0.555   4.473   0.077
 8027SOL     OW24979   4.638   2.103   5.458
 8027SOL    HW124980   4.725   2.056   5.444
 8027SOL    HW224981   4.642   2.159   5.540
 8028SOL     OW24982   3.552   4.664   6.133
 8028SOL    HW124983   3.463   4.687   6.093
 8028SOL    HW224984   3.622   4.723   6.093
 8029SOL     OW24985   5.736   3.614   0.118
 8029SOL    HW124986   5.652   3.667   0.110
 8029SOL    HW224987   5.745   3.552   0.040
 8030SOL     OW24988   5.769   4.025   6.382
 8030SOL    HW124989   5.683   3.985   6.415
 8030SOL    HW224990   5.821   3.955   6.334
 8031SOL     OW24991   4.997   5.780   2.658
 8031SOL    HW124992   5.082   5.832   2.671
 8031SOL    HW224993   5.008   5.714   2.584
 8032SOL     OW24994   5.789   4.480   5.676
 8032SOL    HW124995   5.717   4.543   5.705
 8032SOL    HW224996   5.771   4.389   5.713
 8033SOL     OW24997   5.205   3.176   6.815
 8033SOL    HW124998   5.299   3.155   6.786
 8033SOL    HW224999   5.173   3.257   6.765
 8034SOL     OW25000   6.191   1.405   5.454
 8034SOL    HW125001   6.241   1.325   5.487
 8034SOL    HW225002   6.110   1.376   5.403
 8035SOL     OW25003   4.664   0.080   5.104
 8035SOL    HW125004   4.586   0.116   5.154
 8035SOL    HW225005   4.727   0.036   5.167
 8036SOL     OW25006   0.654   4.000   2.656
 8036SOL    HW125007   0.684   3.904   2.665
 8036SOL    HW225008   0.588   4.021   2.728
 8037SOL     OW25009   1.510   4.100   2.018
 8037SOL    HW125010   1.507   4.007   2.054
 8037SOL    HW225011   1.420   4.127   1.985
 8038SOL     OW25012   4.643   1.264   2.474
 8038SOL    HW125013   4.627   1.329   2.399
 8038SOL    HW225014   4.708   1.194   2.445
 8039SOL     OW25015   1.290   0.113   3.118
 8039SOL    HW125016   1.271   0.195   3.172
 8039SOL    HW225017   1.345   0.138   3.038
 8040SOL     OW25018   1.582   6.075   1.040
 8040SOL    HW125019   1.609   6.025   1.122
 8040SOL    HW225020   1.649   6.060   0.968
 8041SOL     OW25021   3.101   1.973   2.270
 8041SOL    HW125022   3.136   2.031   2.343
 8041SOL    HW225023   3.084   2.028   2.188
 8042SOL     OW25024   3.681   2.993   2.900
 8042SOL    HW125025   3.725   2.966   2.815
 8042SOL    HW225026   3.657   3.090   2.895
 8043SOL     OW25027   3.652   6.329   0.637
 8043SOL    HW125028   3.699   6.245   0.664
 8043SOL    HW225029   3.709   6.408   0.661
 8044SOL     OW25030   3.150   3.629   0.713
 8044SOL    HW125031   3.150   3.593   0.807
 8044SOL    HW225032   3.242   3.660   0.689
 8045SOL     OW25033   5.490   0.828   1.929
 8045SOL    HW125034   5.584   0.830   1.895
 8045SOL    HW225035   5.450   0.738   1.912
 8046SOL     OW25036   6.693   5.004   6.901
 8046SOL    HW125037   6.738   4.956   6.977
 8046SOL    HW225038   6.761   5.030   6.833
 8047SOL     OW25039   3.965   5.001   5.193
 8047SOL    HW125040   3.921   5.036   5.275
 8047SOL    HW225041   4.043   5.059   5.169
 8048SOL     OW25042   5.193   0.932   5.913
 8048SOL    HW125043   5.287   0.959   5.935
 8048SOL    HW225044   5.134   0.950   5.991
 8049SOL     OW25045   1.244   7.017   1.147
 8049SOL    HW125046   1.238   6.938   1.209
 8049SOL    HW225047   1.183   7.001   1.068
 8050SOL     OW25048   0.821   4.223   2.065
 8050SOL    HW125049   0.823   4.124   2.047
 8050SOL    HW225050   0.770   4.240   2.149
 8051SOL     OW25051   4.924   6.385   3.308
 8051SOL    HW125052   4.929   6.315   3.379
 8051SOL    HW225053   4.967   6.469   3.341
 8052SOL     OW25054   3.463   1.296   2.004
 8052SOL    HW125055   3.493   1.235   1.931
 8052SOL    HW225056   3.529   1.370   2.015
 8053SOL     OW25057   3.973   3.950   2.822
 8053SOL    HW125058   4.013   3.918   2.908
 8053SOL    HW225059   4.028   4.025   2.786
 8054SOL     OW25060   5.703   6.435   4.276
 8054SOL    HW125061   5.621   6.432   4.218
 8054SOL    HW225062   5.684   6.489   4.358
 8055SOL     OW25063   0.531   0.254   5.720
 8055SOL    HW125064   0.495   0.262   5.813
 8055SOL    HW225065   0.555   0.345   5.686
 8056SOL     OW25066   4.159   1.223   3.961
 8056SOL    HW125067   4.209   1.259   4.040
 8056SOL    HW225068   4.106   1.297   3.919
 8057SOL     OW25069   2.345   1.559   2.411
 8057SOL    HW125070   2.435   1.599   2.396
 8057SOL    HW225071   2.292   1.561   2.326
 8058SOL     OW25072   3.159   0.267   2.675
 8058SOL    HW125073   3.194   0.223   2.757
 8058SOL    HW225074   3.197   0.359   2.668
 8059SOL     OW25075   4.108   2.222   4.747
 8059SOL    HW125076   4.199   2.186   4.724
 8059SOL    HW225077   4.117   2.306   4.799
 8060SOL     OW25078   0.307   1.265   4.144
 8060SOL    HW125079   0.215   1.229   4.131
 8060SOL    HW225080   0.337   1.245   4.238
 8061SOL     OW25081   6.663   6.749   1.828
 8061SOL    HW125082   6.586   6.701   1.784
 8061SOL    HW225083   6.635   6.781   1.918
 8062SOL     OW25084   2.421   4.383   4.084
 8062SOL    HW125085   2.437   4.380   4.183
 8062SOL    HW225086   2.410   4.479   4.055
 8063SOL     OW25087   1.929   3.204   1.005
 8063SOL    HW125088   1.848   3.146   0.998
 8063SOL    HW225089   1.994   3.179   0.933
 8064SOL     OW25090   0.451   5.208   1.416
 8064SOL    HW125091   0.420   5.178   1.326
 8064SOL    HW225092   0.547   5.184   1.428
 8065SOL     OW25093   4.567   6.358   3.812
 8065SOL    HW125094   4.572   6.413   3.895
 8065SOL    HW225095   4.477   6.315   3.806
 8066SOL     OW25096   1.313   1.705   6.611
 8066SOL    HW125097   1.278   1.717   6.704
 8066SOL    HW225098   1.250   1.648   6.559
 8067SOL     OW25099   4.682   3.108   1.502
 8067SOL    HW125100   4.619   3.133   1.576
 8067SOL    HW225101   4.647   3.026   1.456
 8068SOL     OW25102   6.598   5.509   6.581
 8068SOL    HW125103   6.684   5.536   6.538
 8068SOL    HW225104   6.532   5.484   6.510
 8069SOL     OW25105   2.027   5.953   1.361
 8069SOL    HW125106   2.067   6.044   1.348
 8069SOL    HW225107   1.974   5.951   1.445
 8070SOL     OW25108   2.778   3.716   0.662
 8070SOL    HW125109   2.840   3.768   0.604
 8070SOL    HW225110   2.734   3.644   0.609
 8071SOL     OW25111   3.000   6.296   5.076
 8071SOL    HW125112   2.970   6.364   5.143
 8071SOL    HW225113   3.100   6.289   5.078
 8072SOL     OW25114   3.236   1.276   0.167
 8072SOL    HW125115   3.289   1.241   0.090
 8072SOL    HW225116   3.157   1.216   0.183
 8073SOL     OW25117   4.624   6.739   6.403
 8073SOL    HW125118   4.525   6.732   6.408
 8073SOL    HW225119   4.666   6.665   6.455
 8074SOL     OW25120   3.217   2.536   6.739
 8074SOL    HW125121   3.257   2.620   6.701
 8074SOL    HW225122   3.229   2.537   6.839
 8075SOL     OW25123   6.638   0.933   1.451
 8075SOL    HW125124   6.671   0.981   1.532
 8075SOL    HW225125   6.598   0.999   1.387
 8076SOL     OW25126   4.322   2.522   5.568
 8076SOL    HW125127   4.303   2.529   5.666
 8076SOL    HW225128   4.421   2.526   5.553
 8077SOL     OW25129   0.830   6.296   2.099
 8077SOL    HW125130   0.925   6.281   2.073
 8077SOL    HW225131   0.810   6.394   2.095
 8078SOL     OW25132   6.306   1.750   1.103
 8078SOL    HW125133   6.237   1.749   1.030
 8078SOL    HW225134   6.391   1.711   1.069
 8079SOL     OW25135   5.264   2.064   3.755
 8079SOL    HW125136   5.211   1.982   3.776
 8079SOL    HW225137   5.361   2.046   3.770
 8080SOL     OW25138   0.852   3.982   0.288
 8080SOL    HW125139   0.819   3.924   0.213
 8080SOL    HW225140   0.952   3.981   0.290
 8081SOL     OW25141   5.185   0.495   4.967
 8081SOL    HW125142   5.230   0.529   5.049
 8081SOL    HW225143   5.181   0.395   4.970
 8082SOL     OW25144   6.170   1.400   2.172
 8082SOL    HW125145   6.256   1.450   2.165
 8082SOL    HW225146   6.187   1.311   2.213
 8083SOL     OW25147   5.370   2.877   2.068
 8083SOL    HW125148   5.417   2.929   1.997
 8083SOL    HW225149   5.271   2.895   2.062
 8084SOL     OW25150   5.575   6.759   0.799
 8084SOL    HW125151   5.609   6.846   0.834
 8084SOL    HW225152   5.602   6.685   0.861
 8085SOL     OW25153   5.871   0.148   2.629
 8085SOL    HW125154   5.916   0.087   2.694
 8085SOL    HW225155   5.875   0.109   2.537
 8086SOL     OW25156   4.280   0.381   3.859
 8086SOL    HW125157   4.194   0.335   3.882
 8086SOL    HW225158   4.283   0.470   3.904
 8087SOL     OW25159   1.956   1.517   1.264
 8087SOL    HW125160   1.921   1.537   1.356
 8087SOL    HW225161   1.880   1.517   1.199
 8088SOL     OW25162   5.882   1.663   1.726
 8088SOL    HW125163   5.933   1.747   1.745
 8088SOL    HW225164   5.942   1.584   1.733
 8089SOL     OW25165   5.530   2.078   0.749
 8089SOL    HW125166   5.439   2.064   0.712
 8089SOL    HW225167   5.595   2.091   0.674
 8090SOL     OW25168   4.476   1.751   6.097
 8090SOL    HW125169   4.479   1.651   6.088
 8090SOL    HW225170   4.502   1.777   6.190
 8091SOL     OW25171   2.729   3.699   6.442
 8091SOL    HW125172   2.659   3.720   6.374
 8091SOL    HW225173   2.812   3.668   6.395
 8092SOL     OW25174   1.149   1.899   4.697
 8092SOL    HW125175   1.103   1.845   4.767
 8092SOL    HW225176   1.136   1.996   4.716
 8093SOL     OW25177   5.535   5.806   1.896
 8093SOL    HW125178   5.471   5.839   1.965
 8093SOL    HW225179   5.549   5.708   1.907
 8094SOL     OW25180   1.980   4.152   4.756
 8094SOL    HW125181   2.009   4.201   4.838
 8094SOL    HW225182   1.919   4.077   4.782
 8095SOL     OW25183   6.161   4.009   3.894
 8095SOL    HW125184   6.244   4.035   3.845
 8095SOL    HW225185   6.084   4.006   3.830
 8096SOL     OW25186   3.445   5.354   3.989
 8096SOL    HW125187   3.501   5.282   3.947
 8096SOL    HW225188   3.483   5.443   3.967
 8097SOL     OW25189   5.345   0.544   3.903
 8097SOL    HW125190   5.301   0.454   3.906
 8097SOL    HW225191   5.432   0.537   3.856
 8098SOL     OW25192   1.675   6.762   4.358
 8098SOL    HW125193   1.670   6.677   4.306
 8098SOL    HW225194   1.769   6.776   4.390
 8099SOL     OW25195   6.261   0.727   4.566
 8099SOL    HW125196   6.351   0.688   4.544
 8099SOL    HW225197   6.227   0.686   4.650
 8100SOL     OW25198   6.998   6.483   0.173
 8100SOL    HW125199   6.953   6.428   0.102
 8100SOL    HW225200   6.984   6.580   0.153
 8101SOL     OW25201   2.273   0.306   4.600
 8101SOL    HW125202   2.201   0.238   4.588
 8101SOL    HW225203   2.244   0.372   4.669
 8102SOL     OW25204   1.320   5.114   5.896
 8102SOL    HW125205   1.404   5.090   5.847
 8102SOL    HW225206   1.325   5.210   5.924
 8103SOL     OW25207   4.390   1.436   0.818
 8103SOL    HW125208   4.316   1.439   0.751
 8103SOL    HW225209   4.453   1.511   0.802
 8104SOL     OW25210   2.644   6.779   5.911
 8104SOL    HW125211   2.622   6.723   5.832
 8104SOL    HW225212   2.682   6.722   5.983
 8105SOL     OW25213   1.780   2.198   3.333
 8105SOL    HW125214   1.866   2.229   3.372
 8105SOL    HW225215   1.772   2.231   3.239
 8106SOL     OW25216   2.446   5.851   3.949
 8106SOL    HW125217   2.384   5.868   4.026
 8106SOL    HW225218   2.400   5.793   3.881
 8107SOL     OW25219   1.369   6.145   5.623
 8107SOL    HW125220   1.300   6.093   5.572
 8107SOL    HW225221   1.440   6.083   5.656
 8108SOL     OW25222   5.901   2.639   4.570
 8108SOL    HW125223   5.823   2.578   4.580
 8108SOL    HW225224   5.890   2.717   4.632
 8109SOL     OW25225   1.256   4.142   4.644
 8109SOL    HW125226   1.338   4.190   4.613
 8109SOL    HW225227   1.200   4.116   4.565
 8110SOL     OW25228   3.360   6.612   0.806
 8110SOL    HW125229   3.269   6.638   0.774
 8110SOL    HW225230   3.403   6.689   0.853
 8111SOL     OW25231   3.594   0.152   5.771
 8111SOL    HW125232   3.599   0.052   5.771
 8111SOL    HW225233   3.686   0.191   5.774
 8112SOL     OW25234   2.033   1.217   5.180
 8112SOL    HW125235   2.063   1.228   5.275
 8112SOL    HW225236   1.960   1.149   5.176
 8113SOL     OW25237   2.252   3.028   0.028
 8113SOL    HW125238   2.310   2.986   0.097
 8113SOL    HW225239   2.308   3.081   6.990
 8114SOL     OW25240   2.176   3.046   2.383
 8114SOL    HW125241   2.181   2.997   2.296
 8114SOL    HW225242   2.156   2.981   2.456
 8115SOL     OW25243   3.876   1.424   1.594
 8115SOL    HW125244   3.910   1.331   1.577
 8115SOL    HW225245   3.811   1.449   1.522
 8116SOL     OW25246   4.380   6.616   4.703
 8116SOL    HW125247   4.422   6.526   4.691
 8116SOL    HW225248   4.423   6.681   4.640
 8117SOL     OW25249   2.190   1.564   3.814
 8117SOL    HW125250   2.259   1.597   3.750
 8117SOL    HW225251   2.233   1.511   3.887
 8118SOL     OW25252   0.174   3.824   6.173
 8118SOL    HW125253   0.137   3.746   6.123
 8118SOL    HW225254   0.099   3.881   6.206
 8119SOL     OW25255   0.266   5.744   5.125
 8119SOL    HW125256   0.216   5.676   5.179
 8119SOL    HW225257   0.214   5.765   5.043
 8120SOL     OW25258   4.013   4.319   6.494
 8120SOL    HW125259   3.970   4.272   6.571
 8120SOL    HW225260   3.960   4.400   6.471
 8121SOL     OW25261   6.255   5.555   3.523
 8121SOL    HW125262   6.159   5.527   3.528
 8121SOL    HW225263   6.309   5.498   3.585
 8122SOL     OW25264   0.266   5.145   2.238
 8122SOL    HW125265   0.220   5.107   2.318
 8122SOL    HW225266   0.306   5.071   2.184
 8123SOL     OW25267   0.197   0.177   0.153
 8123SOL    HW125268   0.161   0.208   0.065
 8123SOL    HW225269   0.157   0.089   0.177
 8124SOL     OW25270   0.452   6.352   1.354
 8124SOL    HW125271   0.542   6.310   1.365
 8124SOL    HW225272   0.437   6.376   1.258
 8125SOL     OW25273   6.557   5.071   3.253
 8125SOL    HW125274   6.544   5.100   3.347
 8125SOL    HW225275   6.621   4.994   3.251
 8126SOL     OW25276   6.539   3.968   2.118
 8126SOL    HW125277   6.627   3.922   2.109
 8126SOL    HW225278   6.467   3.900   2.136
 8127SOL     OW25279   2.250   5.970   0.647
 8127SOL    HW125280   2.269   5.970   0.549
 8127SOL    HW225281   2.153   5.952   0.663
 8128SOL     OW25282   3.097   2.819   7.005
 8128SOL    HW125283   3.033   2.813   6.929
 8128SOL    HW225284   3.129   2.727   0.002
 8129SOL     OW25285   4.901   1.085   6.437
 8129SOL    HW125286   4.832   1.048   6.375
 8129SOL    HW225287   4.868   1.171   6.475
 8130SOL     OW25288   0.840   4.735   6.209
 8130SOL    HW125289   0.871   4.806   6.147
 8130SOL    HW225290   0.832   4.648   6.160
 8131SOL     OW25291   2.512   0.765   0.476
 8131SOL    HW125292   2.525   0.848   0.530
 8131SOL    HW225293   2.417   0.736   0.482
 8132SOL     OW25294   5.684   6.326   6.338
 8132SOL    HW125295   5.630   6.404   6.304
 8132SOL    HW225296   5.623   6.252   6.364
 8133SOL     OW25297   3.664   4.877   2.245
 8133SOL    HW125298   3.657   4.847   2.150
 8133SOL    HW225299   3.577   4.858   2.292
 8134SOL     OW25300   1.801   1.170   4.350
 8134SOL    HW125301   1.754   1.241   4.297
 8134SOL    HW225302   1.896   1.197   4.365
 8135SOL     OW25303   2.453   5.467   2.233
 8135SOL    HW125304   2.547   5.467   2.265
 8135SOL    HW225305   2.437   5.549   2.177
 8136SOL     OW25306   4.520   4.854   2.689
 8136SOL    HW125307   4.529   4.948   2.721
 8136SOL    HW225308   4.524   4.852   2.589
 8137SOL     OW25309   2.582   1.805   4.390
 8137SOL    HW125310   2.631   1.885   4.423
 8137SOL    HW225311   2.584   1.804   4.290
 8138SOL     OW25312   5.858   2.122   1.633
 8138SOL    HW125313   5.835   2.104   1.728
 8138SOL    HW225314   5.950   2.086   1.614
 8139SOL     OW25315   1.572   2.785   3.264
 8139SOL    HW125316   1.491   2.725   3.270
 8139SOL    HW225317   1.654   2.731   3.283
 8140SOL     OW25318   3.410   0.253   0.418
 8140SOL    HW125319   3.471   0.208   0.483
 8140SOL    HW225320   3.430   0.221   0.325
 8141SOL     OW25321   5.000   0.175   5.397
 8141SOL    HW125322   5.099   0.164   5.403
 8141SOL    HW225323   4.973   0.257   5.448
 8142SOL     OW25324   1.786   5.140   0.909
 8142SOL    HW125325   1.693   5.111   0.929
 8142SOL    HW225326   1.828   5.179   0.991
 8143SOL     OW25327   4.995   4.910   1.009
 8143SOL    HW125328   4.957   4.826   0.970
 8143SOL    HW225329   5.011   4.898   1.106
 8144SOL     OW25330   1.063   6.221   5.449
 8144SOL    HW125331   1.053   6.295   5.515
 8144SOL    HW225332   0.982   6.162   5.452
 8145SOL     OW25333   5.126   4.281   0.743
 8145SOL    HW125334   5.183   4.323   0.672
 8145SOL    HW225335   5.151   4.184   0.752
 8146SOL     OW25336   6.331   0.119   5.469
 8146SOL    HW125337   6.283   0.174   5.538
 8146SOL    HW225338   6.311   0.022   5.485
 8147SOL     OW25339   6.760   0.788   0.540
 8147SOL    HW125340   6.821   0.802   0.617
 8147SOL    HW225341   6.804   0.821   0.456
 8148SOL     OW25342   4.079   4.583   6.703
 8148SOL    HW125343   4.009   4.654   6.700
 8148SOL    HW225344   4.063   4.518   6.629
 8149SOL     OW25345   1.266   6.107   4.204
 8149SOL    HW125346   1.201   6.140   4.273
 8149SOL    HW225347   1.220   6.046   4.140
 8150SOL     OW25348   0.917   3.365   1.179
 8150SOL    HW125349   0.910   3.415   1.266
 8150SOL    HW225350   0.830   3.318   1.162
 8151SOL     OW25351   5.613   5.577   4.052
 8151SOL    HW125352   5.712   5.585   4.068
 8151SOL    HW225353   5.595   5.499   3.992
 8152SOL     OW25354   5.319   2.341   3.429
 8152SOL    HW125355   5.310   2.406   3.353
 8152SOL    HW225356   5.415   2.314   3.437
 8153SOL     OW25357   0.187   0.807   3.228
 8153SOL    HW125358   0.145   0.747   3.296
 8153SOL    HW225359   0.275   0.841   3.262
 8154SOL     OW25360   3.000   0.489   3.054
 8154SOL    HW125361   3.095   0.458   3.048
 8154SOL    HW225362   2.954   0.440   3.128
 8155SOL     OW25363   1.279   4.268   2.130
 8155SOL    HW125364   1.304   4.200   2.199
 8155SOL    HW225365   1.198   4.318   2.159
 8156SOL     OW25366   5.013   6.210   1.616
 8156SOL    HW125367   4.920   6.177   1.636
 8156SOL    HW225368   5.016   6.309   1.630
 8157SOL     OW25369   5.950   4.674   5.914
 8157SOL    HW125370   5.908   4.732   5.844
 8157SOL    HW225371   5.881   4.610   5.949
 8158SOL     OW25372   5.419   4.903   6.609
 8158SOL    HW125373   5.339   4.843   6.602
 8158SOL    HW225374   5.446   4.911   6.705
 8159SOL     OW25375   3.341   5.514   6.034
 8159SOL    HW125376   3.281   5.458   5.976
 8159SOL    HW225377   3.396   5.455   6.093
 8160SOL     OW25378   4.050   0.230   3.907
 8160SOL    HW125379   3.992   0.207   3.830
 8160SOL    HW225380   4.107   0.152   3.931
 8161SOL     OW25381   5.923   3.797   6.213
 8161SOL    HW125382   6.007   3.813   6.264
 8161SOL    HW225383   5.923   3.853   6.130
 8162SOL     OW25384   0.109   5.195   6.903
 8162SOL    HW125385   0.177   5.269   6.901
 8162SOL    HW225386   0.067   5.192   6.994
 8163SOL     OW25387   2.872   4.942   5.866
 8163SOL    HW125388   2.798   4.877   5.850
 8163SOL    HW225389   2.899   4.941   5.962
 8164SOL     OW25390   4.690   1.231   0.327
 8164SOL    HW125391   4.760   1.302   0.317
 8164SOL    HW225392   4.698   1.188   0.416
 8165SOL     OW25393   6.742   3.903   6.507
 8165SOL    HW125394   6.698   3.938   6.425
 8165SOL    HW225395   6.676   3.895   6.581
 8166SOL     OW25396   2.186   1.490   3.367
 8166SOL    HW125397   2.145   1.561   3.423
 8166SOL    HW225398   2.116   1.447   3.310
 8167SOL     OW25399   0.228   0.627   3.683
 8167SOL    HW125400   0.203   0.567   3.607
 8167SOL    HW225401   0.326   0.648   3.679
 8168SOL     OW25402   2.510   6.840   1.227
 8168SOL    HW125403   2.538   6.876   1.139
 8168SOL    HW225404   2.580   6.778   1.262
 8169SOL     OW25405   3.874   1.720   0.338
 8169SOL    HW125406   3.859   1.727   0.436
 8169SOL    HW225407   3.945   1.785   0.310
 8170SOL     OW25408   6.737   4.706   1.470
 8170SOL    HW125409   6.767   4.779   1.530
 8170SOL    HW225410   6.785   4.621   1.494
 8171SOL     OW25411   1.458   1.443   6.057
 8171SOL    HW125412   1.483   1.425   5.961
 8171SOL    HW225413   1.540   1.440   6.114
 8172SOL     OW25414   0.103   2.347   1.774
 8172SOL    HW125415   0.045   2.399   1.837
 8172SOL    HW225416   0.080   2.249   1.781
 8173SOL     OW25417   5.928   1.788   2.660
 8173SOL    HW125418   5.930   1.691   2.639
 8173SOL    HW225419   5.912   1.840   2.576
 8174SOL     OW25420   1.022   6.374   2.868
 8174SOL    HW125421   1.052   6.461   2.827
 8174SOL    HW225422   0.923   6.365   2.858
 8175SOL     OW25423   0.398   2.638   4.535
 8175SOL    HW125424   0.401   2.616   4.438
 8175SOL    HW225425   0.310   2.678   4.558
 8176SOL     OW25426   2.366   4.632   1.689
 8176SOL    HW125427   2.438   4.613   1.756
 8176SOL    HW225428   2.381   4.575   1.608
 8177SOL     OW25429   4.184   1.308   3.623
 8177SOL    HW125430   4.164   1.214   3.598
 8177SOL    HW225431   4.170   1.320   3.721
 8178SOL     OW25432   3.137   6.500   1.290
 8178SOL    HW125433   3.089   6.502   1.378
 8178SOL    HW225434   3.172   6.408   1.272
 8179SOL     OW25435   5.768   1.396   4.573
 8179SOL    HW125436   5.722   1.449   4.645
 8179SOL    HW225437   5.710   1.317   4.549
 8180SOL     OW25438   5.862   0.477   0.180
 8180SOL    HW125439   5.901   0.437   0.263
 8180SOL    HW225440   5.879   0.575   0.179
 8181SOL     OW25441   1.078   0.861   0.612
 8181SOL    HW125442   1.115   0.870   0.705
 8181SOL    HW225443   1.148   0.826   0.551
 8182SOL     OW25444   3.313   3.724   4.341
 8182SOL    HW125445   3.271   3.779   4.268
 8182SOL    HW225446   3.364   3.784   4.403
 8183SOL     OW25447   6.456   1.899   4.265
 8183SOL    HW125448   6.367   1.871   4.303
 8183SOL    HW225449   6.528   1.883   4.333
 8184SOL     OW25450   0.632   0.136   0.380
 8184SOL    HW125451   0.559   0.138   0.312
 8184SOL    HW225452   0.666   0.229   0.395
 8185SOL     OW25453   2.204   0.517   0.249
 8185SOL    HW125454   2.278   0.455   0.273
 8185SOL    HW225455   2.121   0.491   0.298
 8186SOL     OW25456   2.635   4.180   5.284
 8186SOL    HW125457   2.707   4.113   5.268
 8186SOL    HW225458   2.546   4.137   5.270
 8187SOL     OW25459   2.244   1.055   4.619
 8187SOL    HW125460   2.190   1.022   4.541
 8187SOL    HW225461   2.213   1.146   4.645
 8188SOL     OW25462   4.613   2.593   3.823
 8188SOL    HW125463   4.652   2.515   3.874
 8188SOL    HW225464   4.684   2.662   3.811
 8189SOL     OW25465   5.561   5.549   1.898
 8189SOL    HW125466   5.641   5.526   1.953
 8189SOL    HW225467   5.532   5.468   1.847
 8190SOL     OW25468   4.880   4.118   3.781
 8190SOL    HW125469   4.822   4.178   3.836
 8190SOL    HW225470   4.874   4.145   3.685
 8191SOL     OW25471   4.438   5.182   2.533
 8191SOL    HW125472   4.405   5.276   2.525
 8191SOL    HW225473   4.531   5.176   2.497
 8192SOL     OW25474   1.550   5.424   2.392
 8192SOL    HW125475   1.478   5.486   2.362
 8192SOL    HW225476   1.553   5.422   2.492
 8193SOL     OW25477   6.075   4.864   5.047
 8193SOL    HW125478   6.081   4.764   5.056
 8193SOL    HW225479   6.166   4.901   5.030
 8194SOL     OW25480   4.479   0.777   0.946
 8194SOL    HW125481   4.514   0.685   0.931
 8194SOL    HW225482   4.384   0.772   0.974
 8195SOL     OW25483   6.313   0.647   3.668
 8195SOL    HW125484   6.249   0.655   3.591
 8195SOL    HW225485   6.263   0.620   3.750
 8196SOL     OW25486   4.569   6.827   6.834
 8196SOL    HW125487   4.486   6.780   6.805
 8196SOL    HW225488   4.587   6.807   6.931
 8197SOL     OW25489   3.659   1.927   1.222
 8197SOL    HW125490   3.725   1.972   1.281
 8197SOL    HW225491   3.569   1.926   1.266
 8198SOL     OW25492   3.611   6.371   2.127
 8198SOL    HW125493   3.687   6.427   2.159
 8198SOL    HW225494   3.621   6.278   2.164
 8199SOL     OW25495   5.266   3.357   5.903
 8199SOL    HW125496   5.188   3.408   5.866
 8199SOL    HW225497   5.350   3.408   5.884
 8200SOL     OW25498   6.196   4.685   1.422
 8200SOL    HW125499   6.102   4.652   1.415
 8200SOL    HW225500   6.258   4.608   1.439
 8201SOL     OW25501   7.018   0.961   5.365
 8201SOL    HW125502   0.036   0.958   5.276
 8201SOL    HW225503   0.048   1.014   5.429
 8202SOL     OW25504   6.931   5.593   3.166
 8202SOL    HW125505   6.922   5.494   3.151
 8202SOL    HW225506   6.851   5.626   3.217
 8203SOL     OW25507   2.102   2.438   0.098
 8203SOL    HW125508   2.097   2.515   0.162
 8203SOL    HW225509   2.014   2.427   0.051
 8204SOL     OW25510   3.625   4.051   0.564
 8204SOL    HW125511   3.697   3.982   0.565
 8204SOL    HW225512   3.542   4.012   0.522
 8205SOL     OW25513   6.729   3.888   6.992
 8205SOL    HW125514   6.672   3.805   6.986
 8205SOL    HW225515   6.793   3.879   0.042
 8206SOL     OW25516   4.729   1.946   6.698
 8206SOL    HW125517   4.745   1.967   6.602
 8206SOL    HW225518   4.630   1.950   6.717
 8207SOL     OW25519   3.486   3.515   4.045
 8207SOL    HW125520   3.419   3.465   4.099
 8207SOL    HW225521   3.536   3.451   3.986
 8208SOL     OW25522   1.110   0.658   1.145
 8208SOL    HW125523   1.014   0.674   1.164
 8208SOL    HW225524   1.119   0.588   1.074
 8209SOL     OW25525   0.153   0.567   4.687
 8209SOL    HW125526   0.190   0.475   4.694
 8209SOL    HW225527   0.166   0.602   4.594
 8210SOL     OW25528   2.419   2.416   0.578
 8210SOL    HW125529   2.517   2.433   0.570
 8210SOL    HW225530   2.377   2.423   0.487
 8211SOL     OW25531   3.866   4.668   1.448
 8211SOL    HW125532   3.921   4.724   1.386
 8211SOL    HW225533   3.797   4.726   1.493
 8212SOL     OW25534   1.545   2.519   3.064
 8212SOL    HW125535   1.580   2.569   2.985
 8212SOL    HW225536   1.618   2.463   3.104
 8213SOL     OW25537   0.201   4.527   1.302
 8213SOL    HW125538   0.218   4.624   1.323
 8213SOL    HW225539   0.238   4.506   1.212
 8214SOL     OW25540   6.107   5.203   4.448
 8214SOL    HW125541   6.146   5.155   4.526
 8214SOL    HW225542   6.027   5.256   4.479
 8215SOL     OW25543   3.848   5.441   5.782
 8215SOL    HW125544   3.768   5.423   5.725
 8215SOL    HW225545   3.821   5.436   5.878
 8216SOL     OW25546   5.428   5.638   4.233
 8216SOL    HW125547   5.500   5.607   4.171
 8216SOL    HW225548   5.362   5.694   4.182
 8217SOL     OW25549   1.767   5.199   0.453
 8217SOL    HW125550   1.811   5.114   0.484
 8217SOL    HW225551   1.818   5.236   0.376
 8218SOL     OW25552   6.953   0.292   6.568
 8218SOL    HW125553   6.927   0.326   6.658
 8218SOL    HW225554   0.013   0.335   6.540
 8219SOL     OW25555   4.635   1.827   0.045
 8219SOL    HW125556   4.734   1.841   0.056
 8219SOL    HW225557   4.588   1.915   0.047
 8220SOL     OW25558   3.618   3.238   3.452
 8220SOL    HW125559   3.632   3.150   3.406
 8220SOL    HW225560   3.706   3.284   3.463
 8221SOL     OW25561   5.178   6.004   4.677
 8221SOL    HW125562   5.247   6.074   4.696
 8221SOL    HW225563   5.218   5.933   4.619
 8222SOL     OW25564   5.271   1.851   2.074
 8222SOL    HW125565   5.174   1.829   2.066
 8222SOL    HW225566   5.298   1.844   2.170
 8223SOL     OW25567   1.493   4.336   5.794
 8223SOL    HW125568   1.555   4.258   5.806
 8223SOL    HW225569   1.457   4.335   5.701
 8224SOL     OW25570   6.685   1.274   2.779
 8224SOL    HW125571   6.670   1.221   2.862
 8224SOL    HW225572   6.722   1.215   2.707
 8225SOL     OW25573   3.823   1.204   6.658
 8225SOL    HW125574   3.750   1.223   6.723
 8225SOL    HW225575   3.786   1.207   6.565
 8226SOL     OW25576   4.320   6.571   1.727
 8226SOL    HW125577   4.275   6.483   1.711
 8226SOL    HW225578   4.377   6.565   1.809
 8227SOL     OW25579   6.862   2.241   3.533
 8227SOL    HW125580   6.805   2.225   3.452
 8227SOL    HW225581   6.806   2.277   3.607
 8228SOL     OW25582   6.784   1.931   5.557
 8228SOL    HW125583   6.758   2.021   5.521
 8228SOL    HW225584   6.720   1.904   5.629
 8229SOL     OW25585   3.639   4.230   0.898
 8229SOL    HW125586   3.642   4.263   0.803
 8229SOL    HW225587   3.619   4.306   0.959
 8230SOL     OW25588   3.869   6.700   5.033
 8230SOL    HW125589   3.950   6.747   4.999
 8230SOL    HW225590   3.858   6.718   5.131
 8231SOL     OW25591   4.139   5.236   0.522
 8231SOL    HW125592   4.209   5.271   0.459
 8231SOL    HW225593   4.129   5.299   0.598
 8232SOL     OW25594   4.882   1.586   0.985
 8232SOL    HW125595   4.845   1.613   1.074
 8232SOL    HW225596   4.870   1.661   0.920
 8233SOL     OW25597   0.980   6.079   6.156
 8233SOL    HW125598   1.013   6.011   6.090
 8233SOL    HW225599   0.966   6.166   6.110
 8234SOL     OW25600   2.632   4.003   6.803
 8234SOL    HW125601   2.721   3.962   6.821
 8234SOL    HW225602   2.564   3.931   6.791
 8235SOL     OW25603   0.591   3.716   0.417
 8235SOL    HW125604   0.622   3.730   0.323
 8235SOL    HW225605   0.527   3.639   0.419
 8236SOL     OW25606   6.867   4.379   7.022
 8236SOL    HW125607   6.837   4.412   0.085
 8236SOL    HW225608   6.967   4.385   7.017
 8237SOL     OW25609   4.265   6.411   4.386
 8237SOL    HW125610   4.199   6.340   4.408
 8237SOL    HW225611   4.246   6.493   4.440
 8238SOL     OW25612   0.952   5.262   7.019
 8238SOL    HW125613   0.909   5.352   7.014
 8238SOL    HW225614   0.898   5.203   0.053
 8239SOL     OW25615   6.368   1.162   5.512
 8239SOL    HW125616   6.398   1.226   5.583
 8239SOL    HW225617   6.438   1.157   5.440
 8240SOL     OW25618   3.543   4.199   2.505
 8240SOL    HW125619   3.555   4.213   2.407
 8240SOL    HW225620   3.605   4.259   2.555
 8241SOL     OW25621   4.036   0.452   0.080
 8241SOL    HW125622   4.133   0.435   0.100
 8241SOL    HW225623   4.024   0.549   0.057
 8242SOL     OW25624   0.542   4.939   5.687
 8242SOL    HW125625   0.499   5.025   5.718
 8242SOL    HW225626   0.590   4.955   5.601
 8243SOL     OW25627   0.861   2.276   0.233
 8243SOL    HW125628   0.767   2.311   0.225
 8243SOL    HW225629   0.909   2.324   0.306
 8244SOL     OW25630   1.233   6.790   4.418
 8244SOL    HW125631   1.252   6.692   4.406
 8244SOL    HW225632   1.301   6.843   4.367
 8245SOL     OW25633   4.316   2.085   2.548
 8245SOL    HW125634   4.363   2.140   2.616
 8245SOL    HW225635   4.376   2.069   2.470
 8246SOL     OW25636   0.819   3.546   6.019
 8246SOL    HW125637   0.820   3.591   5.930
 8246SOL    HW225638   0.860   3.607   6.087
 8247SOL     OW25639   0.453   0.024   2.543
 8247SOL    HW125640   0.428   0.047   2.448
 8247SOL    HW225641   0.548   7.020   2.546
 8248SOL     OW25642   6.350   5.179   4.900
 8248SOL    HW125643   6.381   5.248   4.964
 8248SOL    HW225644   6.380   5.089   4.931
 8249SOL     OW25645   1.698   2.992   5.007
 8249SOL    HW125646   1.734   3.010   5.099
 8249SOL    HW225647   1.756   3.038   4.940
 8250SOL     OW25648   3.606   4.167   2.230
 8250SOL    HW125649   3.605   4.163   2.130
 8250SOL    HW225650   3.669   4.098   2.266
 8251SOL     OW25651   6.244   3.314   3.348
 8251SOL    HW125652   6.281   3.223   3.330
 8251SOL    HW225653   6.147   3.316   3.326
 8252SOL     OW25654   3.220   1.815   5.496
 8252SOL    HW125655   3.269   1.813   5.409
 8252SOL    HW225656   3.270   1.872   5.561
 8253SOL     OW25657   4.737   4.350   5.390
 8253SOL    HW125658   4.711   4.254   5.400
 8253SOL    HW225659   4.833   4.355   5.361
 8254SOL     OW25660   4.528   4.796   5.175
 8254SOL    HW125661   4.501   4.781   5.080
 8254SOL    HW225662   4.464   4.861   5.218
 8255SOL     OW25663   2.624   6.365   4.912
 8255SOL    HW125664   2.621   6.398   5.006
 8255SOL    HW225665   2.614   6.265   4.912
 8256SOL     OW25666   6.127   0.277   2.375
 8256SOL    HW125667   6.083   0.343   2.436
 8256SOL    HW225668   6.155   0.197   2.427
 8257SOL     OW25669   6.047   3.919   3.420
 8257SOL    HW125670   6.141   3.951   3.403
 8257SOL    HW225671   6.048   3.820   3.430
 8258SOL     OW25672   5.323   1.853   0.697
 8258SOL    HW125673   5.355   1.783   0.761
 8258SOL    HW225674   5.227   1.874   0.714
 8259SOL     OW25675   4.226   2.113   3.640
 8259SOL    HW125676   4.253   2.193   3.586
 8259SOL    HW225677   4.165   2.055   3.586
 8260SOL     OW25678   2.783   6.433   1.996
 8260SOL    HW125679   2.882   6.419   1.998
 8260SOL    HW225680   2.748   6.417   1.904
 8261SOL     OW25681   5.998   1.092   1.820
 8261SOL    HW125682   6.064   1.017   1.821
 8261SOL    HW225683   5.988   1.126   1.727
 8262SOL     OW25684   0.586   3.048   0.260
 8262SOL    HW125685   0.651   3.099   0.204
 8262SOL    HW225686   0.580   2.954   0.226
 8263SOL     OW25687   1.669   2.236   6.983
 8263SOL    HW125688   1.655   2.231   6.884
 8263SOL    HW225689   1.646   2.148   7.024
 8264SOL     OW25690   2.466   6.238   2.678
 8264SOL    HW125691   2.483   6.140   2.665
 8264SOL    HW225692   2.539   6.276   2.735
 8265SOL     OW25693   0.615   6.872   0.714
 8265SOL    HW125694   0.665   6.797   0.758
 8265SOL    HW225695   0.658   6.959   0.737
 8266SOL     OW25696   2.192   1.243   3.824
 8266SOL    HW125697   2.233   1.328   3.860
 8266SOL    HW225698   2.112   1.265   3.769
 8267SOL     OW25699   1.466   2.812   1.077
 8267SOL    HW125700   1.449   2.804   1.175
 8267SOL    HW225701   1.419   2.738   1.029
 8268SOL     OW25702   1.889   6.746   5.929
 8268SOL    HW125703   1.951   6.819   5.959
 8268SOL    HW225704   1.795   6.770   5.952
 8269SOL     OW25705   4.302   2.244   2.060
 8269SOL    HW125706   4.387   2.261   2.109
 8269SOL    HW225707   4.286   2.317   1.994
 8270SOL     OW25708   2.829   6.701   5.338
 8270SOL    HW125709   2.837   6.750   5.424
 8270SOL    HW225710   2.734   6.704   5.307
 8271SOL     OW25711   6.168   0.229   3.264
 8271SOL    HW125712   6.175   0.328   3.269
 8271SOL    HW225713   6.243   0.193   3.207
 8272SOL     OW25714   4.704   1.749   1.913
 8272SOL    HW125715   4.651   1.763   1.829
 8272SOL    HW225716   4.758   1.830   1.933
 8273SOL     OW25717   3.135   0.232   0.354
 8273SOL    HW125718   3.085   0.317   0.341
 8273SOL    HW225719   3.226   0.251   0.391
 8274SOL     OW25720   4.947   5.056   3.085
 8274SOL    HW125721   5.016   4.995   3.123
 8274SOL    HW225722   4.990   5.139   3.050
 8275SOL     OW25723   5.043   1.606   5.576
 8275SOL    HW125724   5.062   1.509   5.592
 8275SOL    HW225725   5.012   1.620   5.482
 8276SOL     OW25726   0.962   2.163   3.571
 8276SOL    HW125727   0.993   2.072   3.598
 8276SOL    HW225728   1.033   2.230   3.591
 8277SOL     OW25729   6.733   6.851   0.325
 8277SOL    HW125730   6.785   6.774   0.360
 8277SOL    HW225731   6.636   6.826   0.319
 8278SOL     OW25732   2.417   2.034   5.720
 8278SOL    HW125733   2.396   2.083   5.636
 8278SOL    HW225734   2.515   2.014   5.723
 8279SOL     OW25735   1.424   6.927   4.240
 8279SOL    HW125736   1.493   6.863   4.274
 8279SOL    HW225737   1.367   6.881   4.172
 8280SOL     OW25738   2.432   3.896   0.558
 8280SOL    HW125739   2.493   3.842   0.500
 8280SOL    HW225740   2.359   3.936   0.502
 8281SOL     OW25741   2.776   5.060   1.720
 8281SOL    HW125742   2.806   5.155   1.729
 8281SOL    HW225743   2.776   5.016   1.810
 8282SOL     OW25744   4.852   3.454   6.993
 8282SOL    HW125745   4.767   3.487   6.950
 8282SOL    HW225746   4.849   3.354   7.000
 8283SOL     OW25747   1.624   5.520   6.645
 8283SOL    HW125748   1.576   5.577   6.579
 8283SOL    HW225749   1.722   5.538   6.640
 8284SOL     OW25750   0.964   3.644   0.712
 8284SOL    HW125751   0.873   3.684   0.701
 8284SOL    HW225752   0.969   3.595   0.799
 8285SOL     OW25753   2.879   3.517   4.478
 8285SOL    HW125754   2.863   3.467   4.562
 8285SOL    HW225755   2.880   3.616   4.497
 8286SOL     OW25756   6.141   2.635   6.257
 8286SOL    HW125757   6.184   2.596   6.338
 8286SOL    HW225758   6.206   2.695   6.210
 8287SOL     OW25759   1.952   5.689   3.997
 8287SOL    HW125760   1.943   5.686   4.097
 8287SOL    HW225761   1.992   5.777   3.970
 8288SOL     OW25762   3.251   1.868   1.565
 8288SOL    HW125763   3.295   1.853   1.477
 8288SOL    HW225764   3.217   1.781   1.601
 8289SOL     OW25765   0.557   5.554   1.153
 8289SOL    HW125766   0.500   5.605   1.216
 8289SOL    HW225767   0.623   5.615   1.110
 8290SOL     OW25768   6.274   1.395   1.415
 8290SOL    HW125769   6.211   1.465   1.450
 8290SOL    HW225770   6.224   1.331   1.357
 8291SOL     OW25771   5.038   6.264   5.776
 8291SOL    HW125772   5.074   6.348   5.734
 8291SOL    HW225773   5.015   6.199   5.704
 8292SOL     OW25774   2.507   6.576   7.015
 8292SOL    HW125775   2.537   6.651   0.048
 8292SOL    HW225776   2.408   6.565   7.024
 8293SOL     OW25777   3.500   6.149   6.877
 8293SOL    HW125778   3.465   6.237   6.845
 8293SOL    HW225779   3.521   6.154   6.974
 8294SOL     OW25780   5.508   3.995   4.643
 8294SOL    HW125781   5.519   4.078   4.697
 8294SOL    HW225782   5.589   3.937   4.653
 8295SOL     OW25783   5.243   5.206   1.516
 8295SOL    HW125784   5.147   5.179   1.526
 8295SOL    HW225785   5.251   5.276   1.445
 8296SOL     OW25786   1.725   5.426   6.059
 8296SOL    HW125787   1.672   5.414   5.976
 8296SOL    HW225788   1.784   5.346   6.073
 8297SOL     OW25789   6.168   2.962   2.387
 8297SOL    HW125790   6.106   3.002   2.453
 8297SOL    HW225791   6.243   2.915   2.435
 8298SOL     OW25792   6.184   1.692   1.368
 8298SOL    HW125793   6.274   1.719   1.333
 8298SOL    HW225794   6.118   1.765   1.350
 8299SOL     OW25795   6.598   2.991   1.751
 8299SOL    HW125796   6.604   3.024   1.657
 8299SOL    HW225797   6.601   3.068   1.814
 8300SOL     OW25798   0.165   5.852   4.879
 8300SOL    HW125799   0.251   5.900   4.867
 8300SOL    HW225800   0.092   5.919   4.899
 8301SOL     OW25801   4.114   1.799   1.683
 8301SOL    HW125802   4.189   1.785   1.618
 8301SOL    HW225803   4.140   1.764   1.772
 8302SOL     OW25804   6.260   6.114   0.217
 8302SOL    HW125805   6.283   6.211   0.225
 8302SOL    HW225806   6.283   6.082   0.125
 8303SOL     OW25807   6.478   0.478   3.944
 8303SOL    HW125808   6.490   0.511   4.038
 8303SOL    HW225809   6.388   0.435   3.935
 8304SOL     OW25810   0.216   3.476   0.797
 8304SOL    HW125811   0.160   3.441   0.722
 8304SOL    HW225812   0.307   3.497   0.763
 8305SOL     OW25813   4.331   5.119   4.618
 8305SOL    HW125814   4.273   5.068   4.555
 8305SOL    HW225815   4.318   5.086   4.711
 8306SOL     OW25816   6.915   2.948   6.206
 8306SOL    HW125817   6.918   3.004   6.123
 8306SOL    HW225818   6.968   2.993   6.278
 8307SOL     OW25819   3.626   5.408   1.307
 8307SOL    HW125820   3.596   5.384   1.399
 8307SOL    HW225821   3.626   5.507   1.296
 8308SOL     OW25822   3.976   5.270   1.161
 8308SOL    HW125823   4.037   5.345   1.185
 8308SOL    HW225824   4.030   5.193   1.125
 8309SOL     OW25825   6.387   5.081   4.065
 8309SOL    HW125826   6.345   5.139   4.136
 8309SOL    HW225827   6.412   4.993   4.105
 8310SOL     OW25828   0.215   4.512   0.778
 8310SOL    HW125829   0.122   4.540   0.754
 8310SOL    HW225830   0.226   4.415   0.757
 8311SOL     OW25831   0.784   1.899   3.914
 8311SOL    HW125832   0.865   1.884   3.970
 8311SOL    HW225833   0.760   1.996   3.916
 8312SOL     OW25834   4.919   6.994   0.263
 8312SOL    HW125835   4.947   7.016   0.356
 8312SOL    HW225836   4.971   0.025   0.198
 8313SOL     OW25837   5.090   0.735   2.004
 8313SOL    HW125838   5.016   0.731   2.070
 8313SOL    HW225839   5.163   0.794   2.038
 8314SOL     OW25840   4.515   0.864   0.484
 8314SOL    HW125841   4.458   0.789   0.450
 8314SOL    HW225842   4.579   0.828   0.552
 8315SOL     OW25843   4.050   3.210   1.190
 8315SOL    HW125844   3.993   3.178   1.114
 8315SOL    HW225845   4.005   3.189   1.277
 8316SOL     OW25846   0.171   2.160   2.126
 8316SOL    HW125847   0.165   2.253   2.163
 8316SOL    HW225848   0.185   2.165   2.027
 8317SOL     OW25849   2.122   2.192   2.627
 8317SOL    HW125850   2.207   2.140   2.640
 8317SOL    HW225851   2.140   2.290   2.639
 8318SOL     OW25852   4.361   1.119   4.810
 8318SOL    HW125853   4.372   1.197   4.749
 8318SOL    HW225854   4.278   1.130   4.865
 8319SOL     OW25855   2.400   1.579   6.524
 8319SOL    HW125856   2.406   1.643   6.601
 8319SOL    HW225857   2.424   1.627   6.440
 8320SOL     OW25858   3.042   3.290   1.511
 8320SOL    HW125859   2.943   3.279   1.505
 8320SOL    HW225860   3.069   3.293   1.607
 8321SOL     OW25861   0.295   0.649   0.245
 8321SOL    HW125862   0.220   0.649   0.312
 8321SOL    HW225863   0.323   0.744   0.228
 8322SOL     OW25864   0.309   0.373   0.867
 8322SOL    HW125865   0.345   0.463   0.842
 8322SOL    HW225866   0.315   0.312   0.788
 8323SOL     OW25867   5.729   5.721   2.418
 8323SOL    HW125868   5.822   5.704   2.452
 8323SOL    HW225869   5.698   5.811   2.449
 8324SOL     OW25870   5.350   0.380   1.545
 8324SOL    HW125871   5.334   0.470   1.585
 8324SOL    HW225872   5.332   0.383   1.446
 8325SOL     OW25873   2.964   3.274   5.617
 8325SOL    HW125874   2.901   3.284   5.540
 8325SOL    HW225875   3.036   3.343   5.610
 8326SOL     OW25876   5.527   3.291   5.990
 8326SOL    HW125877   5.558   3.345   5.912
 8326SOL    HW225878   5.453   3.339   6.037
 8327SOL     OW25879   6.220   1.256   6.293
 8327SOL    HW125880   6.297   1.286   6.236
 8327SOL    HW225881   6.224   1.303   6.381
 8328SOL     OW25882   2.372   4.973   5.412
 8328SOL    HW125883   2.365   5.058   5.360
 8328SOL    HW225884   2.458   4.928   5.390
 8329SOL     OW25885   0.748   3.252   6.349
 8329SOL    HW125886   0.697   3.332   6.321
 8329SOL    HW225887   0.804   3.219   6.272
 8330SOL     OW25888   2.634   0.022   0.383
 8330SOL    HW125889   2.650   0.060   0.292
 8330SOL    HW225890   2.715   0.035   0.439
 8331SOL     OW25891   2.944   1.732   1.745
 8331SOL    HW125892   2.847   1.748   1.730
 8331SOL    HW225893   2.990   1.819   1.761
 8332SOL     OW25894   5.304   5.294   2.423
 8332SOL    HW125895   5.231   5.288   2.491
 8332SOL    HW225896   5.307   5.210   2.369
 8333SOL     OW25897   0.486   6.611   6.358
 8333SOL    HW125898   0.437   6.567   6.283
 8333SOL    HW225899   0.420   6.653   6.421
 8334SOL     OW25900   3.885   1.682   3.926
 8334SOL    HW125901   3.945   1.722   3.995
 8334SOL    HW225902   3.909   1.719   3.836
 8335SOL     OW25903   6.253   6.284   6.823
 8335SOL    HW125904   6.182   6.278   6.753
 8335SOL    HW225905   6.255   6.199   6.875
 8336SOL     OW25906   6.373   6.168   3.240
 8336SOL    HW125907   6.281   6.137   3.217
 8336SOL    HW225908   6.385   6.263   3.210
 8337SOL     OW25909   1.344   5.983   2.742
 8337SOL    HW125910   1.279   6.043   2.790
 8337SOL    HW225911   1.384   5.919   2.807
 8338SOL     OW25912   2.061   5.266   1.730
 8338SOL    HW125913   2.145   5.233   1.773
 8338SOL    HW225914   2.016   5.191   1.681
 8339SOL     OW25915   5.795   0.362   1.735
 8339SOL    HW125916   5.870   0.392   1.794
 8339SOL    HW225917   5.831   0.310   1.658
 8340SOL     OW25918   5.224   3.196   1.564
 8340SOL    HW125919   5.282   3.160   1.491
 8340SOL    HW225920   5.266   3.177   1.653
 8341SOL     OW25921   1.872   6.014   0.003
 8341SOL    HW125922   1.852   6.104   0.042
 8341SOL    HW225923   1.845   5.943   0.068
 8342SOL     OW25924   4.405   0.376   1.921
 8342SOL    HW125925   4.367   0.454   1.971
 8342SOL    HW225926   4.354   0.363   1.836
 8343SOL     OW25927   1.020   5.351   6.054
 8343SOL    HW125928   1.007   5.447   6.031
 8343SOL    HW225929   0.958   5.326   6.129
 8344SOL     OW25930   4.179   6.627   4.878
 8344SOL    HW125931   4.102   6.571   4.849
 8344SOL    HW225932   4.251   6.623   4.809
 8345SOL     OW25933   4.816   1.850   3.232
 8345SOL    HW125934   4.772   1.819   3.148
 8345SOL    HW225935   4.862   1.937   3.215
 8346SOL     OW25936   2.754   4.490   0.622
 8346SOL    HW125937   2.658   4.514   0.639
 8346SOL    HW225938   2.768   4.393   0.643
 8347SOL     OW25939   3.367   5.187   4.967
 8347SOL    HW125940   3.282   5.174   4.916
 8347SOL    HW225941   3.425   5.253   4.919
 8348SOL     OW25942   1.531   6.490   2.386
 8348SOL    HW125943   1.597   6.508   2.313
 8348SOL    HW225944   1.521   6.392   2.399
 8349SOL     OW25945   5.699   6.507   1.481
 8349SOL    HW125946   5.748   6.449   1.546
 8349SOL    HW225947   5.685   6.597   1.521
 8350SOL     OW25948   4.764   0.594   4.761
 8350SOL    HW125949   4.787   0.550   4.674
 8350SOL    HW225950   4.765   0.693   4.749
 8351SOL     OW25951   4.608   4.885   4.022
 8351SOL    HW125952   4.686   4.928   4.067
 8351SOL    HW225953   4.528   4.945   4.027
 8352SOL     OW25954   0.041   6.196   3.382
 8352SOL    HW125955   0.069   6.249   3.302
 8352SOL    HW225956   0.119   6.143   3.416
 8353SOL     OW25957   6.849   3.771   1.427
 8353SOL    HW125958   6.837   3.817   1.339
 8353SOL    HW225959   6.787   3.812   1.494
 8354SOL     OW25960   3.712   0.222   6.653
 8354SOL    HW125961   3.722   0.143   6.593
 8354SOL    HW225962   3.755   0.203   6.741
 8355SOL     OW25963   3.048   0.866   6.577
 8355SOL    HW125964   3.033   0.791   6.513
 8355SOL    HW225965   2.961   0.893   6.617
 8356SOL     OW25966   1.476   6.457   0.898
 8356SOL    HW125967   1.530   6.516   0.839
 8356SOL    HW225968   1.519   6.451   0.988
 8357SOL     OW25969   3.655   0.565   5.037
 8357SOL    HW125970   3.706   0.626   5.097
 8357SOL    HW225971   3.557   0.586   5.044
 8358SOL     OW25972   1.248   3.821   5.566
 8358SOL    HW125973   1.310   3.860   5.635
 8358SOL    HW225974   1.294   3.747   5.518
 8359SOL     OW25975   2.733   6.953   5.177
 8359SOL    HW125976   2.684   6.866   5.171
 8359SOL    HW225977   2.734   6.996   5.086
 8360SOL     OW25978   3.703   6.058   1.214
 8360SOL    HW125979   3.615   6.013   1.202
 8360SOL    HW225980   3.711   6.135   1.151
 8361SOL     OW25981   2.841   6.850   2.933
 8361SOL    HW125982   2.762   6.873   2.991
 8361SOL    HW225983   2.821   6.766   2.883
 8362SOL     OW25984   3.455   2.258   0.952
 8362SOL    HW125985   3.414   2.192   1.016
 8362SOL    HW225986   3.414   2.348   0.965
 8363SOL     OW25987   0.562   2.359   6.899
 8363SOL    HW125988   0.534   2.277   6.950
 8363SOL    HW225989   0.480   2.409   6.871
 8364SOL     OW25990   0.303   3.119   2.112
 8364SOL    HW125991   0.367   3.186   2.148
 8364SOL    HW225992   0.212   3.137   2.147
 8365SOL     OW25993   2.214   3.964   1.750
 8365SOL    HW125994   2.236   4.013   1.835
 8365SOL    HW225995   2.283   3.894   1.734
 8366SOL     OW25996   2.415   5.964   2.224
 8366SOL    HW125997   2.399   6.062   2.232
 8366SOL    HW225998   2.505   5.948   2.183
 8367SOL     OW25999   4.033   6.077   4.181
 8367SOL    HW126000   3.964   6.110   4.117
 8367SOL    HW226001   4.044   5.978   4.171
 8368SOL     OW26002   2.304   6.670   6.447
 8368SOL    HW126003   2.340   6.584   6.485
 8368SOL    HW226004   2.217   6.652   6.402
 8369SOL     OW26005   2.310   6.779   6.719
 8369SOL    HW126006   2.380   6.850   6.715
 8369SOL    HW226007   2.302   6.735   6.629
 8370SOL     OW26008   2.516   2.576   5.174
 8370SOL    HW126009   2.466   2.651   5.129
 8370SOL    HW226010   2.538   2.603   5.267
 8371SOL     OW26011   2.038   4.729   1.287
 8371SOL    HW126012   2.039   4.781   1.372
 8371SOL    HW226013   2.048   4.791   1.210
 8372SOL     OW26014   0.398   5.511   2.904
 8372SOL    HW126015   0.408   5.435   2.840
 8372SOL    HW226016   0.374   5.475   2.995
 8373SOL     OW26017   1.457   0.185   3.677
 8373SOL    HW126018   1.429   0.226   3.764
 8373SOL    HW226019   1.538   0.232   3.643
 8374SOL     OW26020   0.198   0.817   5.608
 8374SOL    HW126021   0.178   0.910   5.577
 8374SOL    HW226022   0.240   0.764   5.534
 8375SOL     OW26023   4.147   6.812   5.488
 8375SOL    HW126024   4.146   6.715   5.511
 8375SOL    HW226025   4.156   6.823   5.389
 8376SOL     OW26026   1.695   0.658   3.732
 8376SOL    HW126027   1.648   0.582   3.776
 8376SOL    HW226028   1.707   0.639   3.634
 8377SOL     OW26029   5.451   6.014   1.507
 8377SOL    HW126030   5.462   6.073   1.586
 8377SOL    HW226031   5.444   5.919   1.537
 8378SOL     OW26032   4.260   4.973   2.563
 8378SOL    HW126033   4.347   4.949   2.519
 8378SOL    HW226034   4.278   5.038   2.636
 8379SOL     OW26035   6.197   2.434   1.568
 8379SOL    HW126036   6.103   2.440   1.533
 8379SOL    HW226037   6.212   2.343   1.608
 8380SOL     OW26038   0.149   0.715   2.311
 8380SOL    HW126039   0.155   0.639   2.376
 8380SOL    HW226040   0.118   0.797   2.359
 8381SOL     OW26041   0.087   3.452   5.116
 8381SOL    HW126042   0.088   3.497   5.027
 8381SOL    HW226043   0.110   3.356   5.106
 8382SOL     OW26044   2.341   0.596   2.287
 8382SOL    HW126045   2.337   0.632   2.194
 8382SOL    HW226046   2.318   0.668   2.352
 8383SOL     OW26047   2.601   0.258   5.827
 8383SOL    HW126048   2.694   0.287   5.803
 8383SOL    HW226049   2.583   0.282   5.922
 8384SOL     OW26050   0.315   0.937   0.481
 8384SOL    HW126051   0.378   0.912   0.554
 8384SOL    HW226052   0.238   0.988   0.519
 8385SOL     OW26053   6.268   2.194   1.679
 8385SOL    HW126054   6.206   2.224   1.752
 8385SOL    HW226055   6.352   2.160   1.719
 8386SOL     OW26056   1.389   4.527   2.096
 8386SOL    HW126057   1.358   4.582   2.173
 8386SOL    HW226058   1.398   4.431   2.124
 8387SOL     OW26059   1.918   0.812   2.043
 8387SOL    HW126060   1.962   0.794   1.955
 8387SOL    HW226061   1.899   0.910   2.051
 8388SOL     OW26062   1.712   5.885   0.179
 8388SOL    HW126063   1.667   5.809   0.133
 8388SOL    HW226064   1.678   5.893   0.273
 8389SOL     OW26065   6.296   3.422   2.689
 8389SOL    HW126066   6.208   3.442   2.648
 8389SOL    HW226067   6.308   3.323   2.698
 8390SOL     OW26068   4.130   0.753   6.269
 8390SOL    HW126069   4.095   0.692   6.199
 8390SOL    HW226070   4.226   0.732   6.286
 8391SOL     OW26071   6.415   5.373   0.984
 8391SOL    HW126072   6.453   5.356   1.075
 8391SOL    HW226073   6.455   5.456   0.946
 8392SOL     OW26074   6.522   3.709   4.402
 8392SOL    HW126075   6.425   3.696   4.379
 8392SOL    HW226076   6.579   3.657   4.339
 8393SOL     OW26077   6.328   0.551   2.786
 8393SOL    HW126078   6.402   0.556   2.718
 8393SOL    HW226079   6.355   0.491   2.861
 8394SOL     OW26080   6.371   2.631   1.245
 8394SOL    HW126081   6.305   2.699   1.213
 8394SOL    HW226082   6.356   2.544   1.197
 8395SOL     OW26083   2.585   6.465   5.605
 8395SOL    HW126084   2.673   6.424   5.629
 8395SOL    HW226085   2.527   6.397   5.560
 8396SOL     OW26086   4.749   5.163   3.392
 8396SOL    HW126087   4.657   5.126   3.381
 8396SOL    HW226088   4.813   5.112   3.335
 8397SOL     OW26089   1.192   0.912   2.948
 8397SOL    HW126090   1.275   0.857   2.937
 8397SOL    HW226091   1.112   0.853   2.937
 8398SOL     OW26092   4.590   2.608   6.165
 8398SOL    HW126093   4.674   2.570   6.204
 8398SOL    HW226094   4.515   2.597   6.231
 8399SOL     OW26095   6.513   0.075   6.525
 8399SOL    HW126096   6.418   0.071   6.558
 8399SOL    HW226097   6.525   0.008   6.451
 8400SOL     OW26098   2.345   1.662   4.219
 8400SOL    HW126099   2.372   1.644   4.313
 8400SOL    HW226100   2.315   1.577   4.176
 8401SOL     OW26101   2.291   1.032   5.121
 8401SOL    HW126102   2.263   1.005   5.213
 8401SOL    HW226103   2.234   1.107   5.088
 8402SOL     OW26104   5.208   2.004   6.400
 8402SOL    HW126105   5.253   1.915   6.410
 8402SOL    HW226106   5.182   2.018   6.304
 8403SOL     OW26107   6.969   3.569   4.571
 8403SOL    HW126108   6.923   3.550   4.658
 8403SOL    HW226109   6.964   3.487   4.513
 8404SOL     OW26110   3.723   6.932   5.740
 8404SOL    HW126111   3.680   6.843   5.724
 8404SOL    HW226112   3.801   6.943   5.678
 8405SOL     OW26113   2.532   1.362   5.490
 8405SOL    HW126114   2.588   1.290   5.448
 8405SOL    HW226115   2.475   1.405   5.420
 8406SOL     OW26116   4.385   0.645   0.375
 8406SOL    HW126117   4.428   0.645   0.285
 8406SOL    HW226118   4.366   0.551   0.403
 8407SOL     OW26119   4.178   6.412   3.687
 8407SOL    HW126120   4.195   6.495   3.739
 8407SOL    HW226121   4.085   6.380   3.704
 8408SOL     OW26122   5.639   4.090   1.198
 8408SOL    HW126123   5.621   3.992   1.209
 8408SOL    HW226124   5.692   4.105   1.115
 8409SOL     OW26125   5.118   2.095   3.163
 8409SOL    HW126126   5.145   2.000   3.181
 8409SOL    HW226127   5.102   2.142   3.250
 8410SOL     OW26128   6.239   0.821   1.166
 8410SOL    HW126129   6.337   0.802   1.179
 8410SOL    HW226130   6.224   0.920   1.165
 8411SOL     OW26131   0.351   6.120   0.716
 8411SOL    HW126132   0.318   6.194   0.775
 8411SOL    HW226133   0.343   6.033   0.764
 8412SOL     OW26134   3.604   2.739   1.190
 8412SOL    HW126135   3.681   2.791   1.227
 8412SOL    HW226136   3.610   2.645   1.222
 8413SOL     OW26137   4.925   6.088   6.377
 8413SOL    HW126138   4.972   6.000   6.375
 8413SOL    HW226139   4.892   6.106   6.470
 8414SOL     OW26140   2.949   0.146   3.485
 8414SOL    HW126141   2.989   0.221   3.538
 8414SOL    HW226142   2.881   0.099   3.541
 8415SOL     OW26143   0.551   5.882   4.558
 8415SOL    HW126144   0.584   5.891   4.652
 8415SOL    HW226145   0.599   5.807   4.513
 8416SOL     OW26146   6.531   1.721   3.718
 8416SOL    HW126147   6.568   1.630   3.700
 8416SOL    HW226148   6.505   1.727   3.814
 8417SOL     OW26149   0.785   3.596   5.723
 8417SOL    HW126150   0.737   3.524   5.672
 8417SOL    HW226151   0.876   3.609   5.684
 8418SOL     OW26152   6.647   5.273   1.544
 8418SOL    HW126153   6.659   5.359   1.495
 8418SOL    HW226154   6.586   5.213   1.494
 8419SOL     OW26155   5.560   0.393   2.107
 8419SOL    HW126156   5.657   0.420   2.109
 8419SOL    HW226157   5.512   0.449   2.040
 8420SOL     OW26158   4.067   0.177   1.306
 8420SOL    HW126159   4.134   0.224   1.364
 8420SOL    HW226160   4.114   0.132   1.231
 8421SOL     OW26161   3.060   5.048   0.471
 8421SOL    HW126162   3.111   4.972   0.430
 8421SOL    HW226163   2.984   5.012   0.525
 8422SOL     OW26164   4.631   1.389   2.159
 8422SOL    HW126165   4.611   1.401   2.062
 8422SOL    HW226166   4.728   1.411   2.176
 8423SOL     OW26167   4.332   4.201   6.109
 8423SOL    HW126168   4.349   4.295   6.081
 8423SOL    HW226169   4.272   4.201   6.190
 8424SOL     OW26170   1.935   2.160   2.871
 8424SOL    HW126171   1.948   2.123   2.779
 8424SOL    HW226172   1.889   2.092   2.928
 8425SOL     OW26173   4.089   3.937   6.135
 8425SOL    HW126174   4.046   4.023   6.110
 8425SOL    HW226175   4.181   3.933   6.098
 8426SOL     OW26176   3.585   3.511   2.646
 8426SOL    HW126177   3.673   3.464   2.646
 8426SOL    HW226178   3.588   3.588   2.710
 8427SOL     OW26179   3.656   4.088   3.426
 8427SOL    HW126180   3.756   4.083   3.435
 8427SOL    HW226181   3.615   4.097   3.516
 8428SOL     OW26182   6.974   6.276   1.542
 8428SOL    HW126183   6.960   6.369   1.575
 8428SOL    HW226184   0.044   6.262   1.519
 8429SOL     OW26185   1.489   5.506   5.686
 8429SOL    HW126186   1.511   5.580   5.749
 8429SOL    HW226187   1.401   5.526   5.642
 8430SOL     OW26188   3.867   4.878   3.693
 8430SOL    HW126189   3.863   4.835   3.603
 8430SOL    HW226190   3.956   4.857   3.735
 8431SOL     OW26191   4.044   3.896   0.012
 8431SOL    HW126192   4.104   3.947   0.073
 8431SOL    HW226193   3.962   3.866   0.062
 8432SOL     OW26194   6.118   5.848   5.581
 8432SOL    HW126195   6.039   5.838   5.642
 8432SOL    HW226196   6.133   5.763   5.531
 8433SOL     OW26197   4.000   3.029   0.139
 8433SOL    HW126198   3.980   3.123   0.168
 8433SOL    HW226199   3.915   2.977   0.132
 8434SOL     OW26200   2.726   0.271   4.279
 8434SOL    HW126201   2.725   0.352   4.337
 8434SOL    HW226202   2.791   0.204   4.316
 8435SOL     OW26203   5.446   0.122   2.439
 8435SOL    HW126204   5.511   0.192   2.411
 8435SOL    HW226205   5.454   0.043   2.378
 8436SOL     OW26206   3.600   6.637   3.592
 8436SOL    HW126207   3.501   6.646   3.599
 8436SOL    HW226208   3.633   6.575   3.663
 8437SOL     OW26209   2.408   2.033   3.126
 8437SOL    HW126210   2.455   1.948   3.101
 8437SOL    HW226211   2.311   2.026   3.104
 8438SOL     OW26212   2.384   4.320   3.099
 8438SOL    HW126213   2.448   4.391   3.070
 8438SOL    HW226214   2.347   4.342   3.189
 8439SOL     OW26215   6.247   4.519   2.150
 8439SOL    HW126216   6.264   4.472   2.237
 8439SOL    HW226217   6.291   4.608   2.152
 8440SOL     OW26218   3.271   2.170   3.283
 8440SOL    HW126219   3.216   2.227   3.221
 8440SOL    HW226220   3.245   2.074   3.272
 8441SOL     OW26221   5.917   6.415   6.868
 8441SOL    HW126222   5.952   6.357   6.794
 8441SOL    HW226223   5.981   6.413   6.945
 8442SOL     OW26224   3.894   1.830   5.326
 8442SOL    HW126225   3.884   1.760   5.256
 8442SOL    HW226226   3.803   1.861   5.356
 8443SOL     OW26227   2.573   4.932   3.619
 8443SOL    HW126228   2.548   4.860   3.684
 8443SOL    HW226229   2.557   5.021   3.661
 8444SOL     OW26230   3.331   6.406   4.041
 8444SOL    HW126231   3.326   6.421   3.942
 8444SOL    HW226232   3.426   6.412   4.070
 8445SOL     OW26233   2.629   0.263   0.869
 8445SOL    HW126234   2.539   0.306   0.863
 8445SOL    HW226235   2.677   0.299   0.950
 8446SOL     OW26236   6.043   5.330   5.890
 8446SOL    HW126237   6.091   5.390   5.953
 8446SOL    HW226238   6.108   5.289   5.826
 8447SOL     OW26239   4.397   1.070   1.619
 8447SOL    HW126240   4.408   0.984   1.571
 8447SOL    HW226241   4.337   1.058   1.698
 8448SOL     OW26242   4.313   5.994   3.319
 8448SOL    HW126243   4.359   6.075   3.355
 8448SOL    HW226244   4.353   5.971   3.230
 8449SOL     OW26245   0.064   3.118   3.166
 8449SOL    HW126246   6.999   3.149   3.193
 8449SOL    HW226247   0.060   3.079   3.074
 8450SOL     OW26248   0.987   0.907   1.415
 8450SOL    HW126249   0.942   0.880   1.501
 8450SOL    HW226250   1.028   0.998   1.426
 8451SOL     OW26251   3.562   1.411   0.052
 8451SOL    HW126252   3.624   1.423   0.130
 8451SOL    HW226253   3.518   1.321   0.058
 8452SOL     OW26254   6.001   3.148   3.862
 8452SOL    HW126255   5.996   3.190   3.771
 8452SOL    HW226256   6.095   3.118   3.879
 8453SOL     OW26257   0.357   5.609   0.317
 8453SOL    HW126258   0.357   5.709   0.320
 8453SOL    HW226259   0.438   5.577   0.267
 8454SOL     OW26260   0.329   5.497   1.022
 8454SOL    HW126261   0.400   5.529   1.085
 8454SOL    HW226262   0.299   5.405   1.050
 8455SOL     OW26263   0.624   1.740   2.472
 8455SOL    HW126264   0.596   1.834   2.453
 8455SOL    HW226265   0.675   1.737   2.558
 8456SOL     OW26266   4.423   6.683   3.397
 8456SOL    HW126267   4.510   6.637   3.414
 8456SOL    HW226268   4.418   6.711   3.301
 8457SOL     OW26269   6.716   6.224   4.187
 8457SOL    HW126270   6.693   6.162   4.111
 8457SOL    HW226271   6.799   6.190   4.232
 8458SOL     OW26272   2.620   0.807   0.186
 8458SOL    HW126273   2.596   0.803   0.283
 8458SOL    HW226274   2.674   0.727   0.161
 8459SOL     OW26275   2.631   5.725   2.221
 8459SOL    HW126276   2.683   5.650   2.264
 8459SOL    HW226277   2.564   5.760   2.286
 8460SOL     OW26278   4.623   4.436   5.167
 8460SOL    HW126279   4.662   4.402   5.253
 8460SOL    HW226280   4.660   4.384   5.090
 8461SOL     OW26281   0.870   3.119   4.771
 8461SOL    HW126282   0.786   3.085   4.728
 8461SOL    HW226283   0.941   3.131   4.702
 8462SOL     OW26284   2.006   2.954   6.587
 8462SOL    HW126285   1.986   2.857   6.600
 8462SOL    HW226286   1.931   3.009   6.623
 8463SOL     OW26287   6.982   0.183   1.502
 8463SOL    HW126288   6.943   0.109   1.447
 8463SOL    HW226289   0.051   0.198   1.476
 8464SOL     OW26290   5.197   4.506   4.518
 8464SOL    HW126291   5.122   4.543   4.462
 8464SOL    HW226292   5.275   4.485   4.459
 8465SOL     OW26293   0.797   2.445   0.611
 8465SOL    HW126294   0.827   2.539   0.629
 8465SOL    HW226295   0.874   2.391   0.576
 8466SOL     OW26296   0.416   6.282   3.958
 8466SOL    HW126297   0.512   6.260   3.938
 8466SOL    HW226298   0.361   6.264   3.876
 8467SOL     OW26299   3.043   5.908   0.489
 8467SOL    HW126300   2.960   5.873   0.533
 8467SOL    HW226301   3.021   5.937   0.396
 8468SOL     OW26302   3.036   1.595   0.387
 8468SOL    HW126303   3.079   1.662   0.448
 8468SOL    HW226304   3.081   1.597   0.298
 8469SOL     OW26305   3.349   2.878   0.056
 8469SOL    HW126306   3.417   2.911   7.017
 8469SOL    HW226307   3.265   2.855   0.007
 8470SOL     OW26308   2.041   3.692   0.413
 8470SOL    HW126309   1.988   3.731   0.488
 8470SOL    HW226310   2.086   3.766   0.362
 8471SOL     OW26311   2.944   1.401   2.659
 8471SOL    HW126312   3.007   1.385   2.735
 8471SOL    HW226313   2.851   1.377   2.687
 8472SOL     OW26314   0.412   0.126   3.875
 8472SOL    HW126315   0.479   0.138   3.948
 8472SOL    HW226316   0.440   0.180   3.796
 8473SOL     OW26317   6.771   5.455   6.944
 8473SOL    HW126318   6.853   5.411   6.979
 8473SOL    HW226319   6.765   5.548   6.981
 8474SOL     OW26320   3.369   2.896   2.247
 8474SOL    HW126321   3.315   2.955   2.186
 8474SOL    HW226322   3.315   2.874   2.328
 8475SOL     OW26323   0.304   1.244   3.307
 8475SOL    HW126324   0.381   1.181   3.300
 8475SOL    HW226325   0.338   1.338   3.319
 8476SOL     OW26326   6.630   0.882   1.074
 8476SOL    HW126327   6.673   0.800   1.110
 8476SOL    HW226328   6.667   0.903   0.983
 8477SOL     OW26329   3.777   6.109   1.841
 8477SOL    HW126330   3.799   6.024   1.793
 8477SOL    HW226331   3.805   6.187   1.786
 8478SOL     OW26332   1.773   0.521   6.050
 8478SOL    HW126333   1.814   0.606   6.083
 8478SOL    HW226334   1.685   0.540   6.008
 8479SOL     OW26335   6.314   2.707   0.848
 8479SOL    HW126336   6.360   2.721   0.760
 8479SOL    HW226337   6.331   2.785   0.908
 8480SOL     OW26338   3.356   0.986   0.525
 8480SOL    HW126339   3.260   1.008   0.507
 8480SOL    HW226340   3.361   0.918   0.598
 8481SOL     OW26341   4.419   1.507   3.755
 8481SOL    HW126342   4.453   1.586   3.704
 8481SOL    HW226343   4.360   1.452   3.696
 8482SOL     OW26344   3.465   6.932   2.804
 8482SOL    HW126345   3.413   6.880   2.872
 8482SOL    HW226346   3.557   6.894   2.797
 8483SOL     OW26347   4.270   5.696   1.678
 8483SOL    HW126348   4.253   5.600   1.701
 8483SOL    HW226349   4.301   5.745   1.759
 8484SOL     OW26350   6.708   4.849   3.356
 8484SOL    HW126351   6.732   4.921   3.420
 8484SOL    HW226352   6.767   4.855   3.275
 8485SOL     OW26353   2.823   3.614   6.677
 8485SOL    HW126354   2.792   3.634   6.584
 8485SOL    HW226355   2.922   3.625   6.683
 8486SOL     OW26356   5.024   1.445   3.197
 8486SOL    HW126357   5.034   1.473   3.292
 8486SOL    HW226358   5.012   1.527   3.140
 8487SOL     OW26359   5.810   0.443   0.674
 8487SOL    HW126360   5.809   0.420   0.576
 8487SOL    HW226361   5.865   0.526   0.687
 8488SOL     OW26362   5.554   4.987   5.012
 8488SOL    HW126363   5.496   4.905   5.002
 8488SOL    HW226364   5.650   4.960   5.011
 8489SOL     OW26365   6.444   0.741   1.353
 8489SOL    HW126366   6.514   0.810   1.367
 8489SOL    HW226367   6.368   0.757   1.416
 8490SOL     OW26368   4.300   6.310   3.952
 8490SOL    HW126369   4.300   6.254   3.868
 8490SOL    HW226370   4.270   6.402   3.930
 8491SOL     OW26371   2.032   0.436   1.465
 8491SOL    HW126372   2.079   0.352   1.494
 8491SOL    HW226373   1.942   0.440   1.507
 8492SOL     OW26374   4.547   4.309   6.389
 8492SOL    HW126375   4.533   4.406   6.370
 8492SOL    HW226376   4.604   4.268   6.318
 8493SOL     OW26377   3.035   1.760   6.340
 8493SOL    HW126378   2.987   1.843   6.368
 8493SOL    HW226379   3.116   1.786   6.286
 8494SOL     OW26380   2.249   4.784   0.265
 8494SOL    HW126381   2.306   4.793   0.346
 8494SOL    HW226382   2.273   4.699   0.217
 8495SOL     OW26383   6.881   3.606   0.175
 8495SOL    HW126384   6.797   3.618   0.228
 8495SOL    HW226385   6.958   3.645   0.225
 8496SOL     OW26386   0.547   1.843   1.877
 8496SOL    HW126387   0.551   1.744   1.892
 8496SOL    HW226388   0.626   1.886   1.921
 8497SOL     OW26389   6.790   0.407   4.507
 8497SOL    HW126390   6.842   0.321   4.509
 8497SOL    HW226391   6.716   0.399   4.440
 8498SOL     OW26392   0.274   6.108   2.783
 8498SOL    HW126393   0.316   6.161   2.710
 8498SOL    HW226394   0.343   6.050   2.827
 8499SOL     OW26395   2.242   5.446   6.776
 8499SOL    HW126396   2.153   5.400   6.782
 8499SOL    HW226397   2.240   5.529   6.833
 8500SOL     OW26398   1.919   0.900   5.876
 8500SOL    HW126399   1.939   0.941   5.965
 8500SOL    HW226400   1.994   0.838   5.851
 8501SOL     OW26401   1.276   2.462   0.547
 8501SOL    HW126402   1.225   2.452   0.633
 8501SOL    HW226403   1.243   2.394   0.481
 8502SOL     OW26404   1.845   5.018   1.187
 8502SOL    HW126405   1.764   4.959   1.187
 8502SOL    HW226406   1.919   4.972   1.138
 8503SOL     OW26407   1.189   5.849   2.536
 8503SOL    HW126408   1.270   5.898   2.570
 8503SOL    HW226409   1.107   5.884   2.582
 8504SOL     OW26410   1.939   6.469   3.596
 8504SOL    HW126411   1.924   6.388   3.652
 8504SOL    HW226412   1.907   6.550   3.645
 8505SOL     OW26413   4.918   3.854   3.742
 8505SOL    HW126414   4.877   3.941   3.768
 8505SOL    HW226415   4.983   3.825   3.812
 8506SOL     OW26416   0.291   0.728   1.031
 8506SOL    HW126417   0.225   0.723   0.955
 8506SOL    HW226418   0.261   0.797   1.097
 8507SOL     OW26419   3.446   0.826   5.504
 8507SOL    HW126420   3.362   0.772   5.495
 8507SOL    HW226421   3.423   0.924   5.497
 8508SOL     OW26422   6.984   2.287   4.536
 8508SOL    HW126423   0.016   2.206   4.528
 8508SOL    HW226424   0.014   2.369   4.534
 8509SOL     OW26425   5.263   1.161   3.978
 8509SOL    HW126426   5.200   1.236   3.958
 8509SOL    HW226427   5.213   1.087   4.023
 8510SOL     OW26428   5.569   4.457   3.147
 8510SOL    HW126429   5.510   4.454   3.066
 8510SOL    HW226430   5.513   4.456   3.229
 8511SOL     OW26431   5.497   3.481   1.398
 8511SOL    HW126432   5.577   3.421   1.407
 8511SOL    HW226433   5.431   3.438   1.337
 8512SOL     OW26434   2.842   2.210   0.289
 8512SOL    HW126435   2.827   2.113   0.269
 8512SOL    HW226436   2.807   2.231   0.380
 8513SOL     OW26437   4.796   3.736   1.364
 8513SOL    HW126438   4.828   3.642   1.352
 8513SOL    HW226439   4.839   3.795   1.295
 8514SOL     OW26440   2.710   2.422   3.645
 8514SOL    HW126441   2.770   2.502   3.657
 8514SOL    HW226442   2.615   2.450   3.653
 8515SOL     OW26443   6.071   0.937   6.800
 8515SOL    HW126444   6.160   0.980   6.816
 8515SOL    HW226445   6.046   0.882   6.879
 8516SOL     OW26446   6.499   2.756   1.876
 8516SOL    HW126447   6.570   2.746   1.945
 8516SOL    HW226448   6.520   2.833   1.816
 8517SOL     OW26449   2.159   2.281   5.621
 8517SOL    HW126450   2.250   2.323   5.622
 8517SOL    HW226451   2.095   2.339   5.672
 8518SOL     OW26452   4.758   4.526   5.974
 8518SOL    HW126453   4.758   4.626   5.977
 8518SOL    HW226454   4.781   4.490   6.064
 8519SOL     OW26455   1.227   5.506   1.245
 8519SOL    HW126456   1.230   5.470   1.339
 8519SOL    HW226457   1.183   5.440   1.185
 8520SOL     OW26458   2.920   2.862   6.553
 8520SOL    HW126459   2.993   2.880   6.486
 8520SOL    HW226460   2.869   2.946   6.571
 8521SOL     OW26461   2.221   5.390   5.805
 8521SOL    HW126462   2.287   5.443   5.752
 8521SOL    HW226463   2.238   5.404   5.903
 8522SOL     OW26464   0.650   6.769   1.603
 8522SOL    HW126465   0.629   6.717   1.685
 8522SOL    HW226466   0.608   6.860   1.609
 8523SOL     OW26467   2.000   6.306   6.915
 8523SOL    HW126468   1.945   6.372   6.864
 8523SOL    HW226469   1.961   6.294   7.006
 8524SOL     OW26470   0.302   3.248   5.700
 8524SOL    HW126471   0.244   3.243   5.619
 8524SOL    HW226472   0.311   3.157   5.740
 8525SOL     OW26473   6.423   5.027   1.756
 8525SOL    HW126474   6.471   4.949   1.715
 8525SOL    HW226475   6.337   5.042   1.708
 8526SOL     OW26476   3.406   6.337   1.020
 8526SOL    HW126477   3.353   6.349   0.937
 8526SOL    HW226478   3.479   6.271   1.003
 8527SOL     OW26479   3.096   1.012   6.981
 8527SOL    HW126480   2.997   1.006   6.982
 8527SOL    HW226481   3.134   0.931   6.934
 8528SOL     OW26482   4.012   1.284   0.077
 8528SOL    HW126483   4.064   1.220   0.134
 8528SOL    HW226484   3.929   1.239   0.044
 8529SOL     OW26485   0.719   0.420   0.365
 8529SOL    HW126486   0.768   0.507   0.370
 8529SOL    HW226487   0.626   0.432   0.400
 8530SOL     OW26488   4.180   3.804   5.172
 8530SOL    HW126489   4.129   3.818   5.087
 8530SOL    HW226490   4.165   3.710   5.204
 8531SOL     OW26491   0.033   4.974   2.886
 8531SOL    HW126492   0.052   4.949   2.791
 8531SOL    HW226493   0.118   4.981   2.937
 8532SOL     OW26494   4.051   5.694   4.690
 8532SOL    HW126495   4.146   5.674   4.665
 8532SOL    HW226496   3.990   5.643   4.629
 8533SOL     OW26497   1.967   5.719   0.244
 8533SOL    HW126498   2.047   5.771   0.214
 8533SOL    HW226499   1.927   5.764   0.324
 8534SOL     OW26500   5.355   2.155   4.579
 8534SOL    HW126501   5.387   2.189   4.491
 8534SOL    HW226502   5.285   2.085   4.565
 8535SOL     OW26503   5.720   1.362   3.600
 8535SOL    HW126504   5.785   1.392   3.670
 8535SOL    HW226505   5.753   1.277   3.558
 8536SOL     OW26506   0.109   1.387   4.693
 8536SOL    HW126507   0.140   1.383   4.788
 8536SOL    HW226508   0.125   1.479   4.657
 8537SOL     OW26509   5.282   0.726   3.132
 8537SOL    HW126510   5.200   0.725   3.074
 8537SOL    HW226511   5.289   0.814   3.179
 8538SOL     OW26512   1.727   0.872   0.401
 8538SOL    HW126513   1.788   0.794   0.414
 8538SOL    HW226514   1.640   0.854   0.447
 8539SOL     OW26515   6.617   1.112   2.974
 8539SOL    HW126516   6.532   1.060   2.968
 8539SOL    HW226517   6.628   1.148   3.067
 8540SOL     OW26518   5.663   0.718   6.519
 8540SOL    HW126519   5.661   0.782   6.596
 8540SOL    HW226520   5.647   0.625   6.554
 8541SOL     OW26521   3.227   2.154   3.543
 8541SOL    HW126522   3.245   2.169   3.445
 8541SOL    HW226523   3.150   2.210   3.572
 8542SOL     OW26524   4.128   5.207   6.575
 8542SOL    HW126525   4.201   5.217   6.642
 8542SOL    HW226526   4.098   5.111   6.573
 8543SOL     OW26527   2.209   1.857   1.289
 8543SOL    HW126528   2.120   1.827   1.323
 8543SOL    HW226529   2.211   1.850   1.190
 8544SOL     OW26530   5.380   3.691   4.510
 8544SOL    HW126531   5.479   3.707   4.507
 8544SOL    HW226532   5.339   3.720   4.424
 8545SOL     OW26533   4.189   0.614   5.418
 8545SOL    HW126534   4.281   0.613   5.380
 8545SOL    HW226535   4.121   0.615   5.344
 8546SOL     OW26536   5.830   2.128   4.646
 8546SOL    HW126537   5.865   2.204   4.592
 8546SOL    HW226538   5.809   2.051   4.585
 8547SOL     OW26539   0.956   6.754   5.592
 8547SOL    HW126540   0.885   6.689   5.619
 8547SOL    HW226541   1.003   6.789   5.673
 8548SOL     OW26542   6.243   2.361   5.894
 8548SOL    HW126543   6.241   2.458   5.870
 8548SOL    HW226544   6.279   2.351   5.987
 8549SOL     OW26545   0.433   3.467   4.170
 8549SOL    HW126546   0.374   3.491   4.247
 8549SOL    HW226547   0.518   3.428   4.205
 8550SOL     OW26548   1.863   5.092   6.875
 8550SOL    HW126549   1.848   5.123   6.782
 8550SOL    HW226550   1.952   5.045   6.881
 8551SOL     OW26551   3.976   3.776   5.828
 8551SOL    HW126552   3.983   3.715   5.908
 8551SOL    HW226553   3.987   3.723   5.745
 8552SOL     OW26554   2.856   6.636   3.731
 8552SOL    HW126555   2.847   6.683   3.644
 8552SOL    HW226556   2.945   6.590   3.735
 8553SOL     OW26557   4.959   5.255   6.215
 8553SOL    HW126558   4.919   5.244   6.124
 8553SOL    HW226559   5.019   5.336   6.215
 8554SOL     OW26560   0.876   5.261   0.397
 8554SOL    HW126561   0.941   5.331   0.370
 8554SOL    HW226562   0.881   5.184   0.333
 8555SOL     OW26563   0.918   6.994   2.957
 8555SOL    HW126564   0.848   0.036   2.980
 8555SOL    HW226565   0.979   6.982   3.035
 8556SOL     OW26566   0.680   6.655   3.931
 8556SOL    HW126567   0.697   6.593   3.854
 8556SOL    HW226568   0.651   6.745   3.895
 8557SOL     OW26569   6.234   0.931   2.721
 8557SOL    HW126570   6.209   0.981   2.804
 8557SOL    HW226571   6.191   0.840   2.723
 8558SOL     OW26572   2.684   6.075   3.285
 8558SOL    HW126573   2.742   5.998   3.312
 8558SOL    HW226574   2.595   6.041   3.255
 8559SOL     OW26575   6.533   0.834   2.347
 8559SOL    HW126576   6.489   0.915   2.387
 8559SOL    HW226577   6.569   0.776   2.419
 8560SOL     OW26578   0.196   6.894   1.957
 8560SOL    HW126579   0.186   6.978   1.903
 8560SOL    HW226580   0.235   6.822   1.899
 8561SOL     OW26581   3.716   6.555   1.826
 8561SOL    HW126582   3.798   6.592   1.783
 8561SOL    HW226583   3.657   6.515   1.757
 8562SOL     OW26584   4.941   6.178   4.855
 8562SOL    HW126585   4.896   6.228   4.929
 8562SOL    HW226586   4.991   6.100   4.893
 8563SOL     OW26587   2.861   4.171   6.977
 8563SOL    HW126588   2.862   4.172   6.877
 8563SOL    HW226589   2.841   4.078   7.009
 8564SOL     OW26590   2.761   1.573   3.654
 8564SOL    HW126591   2.722   1.501   3.596
 8564SOL    HW226592   2.711   1.575   3.741
 8565SOL     OW26593   4.966   6.474   1.671
 8565SOL    HW126594   4.960   6.555   1.613
 8565SOL    HW226595   4.904   6.484   1.749
 8566SOL     OW26596   1.221   0.608   1.734
 8566SOL    HW126597   1.223   0.670   1.656
 8566SOL    HW226598   1.270   0.650   1.811
 8567SOL     OW26599   6.767   1.575   2.766
 8567SOL    HW126600   6.731   1.482   2.775
 8567SOL    HW226601   6.734   1.631   2.842
 8568SOL     OW26602   5.076   1.337   5.677
 8568SOL    HW126603   4.983   1.301   5.677
 8568SOL    HW226604   5.118   1.323   5.766
 8569SOL     OW26605   5.273   1.706   5.426
 8569SOL    HW126606   5.273   1.806   5.430
 8569SOL    HW226607   5.226   1.670   5.506
 8570SOL     OW26608   0.845   2.406   5.370
 8570SOL    HW126609   0.908   2.461   5.424
 8570SOL    HW226610   0.757   2.452   5.363
 8571SOL     OW26611   0.871   4.966   6.095
 8571SOL    HW126612   0.884   5.028   6.171
 8571SOL    HW226613   0.774   4.966   6.068
 8572SOL     OW26614   3.237   5.255   6.265
 8572SOL    HW126615   3.315   5.275   6.325
 8572SOL    HW226616   3.196   5.341   6.234
 8573SOL     OW26617   3.159   0.019   6.337
 8573SOL    HW126618   3.177   6.986   6.416
 8573SOL    HW226619   3.087   0.083   6.359
 8574SOL     OW26620   0.288   5.518   5.934
 8574SOL    HW126621   0.358   5.494   5.867
 8574SOL    HW226622   0.202   5.536   5.887
 8575SOL     OW26623   3.098   2.589   6.083
 8575SOL    HW126624   3.022   2.648   6.054
 8575SOL    HW226625   3.065   2.496   6.096
 8576SOL     OW26626   0.934   6.454   0.375
 8576SOL    HW126627   1.010   6.412   0.325
 8576SOL    HW226628   0.924   6.549   0.348
 8577SOL     OW26629   6.599   5.595   4.283
 8577SOL    HW126630   6.560   5.554   4.201
 8577SOL    HW226631   6.575   5.692   4.286
 8578SOL     OW26632   4.563   0.343   4.534
 8578SOL    HW126633   4.620   0.425   4.522
 8578SOL    HW226634   4.507   0.354   4.616
 8579SOL     OW26635   1.413   6.466   3.555
 8579SOL    HW126636   1.506   6.489   3.585
 8579SOL    HW226637   1.354   6.545   3.566
 8580SOL     OW26638   1.907   6.743   2.398
 8580SOL    HW126639   1.846   6.763   2.474
 8580SOL    HW226640   1.902   6.818   2.332
 8581SOL     OW26641   3.533   2.979   1.699
 8581SOL    HW126642   3.493   3.001   1.610
 8581SOL    HW226643   3.631   2.998   1.697
 8582SOL     OW26644   4.290   4.830   1.928
 8582SOL    HW126645   4.227   4.760   1.894
 8582SOL    HW226646   4.252   4.872   2.010
 8583SOL     OW26647   5.708   1.100   6.000
 8583SOL    HW126648   5.781   1.106   5.931
 8583SOL    HW226649   5.740   1.140   6.086
 8584SOL     OW26650   0.318   3.838   6.401
 8584SOL    HW126651   0.261   3.879   6.472
 8584SOL    HW226652   0.263   3.818   6.320
 8585SOL     OW26653   0.318   6.870   5.959
 8585SOL    HW126654   0.229   6.901   5.991
 8585SOL    HW226655   0.384   6.946   5.964
 8586SOL     OW26656   2.809   6.999   3.651
 8586SOL    HW126657   2.722   6.992   3.699
 8586SOL    HW226658   2.883   7.007   3.718
 8587SOL     OW26659   1.758   0.147   2.556
 8587SOL    HW126660   1.689   0.186   2.618
 8587SOL    HW226661   1.713   0.117   2.472
 8588SOL     OW26662   2.496   0.751   6.681
 8588SOL    HW126663   2.465   0.828   6.739
 8588SOL    HW226664   2.577   0.709   6.723
 8589SOL     OW26665   4.662   2.722   4.351
 8589SOL    HW126666   4.678   2.797   4.415
 8589SOL    HW226667   4.587   2.665   4.384
 8590SOL     OW26668   6.385   6.170   4.357
 8590SOL    HW126669   6.377   6.134   4.264
 8590SOL    HW226670   6.297   6.208   4.386
 8591SOL     OW26671   1.482   5.235   6.147
 8591SOL    HW126672   1.570   5.242   6.101
 8591SOL    HW226673   1.496   5.206   6.242
 8592SOL     OW26674   6.978   4.092   0.432
 8592SOL    HW126675   6.994   4.027   0.358
 8592SOL    HW226676   6.936   4.045   0.510
 8593SOL     OW26677   1.150   0.110   2.508
 8593SOL    HW126678   1.053   0.131   2.518
 8593SOL    HW226679   1.168   0.079   2.414
 8594SOL     OW26680   3.690   3.222   5.053
 8594SOL    HW126681   3.701   3.126   5.027
 8594SOL    HW226682   3.750   3.279   4.998
 8595SOL     OW26683   2.343   1.732   2.802
 8595SOL    HW126684   2.387   1.736   2.892
 8595SOL    HW226685   2.376   1.808   2.746
 8596SOL     OW26686   5.962   5.865   2.940
 8596SOL    HW126687   6.062   5.862   2.936
 8596SOL    HW226688   5.932   5.959   2.957
 8597SOL     OW26689   4.701   1.981   0.998
 8597SOL    HW126690   4.671   2.041   1.073
 8597SOL    HW226691   4.652   1.894   1.003
 8598SOL     OW26692   7.023   5.864   1.463
 8598SOL    HW126693   6.927   5.889   1.447
 8598SOL    HW226694   0.000   5.774   1.506
 8599SOL     OW26695   0.633   3.038   4.079
 8599SOL    HW126696   0.536   3.038   4.053
 8599SOL    HW226697   0.678   3.117   4.038
 8600SOL     OW26698   5.516   5.160   6.508
 8600SOL    HW126699   5.454   5.082   6.498
 8600SOL    HW226700   5.565   5.153   6.595
 8601SOL     OW26701   1.466   0.642   5.320
 8601SOL    HW126702   1.496   0.707   5.389
 8601SOL    HW226703   1.372   0.662   5.292
 8602SOL     OW26704   2.856   6.087   2.940
 8602SOL    HW126705   2.938   6.139   2.963
 8602SOL    HW226706   2.780   6.150   2.925
 8603SOL     OW26707   3.258   4.666   0.054
 8603SOL    HW126708   3.198   4.593   0.084
 8603SOL    HW226709   3.323   4.631   7.013
 8604SOL     OW26710   6.801   2.548   3.490
 8604SOL    HW126711   6.898   2.564   3.509
 8604SOL    HW226712   6.758   2.503   3.568
 8605SOL     OW26713   3.256   4.855   4.021
 8605SOL    HW126714   3.182   4.872   4.085
 8605SOL    HW226715   3.260   4.757   4.000
 8606SOL     OW26716   2.201   4.387   5.445
 8606SOL    HW126717   2.224   4.479   5.414
 8606SOL    HW226718   2.226   4.321   5.374
 8607SOL     OW26719   3.326   4.932   0.643
 8607SOL    HW126720   3.398   4.972   0.586
 8607SOL    HW226721   3.281   4.858   0.592
 8608SOL     OW26722   4.339   4.942   3.219
 8608SOL    HW126723   4.283   4.860   3.225
 8608SOL    HW226724   4.432   4.921   3.250
 8609SOL     OW26725   4.585   0.526   3.711
 8609SOL    HW126726   4.541   0.436   3.714
 8609SOL    HW226727   4.615   0.546   3.618
 8610SOL     OW26728   1.625   0.822   3.098
 8610SOL    HW126729   1.603   0.777   3.184
 8610SOL    HW226730   1.667   0.911   3.117
 8611SOL     OW26731   2.083   2.608   3.743
 8611SOL    HW126732   1.992   2.648   3.753
 8611SOL    HW226733   2.113   2.571   3.831
 8612SOL     OW26734   3.020   3.300   0.047
 8612SOL    HW126735   2.929   3.341   0.051
 8612SOL    HW226736   3.020   3.215   0.100
 8613SOL     OW26737   2.670   2.432   1.784
 8613SOL    HW126738   2.757   2.440   1.833
 8613SOL    HW226739   2.615   2.514   1.800
 8614SOL     OW26740   0.384   3.179   2.512
 8614SOL    HW126741   0.327   3.105   2.477
 8614SOL    HW226742   0.481   3.154   2.503
 8615SOL     OW26743   4.951   1.708   5.347
 8615SOL    HW126744   4.852   1.701   5.364
 8615SOL    HW226745   4.969   1.789   5.290
 8616SOL     OW26746   1.564   5.314   1.380
 8616SOL    HW126747   1.587   5.403   1.421
 8616SOL    HW226748   1.537   5.328   1.285
 8617SOL     OW26749   6.396   1.353   6.817
 8617SOL    HW126750   6.437   1.429   6.868
 8617SOL    HW226751   6.355   1.388   6.733
 8618SOL     OW26752   5.285   6.600   0.813
 8618SOL    HW126753   5.313   6.545   0.735
 8618SOL    HW226754   5.341   6.577   0.892
 8619SOL     OW26755   3.251   5.261   1.556
 8619SOL    HW126756   3.245   5.167   1.524
 8619SOL    HW226757   3.227   5.265   1.653
 8620SOL     OW26758   6.383   0.083   3.048
 8620SOL    HW126759   6.467   0.132   3.073
 8620SOL    HW226760   6.405   0.009   2.985
 8621SOL     OW26761   5.904   1.982   3.472
 8621SOL    HW126762   5.923   1.928   3.554
 8621SOL    HW226763   5.990   2.019   3.436
 8622SOL     OW26764   4.887   4.177   0.624
 8622SOL    HW126765   4.839   4.256   0.664
 8622SOL    HW226766   4.985   4.195   0.624
 8623SOL     OW26767   0.757   3.975   3.379
 8623SOL    HW126768   0.684   3.964   3.312
 8623SOL    HW226769   0.828   4.034   3.342
 8624SOL     OW26770   0.735   3.798   3.599
 8624SOL    HW126771   0.761   3.869   3.533
 8624SOL    HW226772   0.709   3.715   3.550
 8625SOL     OW26773   5.212   6.706   4.861
 8625SOL    HW126774   5.237   6.656   4.945
 8625SOL    HW226775   5.212   6.804   4.880
 8626SOL     OW26776   3.560   2.953   4.935
 8626SOL    HW126777   3.607   2.945   4.848
 8626SOL    HW226778   3.463   2.929   4.923
 8627SOL     OW26779   0.566   0.431   3.399
 8627SOL    HW126780   0.497   0.408   3.330
 8627SOL    HW226781   0.615   0.349   3.427
 8628SOL     OW26782   6.206   6.966   1.689
 8628SOL    HW126783   6.223   6.957   1.591
 8628SOL    HW226784   6.125   6.913   1.714
 8629SOL     OW26785   1.668   5.468   5.276
 8629SOL    HW126786   1.766   5.483   5.267
 8629SOL    HW226787   1.638   5.397   5.212
 8630SOL     OW26788   6.165   4.228   4.544
 8630SOL    HW126789   6.170   4.284   4.627
 8630SOL    HW226790   6.080   4.248   4.495
 8631SOL     OW26791   3.443   5.519   6.502
 8631SOL    HW126792   3.452   5.420   6.513
 8631SOL    HW226793   3.350   5.541   6.472
 8632SOL     OW26794   3.552   6.446   3.829
 8632SOL    HW126795   3.454   6.438   3.807
 8632SOL    HW226796   3.596   6.358   3.815
 8633SOL     OW26797   5.108   1.330   4.794
 8633SOL    HW126798   5.031   1.363   4.739
 8633SOL    HW226799   5.087   1.240   4.831
 8634SOL     OW26800   5.784   2.946   0.562
 8634SOL    HW126801   5.740   2.860   0.588
 8634SOL    HW226802   5.766   3.015   0.632
 8635SOL     OW26803   6.041   4.451   6.355
 8635SOL    HW126804   5.966   4.400   6.397
 8635SOL    HW226805   6.030   4.450   6.255
 8636SOL     OW26806   5.178   5.864   0.255
 8636SOL    HW126807   5.088   5.875   0.211
 8636SOL    HW226808   5.170   5.886   0.353
 8637SOL     OW26809   2.295   1.326   0.385
 8637SOL    HW126810   2.270   1.401   0.324
 8637SOL    HW226811   2.265   1.348   0.478
 8638SOL     OW26812   2.106   3.418   6.820
 8638SOL    HW126813   2.078   3.350   6.888
 8638SOL    HW226814   2.026   3.468   6.788
 8639SOL     OW26815   6.223   1.970   1.935
 8639SOL    HW126816   6.172   1.985   2.021
 8639SOL    HW226817   6.319   1.955   1.956
 8640SOL     OW26818   4.814   3.833   0.264
 8640SOL    HW126819   4.735   3.774   0.247
 8640SOL    HW226820   4.898   3.785   0.239
 8641SOL     OW26821   6.791   4.741   4.132
 8641SOL    HW126822   6.810   4.671   4.063
 8641SOL    HW226823   6.788   4.831   4.088
 8642SOL     OW26824   4.029   0.862   2.510
 8642SOL    HW126825   4.105   0.906   2.462
 8642SOL    HW226826   3.942   0.900   2.478
 8643SOL     OW26827   3.831   0.198   0.200
 8643SOL    HW126828   3.918   0.171   0.159
 8643SOL    HW226829   3.846   0.268   0.269
 8644SOL     OW26830   4.269   2.592   5.882
 8644SOL    HW126831   4.261   2.518   5.950
 8644SOL    HW226832   4.347   2.650   5.905
 8645SOL     OW26833   5.487   4.313   1.174
 8645SOL    HW126834   5.554   4.245   1.143
 8645SOL    HW226835   5.396   4.271   1.177
 8646SOL     OW26836   6.642   1.601   1.282
 8646SOL    HW126837   6.731   1.555   1.284
 8646SOL    HW226838   6.638   1.668   1.356
 8647SOL     OW26839   2.811   5.300   6.151
 8647SOL    HW126840   2.792   5.293   6.249
 8647SOL    HW226841   2.882   5.233   6.126
 8648SOL     OW26842   5.975   0.686   4.132
 8648SOL    HW126843   6.015   0.661   4.220
 8648SOL    HW226844   6.031   0.757   4.089
 8649SOL     OW26845   6.004   4.735   6.777
 8649SOL    HW126846   6.071   4.678   6.728
 8649SOL    HW226847   5.972   4.808   6.717
 8650SOL     OW26848   1.522   4.289   5.327
 8650SOL    HW126849   1.485   4.203   5.363
 8650SOL    HW226850   1.564   4.273   5.238
 8651SOL     OW26851   3.523   0.605   0.626
 8651SOL    HW126852   3.438   0.553   0.622
 8651SOL    HW226853   3.504   0.703   0.624
 8652SOL     OW26854   1.020   3.678   3.387
 8652SOL    HW126855   0.920   3.673   3.387
 8652SOL    HW226856   1.050   3.736   3.312
 8653SOL     OW26857   5.736   1.211   5.575
 8653SOL    HW126858   5.656   1.159   5.602
 8653SOL    HW226859   5.708   1.297   5.532
 8654SOL     OW26860   1.522   5.962   1.764
 8654SOL    HW126861   1.510   5.923   1.856
 8654SOL    HW226862   1.434   5.996   1.731
 8655SOL     OW26863   5.760   0.658   3.921
 8655SOL    HW126864   5.842   0.662   3.978
 8655SOL    HW226865   5.679   0.660   3.979
 8656SOL     OW26866   6.740   1.050   0.851
 8656SOL    HW126867   6.720   1.111   0.928
 8656SOL    HW226868   6.755   1.104   0.768
 8657SOL     OW26869   4.414   4.877   6.697
 8657SOL    HW126870   4.424   4.883   6.796
 8657SOL    HW226871   4.405   4.969   6.658
 8658SOL     OW26872   4.377   6.313   6.859
 8658SOL    HW126873   4.280   6.333   6.874
 8658SOL    HW226874   4.432   6.368   6.922
 8659SOL     OW26875   4.097   1.073   3.284
 8659SOL    HW126876   4.074   1.171   3.293
 8659SOL    HW226877   4.114   1.035   3.375
 8660SOL     OW26878   5.943   3.540   0.917
 8660SOL    HW126879   6.008   3.511   0.988
 8660SOL    HW226880   5.936   3.469   0.848
 8661SOL     OW26881   5.949   3.909   1.152
 8661SOL    HW126882   5.970   3.865   1.065
 8661SOL    HW226883   5.856   3.884   1.180
 8662SOL     OW26884   5.139   5.708   1.459
 8662SOL    HW126885   5.052   5.707   1.409
 8662SOL    HW226886   5.139   5.784   1.524
 8663SOL     OW26887   2.402   6.174   1.136
 8663SOL    HW126888   2.490   6.200   1.097
 8663SOL    HW226889   2.329   6.188   1.069
 8664SOL     OW26890   3.419   6.033   1.135
 8664SOL    HW126891   3.357   6.059   1.061
 8664SOL    HW226892   3.422   5.933   1.141
 8665SOL     OW26893   5.608   6.011   5.566
 8665SOL    HW126894   5.508   6.005   5.573
 8665SOL    HW226895   5.649   5.939   5.622
 8666SOL     OW26896   4.853   1.719   4.991
 8666SOL    HW126897   4.919   1.744   4.921
 8666SOL    HW226898   4.880   1.632   5.033
 8667SOL     OW26899   4.449   2.266   3.331
 8667SOL    HW126900   4.398   2.249   3.246
 8667SOL    HW226901   4.471   2.363   3.338
 8668SOL     OW26902   5.753   3.032   3.025
 8668SOL    HW126903   5.825   2.986   2.972
 8668SOL    HW226904   5.741   3.125   2.991
 8669SOL     OW26905   2.626   6.368   6.872
 8669SOL    HW126906   2.580   6.431   6.935
 8669SOL    HW226907   2.725   6.379   6.879
 8670SOL     OW26908   3.730   4.627   5.671
 8670SOL    HW126909   3.676   4.566   5.729
 8670SOL    HW226910   3.670   4.679   5.611
 8671SOL     OW26911   5.542   1.960   3.185
 8671SOL    HW126912   5.517   1.939   3.279
 8671SOL    HW226913   5.591   2.047   3.181
 8672SOL     OW26914   2.471   5.523   3.630
 8672SOL    HW126915   2.546   5.477   3.582
 8672SOL    HW226916   2.395   5.459   3.641
 8673SOL     OW26917   6.951   1.856   6.778
 8673SOL    HW126918   6.974   1.919   6.852
 8673SOL    HW226919   6.908   1.774   6.817
 8674SOL     OW26920   6.237   5.438   2.036
 8674SOL    HW126921   6.241   5.495   1.954
 8674SOL    HW226922   6.274   5.347   2.016
 8675SOL     OW26923   3.811   2.128   5.081
 8675SOL    HW126924   3.727   2.140   5.028
 8675SOL    HW226925   3.871   2.065   5.032
 8676SOL     OW26926   4.229   7.003   3.096
 8676SOL    HW126927   4.224   0.077   3.094
 8676SOL    HW226928   4.136   6.966   3.108
 8677SOL     OW26929   2.530   6.726   5.539
 8677SOL    HW126930   2.572   6.637   5.557
 8677SOL    HW226931   2.523   6.777   5.625
 8678SOL     OW26932   0.451   0.454   1.158
 8678SOL    HW126933   0.526   0.431   1.096
 8678SOL    HW226934   0.373   0.394   1.138
 8679SOL     OW26935   6.656   3.279   4.333
 8679SOL    HW126936   6.628   3.198   4.283
 8679SOL    HW226937   6.593   3.296   4.408
 8680SOL     OW26938   0.690   4.471   1.413
 8680SOL    HW126939   0.782   4.502   1.388
 8680SOL    HW226940   0.676   4.378   1.381
 8681SOL     OW26941   4.480   5.205   6.952
 8681SOL    HW126942   4.444   5.241   0.012
 8681SOL    HW226943   4.473   5.105   6.952
 8682SOL     OW26944   4.502   6.613   1.492
 8682SOL    HW126945   4.440   6.598   1.569
 8682SOL    HW226946   4.571   6.540   1.490
 8683SOL     OW26947   1.502   2.385   2.315
 8683SOL    HW126948   1.542   2.305   2.270
 8683SOL    HW226949   1.486   2.364   2.411
 8684SOL     OW26950   0.861   2.720   4.956
 8684SOL    HW126951   0.776   2.692   4.912
 8684SOL    HW226952   0.840   2.773   5.039
 8685SOL     OW26953   0.856   2.936   5.639
 8685SOL    HW126954   0.844   2.840   5.614
 8685SOL    HW226955   0.949   2.951   5.672
 8686SOL     OW26956   0.291   1.615   1.054
 8686SOL    HW126957   0.234   1.534   1.066
 8686SOL    HW226958   0.293   1.668   1.139
 8687SOL     OW26959   3.405   5.748   3.076
 8687SOL    HW126960   3.499   5.715   3.085
 8687SOL    HW226961   3.368   5.770   3.166
 8688SOL     OW26962   3.333   6.580   6.680
 8688SOL    HW126963   3.239   6.615   6.680
 8688SOL    HW226964   3.360   6.557   6.587
 8689SOL     OW26965   3.576   4.558   0.765
 8689SOL    HW126966   3.606   4.630   0.702
 8689SOL    HW226967   3.511   4.498   0.718
 8690SOL     OW26968   2.109   2.406   2.996
 8690SOL    HW126969   2.101   2.315   3.038
 8690SOL    HW226970   2.203   2.438   3.004
 8691SOL     OW26971   3.469   2.315   6.918
 8691SOL    HW126972   3.539   2.386   6.908
 8691SOL    HW226973   3.451   2.298   7.015
 8692SOL     OW26974   3.708   2.041   2.939
 8692SOL    HW126975   3.624   2.055   2.991
 8692SOL    HW226976   3.785   2.081   2.988
 8693SOL     OW26977   6.414   1.452   0.742
 8693SOL    HW126978   6.508   1.460   0.709
 8693SOL    HW226979   6.353   1.504   0.682
 8694SOL     OW26980   3.674   1.488   5.218
 8694SOL    HW126981   3.666   1.510   5.315
 8694SOL    HW226982   3.657   1.391   5.204
 8695SOL     OW26983   4.287   3.115   6.101
 8695SOL    HW126984   4.369   3.171   6.091
 8695SOL    HW226985   4.258   3.082   6.011
 8696SOL     OW26986   2.950   5.684   0.755
 8696SOL    HW126987   2.993   5.684   0.845
 8696SOL    HW226988   2.905   5.596   0.739
 8697SOL     OW26989   6.505   3.250   0.004
 8697SOL    HW126990   6.480   3.344   0.027
 8697SOL    HW226991   6.431   3.206   6.980
 8698SOL     OW26992   6.026   5.558   4.310
 8698SOL    HW126993   6.006   5.480   4.370
 8698SOL    HW226994   5.998   5.536   4.216
 8699SOL     OW26995   1.841   2.802   5.631
 8699SOL    HW126996   1.932   2.788   5.670
 8699SOL    HW226997   1.777   2.737   5.672
 8700SOL     OW26998   1.048   0.681   4.680
 8700SOL    HW126999   0.983   0.753   4.654
 8700SOL    HW227000   1.140   0.706   4.650
 8701SOL     OW27001   1.541   0.245   6.781
 8701SOL    HW127002   1.526   0.269   6.877
 8701SOL    HW227003   1.610   0.173   6.775
 8702SOL     OW27004   5.446   4.443   0.357
 8702SOL    HW127005   5.488   4.369   0.303
 8702SOL    HW227006   5.471   4.531   0.316
 8703SOL     OW27007   2.734   5.572   1.296
 8703SOL    HW127008   2.679   5.606   1.373
 8703SOL    HW227009   2.817   5.627   1.288
 8704SOL     OW27010   6.333   3.939   2.983
 8704SOL    HW127011   6.336   3.965   2.886
 8704SOL    HW227012   6.422   3.901   3.010
 8705SOL     OW27013   5.532   0.434   0.708
 8705SOL    HW127014   5.625   0.435   0.670
 8705SOL    HW227015   5.537   0.438   0.807
 8706SOL     OW27016   4.925   1.882   6.161
 8706SOL    HW127017   4.839   1.915   6.122
 8706SOL    HW227018   4.905   1.816   6.233
 8707SOL     OW27019   6.173   1.918   0.074
 8707SOL    HW127020   6.244   1.982   0.045
 8707SOL    HW227021   6.094   1.926   0.014
 8708SOL     OW27022   4.062   2.186   2.241
 8708SOL    HW127023   4.122   2.254   2.199
 8708SOL    HW227024   4.086   2.095   2.207
 8709SOL     OW27025   6.781   6.058   6.674
 8709SOL    HW127026   6.850   5.993   6.706
 8709SOL    HW227027   6.690   6.026   6.700
 8710SOL     OW27028   2.139   3.292   3.390
 8710SOL    HW127029   2.162   3.198   3.415
 8710SOL    HW227030   2.157   3.352   3.468
 8711SOL     OW27031   0.734   5.440   2.884
 8711SOL    HW127032   0.751   5.537   2.865
 8711SOL    HW227033   0.636   5.424   2.893
 8712SOL     OW27034   4.052   1.911   4.426
 8712SOL    HW127035   4.141   1.892   4.468
 8712SOL    HW227036   4.057   1.994   4.372
 8713SOL     OW27037   0.270   4.117   3.632
 8713SOL    HW127038   0.367   4.094   3.638
 8713SOL    HW227039   0.259   4.201   3.578
 8714SOL     OW27040   0.816   1.682   6.010
 8714SOL    HW127041   0.856   1.716   6.094
 8714SOL    HW227042   0.774   1.757   5.959
 8715SOL     OW27043   5.511   7.006   0.974
 8715SOL    HW127044   5.461   0.063   0.998
 8715SOL    HW227045   5.549   7.015   0.881
 8716SOL     OW27046   0.834   0.082   1.088
 8716SOL    HW127047   0.887   0.072   1.172
 8716SOL    HW227048   0.749   0.029   1.095
 8717SOL     OW27049   3.859   3.628   3.101
 8717SOL    HW127050   3.905   3.539   3.098
 8717SOL    HW227051   3.767   3.617   3.138
 8718SOL     OW27052   0.109   3.569   4.847
 8718SOL    HW127053   0.017   3.601   4.824
 8718SOL    HW227054   0.175   3.642   4.828
 8719SOL     OW27055   2.100   0.002   6.238
 8719SOL    HW127056   2.007   6.990   6.239
 8719SOL    HW227057   2.095   0.099   6.214
 8720SOL     OW27058   6.427   4.744   5.138
 8720SOL    HW127059   6.444   4.770   5.233
 8720SOL    HW227060   6.461   4.651   5.122
 8721SOL     OW27061   6.113   2.174   3.427
 8721SOL    HW127062   6.169   2.131   3.498
 8721SOL    HW227063   6.165   2.246   3.382
 8722SOL     OW27064   4.215   0.831   0.145
 8722SOL    HW127065   4.248   0.793   0.231
 8722SOL    HW227066   4.204   0.930   0.154
 8723SOL     OW27067   5.053   5.155   0.912
 8723SOL    HW127068   5.039   5.062   0.943
 8723SOL    HW227069   5.005   5.219   0.973
 8724SOL     OW27070   5.653   6.849   5.633
 8724SOL    HW127071   5.706   6.766   5.615
 8724SOL    HW227072   5.602   6.838   5.718
 8725SOL     OW27073   2.132   0.409   6.393
 8725SOL    HW127074   2.119   0.477   6.466
 8725SOL    HW227075   2.212   0.435   6.338
 8726SOL     OW27076   6.338   0.748   1.757
 8726SOL    HW127077   6.297   0.727   1.669
 8726SOL    HW227078   6.368   0.844   1.758
 8727SOL     OW27079   6.786   6.299   1.915
 8727SOL    HW127080   6.753   6.290   2.009
 8727SOL    HW227081   6.841   6.382   1.906
 8728SOL     OW27082   3.793   0.579   4.331
 8728SOL    HW127083   3.892   0.565   4.322
 8728SOL    HW227084   3.744   0.506   4.285
 8729SOL     OW27085   4.706   5.578   3.477
 8729SOL    HW127086   4.707   5.672   3.443
 8729SOL    HW227087   4.769   5.569   3.554
 8730SOL     OW27088   6.642   4.636   2.534
 8730SOL    HW127089   6.599   4.607   2.619
 8730SOL    HW227090   6.650   4.558   2.471
 8731SOL     OW27091   2.337   2.288   2.350
 8731SOL    HW127092   2.340   2.231   2.433
 8731SOL    HW227093   2.248   2.333   2.344
 8732SOL     OW27094   5.722   3.812   1.509
 8732SOL    HW127095   5.775   3.764   1.579
 8732SOL    HW227096   5.629   3.775   1.506
 8733SOL     OW27097   1.778   5.798   2.504
 8733SOL    HW127098   1.741   5.813   2.595
 8733SOL    HW227099   1.814   5.705   2.497
 8734SOL     OW27100   1.107   4.604   1.921
 8734SOL    HW127101   1.181   4.667   1.945
 8734SOL    HW227102   1.109   4.525   1.982
 8735SOL     OW27103   0.878   1.846   0.096
 8735SOL    HW127104   0.846   1.777   0.031
 8735SOL    HW227105   0.846   1.936   0.067
 8736SOL     OW27106   0.368   6.611   5.812
 8736SOL    HW127107   0.293   6.546   5.799
 8736SOL    HW227108   0.334   6.689   5.865
 8737SOL     OW27109   2.276   7.011   5.814
 8737SOL    HW127110   2.311   6.921   5.787
 8737SOL    HW227111   2.229   0.028   5.736
 8738SOL     OW27112   2.099   5.369   4.360
 8738SOL    HW127113   2.122   5.320   4.445
 8738SOL    HW227114   2.026   5.320   4.312
 8739SOL     OW27115   6.468   5.574   6.328
 8739SOL    HW127116   6.434   5.575   6.234
 8739SOL    HW227117   6.495   5.667   6.354
 8740SOL     OW27118   5.144   0.762   4.953
 8740SOL    HW127119   5.138   0.662   4.961
 8740SOL    HW227120   5.210   0.785   4.881
 8741SOL     OW27121   2.515   1.015   1.749
 8741SOL    HW127122   2.546   1.089   1.809
 8741SOL    HW227123   2.475   1.054   1.667
 8742SOL     OW27124   5.678   6.176   1.400
 8742SOL    HW127125   5.681   6.240   1.477
 8742SOL    HW227126   5.701   6.225   1.315
 8743SOL     OW27127   1.663   0.433   2.211
 8743SOL    HW127128   1.747   0.440   2.265
 8743SOL    HW227129   1.676   0.368   2.137
 8744SOL     OW27130   3.615   2.496   6.056
 8744SOL    HW127131   3.536   2.442   6.026
 8744SOL    HW227132   3.699   2.445   6.038
 8745SOL     OW27133   6.312   2.671   5.967
 8745SOL    HW127134   6.370   2.656   6.046
 8745SOL    HW227135   6.288   2.768   5.960
 8746SOL     OW27136   4.835   3.882   5.077
 8746SOL    HW127137   4.825   3.783   5.082
 8746SOL    HW227138   4.932   3.907   5.074
 8747SOL     OW27139   0.140   2.433   2.892
 8747SOL    HW127140   0.223   2.472   2.932
 8747SOL    HW227141   0.111   2.488   2.814
 8748SOL     OW27142   0.384   1.697   5.737
 8748SOL    HW127143   0.285   1.685   5.744
 8748SOL    HW227144   0.418   1.646   5.658
 8749SOL     OW27145   2.935   0.198   6.450
 8749SOL    HW127146   2.928   0.139   6.531
 8749SOL    HW227147   2.862   0.175   6.385
 8750SOL     OW27148   3.157   3.216   5.388
 8750SOL    HW127149   3.090   3.142   5.396
 8750SOL    HW227150   3.247   3.177   5.372
 8751SOL     OW27151   6.096   0.315   2.917
 8751SOL    HW127152   6.167   0.288   2.852
 8751SOL    HW227153   6.048   0.233   2.950
 8752SOL     OW27154   2.792   5.063   6.623
 8752SOL    HW127155   2.703   5.101   6.598
 8752SOL    HW227156   2.781   5.005   6.704
 8753SOL     OW27157   4.611   1.704   5.119
 8753SOL    HW127158   4.702   1.687   5.079
 8753SOL    HW227159   4.559   1.618   5.121
 8754SOL     OW27160   1.227   2.331   5.011
 8754SOL    HW127161   1.178   2.418   5.019
 8754SOL    HW227162   1.321   2.348   4.982
 8755SOL     OW27163   2.372   1.043   6.306
 8755SOL    HW127164   2.295   0.986   6.277
 8755SOL    HW227165   2.344   1.139   6.303
 8756SOL     OW27166   2.139   3.389   3.141
 8756SOL    HW127167   2.144   3.488   3.151
 8756SOL    HW227168   2.131   3.347   3.231
 8757SOL     OW27169   5.161   6.707   5.849
 8757SOL    HW127170   5.149   6.778   5.779
 8757SOL    HW227171   5.221   6.742   5.921
 8758SOL     OW27172   4.721   6.419   1.835
 8758SOL    HW127173   4.762   6.337   1.877
 8758SOL    HW227174   4.635   6.440   1.880
 8759SOL     OW27175   3.758   2.329   6.993
 8759SOL    HW127176   3.737   2.426   6.978
 8759SOL    HW227177   3.740   2.306   0.062
 8760SOL     OW27178   1.699   1.866   5.050
 8760SOL    HW127179   1.681   1.807   4.971
 8760SOL    HW227180   1.797   1.872   5.065
 8761SOL     OW27181   4.656   1.350   1.750
 8761SOL    HW127182   4.582   1.351   1.684
 8761SOL    HW227183   4.661   1.260   1.793
 8762SOL     OW27184   0.583   4.241   2.566
 8762SOL    HW127185   0.485   4.240   2.588
 8762SOL    HW227186   0.624   4.154   2.593
 8763SOL     OW27187   5.921   5.696   5.969
 8763SOL    HW127188   5.859   5.711   6.046
 8763SOL    HW227189   6.008   5.659   6.003
 8764SOL     OW27190   4.582   0.804   4.337
 8764SOL    HW127191   4.500   0.751   4.318
 8764SOL    HW227192   4.643   0.751   4.395
 8765SOL     OW27193   6.061   6.666   5.141
 8765SOL    HW127194   6.053   6.607   5.221
 8765SOL    HW227195   5.974   6.714   5.126
 8766SOL     OW27196   4.142   5.273   2.987
 8766SOL    HW127197   4.177   5.340   2.921
 8766SOL    HW227198   4.049   5.300   3.014
 8767SOL     OW27199   3.766   0.176   3.039
 8767SOL    HW127200   3.853   0.218   3.015
 8767SOL    HW227201   3.693   0.218   2.987
 8768SOL     OW27202   0.914   3.096   0.571
 8768SOL    HW127203   1.000   3.108   0.620
 8768SOL    HW227204   0.859   3.027   0.616
 8769SOL     OW27205   1.495   6.818   3.834
 8769SOL    HW127206   1.449   6.736   3.868
 8769SOL    HW227207   1.427   6.881   3.795
 8770SOL     OW27208   4.835   4.017   1.961
 8770SOL    HW127209   4.927   4.038   1.994
 8770SOL    HW227210   4.822   3.918   1.959
 8771SOL     OW27211   1.424   0.549   5.668
 8771SOL    HW127212   1.368   0.604   5.606
 8771SOL    HW227213   1.429   0.455   5.634
 8772SOL     OW27214   5.607   6.636   6.775
 8772SOL    HW127215   5.672   6.572   6.734
 8772SOL    HW227216   5.641   6.666   6.864
 8773SOL     OW27217   4.688   2.387   3.965
 8773SOL    HW127218   4.679   2.296   3.925
 8773SOL    HW227219   4.757   2.386   4.037
 8774SOL     OW27220   2.456   1.750   0.741
 8774SOL    HW127221   2.495   1.670   0.696
 8774SOL    HW227222   2.517   1.780   0.814
 8775SOL     OW27223   6.295   0.412   5.759
 8775SOL    HW127224   6.310   0.511   5.754
 8775SOL    HW227225   6.292   0.384   5.855
 8776SOL     OW27226   3.249   4.146   4.447
 8776SOL    HW127227   3.296   4.198   4.519
 8776SOL    HW227228   3.298   4.157   4.361
 8777SOL     OW27229   0.173   4.053   1.385
 8777SOL    HW127230   0.139   3.963   1.415
 8777SOL    HW227231   0.173   4.115   1.464
 8778SOL     OW27232   6.162   2.192   4.809
 8778SOL    HW127233   6.187   2.101   4.778
 8778SOL    HW227234   6.185   2.260   4.739
 8779SOL     OW27235   2.840   5.378   2.103
 8779SOL    HW127236   2.777   5.443   2.145
 8779SOL    HW227237   2.933   5.413   2.107
 8780SOL     OW27238   1.187   5.301   3.877
 8780SOL    HW127239   1.122   5.377   3.881
 8780SOL    HW227240   1.279   5.337   3.857
 8781SOL     OW27241   6.306   1.417   4.156
 8781SOL    HW127242   6.281   1.324   4.180
 8781SOL    HW227243   6.405   1.425   4.152
 8782SOL     OW27244   5.435   0.555   1.896
 8782SOL    HW127245   5.497   0.608   1.838
 8782SOL    HW227246   5.346   0.547   1.851
 8783SOL     OW27247   6.645   4.527   3.820
 8783SOL    HW127248   6.557   4.485   3.797
 8783SOL    HW227249   6.684   4.570   3.739
 8784SOL     OW27250   5.880   3.663   5.814
 8784SOL    HW127251   5.799   3.706   5.773
 8784SOL    HW227252   5.956   3.669   5.750
 8785SOL     OW27253   6.566   3.487   6.631
 8785SOL    HW127254   6.649   3.440   6.661
 8785SOL    HW227255   6.523   3.531   6.709
 8786SOL     OW27256   2.438   6.514   0.688
 8786SOL    HW127257   2.517   6.576   0.683
 8786SOL    HW227258   2.372   6.538   0.617
 8787SOL     OW27259   1.897   3.081   2.251
 8787SOL    HW127260   1.989   3.088   2.289
 8787SOL    HW227261   1.831   3.070   2.325
 8788SOL     OW27262   6.910   2.264   5.618
 8788SOL    HW127263   6.830   2.212   5.591
 8788SOL    HW227264   6.953   2.304   5.537
 8789SOL     OW27265   6.009   6.742   5.547
 8789SOL    HW127266   5.974   6.801   5.474
 8789SOL    HW227267   5.947   6.666   5.562
 8790SOL     OW27268   0.075   1.186   0.043
 8790SOL    HW127269   0.102   1.279   0.068
 8790SOL    HW227270   0.129   1.157   6.990
 8791SOL     OW27271   5.538   6.734   4.787
 8791SOL    HW127272   5.465   6.802   4.792
 8791SOL    HW227273   5.527   6.667   4.860
 8792SOL     OW27274   3.626   6.163   3.811
 8792SOL    HW127275   3.690   6.100   3.767
 8792SOL    HW227276   3.533   6.141   3.784
 8793SOL     OW27277   1.637   5.610   3.968
 8793SOL    HW127278   1.736   5.621   3.959
 8793SOL    HW227279   1.606   5.534   3.910
 8794SOL     OW27280   4.187   6.749   1.581
 8794SOL    HW127281   4.143   6.819   1.638
 8794SOL    HW227282   4.237   6.685   1.640
 8795SOL     OW27283   0.906   6.692   4.888
 8795SOL    HW127284   0.988   6.709   4.834
 8795SOL    HW227285   0.884   6.595   4.887
 8796SOL     OW27286   3.754   0.524   4.788
 8796SOL    HW127287   3.767   0.606   4.732
 8796SOL    HW227288   3.728   0.551   4.880
 8797SOL     OW27289   1.300   0.104   5.079
 8797SOL    HW127290   1.332   0.101   4.984
 8797SOL    HW227291   1.346   0.033   5.132
 8798SOL     OW27292   5.030   5.398   4.965
 8798SOL    HW127293   5.051   5.342   5.045
 8798SOL    HW227294   4.959   5.354   4.911
 8799SOL     OW27295   1.941   4.023   3.312
 8799SOL    HW127296   1.912   3.977   3.396
 8799SOL    HW227297   1.918   3.966   3.233
 8800SOL     OW27298   6.137   4.095   5.261
 8800SOL    HW127299   6.048   4.051   5.262
 8800SOL    HW227300   6.143   4.158   5.339
 8801SOL     OW27301   1.356   1.572   4.472
 8801SOL    HW127302   1.350   1.473   4.484
 8801SOL    HW227303   1.266   1.613   4.487
 8802SOL     OW27304   1.881   0.361   0.286
 8802SOL    HW127305   1.840   0.447   0.257
 8802SOL    HW227306   1.818   0.286   0.264
 8803SOL     OW27307   0.410   5.171   5.768
 8803SOL    HW127308   0.326   5.179   5.715
 8803SOL    HW227309   0.399   5.219   5.855
 8804SOL     OW27310   3.130   0.121   1.781
 8804SOL    HW127311   3.067   0.095   1.855
 8804SOL    HW227312   3.221   0.136   1.819
 8805SOL     OW27313   2.279   0.401   4.292
 8805SOL    HW127314   2.307   0.350   4.211
 8805SOL    HW227315   2.317   0.356   4.373
 8806SOL     OW27316   1.876   5.062   1.665
 8806SOL    HW127317   1.901   5.049   1.761
 8806SOL    HW227318   1.777   5.055   1.655
 8807SOL     OW27319   6.504   6.602   6.106
 8807SOL    HW127320   6.429   6.608   6.040
 8807SOL    HW227321   6.471   6.557   6.189
 8808SOL     OW27322   5.441   2.306   0.944
 8808SOL    HW127323   5.420   2.270   1.035
 8808SOL    HW227324   5.468   2.231   0.884
 8809SOL     OW27325   5.097   4.751   2.902
 8809SOL    HW127326   5.169   4.775   2.837
 8809SOL    HW227327   5.136   4.740   2.993
 8810SOL     OW27328   5.357   1.282   6.169
 8810SOL    HW127329   5.284   1.217   6.151
 8810SOL    HW227330   5.318   1.372   6.188
 8811SOL     OW27331   3.225   1.909   3.249
 8811SOL    HW127332   3.311   1.859   3.242
 8811SOL    HW227333   3.152   1.847   3.281
 8812SOL     OW27334   1.983   0.444   1.169
 8812SOL    HW127335   1.993   0.482   1.262
 8812SOL    HW227336   1.890   0.460   1.137
 8813SOL     OW27337   1.086   4.415   1.489
 8813SOL    HW127338   1.011   4.480   1.496
 8813SOL    HW227339   1.137   4.414   1.575
 8814SOL     OW27340   6.287   0.820   0.416
 8814SOL    HW127341   6.338   0.736   0.431
 8814SOL    HW227342   6.351   0.896   0.402
 8815SOL     OW27343   6.316   6.444   0.532
 8815SOL    HW127344   6.274   6.366   0.578
 8815SOL    HW227345   6.286   6.529   0.575
 8816SOL     OW27346   2.209   0.956   0.498
 8816SOL    HW127347   2.237   0.939   0.403
 8816SOL    HW227348   2.113   0.931   0.510
 8817SOL     OW27349   0.673   6.295   5.457
 8817SOL    HW127350   0.675   6.331   5.551
 8817SOL    HW227351   0.740   6.344   5.401
 8818SOL     OW27352   0.160   2.674   4.184
 8818SOL    HW127353   0.234   2.607   4.190
 8818SOL    HW227354   0.077   2.637   4.224
 8819SOL     OW27355   4.233   5.510   4.538
 8819SOL    HW127356   4.320   5.470   4.567
 8819SOL    HW227357   4.192   5.453   4.467
 8820SOL     OW27358   2.357   1.625   4.518
 8820SOL    HW127359   2.349   1.599   4.614
 8820SOL    HW227360   2.448   1.664   4.501
 8821SOL     OW27361   2.949   6.186   0.257
 8821SOL    HW127362   2.993   6.173   0.168
 8821SOL    HW227363   3.005   6.244   0.315
 8822SOL     OW27364   0.728   0.109   3.813
 8822SOL    HW127365   0.752   0.152   3.900
 8822SOL    HW227366   0.812   0.087   3.763
 8823SOL     OW27367   2.133   0.910   0.907
 8823SOL    HW127368   2.071   0.989   0.911
 8823SOL    HW227369   2.082   0.826   0.928
 8824SOL     OW27370   1.447   3.437   1.490
 8824SOL    HW127371   1.484   3.368   1.427
 8824SOL    HW227372   1.521   3.493   1.525
 8825SOL     OW27373   1.893   0.195   3.411
 8825SOL    HW127374   1.893   0.222   3.315
 8825SOL    HW227375   1.985   0.205   3.449
 8826SOL     OW27376   6.683   2.900   0.400
 8826SOL    HW127377   6.766   2.891   0.345
 8826SOL    HW227378   6.639   2.988   0.380
 8827SOL     OW27379   3.594   1.323   2.895
 8827SOL    HW127380   3.556   1.332   2.987
 8827SOL    HW227381   3.543   1.382   2.832
 8828SOL     OW27382   4.181   5.517   4.927
 8828SOL    HW127383   4.109   5.538   4.860
 8828SOL    HW227384   4.269   5.509   4.880
 8829SOL     OW27385   0.019   2.132   0.450
 8829SOL    HW127386   0.097   2.086   0.406
 8829SOL    HW227387   0.052   2.213   0.498
 8830SOL     OW27388   0.484   1.250   1.453
 8830SOL    HW127389   0.532   1.263   1.539
 8830SOL    HW227390   0.387   1.240   1.470
 8831SOL     OW27391   5.109   0.693   3.537
 8831SOL    HW127392   5.161   0.650   3.611
 8831SOL    HW227393   5.151   0.781   3.515
 8832SOL     OW27394   6.571   5.858   2.973
 8832SOL    HW127395   6.615   5.807   2.899
 8832SOL    HW227396   6.519   5.934   2.935
 8833SOL     OW27397   2.111   6.473   5.479
 8833SOL    HW127398   2.109   6.382   5.520
 8833SOL    HW227399   2.047   6.477   5.401
 8834SOL     OW27400   5.248   3.149   4.385
 8834SOL    HW127401   5.238   3.232   4.330
 8834SOL    HW227402   5.170   3.140   4.447
 8835SOL     OW27403   6.189   1.473   5.968
 8835SOL    HW127404   6.098   1.445   5.999
 8835SOL    HW227405   6.179   1.538   5.893
 8836SOL     OW27406   4.596   1.588   6.424
 8836SOL    HW127407   4.554   1.504   6.390
 8836SOL    HW227408   4.534   1.665   6.410
 8837SOL     OW27409   0.122   6.066   3.005
 8837SOL    HW127410   0.030   6.034   2.981
 8837SOL    HW227411   0.171   6.091   2.922
 8838SOL     OW27412   3.012   4.838   2.925
 8838SOL    HW127413   3.008   4.910   2.856
 8838SOL    HW227414   2.968   4.870   3.009
 8839SOL     OW27415   5.146   5.609   1.938
 8839SOL    HW127416   5.107   5.541   1.876
 8839SOL    HW227417   5.227   5.571   1.982
 8840SOL     OW27418   6.552   1.699   1.860
 8840SOL    HW127419   6.586   1.653   1.942
 8840SOL    HW227420   6.457   1.673   1.844
 8841SOL     OW27421   1.376   0.441   4.895
 8841SOL    HW127422   1.454   0.485   4.848
 8841SOL    HW227423   1.296   0.501   4.889
 8842SOL     OW27424   3.141   3.247   1.783
 8842SOL    HW127425   3.202   3.318   1.816
 8842SOL    HW227426   3.194   3.166   1.759
 8843SOL     OW27427   1.919   3.361   5.209
 8843SOL    HW127428   1.921   3.281   5.149
 8843SOL    HW227429   1.930   3.332   5.304
 8844SOL     OW27430   5.951   1.914   6.931
 8844SOL    HW127431   5.888   1.953   6.998
 8844SOL    HW227432   5.966   1.980   6.856
 8845SOL     OW27433   4.531   3.977   6.604
 8845SOL    HW127434   4.433   3.961   6.597
 8845SOL    HW227435   4.547   4.066   6.647
 8846SOL     OW27436   2.735   5.604   3.562
 8846SOL    HW127437   2.701   5.624   3.654
 8846SOL    HW227438   2.833   5.584   3.566
 8847SOL     OW27439   3.285   1.025   2.572
 8847SOL    HW127440   3.340   0.972   2.636
 8847SOL    HW227441   3.340   1.099   2.534
 8848SOL     OW27442   2.540   0.105   2.093
 8848SOL    HW127443   2.552   0.039   2.167
 8848SOL    HW227444   2.517   0.195   2.132
 8849SOL     OW27445   3.262   5.680   2.841
 8849SOL    HW127446   3.276   5.665   2.939
 8849SOL    HW227447   3.346   5.717   2.801
 8850SOL     OW27448   1.830   2.067   0.257
 8850SOL    HW127449   1.795   1.990   0.310
 8850SOL    HW227450   1.757   2.134   0.244
 8851SOL     OW27451   1.753   4.013   2.421
 8851SOL    HW127452   1.758   3.962   2.335
 8851SOL    HW227453   1.698   4.095   2.408
 8852SOL     OW27454   0.772   2.012   4.733
 8852SOL    HW127455   0.748   2.109   4.730
 8852SOL    HW227456   0.690   1.957   4.746
 8853SOL     OW27457   2.843   0.612   1.410
 8853SOL    HW127458   2.897   0.532   1.384
 8853SOL    HW227459   2.777   0.633   1.338
 8854SOL     OW27460   2.065   3.491   4.838
 8854SOL    HW127461   1.973   3.453   4.829
 8854SOL    HW227462   2.096   3.525   4.749
 8855SOL     OW27463   6.793   5.336   1.105
 8855SOL    HW127464   6.832   5.377   1.188
 8855SOL    HW227465   6.768   5.241   1.124
 8856SOL     OW27466   0.653   6.204   6.692
 8856SOL    HW127467   0.706   6.287   6.713
 8856SOL    HW227468   0.574   6.229   6.636
 8857SOL     OW27469   6.447   1.702   4.611
 8857SOL    HW127470   6.532   1.649   4.614
 8857SOL    HW227471   6.381   1.656   4.552
 8858SOL     OW27472   0.254   4.518   3.695
 8858SOL    HW127473   0.258   4.505   3.596
 8858SOL    HW227474   0.159   4.516   3.725
 8859SOL     OW27475   1.028   1.071   3.953
 8859SOL    HW127476   1.001   1.132   4.027
 8859SOL    HW227477   0.948   1.044   3.900
 8860SOL     OW27478   6.764   2.192   1.701
 8860SOL    HW127479   6.822   2.137   1.641
 8860SOL    HW227480   6.785   2.289   1.688
 8861SOL     OW27481   4.567   1.238   6.758
 8861SOL    HW127482   4.529   1.255   6.850
 8861SOL    HW227483   4.584   1.326   6.713
 8862SOL     OW27484   5.676   6.627   3.884
 8862SOL    HW127485   5.703   6.711   3.931
 8862SOL    HW227486   5.748   6.558   3.895
 8863SOL     OW27487   2.343   4.920   3.441
 8863SOL    HW127488   2.433   4.932   3.483
 8863SOL    HW227489   2.330   4.991   3.371
 8864SOL     OW27490   3.739   4.269   6.293
 8864SOL    HW127491   3.678   4.326   6.238
 8864SOL    HW227492   3.821   4.321   6.316
 8865SOL     OW27493   3.581   0.997   4.969
 8865SOL    HW127494   3.510   0.985   4.900
 8865SOL    HW227495   3.544   0.974   5.059
 8866SOL     OW27496   5.408   6.476   2.916
 8866SOL    HW127497   5.491   6.428   2.890
 8866SOL    HW227498   5.373   6.528   2.838
 8867SOL     OW27499   5.720   4.263   3.412
 8867SOL    HW127500   5.632   4.305   3.390
 8867SOL    HW227501   5.754   4.214   3.332
 8868SOL     OW27502   6.769   3.614   2.459
 8868SOL    HW127503   6.861   3.608   2.421
 8868SOL    HW227504   6.703   3.621   2.384
 8869SOL     OW27505   4.156   5.885   5.437
 8869SOL    HW127506   4.099   5.917   5.361
 8869SOL    HW227507   4.237   5.839   5.400
 8870SOL     OW27508   1.705   6.448   1.758
 8870SOL    HW127509   1.761   6.462   1.839
 8870SOL    HW227510   1.706   6.530   1.702
 8871SOL     OW27511   2.027   0.619   3.497
 8871SOL    HW127512   2.085   0.604   3.576
 8871SOL    HW227513   2.022   0.716   3.476
 8872SOL     OW27514   1.036   5.026   5.890
 8872SOL    HW127515   1.108   5.087   5.923
 8872SOL    HW227516   0.978   4.999   5.967
 8873SOL     OW27517   1.746   6.890   2.046
 8873SOL    HW127518   1.772   6.944   1.966
 8873SOL    HW227519   1.805   6.809   2.051
 8874SOL     OW27520   1.368   5.562   2.264
 8874SOL    HW127521   1.430   5.568   2.187
 8874SOL    HW227522   1.281   5.521   2.234
 8875SOL     OW27523   6.915   3.210   4.659
 8875SOL    HW127524   6.894   3.114   4.638
 8875SOL    HW227525   6.840   3.250   4.712
 8876SOL     OW27526   2.553   0.870   6.434
 8876SOL    HW127527   2.479   0.931   6.406
 8876SOL    HW227528   2.527   0.822   6.518
 8877SOL     OW27529   1.690   2.891   3.007
 8877SOL    HW127530   1.650   2.865   3.095
 8877SOL    HW227531   1.787   2.864   3.005
 8878SOL     OW27532   3.445   5.150   1.006
 8878SOL    HW127533   3.445   5.093   1.088
 8878SOL    HW227534   3.504   5.230   1.020
 8879SOL     OW27535   5.730   4.936   2.450
 8879SOL    HW127536   5.797   4.881   2.500
 8879SOL    HW227537   5.767   5.027   2.434
 8880SOL     OW27538   3.981   5.984   5.233
 8880SOL    HW127539   4.039   6.050   5.185
 8880SOL    HW227540   3.901   5.962   5.177
 8881SOL     OW27541   5.277   5.413   4.272
 8881SOL    HW127542   5.333   5.333   4.251
 8881SOL    HW227543   5.336   5.494   4.275
 8882SOL     OW27544   3.811   1.081   0.892
 8882SOL    HW127545   3.809   1.040   0.983
 8882SOL    HW227546   3.751   1.161   0.889
 8883SOL     OW27547   1.425   6.183   5.922
 8883SOL    HW127548   1.411   6.092   5.884
 8883SOL    HW227549   1.385   6.252   5.862
 8884SOL     OW27550   6.093   3.708   5.641
 8884SOL    HW127551   6.163   3.638   5.651
 8884SOL    HW227552   6.042   3.694   5.556
 8885SOL     OW27553   5.057   4.458   0.930
 8885SOL    HW127554   5.117   4.460   1.010
 8885SOL    HW227555   5.095   4.397   0.861
 8886SOL     OW27556   3.578   5.695   6.298
 8886SOL    HW127557   3.549   5.689   6.393
 8886SOL    HW227558   3.627   5.781   6.283
 8887SOL     OW27559   3.435   1.123   0.983
 8887SOL    HW127560   3.387   1.101   0.898
 8887SOL    HW227561   3.463   1.219   0.983
 8888SOL     OW27562   1.958   2.736   4.525
 8888SOL    HW127563   1.995   2.785   4.445
 8888SOL    HW227564   2.008   2.764   4.606
 8889SOL     OW27565   0.021   6.195   6.441
 8889SOL    HW127566   0.022   6.113   6.384
 8889SOL    HW227567   7.006   6.271   6.390
 8890SOL     OW27568   0.688   6.063   6.022
 8890SOL    HW127569   0.746   6.020   6.091
 8890SOL    HW227570   0.603   6.094   6.065
 8891SOL     OW27571   4.139   4.104   0.202
 8891SOL    HW127572   4.239   4.109   0.192
 8891SOL    HW227573   4.100   4.194   0.182
 8892SOL     OW27574   3.693   4.878   3.290
 8892SOL    HW127575   3.604   4.881   3.336
 8892SOL    HW227576   3.692   4.938   3.210
 8893SOL     OW27577   1.438   5.184   5.014
 8893SOL    HW127578   1.524   5.233   4.996
 8893SOL    HW227579   1.410   5.200   5.109
 8894SOL     OW27580   3.663   1.806   6.929
 8894SOL    HW127581   3.761   1.817   6.912
 8894SOL    HW227582   3.626   1.890   6.968
 8895SOL     OW27583   0.460   2.292   0.919
 8895SOL    HW127584   0.525   2.220   0.945
 8895SOL    HW227585   0.478   2.374   0.974
 8896SOL     OW27586   1.585   3.276   4.755
 8896SOL    HW127587   1.552   3.247   4.665
 8896SOL    HW227588   1.517   3.253   4.825
 8897SOL     OW27589   1.939   3.060   3.313
 8897SOL    HW127590   1.919   2.962   3.313
 8897SOL    HW227591   1.860   3.111   3.279
 8898SOL     OW27592   5.663   3.475   2.119
 8898SOL    HW127593   5.730   3.510   2.185
 8898SOL    HW227594   5.629   3.386   2.150
 8899SOL     OW27595   1.028   4.707   0.353
 8899SOL    HW127596   1.073   4.652   0.282
 8899SOL    HW227597   1.078   4.697   0.439
 8900SOL     OW27598   5.453   2.882   3.415
 8900SOL    HW127599   5.367   2.911   3.372
 8900SOL    HW227600   5.475   2.943   3.491
 8901SOL     OW27601   0.932   1.252   4.108
 8901SOL    HW127602   0.958   1.344   4.136
 8901SOL    HW227603   0.833   1.243   4.106
 8902SOL     OW27604   1.305   5.837   0.019
 8902SOL    HW127605   1.322   5.849   6.948
 8902SOL    HW227606   1.386   5.797   0.063
 8903SOL     OW27607   0.956   2.013   4.437
 8903SOL    HW127608   0.941   2.097   4.489
 8903SOL    HW227609   0.896   1.941   4.471
 8904SOL     OW27610   0.916   1.530   3.860
 8904SOL    HW127611   0.953   1.442   3.831
 8904SOL    HW227612   0.950   1.602   3.800
 8905SOL     OW27613   2.109   2.900   2.613
 8905SOL    HW127614   2.109   2.984   2.667
 8905SOL    HW227615   2.018   2.859   2.617
 8906SOL     OW27616   1.418   6.165   0.851
 8906SOL    HW127617   1.460   6.136   0.937
 8906SOL    HW227618   1.387   6.259   0.859
 8907SOL     OW27619   3.312   2.950   5.327
 8907SOL    HW127620   3.317   2.922   5.423
 8907SOL    HW227621   3.300   2.869   5.269
 8908SOL     OW27622   1.884   5.571   6.931
 8908SOL    HW127623   1.830   5.609   7.007
 8908SOL    HW227624   1.981   5.587   6.948
 8909SOL     OW27625   2.724   1.197   6.421
 8909SOL    HW127626   2.706   1.274   6.360
 8909SOL    HW227627   2.646   1.135   6.420
 8910SOL     OW27628   0.365   2.609   5.539
 8910SOL    HW127629   0.359   2.632   5.636
 8910SOL    HW227630   0.446   2.553   5.523
 8911SOL     OW27631   5.443   3.605   4.803
 8911SOL    HW127632   5.353   3.607   4.847
 8911SOL    HW227633   5.436   3.642   4.710
 8912SOL     OW27634   2.617   3.452   6.277
 8912SOL    HW127635   2.583   3.545   6.290
 8912SOL    HW227636   2.716   3.453   6.266
 8913SOL     OW27637   4.390   5.164   6.656
 8913SOL    HW127638   4.403   5.183   6.753
 8913SOL    HW227639   4.469   5.198   6.605
 8914SOL     OW27640   5.169   6.740   4.253
 8914SOL    HW127641   5.253   6.704   4.293
 8914SOL    HW227642   5.112   6.780   4.325
 8915SOL     OW27643   1.088   2.162   4.230
 8915SOL    HW127644   1.175   2.204   4.258
 8915SOL    HW227645   1.044   2.120   4.309
 8916SOL     OW27646   6.685   2.619   6.983
 8916SOL    HW127647   6.603   2.629   6.927
 8916SOL    HW227648   6.690   2.526   7.019
 8917SOL     OW27649   5.675   2.722   1.200
 8917SOL    HW127650   5.609   2.660   1.245
 8917SOL    HW227651   5.747   2.746   1.266
 8918SOL     OW27652   1.055   5.244   0.597
 8918SOL    HW127653   1.021   5.254   0.691
 8918SOL    HW227654   0.977   5.236   0.535
 8919SOL     OW27655   5.295   4.583   6.665
 8919SOL    HW127656   5.352   4.531   6.729
 8919SOL    HW227657   5.206   4.601   6.706
 8920SOL     OW27658   0.523   2.235   0.401
 8920SOL    HW127659   0.557   2.318   0.356
 8920SOL    HW227660   0.472   2.260   0.483
 8921SOL     OW27661   1.656   3.258   2.257
 8921SOL    HW127662   1.721   3.281   2.329
 8921SOL    HW227663   1.686   3.176   2.208
 8922SOL     OW27664   4.401   5.785   1.900
 8922SOL    HW127665   4.415   5.875   1.943
 8922SOL    HW227666   4.472   5.722   1.930
 8923SOL     OW27667   1.392   0.885   6.183
 8923SOL    HW127668   1.417   0.895   6.280
 8923SOL    HW227669   1.349   0.969   6.152
 8924SOL     OW27670   4.680   5.291   5.147
 8924SOL    HW127671   4.627   5.342   5.215
 8924SOL    HW227672   4.768   5.265   5.186
 8925SOL     OW27673   6.881   0.261   2.614
 8925SOL    HW127674   6.870   0.233   2.519
 8925SOL    HW227675   6.846   0.354   2.626
 8926SOL     OW27676   6.505   3.303   4.589
 8926SOL    HW127677   6.575   3.325   4.657
 8926SOL    HW227678   6.422   3.274   4.636
 8927SOL     OW27679   5.975   1.752   4.686
 8927SOL    HW127680   5.943   1.723   4.776
 8927SOL    HW227681   5.919   1.828   4.653
 8928SOL     OW27682   1.837   0.249   6.110
 8928SOL    HW127683   1.933   0.264   6.133
 8928SOL    HW227684   1.792   0.337   6.097
 8929SOL     OW27685   6.632   1.758   5.150
 8929SOL    HW127686   6.581   1.765   5.236
 8929SOL    HW227687   6.571   1.724   5.078
 8930SOL     OW27688   0.840   2.778   3.092
 8930SOL    HW127689   0.770   2.728   3.041
 8930SOL    HW227690   0.923   2.723   3.096
 8931SOL     OW27691   3.249   3.680   1.562
 8931SOL    HW127692   3.280   3.585   1.554
 8931SOL    HW227693   3.157   3.689   1.525
 8932SOL     OW27694   6.824   2.009   2.696
 8932SOL    HW127695   6.740   2.010   2.642
 8932SOL    HW227696   6.898   1.970   2.642
 8933SOL     OW27697   2.883   2.382   6.411
 8933SOL    HW127698   2.835   2.465   6.382
 8933SOL    HW227699   2.945   2.403   6.486
 8934SOL     OW27700   3.729   4.743   5.367
 8934SOL    HW127701   3.719   4.838   5.337
 8934SOL    HW227702   3.639   4.699   5.367
 8935SOL     OW27703   0.078   3.835   0.586
 8935SOL    HW127704   0.115   3.787   0.666
 8935SOL    HW227705   0.129   3.920   0.573
 8936SOL     OW27706   1.718   4.199   1.420
 8936SOL    HW127707   1.627   4.238   1.401
 8936SOL    HW227708   1.735   4.201   1.518
 8937SOL     OW27709   0.498   0.482   5.370
 8937SOL    HW127710   0.434   0.521   5.303
 8937SOL    HW227711   0.592   0.502   5.343
 8938SOL     OW27712   0.503   5.671   0.687
 8938SOL    HW127713   0.414   5.705   0.717
 8938SOL    HW227714   0.574   5.736   0.715
 8939SOL     OW27715   4.774   2.718   4.072
 8939SOL    HW127716   4.712   2.655   4.025
 8939SOL    HW227717   4.747   2.725   4.168
 8940SOL     OW27718   7.013   1.111   3.300
 8940SOL    HW127719   0.062   1.173   3.281
 8940SOL    HW227720   6.978   1.129   3.393
 8941SOL     OW27721   6.360   2.624   5.232
 8941SOL    HW127722   6.362   2.571   5.147
 8941SOL    HW227723   6.304   2.706   5.219
 8942SOL     OW27724   0.407   4.744   5.080
 8942SOL    HW127725   0.391   4.726   5.177
 8942SOL    HW227726   0.324   4.725   5.029
 8943SOL     OW27727   3.813   4.266   6.711
 8943SOL    HW127728   3.743   4.330   6.678
 8943SOL    HW227729   3.778   4.216   6.790
 8944SOL     OW27730   5.329   4.764   4.995
 8944SOL    HW127731   5.254   4.781   4.932
 8944SOL    HW227732   5.306   4.688   5.056
 8945SOL     OW27733   1.219   0.867   3.584
 8945SOL    HW127734   1.193   0.772   3.574
 8945SOL    HW227735   1.272   0.896   3.504
 8946SOL     OW27736   2.943   1.237   4.957
 8946SOL    HW127737   3.005   1.168   4.920
 8946SOL    HW227738   2.979   1.272   5.043
 8947SOL     OW27739   1.772   3.740   4.867
 8947SOL    HW127740   1.869   3.764   4.859
 8947SOL    HW227741   1.758   3.683   4.948
 8948SOL     OW27742   6.606   6.407   4.400
 8948SOL    HW127743   6.511   6.393   4.428
 8948SOL    HW227744   6.630   6.342   4.329
 8949SOL     OW27745   2.263   0.180   0.716
 8949SOL    HW127746   2.348   0.207   0.670
 8949SOL    HW227747   2.214   0.113   0.660
 8950SOL     OW27748   4.840   3.518   5.915
 8950SOL    HW127749   4.831   3.447   5.985
 8950SOL    HW227750   4.749   3.549   5.888
 8951SOL     OW27751   0.505   1.926   4.749
 8951SOL    HW127752   0.443   1.857   4.786
 8951SOL    HW227753   0.462   1.972   4.672
 8952SOL     OW27754   1.522   6.923   2.450
 8952SOL    HW127755   1.542   6.830   2.482
 8952SOL    HW227756   1.448   6.962   2.506
 8953SOL     OW27757   0.956   4.038   6.747
 8953SOL    HW127758   1.011   4.115   6.778
 8953SOL    HW227759   0.892   4.069   6.676
 8954SOL     OW27760   1.207   6.564   6.199
 8954SOL    HW127761   1.162   6.572   6.288
 8954SOL    HW227762   1.305   6.547   6.213
 8955SOL     OW27763   0.929   4.605   2.540
 8955SOL    HW127764   0.934   4.506   2.527
 8955SOL    HW227765   0.897   4.647   2.455
 8956SOL     OW27766   0.530   1.714   6.950
 8956SOL    HW127767   0.500   1.779   6.880
 8956SOL    HW227768   0.626   1.692   6.937
 8957SOL     OW27769   3.164   4.223   1.752
 8957SOL    HW127770   3.143   4.195   1.845
 8957SOL    HW227771   3.124   4.159   1.687
 8958SOL     OW27772   0.963   0.223   4.306
 8958SOL    HW127773   0.967   0.205   4.405
 8958SOL    HW227774   1.012   0.308   4.286
 8959SOL     OW27775   1.393   4.680   1.657
 8959SOL    HW127776   1.434   4.683   1.748
 8959SOL    HW227777   1.318   4.613   1.656
 8960SOL     OW27778   4.711   5.564   2.916
 8960SOL    HW127779   4.666   5.480   2.886
 8960SOL    HW227780   4.650   5.615   2.976
 8961SOL     OW27781   2.407   2.287   4.518
 8961SOL    HW127782   2.468   2.331   4.584
 8961SOL    HW227783   2.325   2.343   4.505
 8962SOL     OW27784   6.660   6.498   2.654
 8962SOL    HW127785   6.603   6.561   2.602
 8962SOL    HW227786   6.680   6.417   2.598
 8963SOL     OW27787   5.239   6.447   3.906
 8963SOL    HW127788   5.238   6.347   3.907
 8963SOL    HW227789   5.294   6.478   3.829
 8964SOL     OW27790   5.445   3.828   3.174
 8964SOL    HW127791   5.511   3.848   3.247
 8964SOL    HW227792   5.378   3.762   3.207
 8965SOL     OW27793   2.317   4.717   0.521
 8965SOL    HW127794   2.302   4.753   0.613
 8965SOL    HW227795   2.269   4.630   0.510
 8966SOL     OW27796   0.620   4.095   5.658
 8966SOL    HW127797   0.641   4.136   5.569
 8966SOL    HW227798   0.521   4.081   5.665
 8967SOL     OW27799   3.881   6.181   2.078
 8967SOL    HW127800   3.796   6.162   2.127
 8967SOL    HW227801   3.864   6.178   1.980
 8968SOL     OW27802   5.331   4.856   2.805
 8968SOL    HW127803   5.395   4.823   2.736
 8968SOL    HW227804   5.380   4.874   2.890
 8969SOL     OW27805   6.736   0.345   3.993
 8969SOL    HW127806   6.835   0.357   3.993
 8969SOL    HW227807   6.693   0.425   3.951
 8970SOL     OW27808   2.817   3.021   0.300
 8970SOL    HW127809   2.842   3.083   0.375
 8970SOL    HW227810   2.778   3.074   0.224
 8971SOL     OW27811   4.843   5.253   1.744
 8971SOL    HW127812   4.802   5.270   1.655
 8971SOL    HW227813   4.816   5.162   1.777
 8972SOL     OW27814   4.939   4.688   6.268
 8972SOL    HW127815   4.937   4.628   6.187
 8972SOL    HW227816   4.891   4.643   6.343
 8973SOL     OW27817   0.785   3.216   1.970
 8973SOL    HW127818   0.780   3.171   1.881
 8973SOL    HW227819   0.830   3.155   2.036
 8974SOL     OW27820   1.841   4.438   5.626
 8974SOL    HW127821   1.750   4.441   5.668
 8974SOL    HW227822   1.832   4.444   5.526
 8975SOL     OW27823   2.373   0.095   6.761
 8975SOL    HW127824   2.416   0.185   6.766
 8975SOL    HW227825   2.298   0.090   6.827
 8976SOL     OW27826   0.165   4.882   4.795
 8976SOL    HW127827   0.209   4.942   4.728
 8976SOL    HW227828   0.126   4.938   4.868
 8977SOL     OW27829   5.597   1.382   6.844
 8977SOL    HW127830   5.586   1.432   6.930
 8977SOL    HW227831   5.559   1.290   6.855
 8978SOL     OW27832   5.568   0.176   6.230
 8978SOL    HW127833   5.573   0.195   6.132
 8978SOL    HW227834   5.585   0.079   6.246
 8979SOL     OW27835   1.274   3.150   4.745
 8979SOL    HW127836   1.225   3.062   4.749
 8979SOL    HW227837   1.317   3.167   4.834
 8980SOL     OW27838   2.358   3.227   5.420
 8980SOL    HW127839   2.299   3.169   5.477
 8980SOL    HW227840   2.371   3.183   5.331
 8981SOL     OW27841   4.306   1.606   5.312
 8981SOL    HW127842   4.334   1.691   5.267
 8981SOL    HW227843   4.368   1.585   5.387
 8982SOL     OW27844   1.908   1.523   0.493
 8982SOL    HW127845   1.861   1.465   0.560
 8982SOL    HW227846   1.960   1.594   0.541
 8983SOL     OW27847   1.691   6.128   6.586
 8983SOL    HW127848   1.686   6.149   6.683
 8983SOL    HW227849   1.674   6.030   6.572
 8984SOL     OW27850   0.546   6.730   4.427
 8984SOL    HW127851   0.466   6.685   4.388
 8984SOL    HW227852   0.629   6.681   4.397
 8985SOL     OW27853   2.725   3.437   0.555
 8985SOL    HW127854   2.700   3.364   0.492
 8985SOL    HW227855   2.654   3.447   0.624
 8986SOL     OW27856   4.357   5.446   2.568
 8986SOL    HW127857   4.407   5.528   2.541
 8986SOL    HW227858   4.265   5.449   2.531
 8987SOL     OW27859   4.400   6.916   1.904
 8987SOL    HW127860   4.453   6.901   1.821
 8987SOL    HW227861   4.443   6.869   1.981
 8988SOL     OW27862   1.148   4.391   5.076
 8988SOL    HW127863   1.151   4.330   4.997
 8988SOL    HW227864   1.061   4.378   5.124
 8989SOL     OW27865   5.038   3.298   0.229
 8989SOL    HW127866   5.080   3.254   0.150
 8989SOL    HW227867   5.107   3.349   0.279
 8990SOL     OW27868   1.508   5.520   4.923
 8990SOL    HW127869   1.567   5.463   4.980
 8990SOL    HW227870   1.548   5.611   4.914
 8991SOL     OW27871   1.062   2.612   5.650
 8991SOL    HW127872   1.083   2.708   5.667
 8991SOL    HW227873   1.093   2.586   5.559
 8992SOL     OW27874   5.197   1.220   6.988
 8992SOL    HW127875   5.244   1.133   7.001
 8992SOL    HW227876   5.159   1.251   0.049
 8993SOL     OW27877   4.994   2.705   1.535
 8993SOL    HW127878   5.049   2.637   1.486
 8993SOL    HW227879   5.042   2.793   1.535
 8994SOL     OW27880   1.092   3.779   4.771
 8994SOL    HW127881   1.042   3.854   4.815
 8994SOL    HW227882   1.182   3.812   4.744
 8995SOL     OW27883   1.494   2.776   0.194
 8995SOL    HW127884   1.413   2.733   0.154
 8995SOL    HW227885   1.573   2.760   0.134
 8996SOL     OW27886   5.087   4.406   0.199
 8996SOL    HW127887   5.001   4.400   0.148
 8996SOL    HW227888   5.072   4.459   0.282
 8997SOL     OW27889   5.258   1.727   5.902
 8997SOL    HW127890   5.300   1.680   5.824
 8997SOL    HW227891   5.311   1.709   5.985
 8998SOL     OW27892   5.873   3.426   3.687
 8998SOL    HW127893   5.948   3.380   3.640
 8998SOL    HW227894   5.909   3.492   3.752
 8999SOL     OW27895   4.643   6.475   6.180
 8999SOL    HW127896   4.725   6.520   6.145
 8999SOL    HW227897   4.563   6.534   6.164
 9000SOL     OW27898   1.728   3.505   1.870
 9000SOL    HW127899   1.775   3.487   1.957
 9000SOL    HW227900   1.644   3.452   1.866
 9001SOL     OW27901   1.161   5.248   2.266
 9001SOL    HW127902   1.132   5.275   2.358
 9001SOL    HW227903   1.259   5.228   2.266
 9002SOL     OW27904   1.423   5.198   5.299
 9002SOL    HW127905   1.343   5.140   5.309
 9002SOL    HW227906   1.442   5.245   5.385
 9003SOL     OW27907   5.754   3.357   1.497
 9003SOL    HW127908   5.837   3.363   1.441
 9003SOL    HW227909   5.774   3.391   1.589
 9004SOL     OW27910   4.200   5.956   0.989
 9004SOL    HW127911   4.116   5.992   1.031
 9004SOL    HW227912   4.277   5.972   1.051
 9005SOL     OW27913   6.228   2.375   4.591
 9005SOL    HW127914   6.316   2.391   4.636
 9005SOL    HW227915   6.243   2.361   4.493
 9006SOL     OW27916   2.141   5.515   1.061
 9006SOL    HW127917   2.201   5.480   0.989
 9006SOL    HW227918   2.195   5.533   1.144
 9007SOL     OW27919   3.557   1.018   3.357
 9007SOL    HW127920   3.549   0.921   3.332
 9007SOL    HW227921   3.627   1.029   3.428
 9008SOL     OW27922   1.441   5.450   3.801
 9008SOL    HW127923   1.521   5.466   3.742
 9008SOL    HW227924   1.376   5.525   3.791
 9009SOL     OW27925   2.914   6.499   0.686
 9009SOL    HW127926   2.827   6.489   0.637
 9009SOL    HW227927   2.923   6.425   0.753
 9010SOL     OW27928   1.020   6.381   3.979
 9010SOL    HW127929   1.089   6.381   3.907
 9010SOL    HW227930   1.066   6.377   4.068
 9011SOL     OW27931   4.877   1.424   1.574
 9011SOL    HW127932   4.831   1.367   1.643
 9011SOL    HW227933   4.919   1.503   1.618
 9012SOL     OW27934   1.648   4.523   0.341
 9012SOL    HW127935   1.631   4.601   0.400
 9012SOL    HW227936   1.746   4.519   0.318
 9013SOL     OW27937   0.322   6.778   5.610
 9013SOL    HW127938   0.346   6.704   5.671
 9013SOL    HW227939   0.391   6.786   5.538
 9014SOL     OW27940   7.017   2.288   0.877
 9014SOL    HW127941   0.074   2.324   0.917
 9014SOL    HW227942   6.938   2.334   0.917
 9015SOL     OW27943   4.545   2.116   1.539
 9015SOL    HW127944   4.555   2.017   1.547
 9015SOL    HW227945   4.455   2.144   1.572
 9016SOL     OW27946   0.142   6.657   6.340
 9016SOL    HW127947   0.058   6.648   6.286
 9016SOL    HW227948   0.187   6.743   6.319
 9017SOL     OW27949   4.653   1.732   3.929
 9017SOL    HW127950   4.678   1.751   3.834
 9017SOL    HW227951   4.722   1.674   3.971
 9018SOL     OW27952   3.233   2.804   6.622
 9018SOL    HW127953   3.313   2.864   6.628
 9018SOL    HW227954   3.220   2.776   6.527
 9019SOL     OW27955   1.475   5.183   2.310
 9019SOL    HW127956   1.498   5.279   2.329
 9019SOL    HW227957   1.476   5.168   2.211
 9020SOL     OW27958   6.919   4.368   0.870
 9020SOL    HW127959   6.949   4.435   0.938
 9020SOL    HW227960   6.904   4.280   0.914
 9021SOL     OW27961   6.954   0.089   3.720
 9021SOL    HW127962   6.992   0.121   3.807
 9021SOL    HW227963   6.958   7.016   3.717
 9022SOL     OW27964   3.128   1.298   6.621
 9022SOL    HW127965   3.125   1.392   6.587
 9022SOL    HW227966   3.127   1.299   6.721
 9023SOL     OW27967   3.310   2.898   2.614
 9023SOL    HW127968   3.333   2.924   2.707
 9023SOL    HW227969   3.263   2.974   2.568
 9024SOL     OW27970   0.859   3.954   5.202
 9024SOL    HW127971   0.837   3.893   5.279
 9024SOL    HW227972   0.933   4.016   5.228
 9025SOL     OW27973   0.919   5.427   1.085
 9025SOL    HW127974   0.979   5.470   1.018
 9025SOL    HW227975   0.870   5.497   1.137
 9026SOL     OW27976   3.720   2.761   0.672
 9026SOL    HW127977   3.720   2.834   0.740
 9026SOL    HW227978   3.801   2.703   0.685
 9027SOL     OW27979   1.283   2.787   3.021
 9027SOL    HW127980   1.325   2.877   3.014
 9027SOL    HW227981   1.318   2.739   3.102
 9028SOL     OW27982   2.979   3.201   5.103
 9028SOL    HW127983   2.982   3.220   5.005
 9028SOL    HW227984   2.984   3.288   5.153
 9029SOL     OW27985   3.660   6.637   4.736
 9029SOL    HW127986   3.566   6.672   4.741
 9029SOL    HW227987   3.704   6.646   4.825
 9030SOL     OW27988   2.770   1.885   3.186
 9030SOL    HW127989   2.764   1.787   3.171
 9030SOL    HW227990   2.767   1.933   3.098
 9031SOL     OW27991   4.085   5.998   4.652
 9031SOL    HW127992   4.013   5.935   4.623
 9031SOL    HW227993   4.108   6.060   4.576
 9032SOL     OW27994   3.704   3.747   0.810
 9032SOL    HW127995   3.748   3.718   0.725
 9032SOL    HW227996   3.771   3.748   0.884
 9033SOL     OW27997   6.836   3.949   2.910
 9033SOL    HW127998   6.780   3.867   2.893
 9033SOL    HW227999   6.840   3.966   3.009
 9034SOL     OW28000   3.382   6.210   4.434
 9034SOL    HW128001   3.292   6.221   4.393
 9034SOL    HW228002   3.377   6.227   4.532
 9035SOL     OW28003   2.597   4.544   0.082
 9035SOL    HW128004   2.505   4.504   0.086
 9035SOL    HW228005   2.634   4.553   0.174
 9036SOL     OW28006   2.227   3.067   5.574
 9036SOL    HW128007   2.164   3.004   5.529
 9036SOL    HW228008   2.233   3.045   5.671
 9037SOL     OW28009   1.007   3.943   4.965
 9037SOL    HW128010   0.923   3.952   5.019
 9037SOL    HW228011   1.080   3.994   5.009
 9038SOL     OW28012   4.156   0.763   6.583
 9038SOL    HW128013   4.167   0.822   6.663
 9038SOL    HW228014   4.090   0.804   6.520
 9039SOL     OW28015   2.369   5.639   5.730
 9039SOL    HW128016   2.420   5.613   5.812
 9039SOL    HW228017   2.322   5.726   5.746
 9040SOL     OW28018   3.044   2.213   2.580
 9040SOL    HW128019   3.008   2.233   2.489
 9040SOL    HW228020   3.143   2.198   2.575
 9041SOL     OW28021   1.257   1.979   1.731
 9041SOL    HW128022   1.348   2.012   1.708
 9041SOL    HW228023   1.239   1.894   1.682
 9042SOL     OW28024   3.801   6.403   4.712
 9042SOL    HW128025   3.725   6.469   4.706
 9042SOL    HW228026   3.851   6.418   4.797
 9043SOL     OW28027   1.558   0.624   6.729
 9043SOL    HW128028   1.560   0.614   6.828
 9043SOL    HW228029   1.634   0.573   6.689
 9044SOL     OW28030   6.518   0.086   0.680
 9044SOL    HW128031   6.545   7.016   0.679
 9044SOL    HW228032   6.452   0.102   0.752
 9045SOL     OW28033   3.139   1.818   2.732
 9045SOL    HW128034   3.224   1.867   2.713
 9045SOL    HW228035   3.147   1.724   2.697
 9046SOL     OW28036   3.471   4.038   2.938
 9046SOL    HW128037   3.438   4.074   2.850
 9046SOL    HW228038   3.395   4.033   3.003
 9047SOL     OW28039   1.988   3.791   5.369
 9047SOL    HW128040   1.983   3.884   5.405
 9047SOL    HW228041   2.079   3.776   5.330
 9048SOL     OW28042   5.730   3.173   5.542
 9048SOL    HW128043   5.767   3.108   5.476
 9048SOL    HW228044   5.681   3.122   5.614
 9049SOL     OW28045   3.574   6.588   6.028
 9049SOL    HW128046   3.622   6.624   5.948
 9049SOL    HW228047   3.496   6.533   5.998
 9050SOL     OW28048   1.175   3.396   0.790
 9050SOL    HW128049   1.109   3.444   0.848
 9050SOL    HW228050   1.137   3.307   0.763
 9051SOL     OW28051   3.746   6.990   1.200
 9051SOL    HW128052   3.778   6.896   1.208
 9051SOL    HW228053   3.772   0.015   1.281
 9052SOL     OW28054   2.344   2.172   3.536
 9052SOL    HW128055   2.427   2.201   3.488
 9052SOL    HW228056   2.347   2.204   3.631
 9053SOL     OW28057   1.873   1.319   2.731
 9053SOL    HW128058   1.854   1.376   2.651
 9053SOL    HW228059   1.889   1.225   2.701
 9054SOL     OW28060   2.970   5.862   3.814
 9054SOL    HW128061   2.871   5.865   3.799
 9054SOL    HW228062   3.015   5.828   3.732
 9055SOL     OW28063   6.047   2.902   4.671
 9055SOL    HW128064   6.027   2.974   4.604
 9055SOL    HW228065   6.076   2.944   4.757
 9056SOL     OW28066   0.981   2.628   1.673
 9056SOL    HW128067   0.921   2.551   1.651
 9056SOL    HW228068   1.037   2.651   1.593
 9057SOL     OW28069   5.057   3.132   5.882
 9057SOL    HW128070   5.024   3.192   5.809
 9057SOL    HW228071   5.142   3.088   5.853
 9058SOL     OW28072   1.938   0.736   1.742
 9058SOL    HW128073   1.984   0.665   1.795
 9058SOL    HW228074   1.953   0.721   1.645
 9059SOL     OW28075   1.623   1.809   3.349
 9059SOL    HW128076   1.664   1.790   3.260
 9059SOL    HW228077   1.566   1.732   3.377
 9060SOL     OW28078   6.393   2.966   4.489
 9060SOL    HW128079   6.454   2.997   4.416
 9060SOL    HW228080   6.340   2.888   4.458
 9061SOL     OW28081   2.289   5.753   2.067
 9061SOL    HW128082   2.358   5.728   1.999
 9061SOL    HW228083   2.328   5.819   2.131
 9062SOL     OW28084   1.163   6.609   2.440
 9062SOL    HW128085   1.252   6.619   2.484
 9062SOL    HW228086   1.138   6.512   2.438
 9063SOL     OW28087   3.301   0.589   3.975
 9063SOL    HW128088   3.344   0.628   4.056
 9063SOL    HW228089   3.223   0.646   3.948
 9064SOL     OW28090   6.022   2.192   5.927
 9064SOL    HW128091   6.103   2.251   5.921
 9064SOL    HW228092   5.956   2.232   5.991
 9065SOL     OW28093   3.666   1.173   6.881
 9065SOL    HW128094   3.713   1.165   6.969
 9065SOL    HW228095   3.626   1.085   6.857
 9066SOL     OW28096   5.649   6.711   0.547
 9066SOL    HW128097   5.735   6.662   0.530
 9066SOL    HW228098   5.644   6.738   0.643
 9067SOL     OW28099   0.972   0.474   4.208
 9067SOL    HW128100   0.921   0.560   4.207
 9067SOL    HW228101   1.051   0.482   4.148
 9068SOL     OW28102   1.463   6.338   4.091
 9068SOL    HW128103   1.507   6.370   4.008
 9068SOL    HW228104   1.431   6.244   4.078
 9069SOL     OW28105   1.516   3.061   1.760
 9069SOL    HW128106   1.502   2.982   1.819
 9069SOL    HW228107   1.600   3.049   1.707
 9070SOL     OW28108   1.497   3.502   5.144
 9070SOL    HW128109   1.411   3.502   5.093
 9070SOL    HW228110   1.482   3.464   5.235
 9071SOL     OW28111   6.664   7.025   1.958
 9071SOL    HW128112   6.759   0.002   1.926
 9071SOL    HW228113   6.650   6.942   2.012
 9072SOL     OW28114   0.629   2.080   1.028
 9072SOL    HW128115   0.619   2.027   1.112
 9072SOL    HW228116   0.712   2.136   1.034
 9073SOL     OW28117   2.591   6.709   2.475
 9073SOL    HW128118   2.652   6.630   2.471
 9073SOL    HW228119   2.499   6.681   2.448
 9074SOL     OW28120   1.239   0.484   2.490
 9074SOL    HW128121   1.313   0.526   2.543
 9074SOL    HW228122   1.205   0.550   2.423
 9075SOL     OW28123   6.982   1.026   2.088
 9075SOL    HW128124   0.050   1.042   2.118
 9075SOL    HW228125   6.958   0.931   2.103
 9076SOL     OW28126   0.146   1.635   6.048
 9076SOL    HW128127   0.147   1.596   5.956
 9076SOL    HW228128   0.064   1.605   6.097
 9077SOL     OW28129   4.768   0.400   1.070
 9077SOL    HW128130   4.796   0.341   1.145
 9077SOL    HW228131   4.820   0.376   0.988
 9078SOL     OW28132   3.557   3.520   5.117
 9078SOL    HW128133   3.559   3.601   5.058
 9078SOL    HW228134   3.501   3.449   5.073
 9079SOL     OW28135   2.754   0.873   4.518
 9079SOL    HW128136   2.729   0.860   4.422
 9079SOL    HW228137   2.727   0.792   4.571
 9080SOL     OW28138   4.853   2.495   6.686
 9080SOL    HW128139   4.886   2.401   6.676
 9080SOL    HW228140   4.788   2.516   6.613
 9081SOL     OW28141   4.228   6.919   2.277
 9081SOL    HW128142   4.278   6.925   2.363
 9081SOL    HW228143   4.275   6.973   2.207
 9082SOL     OW28144   2.346   0.385   5.269
 9082SOL    HW128145   2.277   0.454   5.247
 9082SOL    HW228146   2.317   0.334   5.351
 9083SOL     OW28147   3.576   5.040   6.334
 9083SOL    HW128148   3.667   5.068   6.304
 9083SOL    HW228149   3.524   5.007   6.256
 9084SOL     OW28150   3.270   3.848   3.015
 9084SOL    HW128151   3.334   3.800   2.955
 9084SOL    HW228152   3.252   3.793   3.096
 9085SOL     OW28153   2.333   0.396   0.991
 9085SOL    HW128154   2.363   0.484   1.028
 9085SOL    HW228155   2.270   0.411   0.915
 9086SOL     OW28156   0.551   4.445   0.412
 9086SOL    HW128157   0.594   4.377   0.352
 9086SOL    HW228158   0.460   4.413   0.439
 9087SOL     OW28159   4.743   2.391   1.334
 9087SOL    HW128160   4.725   2.489   1.348
 9087SOL    HW228161   4.765   2.375   1.238
 9088SOL     OW28162   6.601   0.008   1.305
 9088SOL    HW128163   6.536   0.083   1.317
 9088SOL    HW228164   6.624   6.995   1.394
 9089SOL     OW28165   5.081   6.507   5.689
 9089SOL    HW128166   5.110   6.569   5.762
 9089SOL    HW228167   5.024   6.556   5.624
 9090SOL     OW28168   5.951   1.324   5.410
 9090SOL    HW128169   5.876   1.280   5.460
 9090SOL    HW228170   5.932   1.422   5.401
 9091SOL     OW28171   3.109   3.922   0.030
 9091SOL    HW128172   3.022   3.896   0.071
 9091SOL    HW228173   3.164   3.972   0.097
 9092SOL     OW28174   6.425   0.902   6.752
 9092SOL    HW128175   6.437   0.954   6.836
 9092SOL    HW228176   6.390   0.963   6.680
 9093SOL     OW28177   1.406   6.401   5.070
 9093SOL    HW128178   1.388   6.500   5.063
 9093SOL    HW228179   1.478   6.376   5.005
 9094SOL     OW28180   6.204   4.490   2.718
 9094SOL    HW128181   6.170   4.399   2.742
 9094SOL    HW228182   6.298   4.500   2.751
 9095SOL     OW28183   4.511   4.552   6.279
 9095SOL    HW128184   4.469   4.630   6.325
 9095SOL    HW228185   4.481   4.549   6.184
 9096SOL     OW28186   6.397   5.548   2.922
 9096SOL    HW128187   6.325   5.545   2.852
 9096SOL    HW228188   6.403   5.640   2.959
 9097SOL     OW28189   2.246   2.231   0.363
 9097SOL    HW128190   2.326   2.171   0.359
 9097SOL    HW228191   2.163   2.176   0.370
 9098SOL     OW28192   2.950   1.877   5.088
 9098SOL    HW128193   2.929   1.963   5.042
 9098SOL    HW228194   3.003   1.818   5.026
 9099SOL     OW28195   2.604   3.170   6.460
 9099SOL    HW128196   2.599   3.235   6.384
 9099SOL    HW228197   2.530   3.189   6.525
 9100SOL     OW28198   0.781   3.524   3.143
 9100SOL    HW128199   0.835   3.440   3.150
 9100SOL    HW228200   0.740   3.545   3.232
 9101SOL     OW28201   2.594   1.437   2.242
 9101SOL    HW128202   2.570   1.342   2.260
 9101SOL    HW228203   2.674   1.462   2.296
 9102SOL     OW28204   3.198   6.894   2.102
 9102SOL    HW128205   3.144   6.867   2.022
 9102SOL    HW228206   3.277   6.834   2.111
 9103SOL     OW28207   5.453   1.599   0.514
 9103SOL    HW128208   5.382   1.572   0.579
 9103SOL    HW228209   5.431   1.688   0.475
 9104SOL     OW28210   0.029   6.748   1.535
 9104SOL    HW128211   7.024   6.780   1.624
 9104SOL    HW228212   0.079   6.662   1.546
 9105SOL     OW28213   1.511   0.271   5.345
 9105SOL    HW128214   1.411   0.281   5.349
 9105SOL    HW228215   1.547   0.324   5.269
 9106SOL     OW28216   0.203   2.922   0.795
 9106SOL    HW128217   0.109   2.928   0.831
 9106SOL    HW228218   0.244   3.014   0.795
 9107SOL     OW28219   1.811   0.910   6.937
 9107SOL    HW128220   1.888   0.972   6.932
 9107SOL    HW228221   1.765   0.921   7.025
 9108SOL     OW28222   4.531   4.261   5.628
 9108SOL    HW128223   4.519   4.304   5.538
 9108SOL    HW228224   4.458   4.194   5.643
 9109SOL     OW28225   4.887   3.065   3.312
 9109SOL    HW128226   4.812   3.087   3.249
 9109SOL    HW228227   4.973   3.096   3.272
 9110SOL     OW28228   1.418   5.544   4.157
 9110SOL    HW128229   1.485   5.590   4.099
 9110SOL    HW228230   1.393   5.604   4.233
 9111SOL     OW28231   4.598   2.830   6.895
 9111SOL    HW128232   4.683   2.848   6.945
 9111SOL    HW228233   4.610   2.858   6.800
 9112SOL     OW28234   1.297   5.186   2.736
 9112SOL    HW128235   1.353   5.132   2.674
 9112SOL    HW228236   1.289   5.138   2.824
 9113SOL     OW28237   4.942   2.673   3.693
 9113SOL    HW128238   4.949   2.575   3.674
 9113SOL    HW228239   5.019   2.721   3.652
 9114SOL     OW28240   0.935   5.451   4.114
 9114SOL    HW128241   0.896   5.359   4.126
 9114SOL    HW228242   0.935   5.499   4.201
 9115SOL     OW28243   6.298   5.436   4.582
 9115SOL    HW128244   6.250   5.430   4.669
 9115SOL    HW228245   6.298   5.531   4.549
 9116SOL     OW28246   6.648   0.230   3.041
 9116SOL    HW128247   6.687   0.202   2.953
 9116SOL    HW228248   6.716   0.281   3.092
 9117SOL     OW28249   4.675   2.027   6.389
 9117SOL    HW128250   4.691   2.017   6.291
 9117SOL    HW228251   4.577   2.031   6.407
 9118SOL     OW28252   6.218   3.479   0.019
 9118SOL    HW128253   6.250   3.447   0.108
 9118SOL    HW228254   6.138   3.537   0.031
 9119SOL     OW28255   4.201   0.387   1.469
 9119SOL    HW128256   4.152   0.454   1.525
 9119SOL    HW228257   4.285   0.428   1.434
 9120SOL     OW28258   6.615   2.774   5.678
 9120SOL    HW128259   6.612   2.846   5.747
 9120SOL    HW228260   6.708   2.768   5.641
 9121SOL     OW28261   4.159   6.510   5.570
 9121SOL    HW128262   4.176   6.487   5.474
 9121SOL    HW228263   4.245   6.538   5.613
 9122SOL     OW28264   2.347   4.086   1.959
 9122SOL    HW128265   2.316   4.159   2.019
 9122SOL    HW228266   2.430   4.045   1.996
 9123SOL     OW28267   1.359   0.277   3.940
 9123SOL    HW128268   1.393   0.234   4.023
 9123SOL    HW228269   1.259   0.281   3.942
 9124SOL     OW28270   3.942   5.557   1.771
 9124SOL    HW128271   3.966   5.460   1.770
 9124SOL    HW228272   4.022   5.611   1.796
 9125SOL     OW28273   3.580   4.447   1.035
 9125SOL    HW128274   3.565   4.498   0.950
 9125SOL    HW228275   3.499   4.456   1.094
 9126SOL     OW28276   4.900   3.838   0.683
 9126SOL    HW128277   4.973   3.824   0.750
 9126SOL    HW228278   4.867   3.750   0.650
 9127SOL     OW28279   6.703   2.677   4.748
 9127SOL    HW128280   6.614   2.697   4.708
 9127SOL    HW228281   6.768   2.655   4.675
 9128SOL     OW28282   6.545   2.414   4.659
 9128SOL    HW128283   6.599   2.410   4.742
 9128SOL    HW228284   6.597   2.462   4.588
 9129SOL     OW28285   1.184   2.385   0.836
 9129SOL    HW128286   1.197   2.297   0.882
 9129SOL    HW228287   1.130   2.445   0.895
 9130SOL     OW28288   0.611   4.269   5.868
 9130SOL    HW128289   0.607   4.173   5.841
 9130SOL    HW228290   0.664   4.277   5.953
 9131SOL     OW28291   5.592   2.906   0.014
 9131SOL    HW128292   5.541   2.829   7.002
 9131SOL    HW228293   5.577   2.910   0.113
 9132SOL     OW28294   0.770   4.914   4.174
 9132SOL    HW128295   0.768   4.880   4.080
 9132SOL    HW228296   0.860   4.895   4.215
 9133SOL     OW28297   2.842   1.095   1.153
 9133SOL    HW128298   2.933   1.124   1.181
 9133SOL    HW228299   2.804   1.034   1.223
 9134SOL     OW28300   4.209   5.400   0.782
 9134SOL    HW128301   4.304   5.401   0.750
 9134SOL    HW228302   4.161   5.480   0.747
 9135SOL     OW28303   1.388   6.624   1.484
 9135SOL    HW128304   1.407   6.527   1.499
 9135SOL    HW228305   1.309   6.651   1.539
 9136SOL     OW28306   4.675   5.594   5.537
 9136SOL    HW128307   4.637   5.671   5.486
 9136SOL    HW228308   4.758   5.623   5.585
 9137SOL     OW28309   4.607   6.412   5.598
 9137SOL    HW128310   4.548   6.486   5.629
 9137SOL    HW228311   4.685   6.403   5.659
 9138SOL     OW28312   2.039   3.074   0.780
 9138SOL    HW128313   1.990   2.995   0.742
 9138SOL    HW228314   2.126   3.085   0.732
 9139SOL     OW28315   0.954   1.262   1.220
 9139SOL    HW128316   0.964   1.188   1.154
 9139SOL    HW228317   0.864   1.256   1.264
 9140SOL     OW28318   0.438   4.708   1.744
 9140SOL    HW128319   0.339   4.700   1.734
 9140SOL    HW228320   0.483   4.632   1.696
 9141SOL     OW28321   0.027   5.925   6.859
 9141SOL    HW128322   7.010   5.902   6.772
 9141SOL    HW228323   0.088   5.851   6.888
 9142SOL     OW28324   0.162   2.617   2.678
 9142SOL    HW128325   0.119   2.684   2.738
 9142SOL    HW228326   0.261   2.631   2.678
 9143SOL     OW28327   0.018   3.586   1.471
 9143SOL    HW128328   6.958   3.624   1.437
 9143SOL    HW228329   0.085   3.659   1.480
 9144SOL     OW28330   2.893   4.856   4.851
 9144SOL    HW128331   2.864   4.773   4.899
 9144SOL    HW228332   2.902   4.837   4.754
 9145SOL     OW28333   1.552   0.344   6.514
 9145SOL    HW128334   1.505   0.313   6.598
 9145SOL    HW228335   1.631   0.285   6.497
 9146SOL     OW28336   6.045   2.871   3.527
 9146SOL    HW128337   6.131   2.920   3.539
 9146SOL    HW228338   5.999   2.862   3.615
 9147SOL     OW28339   5.936   0.344   5.140
 9147SOL    HW128340   5.867   0.370   5.208
 9147SOL    HW228341   5.955   0.421   5.080
 9148SOL     OW28342   6.062   0.170   1.852
 9148SOL    HW128343   6.157   0.141   1.853
 9148SOL    HW228344   6.038   0.208   1.941
 9149SOL     OW28345   5.654   2.730   1.969
 9149SOL    HW128346   5.597   2.650   1.990
 9149SOL    HW228347   5.675   2.731   1.871
 9150SOL     OW28348   3.177   4.827   0.285
 9150SOL    HW128349   3.212   4.765   0.215
 9150SOL    HW228350   3.162   4.777   0.370
 9151SOL     OW28351   2.155   3.829   3.991
 9151SOL    HW128352   2.105   3.786   4.067
 9151SOL    HW228353   2.229   3.885   4.027
 9152SOL     OW28354   1.866   3.811   4.264
 9152SOL    HW128355   1.777   3.855   4.271
 9152SOL    HW228356   1.865   3.746   4.189
 9153SOL     OW28357   0.613   2.735   6.378
 9153SOL    HW128358   0.629   2.696   6.469
 9153SOL    HW228359   0.652   2.827   6.374
 9154SOL     OW28360   5.223   5.181   2.996
 9154SOL    HW128361   5.218   5.092   3.041
 9154SOL    HW228362   5.263   5.248   3.059
 9155SOL     OW28363   2.000   4.997   2.189
 9155SOL    HW128364   2.029   5.089   2.160
 9155SOL    HW228365   2.080   4.936   2.191
 9156SOL     OW28366   0.062   2.914   1.355
 9156SOL    HW128367   0.136   2.955   1.409
 9156SOL    HW228368   7.000   2.938   1.396
 9157SOL     OW28369   3.110   4.225   6.357
 9157SOL    HW128370   3.142   4.148   6.412
 9157SOL    HW228371   3.011   4.219   6.345
 9158SOL     OW28372   6.585   4.193   3.881
 9158SOL    HW128373   6.648   4.146   3.944
 9158SOL    HW228374   6.520   4.247   3.934
 9159SOL     OW28375   2.562   0.070   3.208
 9159SOL    HW128376   2.657   0.044   3.224
 9159SOL    HW228377   2.525   0.020   3.130
 9160SOL     OW28378   0.313   4.995   6.940
 9160SOL    HW128379   0.227   5.046   6.929
 9160SOL    HW228380   0.390   5.058   6.938
 9161SOL     OW28381   5.937   4.169   2.063
 9161SOL    HW128382   5.995   4.185   2.143
 9161SOL    HW228383   5.906   4.257   2.027
 9162SOL     OW28384   3.880   1.421   2.421
 9162SOL    HW128385   3.887   1.477   2.503
 9162SOL    HW228386   3.947   1.347   2.425
 9163SOL     OW28387   6.971   2.469   1.945
 9163SOL    HW128388   6.994   2.566   1.953
 9163SOL    HW228389   6.950   2.433   2.036
 9164SOL     OW28390   2.688   0.335   6.835
 9164SOL    HW128391   2.622   0.388   6.889
 9164SOL    HW228392   2.777   0.380   6.836
 9165SOL     OW28393   4.635   2.317   5.644
 9165SOL    HW128394   4.616   2.375   5.565
 9165SOL    HW228395   4.652   2.375   5.724
 9166SOL     OW28396   3.953   5.536   1.336
 9166SOL    HW128397   3.969   5.477   1.415
 9166SOL    HW228398   4.035   5.539   1.280
 9167SOL     OW28399   1.024   2.044   6.341
 9167SOL    HW128400   1.053   1.949   6.328
 9167SOL    HW228401   0.943   2.047   6.400
 9168SOL     OW28402   6.175   4.827   5.815
 9168SOL    HW128403   6.094   4.775   5.842
 9168SOL    HW228404   6.256   4.768   5.821
 9169SOL     OW28405   6.707   6.328   6.391
 9169SOL    HW128406   6.669   6.335   6.483
 9169SOL    HW228407   6.633   6.329   6.324
 9170SOL     OW28408   1.978   1.579   5.680
 9170SOL    HW128409   1.946   1.674   5.671
 9170SOL    HW228410   1.909   1.524   5.726
 9171SOL     OW28411   2.741   5.155   0.883
 9171SOL    HW128412   2.837   5.167   0.859
 9171SOL    HW228413   2.699   5.089   0.820
 9172SOL     OW28414   4.837   1.450   5.063
 9172SOL    HW128415   4.788   1.374   5.105
 9172SOL    HW228416   4.780   1.493   4.993
 9173SOL     OW28417   6.873   2.232   4.002
 9173SOL    HW128418   6.795   2.180   3.968
 9173SOL    HW228419   6.950   2.222   3.938
 9174SOL     OW28420   0.762   6.251   0.311
 9174SOL    HW128421   0.739   6.209   0.399
 9174SOL    HW228422   0.810   6.338   0.327
 9175SOL     OW28423   1.548   6.829   0.572
 9175SOL    HW128424   1.453   6.830   0.540
 9175SOL    HW228425   1.568   6.916   0.618
 9176SOL     OW28426   2.173   1.006   3.107
 9176SOL    HW128427   2.085   1.029   3.064
 9176SOL    HW228428   2.239   1.079   3.089
 9177SOL     OW28429   0.616   3.258   3.664
 9177SOL    HW128430   0.636   3.218   3.575
 9177SOL    HW228431   0.517   3.266   3.676
 9178SOL     OW28432   1.931   6.216   6.454
 9178SOL    HW128433   1.846   6.196   6.503
 9178SOL    HW228434   2.003   6.154   6.485
 9179SOL     OW28435   3.313   5.957   5.515
 9179SOL    HW128436   3.333   5.962   5.417
 9179SOL    HW228437   3.399   5.954   5.566
 9180SOL     OW28438   6.736   2.152   4.459
 9180SOL    HW128439   6.660   2.203   4.419
 9180SOL    HW228440   6.770   2.200   4.540
 9181SOL     OW28441   4.624   2.199   3.756
 9181SOL    HW128442   4.529   2.221   3.780
 9181SOL    HW228443   4.642   2.229   3.662
 9182SOL     OW28444   1.800   1.107   2.998
 9182SOL    HW128445   1.739   1.168   2.948
 9182SOL    HW228446   1.893   1.117   2.964
 9183SOL     OW28447   5.031   2.680   6.786
 9183SOL    HW128448   4.979   2.608   6.739
 9183SOL    HW228449   5.007   2.680   6.883
 9184SOL     OW28450   3.295   2.862   0.867
 9184SOL    HW128451   3.361   2.791   0.843
 9184SOL    HW228452   3.211   2.848   0.815
 9185SOL     OW28453   0.169   0.057   6.167
 9185SOL    HW128454   0.135   0.062   6.073
 9185SOL    HW228455   0.205   6.992   6.185
 9186SOL     OW28456   4.401   0.580   6.204
 9186SOL    HW128457   4.383   0.640   6.282
 9186SOL    HW228458   4.388   0.485   6.232
 9187SOL     OW28459   4.927   2.082   6.878
 9187SOL    HW128460   4.872   2.026   6.816
 9187SOL    HW228461   4.869   2.152   6.920
 9188SOL     OW28462   1.105   0.427   0.949
 9188SOL    HW128463   1.166   0.486   0.897
 9188SOL    HW228464   1.020   0.413   0.898
 9189SOL     OW28465   2.916   1.122   3.301
 9189SOL    HW128466   2.836   1.116   3.242
 9189SOL    HW228467   2.983   1.053   3.273
 9190SOL     OW28468   5.661   3.763   5.303
 9190SOL    HW128469   5.563   3.783   5.308
 9190SOL    HW228470   5.675   3.665   5.291
 9191SOL     OW28471   5.430   6.412   6.613
 9191SOL    HW128472   5.352   6.468   6.641
 9191SOL    HW228473   5.504   6.423   6.679
 9192SOL     OW28474   6.526   3.899   5.512
 9192SOL    HW128475   6.501   3.890   5.608
 9192SOL    HW228476   6.625   3.892   5.502
 9193SOL     OW28477   3.339   3.199   3.853
 9193SOL    HW128478   3.388   3.257   3.788
 9193SOL    HW228479   3.266   3.251   3.897
 9194SOL     OW28480   3.371   6.008   2.258
 9194SOL    HW128481   3.365   6.091   2.203
 9194SOL    HW228482   3.466   5.976   2.259
 9195SOL     OW28483   0.625   2.772   3.334
 9195SOL    HW128484   0.691   2.804   3.266
 9195SOL    HW228485   0.638   2.674   3.350
 9196SOL     OW28486   3.552   0.527   3.747
 9196SOL    HW128487   3.508   0.481   3.824
 9196SOL    HW228488   3.630   0.580   3.780
 9197SOL     OW28489   2.660   3.585   0.190
 9197SOL    HW128490   2.573   3.617   0.152
 9197SOL    HW228491   2.717   3.548   0.117
 9198SOL     OW28492   5.703   4.205   5.736
 9198SOL    HW128493   5.690   4.124   5.794
 9198SOL    HW228494   5.615   4.249   5.719
 9199SOL     OW28495   1.002   4.039   5.943
 9199SOL    HW128496   1.093   4.078   5.960
 9199SOL    HW228497   1.009   3.940   5.937
 9200SOL     OW28498   0.119   6.278   0.849
 9200SOL    HW128499   0.154   6.372   0.846
 9200SOL    HW228500   0.114   6.247   0.944
 9201SOL     OW28501   0.476   4.396   1.838
 9201SOL    HW128502   0.546   4.439   1.780
 9201SOL    HW228503   0.444   4.312   1.795
 9202SOL     OW28504   1.865   4.912   4.447
 9202SOL    HW128505   1.773   4.943   4.470
 9202SOL    HW228506   1.892   4.838   4.509
 9203SOL     OW28507   5.134   1.477   6.620
 9203SOL    HW128508   5.156   1.461   6.524
 9203SOL    HW228509   5.216   1.466   6.675
 9204SOL     OW28510   5.669   4.107   2.819
 9204SOL    HW128511   5.682   4.196   2.864
 9204SOL    HW228512   5.736   4.042   2.855
 9205SOL     OW28513   5.136   3.300   2.467
 9205SOL    HW128514   5.060   3.358   2.498
 9205SOL    HW228515   5.102   3.235   2.399
 9206SOL     OW28516   2.467   6.407   4.585
 9206SOL    HW128517   2.516   6.430   4.501
 9206SOL    HW228518   2.468   6.486   4.647
 9207SOL     OW28519   3.946   6.448   6.018
 9207SOL    HW128520   4.037   6.488   6.019
 9207SOL    HW228521   3.902   6.463   6.107
 9208SOL     OW28522   4.926   3.333   2.199
 9208SOL    HW128523   4.894   3.240   2.184
 9208SOL    HW228524   4.976   3.365   2.118
 9209SOL     OW28525   4.356   1.042   2.526
 9209SOL    HW128526   4.343   1.139   2.547
 9209SOL    HW228527   4.389   0.994   2.608
 9210SOL     OW28528   2.178   6.540   1.494
 9210SOL    HW128529   2.080   6.549   1.480
 9210SOL    HW228530   2.227   6.592   1.424
 9211SOL     OW28531   5.607   1.503   6.133
 9211SOL    HW128532   5.661   1.456   6.064
 9211SOL    HW228533   5.666   1.527   6.211
 9212SOL     OW28534   4.546   4.531   4.544
 9212SOL    HW128535   4.632   4.519   4.592
 9212SOL    HW228536   4.495   4.606   4.585
 9213SOL     OW28537   5.967   0.127   4.727
 9213SOL    HW128538   6.062   0.151   4.745
 9213SOL    HW228539   5.939   0.163   4.638
 9214SOL     OW28540   1.490   2.783   4.685
 9214SOL    HW128541   1.496   2.808   4.781
 9214SOL    HW228542   1.478   2.684   4.676
 9215SOL     OW28543   0.317   4.086   2.508
 9215SOL    HW128544   0.307   4.150   2.433
 9215SOL    HW228545   0.345   3.997   2.472
 9216SOL     OW28546   2.710   5.973   4.832
 9216SOL    HW128547   2.674   5.881   4.817
 9216SOL    HW228548   2.771   5.998   4.756
 9217SOL     OW28549   5.153   1.104   6.266
 9217SOL    HW128550   5.134   1.100   6.364
 9217SOL    HW228551   5.067   1.094   6.215
 9218SOL     OW28552   5.170   0.064   6.864
 9218SOL    HW128553   5.126   7.002   6.846
 9218SOL    HW228554   5.269   0.052   6.866
 9219SOL     OW28555   3.784   3.215   5.306
 9219SOL    HW128556   3.739   3.215   5.216
 9219SOL    HW228557   3.758   3.133   5.356
 9220SOL     OW28558   2.416   6.278   3.049
 9220SOL    HW128559   2.363   6.328   2.980
 9220SOL    HW228560   2.370   6.286   3.138
 9221SOL     OW28561   2.853   0.395   5.913
 9221SOL    HW128562   2.926   0.363   5.974
 9221SOL    HW228563   2.798   0.464   5.960
 9222SOL     OW28564   2.391   4.677   4.001
 9222SOL    HW128565   2.350   4.761   4.035
 9222SOL    HW228566   2.422   4.691   3.907
 9223SOL     OW28567   1.190   4.099   4.368
 9223SOL    HW128568   1.124   4.173   4.378
 9223SOL    HW228569   1.166   4.043   4.288
 9224SOL     OW28570   1.340   4.117   3.929
 9224SOL    HW128571   1.423   4.172   3.941
 9224SOL    HW228572   1.302   4.133   3.838
 9225SOL     OW28573   3.833   6.562   5.809
 9225SOL    HW128574   3.863   6.510   5.889
 9225SOL    HW228575   3.873   6.653   5.812
 9226SOL     OW28576   0.948   6.774   1.139
 9226SOL    HW128577   0.931   6.856   1.194
 9226SOL    HW228578   0.867   6.715   1.141
 9227SOL     OW28579   1.682   5.465   0.914
 9227SOL    HW128580   1.710   5.422   0.827
 9227SOL    HW228581   1.756   5.455   0.981
 9228SOL     OW28582   1.999   2.492   5.701
 9228SOL    HW128583   1.935   2.475   5.775
 9228SOL    HW228584   2.047   2.578   5.717
 9229SOL     OW28585   0.876   4.846   6.977
 9229SOL    HW128586   0.956   4.895   7.012
 9229SOL    HW228587   0.813   4.827   0.027
 9230SOL     OW28588   5.153   2.466   4.554
 9230SOL    HW128589   5.062   2.496   4.527
 9230SOL    HW228590   5.199   2.425   4.476
 9231SOL     OW28591   0.445   4.749   5.364
 9231SOL    HW128592   0.511   4.823   5.348
 9231SOL    HW228593   0.470   4.698   5.446
 9232SOL     OW28594   1.951   5.404   1.935
 9232SOL    HW128595   1.983   5.380   1.843
 9232SOL    HW228596   1.977   5.499   1.956
 9233SOL     OW28597   0.550   6.191   0.545
 9233SOL    HW128598   0.522   6.277   0.501
 9233SOL    HW228599   0.476   6.159   0.605
 9234SOL     OW28600   2.175   5.274   1.362
 9234SOL    HW128601   2.075   5.280   1.373
 9234SOL    HW228602   2.214   5.227   1.440
 9235SOL     OW28603   2.018   2.508   3.277
 9235SOL    HW128604   2.077   2.430   3.302
 9235SOL    HW228605   2.075   2.586   3.253
 9236SOL     OW28606   1.884   3.853   0.064
 9236SOL    HW128607   1.883   3.909   7.007
 9236SOL    HW228608   1.979   3.830   0.087
 9237SOL     OW28609   6.282   5.553   3.252
 9237SOL    HW128610   6.265   5.548   3.351
 9237SOL    HW228611   6.287   5.649   3.224
 9238SOL     OW28612   1.972   3.326   5.496
 9238SOL    HW128613   1.955   3.244   5.550
 9238SOL    HW228614   2.059   3.368   5.525
 9239SOL     OW28615   6.785   4.428   0.251
 9239SOL    HW128616   6.752   4.333   0.253
 9239SOL    HW228617   6.722   4.486   0.303
 9240SOL     OW28618   4.879   3.110   3.045
 9240SOL    HW128619   4.834   3.100   2.956
 9240SOL    HW228620   4.972   3.075   3.039
 9241SOL     OW28621   0.123   5.677   6.969
 9241SOL    HW128622   0.112   5.589   7.015
 9241SOL    HW228623   0.196   5.729   7.012
 9242SOL     OW28624   1.856   2.265   2.065
 9242SOL    HW128625   1.822   2.320   1.988
 9242SOL    HW228626   1.833   2.310   2.151
 9243SOL     OW28627   0.588   6.592   1.807
 9243SOL    HW128628   0.687   6.599   1.789
 9243SOL    HW228629   0.573   6.584   1.905
 9244SOL     OW28630   3.271   6.485   5.481
 9244SOL    HW128631   3.329   6.404   5.476
 9244SOL    HW228632   3.328   6.567   5.472
 9245SOL     OW28633   1.237   4.117   3.652
 9245SOL    HW128634   1.311   4.133   3.587
 9245SOL    HW228635   1.149   4.135   3.607
 9246SOL     OW28636   6.235   0.184   4.807
 9246SOL    HW128637   6.302   0.119   4.841
 9246SOL    HW228638   6.283   0.261   4.764
 9247SOL     OW28639   3.631   5.480   2.923
 9247SOL    HW128640   3.595   5.547   2.988
 9247SOL    HW228641   3.707   5.520   2.872
 9248SOL     OW28642   2.739   1.424   4.972
 9248SOL    HW128643   2.665   1.357   4.967
 9248SOL    HW228644   2.827   1.377   4.979
 9249SOL     OW28645   3.711   4.832   1.654
 9249SOL    HW128646   3.652   4.896   1.606
 9249SOL    HW228647   3.658   4.784   1.724
 9250SOL     OW28648   7.014   5.092   4.033
 9250SOL    HW128649   6.928   5.044   4.053
 9250SOL    HW228650   0.059   5.026   4.010
 9251SOL     OW28651   3.905   2.594   1.254
 9251SOL    HW128652   3.907   2.691   1.278
 9251SOL    HW228653   3.862   2.542   1.328
 9252SOL     OW28654   4.339   0.618   5.006
 9252SOL    HW128655   4.344   0.717   5.005
 9252SOL    HW228656   4.244   0.588   5.014
 9253SOL     OW28657   6.256   5.171   5.765
 9253SOL    HW128658   6.247   5.072   5.754
 9253SOL    HW228659   6.316   5.207   5.694
 9254SOL     OW28660   5.887   4.737   2.596
 9254SOL    HW128661   5.925   4.732   2.504
 9254SOL    HW228662   5.840   4.651   2.618
 9255SOL     OW28663   6.380   3.565   6.826
 9255SOL    HW128664   6.309   3.555   6.756
 9255SOL    HW228665   6.348   3.524   6.912
 9256SOL     OW28666   1.873   0.005   1.851
 9256SOL    HW128667   1.839   0.069   1.782
 9256SOL    HW228668   1.970   0.023   1.869
 9257SOL     OW28669   5.996   5.535   3.447
 9257SOL    HW128670   6.012   5.502   3.354
 9257SOL    HW228671   5.940   5.618   3.443
 9258SOL     OW28672   3.293   3.511   0.229
 9258SOL    HW128673   3.356   3.586   0.249
 9258SOL    HW228674   3.275   3.459   0.313
 9259SOL     OW28675   1.890   1.892   6.785
 9259SOL    HW128676   1.924   1.975   6.830
 9259SOL    HW228677   1.791   1.900   6.772
 9260SOL     OW28678   6.363   3.059   5.798
 9260SOL    HW128679   6.306   3.089   5.875
 9260SOL    HW228680   6.334   3.104   5.714
 9261SOL     OW28681   4.207   1.238   0.488
 9261SOL    HW128682   4.265   1.170   0.533
 9261SOL    HW228683   4.262   1.293   0.426
 9262SOL     OW28684   0.378   6.305   4.617
 9262SOL    HW128685   0.327   6.258   4.545
 9262SOL    HW228686   0.314   6.344   4.684
 9263SOL     OW28687   3.375   5.517   2.638
 9263SOL    HW128688   3.306   5.550   2.703
 9263SOL    HW228689   3.374   5.574   2.556
 9264SOL     OW28690   5.547   3.877   6.453
 9264SOL    HW128691   5.560   3.779   6.440
 9264SOL    HW228692   5.463   3.893   6.506
 9265SOL     OW28693   3.353   2.154   6.698
 9265SOL    HW128694   3.366   2.211   6.780
 9265SOL    HW228695   3.442   2.123   6.665
 9266SOL     OW28696   0.586   4.954   1.640
 9266SOL    HW128697   0.599   4.957   1.739
 9266SOL    HW228698   0.588   4.859   1.609
 9267SOL     OW28699   0.570   1.763   3.771
 9267SOL    HW128700   0.537   1.843   3.721
 9267SOL    HW228701   0.664   1.779   3.801
 9268SOL     OW28702   0.337   6.426   1.985
 9268SOL    HW128703   0.416   6.370   1.959
 9268SOL    HW228704   0.253   6.377   1.961
 9269SOL     OW28705   4.769   0.241   0.044
 9269SOL    HW128706   4.683   0.217   7.025
 9269SOL    HW228707   4.824   0.298   7.009
 9270SOL     OW28708   3.505   1.487   5.950
 9270SOL    HW128709   3.562   1.541   5.888
 9270SOL    HW228710   3.437   1.547   5.992
 9271SOL     OW28711   1.095   0.439   6.838
 9271SOL    HW128712   1.092   0.341   6.858
 9271SOL    HW228713   1.041   0.458   6.757
 9272SOL     OW28714   0.393   6.303   5.949
 9272SOL    HW128715   0.337   6.383   5.933
 9272SOL    HW228716   0.399   6.249   5.864
 9273SOL     OW28717   5.217   5.788   4.086
 9273SOL    HW128718   5.239   5.885   4.102
 9273SOL    HW228719   5.118   5.776   4.082
 9274SOL     OW28720   0.447   3.246   0.430
 9274SOL    HW128721   0.531   3.297   0.447
 9274SOL    HW228722   0.465   3.173   0.364
 9275SOL     OW28723   0.849   6.394   1.012
 9275SOL    HW128724   0.811   6.302   1.012
 9275SOL    HW228725   0.948   6.389   0.997
 9276SOL     OW28726   3.618   4.767   6.610
 9276SOL    HW128727   3.535   4.749   6.662
 9276SOL    HW228728   3.632   4.866   6.602
 9277SOL     OW28729   4.309   5.140   2.217
 9277SOL    HW128730   4.389   5.086   2.189
 9277SOL    HW228731   4.305   5.145   2.317
 9278SOL     OW28732   0.341   0.184   4.284
 9278SOL    HW128733   0.356   0.114   4.353
 9278SOL    HW228734   0.243   0.194   4.267
 9279SOL     OW28735   3.645   5.868   1.595
 9279SOL    HW128736   3.656   5.769   1.598
 9279SOL    HW228737   3.736   5.911   1.590
 9280SOL     OW28738   1.718   1.711   2.370
 9280SOL    HW128739   1.689   1.749   2.458
 9280SOL    HW228740   1.668   1.757   2.296
 9281SOL     OW28741   3.562   3.644   6.020
 9281SOL    HW128742   3.506   3.726   6.010
 9281SOL    HW228743   3.543   3.581   5.944
 9282SOL     OW28744   3.744   0.703   4.578
 9282SOL    HW128745   3.738   0.646   4.496
 9282SOL    HW228746   3.670   0.770   4.577
 9283SOL     OW28747   5.628   0.244   6.522
 9283SOL    HW128748   5.589   0.246   6.430
 9283SOL    HW228749   5.721   0.281   6.520
 9284SOL     OW28750   3.510   3.648   5.365
 9284SOL    HW128751   3.432   3.599   5.404
 9284SOL    HW228752   3.520   3.625   5.269
 9285SOL     OW28753   5.597   3.204   2.086
 9285SOL    HW128754   5.594   3.199   1.986
 9285SOL    HW228755   5.672   3.146   2.120
 9286SOL     OW28756   5.145   6.286   0.206
 9286SOL    HW128757   5.094   6.358   0.254
 9286SOL    HW228758   5.243   6.300   0.219
 9287SOL     OW28759   2.227   4.451   5.992
 9287SOL    HW128760   2.219   4.549   5.974
 9287SOL    HW228761   2.270   4.406   5.914
 9288SOL     OW28762   4.327   2.386   3.965
 9288SOL    HW128763   4.375   2.469   3.993
 9288SOL    HW228764   4.286   2.343   4.045
 9289SOL     OW28765   4.057   6.950   6.046
 9289SOL    HW128766   3.961   6.972   6.065
 9289SOL    HW228767   4.099   6.910   6.127
 9290SOL     OW28768   5.390   0.874   4.502
 9290SOL    HW128769   5.416   0.970   4.511
 9290SOL    HW228770   5.294   0.863   4.527
 9291SOL     OW28771   1.232   6.558   5.646
 9291SOL    HW128772   1.262   6.648   5.615
 9291SOL    HW228773   1.272   6.539   5.736
 9292SOL     OW28774   1.474   1.391   5.777
 9292SOL    HW128775   1.402   1.327   5.749
 9292SOL    HW228776   1.541   1.399   5.703
 9293SOL     OW28777   4.838   2.980   6.314
 9293SOL    HW128778   4.831   2.913   6.241
 9293SOL    HW228779   4.891   2.942   6.390
 9294SOL     OW28780   4.822   0.796   0.377
 9294SOL    HW128781   4.921   0.798   0.396
 9294SOL    HW228782   4.773   0.779   0.462
 9295SOL     OW28783   1.238   0.768   5.221
 9295SOL    HW128784   1.238   0.839   5.291
 9295SOL    HW228785   1.145   0.756   5.186
 9296SOL     OW28786   2.902   3.935   1.313
 9296SOL    HW128787   2.815   3.887   1.305
 9296SOL    HW228788   2.939   3.955   1.222
 9297SOL     OW28789   0.366   5.413   3.149
 9297SOL    HW128790   0.434   5.353   3.191
 9297SOL    HW228791   0.382   5.507   3.178
 9298SOL     OW28792   1.274   0.032   5.913
 9298SOL    HW128793   1.232   7.006   5.988
 9298SOL    HW228794   1.325   0.108   5.952
 9299SOL     OW28795   2.223   1.876   4.017
 9299SOL    HW128796   2.176   1.963   4.006
 9299SOL    HW228797   2.159   1.807   4.048
 9300SOL     OW28798   1.219   6.235   5.224
 9300SOL    HW128799   1.191   6.219   5.319
 9300SOL    HW228800   1.295   6.301   5.222
 9301SOL     OW28801   6.990   4.054   4.634
 9301SOL    HW128802   0.013   3.969   4.618
 9301SOL    HW228803   6.924   4.069   4.561
 9302SOL     OW28804   1.948   3.117   5.088
 9302SOL    HW128805   1.990   3.038   5.133
 9302SOL    HW228806   1.974   3.117   4.991
 9303SOL     OW28807   3.092   4.023   6.808
 9303SOL    HW128808   3.088   3.997   6.904
 9303SOL    HW228809   3.180   4.065   6.788
 9304SOL     OW28810   4.830   5.172   0.326
 9304SOL    HW128811   4.791   5.157   0.235
 9304SOL    HW228812   4.927   5.147   0.326
 9305SOL     OW28813   2.780   1.738   0.892
 9305SOL    HW128814   2.777   1.697   0.801
 9305SOL    HW228815   2.867   1.786   0.905
 9306SOL     OW28816   0.021   4.326   4.058
 9306SOL    HW128817   0.070   4.345   4.143
 9306SOL    HW228818   0.080   4.276   3.995
 9307SOL     OW28819   2.092   3.872   0.744
 9307SOL    HW128820   2.180   3.824   0.749
 9307SOL    HW228821   2.108   3.970   0.734
 9308SOL     OW28822   1.472   5.015   1.724
 9308SOL    HW128823   1.396   4.980   1.669
 9308SOL    HW228824   1.516   5.090   1.675
 9309SOL     OW28825   5.091   6.031   5.938
 9309SOL    HW128826   5.040   6.116   5.922
 9309SOL    HW228827   5.098   5.980   5.853
 9310SOL     OW28828   4.699   5.861   5.825
 9310SOL    HW128829   4.635   5.938   5.820
 9310SOL    HW228830   4.696   5.820   5.916
 9311SOL     OW28831   4.549   3.410   1.250
 9311SOL    HW128832   4.461   3.366   1.270
 9311SOL    HW228833   4.615   3.341   1.222
 9312SOL     OW28834   1.421   2.037   0.897
 9312SOL    HW128835   1.481   1.995   0.965
 9312SOL    HW228836   1.420   1.981   0.814
 9313SOL     OW28837   1.433   0.634   1.948
 9313SOL    HW128838   1.413   0.559   2.012
 9313SOL    HW228839   1.532   0.642   1.938
 9314SOL     OW28840   5.500   2.827   0.560
 9314SOL    HW128841   5.520   2.729   0.572
 9314SOL    HW228842   5.476   2.866   0.649
 9315SOL     OW28843   5.855   0.918   6.390
 9315SOL    HW128844   5.934   0.972   6.362
 9315SOL    HW228845   5.877   0.868   6.475
 9316SOL     OW28846   5.214   0.383   5.551
 9316SOL    HW128847   5.124   0.381   5.594
 9316SOL    HW228848   5.213   0.445   5.473
 9317SOL     OW28849   3.313   5.101   3.243
 9317SOL    HW128850   3.372   5.182   3.239
 9317SOL    HW228851   3.223   5.123   3.205
 9318SOL     OW28852   5.432   5.727   0.278
 9318SOL    HW128853   5.507   5.769   0.228
 9318SOL    HW228854   5.347   5.774   0.256
 9319SOL     OW28855   3.024   3.979   1.073
 9319SOL    HW128856   2.946   3.941   1.024
 9319SOL    HW228857   3.107   3.967   1.018
 9320SOL     OW28858   5.323   0.270   6.262
 9320SOL    HW128859   5.360   0.363   6.257
 9320SOL    HW228860   5.399   0.205   6.266
 9321SOL     OW28861   0.565   2.411   5.535
 9321SOL    HW128862   0.507   2.371   5.606
 9321SOL    HW228863   0.659   2.380   5.548
 9322SOL     OW28864   6.368   4.452   6.077
 9322SOL    HW128865   6.439   4.425   6.142
 9322SOL    HW228866   6.411   4.491   5.996
 9323SOL     OW28867   1.808   3.119   4.103
 9323SOL    HW128868   1.864   3.201   4.113
 9323SOL    HW228869   1.837   3.050   4.169
 9324SOL     OW28870   0.957   3.757   0.449
 9324SOL    HW128871   0.895   3.826   0.487
 9324SOL    HW228872   0.987   3.695   0.522
 9325SOL     OW28873   2.263   5.644   1.667
 9325SOL    HW128874   2.253   5.700   1.585
 9325SOL    HW228875   2.341   5.676   1.720
 9326SOL     OW28876   3.923   4.755   0.539
 9326SOL    HW128877   3.969   4.829   0.587
 9326SOL    HW228878   3.945   4.759   0.441
 9327SOL     OW28879   4.407   0.931   3.239
 9327SOL    HW128880   4.454   0.852   3.200
 9327SOL    HW228881   4.395   0.917   3.337
 9328SOL     OW28882   2.832   6.747   4.742
 9328SOL    HW128883   2.847   6.710   4.834
 9328SOL    HW228884   2.771   6.826   4.748
 9329SOL     OW28885   0.310   5.837   6.431
 9329SOL    HW128886   0.400   5.808   6.398
 9329SOL    HW228887   0.295   5.801   6.523
 9330SOL     OW28888   0.323   6.860   6.311
 9330SOL    HW128889   0.410   6.858   6.262
 9330SOL    HW228890   0.335   6.902   6.401
 9331SOL     OW28891   1.452   2.881   4.939
 9331SOL    HW128892   1.527   2.942   4.962
 9331SOL    HW228893   1.375   2.934   4.905
 9332SOL     OW28894   4.044   5.563   0.631
 9332SOL    HW128895   4.062   5.607   0.543
 9332SOL    HW228896   3.959   5.511   0.625
 9333SOL     OW28897   3.512   5.223   0.751
 9333SOL    HW128898   3.607   5.201   0.773
 9333SOL    HW228899   3.451   5.181   0.817
 9334SOL     OW28900   5.022   6.476   4.143
 9334SOL    HW128901   4.967   6.489   4.226
 9334SOL    HW228902   5.110   6.522   4.154
 9335SOL     OW28903   2.083   2.125   1.235
 9335SOL    HW128904   2.003   2.071   1.260
 9335SOL    HW228905   2.160   2.064   1.217
 9336SOL     OW28906   5.996   0.673   5.203
 9336SOL    HW128907   5.971   0.641   5.112
 9336SOL    HW228908   6.026   0.768   5.199
 9337SOL     OW28909   4.230   0.121   6.784
 9337SOL    HW128910   4.165   0.196   6.769
 9337SOL    HW228911   4.294   0.117   6.708
 9338SOL     OW28912   0.152   6.102   0.145
 9338SOL    HW128913   0.222   6.172   0.136
 9338SOL    HW228914   0.067   6.134   0.102
 9339SOL     OW28915   5.929   5.284   6.818
 9339SOL    HW128916   5.951   5.193   6.783
 9339SOL    HW228917   5.853   5.277   6.883
 9340SOL     OW28918   3.718   5.938   3.032
 9340SOL    HW128919   3.699   5.870   2.962
 9340SOL    HW228920   3.637   5.994   3.048
 9341SOL     OW28921   6.169   4.556   6.631
 9341SOL    HW128922   6.143   4.502   6.711
 9341SOL    HW228923   6.134   4.512   6.548
 9342SOL     OW28924   3.101   0.403   4.592
 9342SOL    HW128925   3.060   0.340   4.526
 9342SOL    HW228926   3.198   0.415   4.571
 9343SOL     OW28927   4.788   3.973   1.656
 9343SOL    HW128928   4.729   3.907   1.612
 9343SOL    HW228929   4.750   3.999   1.745
 9344SOL     OW28930   5.732   5.220   6.345
 9344SOL    HW128931   5.693   5.178   6.263
 9344SOL    HW228932   5.676   5.197   6.425
 9345SOL     OW28933   6.879   5.939   0.059
 9345SOL    HW128934   6.944   5.922   7.012
 9345SOL    HW228935   6.928   5.972   0.140
 9346SOL     OW28936   5.309   6.615   2.716
 9346SOL    HW128937   5.266   6.704   2.732
 9346SOL    HW228938   5.270   6.573   2.634
 9347SOL     OW28939   3.487   5.518   1.072
 9347SOL    HW128940   3.459   5.540   0.979
 9347SOL    HW228941   3.579   5.480   1.072
 9348SOL     OW28942   2.818   6.310   3.286
 9348SOL    HW128943   2.912   6.301   3.251
 9348SOL    HW228944   2.782   6.220   3.310
 9349SOL     OW28945   0.219   5.552   2.359
 9349SOL    HW128946   0.269   5.521   2.278
 9349SOL    HW228947   0.216   5.652   2.360
 9350SOL     OW28948   6.971   1.582   4.378
 9350SOL    HW128949   0.022   1.589   4.441
 9350SOL    HW228950   6.999   1.531   4.297
 9351SOL     OW28951   1.940   0.924   5.479
 9351SOL    HW128952   1.873   0.981   5.528
 9351SOL    HW228953   2.031   0.960   5.494
 9352SOL     OW28954   1.158   2.874   5.626
 9352SOL    HW128955   1.254   2.844   5.629
 9352SOL    HW228956   1.139   2.931   5.706
 9353SOL     OW28957   1.727   4.249   1.992
 9353SOL    HW128958   1.645   4.197   1.968
 9353SOL    HW228959   1.800   4.186   2.015
 9354SOL     OW28960   6.562   2.197   1.410
 9354SOL    HW128961   6.497   2.270   1.432
 9354SOL    HW228962   6.582   2.145   1.493
 9355SOL     OW28963   6.410   1.018   4.426
 9355SOL    HW128964   6.452   1.024   4.517
 9355SOL    HW228965   6.311   1.019   4.436
 9356SOL     OW28966   4.751   5.026   1.881
 9356SOL    HW128967   4.814   4.981   1.945
 9356SOL    HW228968   4.670   4.968   1.868
 9357SOL     OW28969   2.629   4.029   0.137
 9357SOL    HW128970   2.580   4.089   0.073
 9357SOL    HW228971   2.563   3.973   0.187
 9358SOL     OW28972   5.634   3.564   1.865
 9358SOL    HW128973   5.639   3.530   1.959
 9358SOL    HW228974   5.723   3.551   1.821
 9359SOL     OW28975   6.845   3.846   5.924
 9359SOL    HW128976   6.820   3.812   5.834
 9359SOL    HW228977   6.874   3.770   5.982
 9360SOL     OW28978   1.895   0.059   5.846
 9360SOL    HW128979   1.972   7.023   5.863
 9360SOL    HW228980   1.870   0.105   5.931
 9361SOL     OW28981   3.013   6.760   3.280
 9361SOL    HW128982   3.101   6.721   3.307
 9361SOL    HW228983   2.956   6.776   3.360
 9362SOL     OW28984   1.911   1.019   1.768
 9362SOL    HW128985   1.931   0.921   1.753
 9362SOL    HW228986   1.972   1.073   1.710
 9363SOL     OW28987   3.718   5.583   1.605
 9363SOL    HW128988   3.799   5.581   1.663
 9363SOL    HW228989   3.667   5.498   1.614
 9364SOL     OW28990   3.694   2.929   6.161
 9364SOL    HW128991   3.674   2.979   6.245
 9364SOL    HW228992   3.790   2.901   6.161
 9365SOL     OW28993   2.423   2.722   4.933
 9365SOL    HW128994   2.334   2.677   4.937
 9365SOL    HW228995   2.416   2.814   4.969
 9366SOL     OW28996   3.054   1.764   6.941
 9366SOL    HW128997   2.959   1.794   6.954
 9366SOL    HW228998   3.108   1.840   6.904
 9367SOL     OW28999   6.744   5.826   3.791
 9367SOL    HW129000   6.676   5.773   3.739
 9367SOL    HW229001   6.796   5.765   3.850
 9368SOL     OW29002   3.374   1.960   2.718
 9368SOL    HW129003   3.408   2.007   2.637
 9368SOL    HW229004   3.444   1.898   2.753
 9369SOL     OW29005   0.169   1.062   6.008
 9369SOL    HW129006   0.153   1.122   6.086
 9369SOL    HW229007   0.262   1.075   5.974
 9370SOL     OW29008   5.621   0.748   2.661
 9370SOL    HW129009   5.705   0.732   2.712
 9370SOL    HW229010   5.590   0.842   2.675
 9371SOL     OW29011   2.001   5.329   6.854
 9371SOL    HW129012   1.934   5.259   6.877
 9371SOL    HW229013   1.961   5.419   6.867
 9372SOL     OW29014   6.098   6.337   3.155
 9372SOL    HW129015   6.183   6.371   3.194
 9372SOL    HW229016   6.083   6.379   3.065
 9373SOL     OW29017   4.364   2.351   2.726
 9373SOL    HW129018   4.414   2.381   2.808
 9373SOL    HW229019   4.393   2.406   2.648
 9374SOL     OW29020   6.115   2.841   6.922
 9374SOL    HW129021   6.197   2.887   6.890
 9374SOL    HW229022   6.139   2.756   6.969
 9375SOL     OW29023   6.854   1.448   3.465
 9375SOL    HW129024   6.916   1.510   3.513
 9375SOL    HW229025   6.874   1.354   3.492
 9376SOL     OW29026   3.006   3.838   0.580
 9376SOL    HW129027   3.043   3.930   0.585
 9376SOL    HW229028   3.053   3.779   0.646
 9377SOL     OW29029   0.835   5.105   3.459
 9377SOL    HW129030   0.744   5.062   3.458
 9377SOL    HW229031   0.836   5.182   3.396
 9378SOL     OW29032   1.742   0.080   5.610
 9378SOL    HW129033   1.773   0.105   5.701
 9378SOL    HW229034   1.765   7.010   5.592
 9379SOL     OW29035   4.730   4.855   4.882
 9379SOL    HW129036   4.637   4.825   4.904
 9379SOL    HW229037   4.795   4.796   4.930
 9380SOL     OW29038   5.819   5.737   5.107
 9380SOL    HW129039   5.789   5.710   5.016
 9380SOL    HW229040   5.772   5.682   5.176
 9381SOL     OW29041   2.516   3.366   6.032
 9381SOL    HW129042   2.551   3.379   6.124
 9381SOL    HW229043   2.564   3.289   5.989
 9382SOL     OW29044   3.379   1.497   2.775
 9382SOL    HW129045   3.347   1.560   2.845
 9382SOL    HW229046   3.310   1.487   2.704
 9383SOL     OW29047   3.369   5.974   5.044
 9383SOL    HW129048   3.330   5.972   5.137
 9383SOL    HW229049   3.337   5.894   4.993
 9384SOL     OW29050   4.204   6.273   1.415
 9384SOL    HW129051   4.225   6.264   1.512
 9384SOL    HW229052   4.203   6.182   1.372
 9385SOL     OW29053   3.905   1.725   2.014
 9385SOL    HW129054   3.916   1.652   2.082
 9385SOL    HW229055   3.809   1.731   1.987
 9386SOL     OW29056   2.381   6.063   5.065
 9386SOL    HW129057   2.432   6.071   5.151
 9386SOL    HW229058   2.387   5.969   5.032
 9387SOL     OW29059   4.238   0.180   0.286
 9387SOL    HW129060   4.272   0.087   0.279
 9387SOL    HW229061   4.309   0.244   0.253
 9388SOL     OW29062   1.554   6.020   2.574
 9388SOL    HW129063   1.484   6.023   2.644
 9388SOL    HW229064   1.617   5.945   2.593
 9389SOL     OW29065   2.613   0.403   5.314
 9389SOL    HW129066   2.516   0.378   5.321
 9389SOL    HW229067   2.655   0.354   5.237
 9390SOL     OW29068   3.990   6.331   4.003
 9390SOL    HW129069   4.077   6.285   4.022
 9390SOL    HW229070   3.933   6.330   4.086
 9391SOL     OW29071   2.217   1.046   5.407
 9391SOL    HW129072   2.171   1.135   5.414
 9391SOL    HW229073   2.256   1.022   5.496
 9392SOL     OW29074   0.144   0.232   4.941
 9392SOL    HW129075   0.169   0.161   5.007
 9392SOL    HW229076   0.048   0.220   4.913
 9393SOL     OW29077   3.501   1.608   4.651
 9393SOL    HW129078   3.433   1.584   4.721
 9393SOL    HW229079   3.478   1.697   4.612
 9394SOL     OW29080   6.402   1.485   2.952
 9394SOL    HW129081   6.306   1.484   2.980
 9394SOL    HW229082   6.412   1.432   2.868
 9395SOL     OW29083   2.695   2.455   7.002
 9395SOL    HW129084   2.692   2.388   6.928
 9395SOL    HW229085   2.676   2.546   6.966
 9396SOL     OW29086   0.069   5.881   4.549
 9396SOL    HW129087   0.106   5.855   4.638
 9396SOL    HW229088   0.131   5.850   4.477
 9397SOL     OW29089   2.596   0.155   0.131
 9397SOL    HW129090   2.686   0.123   0.099
 9397SOL    HW229091   2.527   0.085   0.110
 9398SOL     OW29092   2.158   0.618   6.074
 9398SOL    HW129093   2.152   0.523   6.043
 9398SOL    HW229094   2.074   0.642   6.123
 9399SOL     OW29095   0.808   1.713   6.895
 9399SOL    HW129096   0.777   1.781   6.828
 9399SOL    HW229097   0.863   1.644   6.848
 9400SOL     OW29098   5.395   3.030   1.393
 9400SOL    HW129099   5.302   3.010   1.361
 9400SOL    HW229100   5.444   3.081   1.322
 9401SOL     OW29101   3.609   6.024   3.380
 9401SOL    HW129102   3.649   5.941   3.339
 9401SOL    HW229103   3.529   6.052   3.327
 9402SOL     OW29104   1.169   4.982   4.920
 9402SOL    HW129105   1.079   4.996   4.878
 9402SOL    HW229106   1.221   4.916   4.866
 9403SOL     OW29107   5.057   2.101   2.812
 9403SOL    HW129108   5.130   2.168   2.821
 9403SOL    HW229109   4.987   2.119   2.882
 9404SOL     OW29110   0.740   4.530   6.528
 9404SOL    HW129111   0.754   4.500   6.433
 9404SOL    HW229112   0.644   4.554   6.542
 9405SOL     OW29113   6.917   6.741   2.737
 9405SOL    HW129114   6.929   6.803   2.815
 9405SOL    HW229115   6.914   6.647   2.769
 9406SOL     OW29116   6.988   2.388   5.955
 9406SOL    HW129117   6.987   2.342   6.043
 9406SOL    HW229118   6.975   2.321   5.882
 9407SOL     OW29119   2.334   5.670   3.259
 9407SOL    HW129120   2.386   5.584   3.259
 9407SOL    HW229121   2.383   5.738   3.313
 9408SOL     OW29122   4.088   1.967   6.015
 9408SOL    HW129123   4.058   1.948   5.921
 9408SOL    HW229124   4.127   2.059   6.020
 9409SOL     OW29125   5.444   4.411   5.512
 9409SOL    HW129126   5.495   4.352   5.450
 9409SOL    HW229127   5.458   4.379   5.606
 9410SOL     OW29128   4.067   5.789   1.511
 9410SOL    HW129129   4.125   5.733   1.569
 9410SOL    HW229130   4.016   5.731   1.448
 9411SOL     OW29131   3.845   4.073   0.826
 9411SOL    HW129132   3.755   4.115   0.832
 9411SOL    HW229133   3.901   4.103   0.903
 9412SOL     OW29134   0.224   3.637   1.786
 9412SOL    HW129135   0.315   3.668   1.758
 9412SOL    HW229136   0.163   3.716   1.795
 9413SOL     OW29137   3.973   5.869   4.895
 9413SOL    HW129138   4.029   5.950   4.876
 9413SOL    HW229139   4.005   5.793   4.838
 9414SOL     OW29140   3.364   1.191   3.433
 9414SOL    HW129141   3.432   1.133   3.387
 9414SOL    HW229142   3.398   1.214   3.524
 9415SOL     OW29143   2.337   6.629   2.376
 9415SOL    HW129144   2.296   6.716   2.402
 9415SOL    HW229145   2.282   6.587   2.304
 9416SOL     OW29146   0.621   1.602   1.616
 9416SOL    HW129147   0.702   1.555   1.583
 9416SOL    HW229148   0.557   1.616   1.541
 9417SOL     OW29149   3.830   0.273   5.766
 9417SOL    HW129150   3.916   0.282   5.716
 9417SOL    HW229151   3.849   0.265   5.864
 9418SOL     OW29152   3.101   6.704   0.718
 9418SOL    HW129153   3.046   6.620   0.724
 9418SOL    HW229154   3.040   6.783   0.723
 9419SOL     OW29155   3.576   4.952   5.847
 9419SOL    HW129156   3.498   5.014   5.832
 9419SOL    HW229157   3.654   4.983   5.793
 9420SOL     OW29158   0.426   2.223   4.234
 9420SOL    HW129159   0.365   2.210   4.156
 9420SOL    HW229160   0.520   2.205   4.205
 9421SOL     OW29161   2.298   6.418   5.276
 9421SOL    HW129162   2.261   6.449   5.363
 9421SOL    HW229163   2.244   6.456   5.201
 9422SOL     OW29164   5.313   6.864   2.886
 9422SOL    HW129165   5.236   6.810   2.921
 9422SOL    HW229166   5.398   6.813   2.901
 9423SOL     OW29167   3.486   0.200   3.552
 9423SOL    HW129168   3.504   0.264   3.478
 9423SOL    HW229169   3.405   0.146   3.532
 9424SOL     OW29170   4.657   0.366   4.884
 9424SOL    HW129171   4.728   0.295   4.889
 9424SOL    HW229172   4.696   0.449   4.845
 9425SOL     OW29173   6.988   3.967   6.251
 9425SOL    HW129174   0.002   4.030   6.318
 9425SOL    HW229175   6.912   4.013   6.205
 9426SOL     OW29176   2.798   1.836   6.876
 9426SOL    HW129177   2.756   1.817   6.787
 9426SOL    HW229178   2.829   1.931   6.879
 9427SOL     OW29179   3.065   5.186   4.834
 9427SOL    HW129180   2.981   5.231   4.865
 9427SOL    HW229181   3.122   5.252   4.785
 9428SOL     OW29182   5.401   0.922   1.368
 9428SOL    HW129183   5.449   1.008   1.348
 9428SOL    HW229184   5.373   0.923   1.464
 9429SOL     OW29185   1.626   4.902   1.933
 9429SOL    HW129186   1.595   4.811   1.905
 9429SOL    HW229187   1.574   4.972   1.883
 9430SOL     OW29188   0.383   6.014   2.086
 9430SOL    HW129189   0.446   5.995   2.012
 9430SOL    HW229190   0.301   5.958   2.076
 9431SOL     OW29191   5.677   4.687   1.025
 9431SOL    HW129192   5.665   4.726   0.933
 9431SOL    HW229193   5.593   4.641   1.053
 9432SOL     OW29194   5.976   0.580   3.154
 9432SOL    HW129195   6.056   0.579   3.095
 9432SOL    HW229196   5.983   0.656   3.219
 9433SOL     OW29197   3.519   5.133   3.855
 9433SOL    HW129198   3.590   5.134   3.785
 9433SOL    HW229199   3.548   5.074   3.931
 9434SOL     OW29200   5.546   4.744   3.278
 9434SOL    HW129201   5.638   4.714   3.303
 9434SOL    HW229202   5.479   4.677   3.309
 9435SOL     OW29203   0.974   1.744   3.693
 9435SOL    HW129204   0.973   1.738   3.593
 9435SOL    HW229205   0.913   1.817   3.723
 9436SOL     OW29206   0.835   4.322   2.532
 9436SOL    HW129207   0.742   4.296   2.556
 9436SOL    HW229208   0.899   4.252   2.564
 9437SOL     OW29209   1.165   6.397   3.762
 9437SOL    HW129210   1.248   6.389   3.706
 9437SOL    HW229211   1.085   6.387   3.703
 9438SOL     OW29212   1.138   6.594   1.107
 9438SOL    HW129213   1.180   6.614   1.019
 9438SOL    HW229214   1.060   6.655   1.121
 9439SOL     OW29215   6.779   3.009   2.373
 9439SOL    HW129216   6.694   3.053   2.400
 9439SOL    HW229217   6.846   3.079   2.347
 9440SOL     OW29218   4.338   5.975   4.259
 9440SOL    HW129219   4.355   6.068   4.228
 9440SOL    HW229220   4.310   5.918   4.181
 9441SOL     OW29221   1.107   4.420   4.645
 9441SOL    HW129222   1.195   4.462   4.668
 9441SOL    HW229223   1.087   4.346   4.710
 9442SOL     OW29224   5.873   3.112   0.343
 9442SOL    HW129225   5.839   3.032   0.393
 9442SOL    HW229226   5.879   3.090   0.246
 9443SOL     OW29227   2.517   5.167   1.337
 9443SOL    HW129228   2.461   5.165   1.420
 9443SOL    HW229229   2.512   5.257   1.295
 9444SOL     OW29230   0.974   4.057   6.307
 9444SOL    HW129231   1.040   3.988   6.334
 9444SOL    HW229232   0.912   4.020   6.238
 9445SOL     OW29233   5.307   3.500   2.347
 9445SOL    HW129234   5.257   3.417   2.371
 9445SOL    HW229235   5.257   3.580   2.379
 9446SOL     OW29236   6.193   6.719   4.098
 9446SOL    HW129237   6.109   6.774   4.096
 9446SOL    HW229238   6.252   6.746   4.022
 9447SOL     OW29239   5.980   3.209   3.257
 9447SOL    HW129240   5.909   3.257   3.309
 9447SOL    HW229241   5.962   3.111   3.259
 9448SOL     OW29242   6.058   6.679   6.067
 9448SOL    HW129243   6.055   6.714   5.973
 9448SOL    HW229244   5.972   6.634   6.089
 9449SOL     OW29245   0.114   6.213   6.879
 9449SOL    HW129246   0.185   6.174   6.938
 9449SOL    HW229247   0.084   6.145   6.812
 9450SOL     OW29248   3.543   4.961   4.352
 9450SOL    HW129249   3.451   4.986   4.321
 9450SOL    HW229250   3.545   4.955   4.451
 9451SOL     OW29251   3.589   6.258   6.139
 9451SOL    HW129252   3.518   6.307   6.089
 9451SOL    HW229253   3.648   6.323   6.186
 9452SOL     OW29254   0.860   3.357   0.670
 9452SOL    HW129255   0.900   3.277   0.625
 9452SOL    HW229256   0.921   3.435   0.660
 9453SOL     OW29257   2.191   4.682   3.656
 9453SOL    HW129258   2.142   4.720   3.734
 9453SOL    HW229259   2.135   4.613   3.611
 9454SOL     OW29260   1.605   3.116   5.813
 9454SOL    HW129261   1.642   3.209   5.815
 9454SOL    HW229262   1.530   3.112   5.747
 9455SOL     OW29263   3.600   1.481   2.604
 9455SOL    HW129264   3.526   1.510   2.665
 9455SOL    HW229265   3.687   1.508   2.643
 9456SOL     OW29266   1.054   3.485   6.747
 9456SOL    HW129267   1.034   3.576   6.710
 9456SOL    HW229268   1.140   3.488   6.798
 9457SOL     OW29269   1.695   3.912   6.233
 9457SOL    HW129270   1.599   3.900   6.210
 9457SOL    HW229271   1.705   3.978   6.307
 9458SOL     OW29272   0.907   3.340   5.760
 9458SOL    HW129273   0.961   3.280   5.819
 9458SOL    HW229274   0.952   3.429   5.754
 9459SOL     OW29275   5.734   4.505   2.582
 9459SOL    HW129276   5.758   4.440   2.510
 9459SOL    HW229277   5.639   4.534   2.569
 9460SOL     OW29278   0.048   1.178   4.154
 9460SOL    HW129279   7.025   1.120   4.089
 9460SOL    HW229280   7.011   1.207   4.226
 9461SOL     OW29281   6.254   1.846   3.224
 9461SOL    HW129282   6.178   1.812   3.168
 9461SOL    HW229283   6.257   1.793   3.309
 9462SOL     OW29284   2.140   3.719   3.418
 9462SOL    HW129285   2.173   3.811   3.400
 9462SOL    HW229286   2.102   3.680   3.334
 9463SOL     OW29287   0.278   0.810   1.610
 9463SOL    HW129288   0.237   0.827   1.520
 9463SOL    HW229289   0.231   0.866   1.678
 9464SOL     OW29290   5.728   6.072   0.385
 9464SOL    HW129291   5.716   6.023   0.472
 9464SOL    HW229292   5.792   6.023   0.327
 9465SOL     OW29293   6.997   6.526   3.322
 9465SOL    HW129294   0.025   6.567   3.395
 9465SOL    HW229295   0.031   6.476   3.260
 9466SOL     OW29296   3.840   3.950   5.441
 9466SOL    HW129297   3.751   3.938   5.485
 9466SOL    HW229298   3.828   3.993   5.352
 9467SOL     OW29299   0.990   2.752   1.953
 9467SOL    HW129300   1.040   2.694   2.016
 9467SOL    HW229301   0.986   2.708   1.863
 9468SOL     OW29302   6.081   2.200   6.428
 9468SOL    HW129303   6.014   2.148   6.480
 9468SOL    HW229304   6.147   2.138   6.386
 9469SOL     OW29305   6.194   5.566   1.365
 9469SOL    HW129306   6.219   5.583   1.460
 9469SOL    HW229307   6.124   5.494   1.361
 9470SOL     OW29308   5.418   3.174   5.573
 9470SOL    HW129309   5.396   3.272   5.576
 9470SOL    HW229310   5.513   3.160   5.598
 9471SOL     OW29311   5.947   2.092   5.031
 9471SOL    HW129312   5.968   2.164   4.965
 9471SOL    HW229313   6.028   2.035   5.046
 9472SOL     OW29314   6.345   3.476   4.415
 9472SOL    HW129315   6.412   3.452   4.485
 9472SOL    HW229316   6.253   3.455   4.448
 9473SOL     OW29317   2.720   5.972   6.206
 9473SOL    HW129318   2.659   5.973   6.127
 9473SOL    HW229319   2.815   5.964   6.174
 9474SOL     OW29320   6.829   3.305   0.241
 9474SOL    HW129321   6.857   3.279   0.149
 9474SOL    HW229322   6.847   3.402   0.256
 9475SOL     OW29323   2.718   3.281   0.322
 9475SOL    HW129324   2.695   3.256   0.227
 9475SOL    HW229325   2.797   3.343   0.322
 9476SOL     OW29326   3.377   3.321   4.977
 9476SOL    HW129327   3.332   3.234   4.996
 9476SOL    HW229328   3.310   3.385   4.940
 9477SOL     OW29329   0.236   3.482   2.421
 9477SOL    HW129330   0.290   3.432   2.490
 9477SOL    HW229331   0.297   3.515   2.349
 9478SOL     OW29332   5.507   3.225   6.373
 9478SOL    HW129333   5.586   3.283   6.352
 9478SOL    HW229334   5.486   3.232   6.470
 9479SOL     OW29335   5.933   6.437   6.460
 9479SOL    HW129336   5.925   6.397   6.369
 9479SOL    HW229337   5.945   6.536   6.452
 9480SOL     OW29338   4.671   4.270   0.221
 9480SOL    HW129339   4.757   4.300   0.179
 9480SOL    HW229340   4.600   4.338   0.202
 9481SOL     OW29341   5.541   3.206   1.229
 9481SOL    HW129342   5.622   3.261   1.208
 9481SOL    HW229343   5.459   3.259   1.208
 9482SOL     OW29344   5.963   1.409   3.207
 9482SOL    HW129345   6.036   1.369   3.261
 9482SOL    HW229346   6.002   1.472   3.140
 9483SOL     OW29347   1.448   1.872   0.662
 9483SOL    HW129348   1.471   1.956   0.612
 9483SOL    HW229349   1.351   1.852   0.650
 9484SOL     OW29350   4.396   1.394   2.980
 9484SOL    HW129351   4.425   1.311   3.028
 9484SOL    HW229352   4.296   1.395   2.974
 9485SOL     OW29353   1.210   6.981   2.077
 9485SOL    HW129354   1.293   6.932   2.051
 9485SOL    HW229355   1.167   6.935   2.155
 9486SOL     OW29356   2.024   4.851   1.518
 9486SOL    HW129357   2.048   4.793   1.596
 9486SOL    HW229358   1.972   4.930   1.550
 9487SOL     OW29359   2.944   3.626   2.484
 9487SOL    HW129360   2.947   3.613   2.584
 9487SOL    HW229361   3.016   3.572   2.441
 9488SOL     OW29362   2.631   6.275   1.062
 9488SOL    HW129363   2.705   6.330   1.101
 9488SOL    HW229364   2.629   6.289   0.963
 9489SOL     OW29365   3.895   4.256   1.515
 9489SOL    HW129366   3.813   4.198   1.506
 9489SOL    HW229367   3.965   4.206   1.565
 9490SOL     OW29368   6.243   6.542   0.226
 9490SOL    HW129369   6.208   6.607   0.294
 9490SOL    HW229370   6.277   6.460   0.273
 9491SOL     OW29371   0.303   4.293   3.418
 9491SOL    HW129372   0.366   4.226   3.381
 9491SOL    HW229373   0.337   4.385   3.400
 9492SOL     OW29374   3.314   3.581   2.604
 9492SOL    HW129375   3.407   3.544   2.610
 9492SOL    HW229376   3.315   3.663   2.548
 9493SOL     OW29377   4.112   5.008   3.999
 9493SOL    HW129378   4.096   4.934   3.934
 9493SOL    HW229379   4.078   4.982   4.089
 9494SOL     OW29380   4.187   3.898   0.958
 9494SOL    HW129381   4.242   3.912   1.040
 9494SOL    HW229382   4.120   3.825   0.975
 9495SOL     OW29383   5.808   1.896   4.481
 9495SOL    HW129384   5.870   1.827   4.444
 9495SOL    HW229385   5.715   1.875   4.452
 9496SOL     OW29386   5.325   4.644   0.812
 9496SOL    HW129387   5.298   4.739   0.794
 9496SOL    HW229388   5.287   4.585   0.741
 9497SOL     OW29389   5.345   4.486   0.080
 9497SOL    HW129390   5.319   4.542   0.001
 9497SOL    HW229391   5.269   4.483   0.145
 9498SOL     OW29392   5.414   0.752   5.961
 9498SOL    HW129393   5.332   0.771   5.908
 9498SOL    HW229394   5.414   0.808   6.044
 9499SOL     OW29395   2.352   3.538   5.899
 9499SOL    HW129396   2.426   3.487   5.943
 9499SOL    HW229397   2.272   3.478   5.889
 9500SOL     OW29398   3.790   6.881   1.562
 9500SOL    HW129399   3.714   6.912   1.618
 9500SOL    HW229400   3.809   6.948   1.490
 9501SOL     OW29401   2.532   1.103   4.621
 9501SOL    HW129402   2.455   1.051   4.659
 9501SOL    HW229403   2.594   1.041   4.575
 9502SOL     OW29404   0.293   1.617   4.206
 9502SOL    HW129405   0.366   1.613   4.137
 9502SOL    HW229406   0.207   1.587   4.165
 9503SOL     OW29407   1.043   1.348   1.733
 9503SOL    HW129408   1.022   1.298   1.817
 9503SOL    HW229409   1.078   1.438   1.756
 9504SOL     OW29410   0.552   1.742   1.320
 9504SOL    HW129411   0.459   1.761   1.351
 9504SOL    HW229412   0.601   1.829   1.306
 9505SOL     OW29413   5.465   4.322   3.434
 9505SOL    HW129414   5.419   4.240   3.400
 9505SOL    HW229415   5.478   4.315   3.533
 9506SOL     OW29416   0.379   3.447   6.756
 9506SOL    HW129417   0.323   3.365   6.770
 9506SOL    HW229418   0.354   3.491   6.670
 9507SOL     OW29419   1.282   1.119   3.422
 9507SOL    HW129420   1.326   1.197   3.466
 9507SOL    HW229421   1.348   1.070   3.366
 9508SOL     OW29422   6.026   2.949   0.654
 9508SOL    HW129423   5.933   2.948   0.617
 9508SOL    HW229424   6.091   2.924   0.582
 9509SOL     OW29425   1.302   0.049   5.662
 9509SOL    HW129426   1.219   0.087   5.622
 9509SOL    HW229427   1.288   0.036   5.760
 9510SOL     OW29428   0.887   4.432   1.790
 9510SOL    HW129429   0.873   4.335   1.810
 9510SOL    HW229430   0.930   4.476   1.869
 9511SOL     OW29431   0.942   1.463   0.309
 9511SOL    HW129432   0.962   1.424   0.399
 9511SOL    HW229433   0.887   1.398   0.256
 9512SOL     OW29434   5.697   1.386   2.542
 9512SOL    HW129435   5.705   1.317   2.469
 9512SOL    HW229436   5.661   1.342   2.625
 9513SOL     OW29437   1.120   3.679   5.210
 9513SOL    HW129438   1.197   3.696   5.272
 9513SOL    HW229439   1.043   3.641   5.262
 9514SOL     OW29440   1.867   3.796   6.722
 9514SOL    HW129441   1.913   3.881   6.697
 9514SOL    HW229442   1.769   3.813   6.733
 9515SOL     OW29443   1.541   5.487   0.283
 9515SOL    HW129444   1.560   5.398   0.241
 9515SOL    HW229445   1.617   5.513   0.343
 9516SOL     OW29446   4.994   3.522   4.552
 9516SOL    HW129447   4.989   3.527   4.652
 9516SOL    HW229448   5.084   3.486   4.525
 9517SOL     OW29449   1.678   4.959   7.001
 9517SOL    HW129450   1.728   5.041   6.972
 9517SOL    HW229451   1.728   4.916   0.050
 9518SOL     OW29452   0.566   2.316   6.557
 9518SOL    HW129453   0.593   2.386   6.623
 9518SOL    HW229454   0.496   2.256   6.597
 9519SOL     OW29455   4.174   3.466   3.688
 9519SOL    HW129456   4.200   3.524   3.766
 9519SOL    HW229457   4.083   3.427   3.704
 9520SOL     OW29458   6.646   1.058   3.327
 9520SOL    HW129459   6.617   1.142   3.281
 9520SOL    HW229460   6.643   1.072   3.426
 9521SOL     OW29461   3.264   4.111   1.415
 9521SOL    HW129462   3.273   4.048   1.492
 9521SOL    HW229463   3.354   4.129   1.375
 9522SOL     OW29464   3.951   6.020   2.675
 9522SOL    HW129465   3.947   6.085   2.750
 9522SOL    HW229466   4.037   5.968   2.680
 9523SOL     OW29467   2.428   5.200   5.010
 9523SOL    HW129468   2.438   5.121   4.950
 9523SOL    HW229469   2.513   5.254   5.008
 9524SOL     OW29470   1.679   2.428   0.750
 9524SOL    HW129471   1.629   2.356   0.797
 9524SOL    HW229472   1.729   2.483   0.817
 9525SOL     OW29473   1.688   2.584   5.173
 9525SOL    HW129474   1.729   2.636   5.098
 9525SOL    HW229475   1.593   2.614   5.185
 9526SOL     OW29476   6.415   4.507   1.494
 9526SOL    HW129477   6.445   4.529   1.402
 9526SOL    HW229478   6.466   4.428   1.528
 9527SOL     OW29479   2.894   0.529   5.083
 9527SOL    HW129480   2.990   0.547   5.103
 9527SOL    HW229481   2.855   0.608   5.035
 9528SOL     OW29482   6.549   1.673   0.960
 9528SOL    HW129483   6.615   1.614   1.007
 9528SOL    HW229484   6.502   1.620   0.889
 9529SOL     OW29485   5.781   3.479   6.911
 9529SOL    HW129486   5.810   3.394   6.953
 9529SOL    HW229487   5.852   3.513   6.850
 9530SOL     OW29488   0.798   3.826   3.865
 9530SOL    HW129489   0.881   3.878   3.845
 9530SOL    HW229490   0.753   3.800   3.780
 9531SOL     OW29491   4.833   3.979   2.302
 9531SOL    HW129492   4.896   4.034   2.247
 9531SOL    HW229493   4.748   3.965   2.251
 9532SOL     OW29494   0.391   5.313   0.759
 9532SOL    HW129495   0.325   5.378   0.720
 9532SOL    HW229496   0.429   5.351   0.843
 9533SOL     OW29497   1.126   5.641   4.056
 9533SOL    HW129498   1.182   5.622   4.137
 9533SOL    HW229499   1.046   5.582   4.057
 9534SOL     OW29500   5.873   4.626   4.786
 9534SOL    HW129501   5.775   4.606   4.796
 9534SOL    HW229502   5.915   4.632   4.876
 9535SOL     OW29503   2.197   0.870   6.144
 9535SOL    HW129504   2.195   0.773   6.121
 9535SOL    HW229505   2.147   0.886   6.229
 9536SOL     OW29506   3.169   3.905   5.256
 9536SOL    HW129507   3.109   3.832   5.288
 9536SOL    HW229508   3.154   3.920   5.158
 9537SOL     OW29509   2.161   0.872   4.243
 9537SOL    HW129510   2.180   0.963   4.206
 9537SOL    HW229511   2.128   0.881   4.337
 9538SOL     OW29512   4.994   0.541   4.532
 9538SOL    HW129513   5.043   0.591   4.460
 9538SOL    HW229514   5.044   0.457   4.554
 9539SOL     OW29515   3.083   3.992   4.311
 9539SOL    HW129516   3.141   4.043   4.375
 9539SOL    HW229517   3.076   4.043   4.225
 9540SOL     OW29518   5.358   4.504   4.265
 9540SOL    HW129519   5.453   4.474   4.259
 9540SOL    HW229520   5.355   4.603   4.279
 9541SOL     OW29521   2.808   0.892   5.992
 9541SOL    HW129522   2.781   0.863   6.084
 9541SOL    HW229523   2.810   0.992   5.988
 9542SOL     OW29524   4.917   4.690   5.017
 9542SOL    HW129525   4.877   4.602   4.992
 9542SOL    HW229526   4.999   4.675   5.072
 9543SOL     OW29527   3.932   0.901   6.412
 9543SOL    HW129528   3.845   0.852   6.401
 9543SOL    HW229529   4.002   0.857   6.356
 9544SOL     OW29530   5.934   2.838   3.787
 9544SOL    HW129531   5.946   2.935   3.807
 9544SOL    HW229532   5.837   2.820   3.769
 9545SOL     OW29533   5.711   5.430   2.544
 9545SOL    HW129534   5.666   5.501   2.489
 9545SOL    HW229535   5.723   5.463   2.638
 9546SOL     OW29536   4.048   1.406   6.004
 9546SOL    HW129537   3.951   1.429   6.007
 9546SOL    HW229538   4.094   1.463   5.936
 9547SOL     OW29539   2.652   5.411   3.990
 9547SOL    HW129540   2.671   5.409   3.892
 9547SOL    HW229541   2.671   5.321   4.030
 9548SOL     OW29542   6.985   5.023   5.010
 9548SOL    HW129543   6.886   5.036   5.019
 9548SOL    HW229544   7.017   5.066   4.925
 9549SOL     OW29545   3.393   1.254   1.635
 9549SOL    HW129546   3.300   1.216   1.633
 9549SOL    HW229547   3.401   1.326   1.566
 9550SOL     OW29548   6.994   1.191   0.321
 9550SOL    HW129549   0.031   1.227   0.389
 9550SOL    HW229550   0.020   1.155   0.243
 9551SOL     OW29551   5.852   3.172   6.051
 9551SOL    HW129552   5.826   3.088   6.097
 9551SOL    HW229553   5.875   3.153   5.955
 9552SOL     OW29554   2.219   5.866   5.416
 9552SOL    HW129555   2.170   5.827   5.494
 9552SOL    HW229556   2.235   5.794   5.348
 9553SOL     OW29557   5.915   2.152   0.107
 9553SOL    HW129558   5.930   2.251   0.106
 9553SOL    HW229559   5.833   2.130   0.054
 9554SOL     OW29560   1.975   6.216   2.930
 9554SOL    HW129561   1.914   6.251   2.859
 9554SOL    HW229562   2.063   6.191   2.890
 9555SOL     OW29563   0.458   1.277   2.742
 9555SOL    HW129564   0.520   1.355   2.756
 9555SOL    HW229565   0.387   1.277   2.813
 9556SOL     OW29566   1.552   4.261   1.707
 9556SOL    HW129567   1.647   4.232   1.708
 9556SOL    HW229568   1.544   4.350   1.664
 9557SOL     OW29569   6.105   6.824   1.292
 9557SOL    HW129570   6.136   6.766   1.368
 9557SOL    HW229571   6.023   6.785   1.252
 9558SOL     OW29572   5.973   6.082   5.816
 9558SOL    HW129573   6.011   6.004   5.767
 9558SOL    HW229574   5.953   6.157   5.752
 9559SOL     OW29575   0.707   5.465   0.644
 9559SOL    HW129576   0.627   5.518   0.672
 9559SOL    HW229577   0.698   5.440   0.548
 9560SOL     OW29578   2.784   1.172   2.745
 9560SOL    HW129579   2.881   1.148   2.744
 9560SOL    HW229580   2.763   1.220   2.831
 9561SOL     OW29581   1.403   1.040   1.682
 9561SOL    HW129582   1.319   1.040   1.736
 9561SOL    HW229583   1.456   0.958   1.705
 9562SOL     OW29584   3.361   0.379   4.926
 9562SOL    HW129585   3.374   0.406   5.021
 9562SOL    HW229586   3.269   0.403   4.896
 9563SOL     OW29587   6.817   6.959   0.654
 9563SOL    HW129588   6.794   7.019   0.577
 9563SOL    HW229589   6.808   6.864   0.625
 9564SOL     OW29590   2.575   1.216   0.464
 9564SOL    HW129591   2.568   1.190   0.560
 9564SOL    HW229592   2.485   1.244   0.431
 9565SOL     OW29593   4.038   0.703   5.012
 9565SOL    HW129594   3.989   0.786   5.038
 9565SOL    HW229595   4.020   0.631   5.080
 9566SOL     OW29596   3.300   5.517   6.851
 9566SOL    HW129597   3.282   5.443   6.916
 9566SOL    HW229598   3.213   5.554   6.819
 9567SOL     OW29599   5.045   4.603   0.401
 9567SOL    HW129600   5.088   4.681   0.445
 9567SOL    HW229601   4.952   4.627   0.374
 9568SOL     OW29602   4.389   2.651   6.385
 9568SOL    HW129603   4.292   2.637   6.401
 9568SOL    HW229604   4.411   2.748   6.389
 9569SOL     OW29605   6.623   0.839   2.787
 9569SOL    HW129606   6.678   0.909   2.833
 9569SOL    HW229607   6.539   0.823   2.840
 9570SOL     OW29608   0.478   3.375   1.315
 9570SOL    HW129609   0.540   3.352   1.240
 9570SOL    HW229610   0.385   3.350   1.291
 9571SOL     OW29611   3.343   3.304   6.110
 9571SOL    HW129612   3.397   3.388   6.106
 9571SOL    HW229613   3.395   3.233   6.158
 9572SOL     OW29614   2.113   5.231   2.061
 9572SOL    HW129615   2.174   5.193   1.992
 9572SOL    HW229616   2.064   5.309   2.023
 9573SOL     OW29617   0.837   2.118   6.804
 9573SOL    HW129618   0.844   2.216   6.785
 9573SOL    HW229619   0.824   2.104   6.902
 9574SOL     OW29620   3.998   3.098   3.232
 9574SOL    HW129621   4.078   3.141   3.275
 9574SOL    HW229622   3.936   3.065   3.304
 9575SOL     OW29623   0.947   0.850   1.676
 9575SOL    HW129624   0.978   0.776   1.736
 9575SOL    HW229625   1.008   0.929   1.687
 9576SOL     OW29626   2.061   1.659   0.686
 9576SOL    HW129627   2.127   1.652   0.760
 9576SOL    HW229628   2.005   1.741   0.699
 9577SOL     OW29629   1.580   0.241   5.925
 9577SOL    HW129630   1.553   0.336   5.938
 9577SOL    HW229631   1.664   0.222   5.978
 9578SOL     OW29632   0.654   3.739   2.973
 9578SOL    HW129633   0.705   3.670   3.026
 9578SOL    HW229634   0.688   3.740   2.879
 9579SOL     OW29635   0.789   4.444   3.600
 9579SOL    HW129636   0.710   4.504   3.609
 9579SOL    HW229637   0.780   4.391   3.515
 9580SOL     OW29638   4.227   3.227   0.881
 9580SOL    HW129639   4.288   3.202   0.956
 9580SOL    HW229640   4.137   3.249   0.918
 9581SOL     OW29641   0.720   0.097   5.602
 9581SOL    HW129642   0.804   0.076   5.652
 9581SOL    HW229643   0.656   0.144   5.663
 9582SOL     OW29644   4.949   4.773   5.367
 9582SOL    HW129645   4.865   4.819   5.337
 9582SOL    HW229646   5.001   4.742   5.287
 9583SOL     OW29647   3.509   3.744   1.496
 9583SOL    HW129648   3.510   3.712   1.401
 9583SOL    HW229649   3.419   3.727   1.535
 9584SOL     OW29650   0.479   4.680   6.520
 9584SOL    HW129651   0.418   4.735   6.578
 9584SOL    HW229652   0.486   4.722   6.430
 9585SOL     OW29653   6.308   6.712   4.351
 9585SOL    HW129654   6.273   6.725   4.259
 9585SOL    HW229655   6.408   6.722   4.351
 9586SOL     OW29656   5.284   4.865   2.276
 9586SOL    HW129657   5.301   4.766   2.273
 9586SOL    HW229658   5.210   4.884   2.341
 9587SOL     OW29659   1.117   0.266   1.212
 9587SOL    HW129660   1.202   0.217   1.230
 9587SOL    HW229661   1.134   0.338   1.145
 9588SOL     OW29662   6.340   0.454   1.647
 9588SOL    HW129663   6.280   0.381   1.615
 9588SOL    HW229664   6.384   0.426   1.732
 9589SOL     OW29665   2.124   4.932   6.525
 9589SOL    HW129666   2.133   5.000   6.597
 9589SOL    HW229667   2.212   4.921   6.478
 9590SOL     OW29668   6.324   3.006   2.173
 9590SOL    HW129669   6.299   2.997   2.270
 9590SOL    HW229670   6.279   2.934   2.121
 9591SOL     OW29671   2.971   5.835   5.652
 9591SOL    HW129672   2.899   5.839   5.722
 9591SOL    HW229673   3.060   5.836   5.696
 9592SOL     OW29674   3.138   4.546   0.328
 9592SOL    HW129675   3.221   4.500   0.295
 9592SOL    HW229676   3.058   4.496   0.296
 9593SOL     OW29677   0.512   0.885   5.778
 9593SOL    HW129678   0.458   0.804   5.800
 9593SOL    HW229679   0.596   0.857   5.732
 9594SOL     OW29680   1.842   5.140   3.389
 9594SOL    HW129681   1.941   5.127   3.390
 9594SOL    HW229682   1.806   5.112   3.300
 9595SOL     OW29683   0.558   2.979   4.918
 9595SOL    HW129684   0.470   3.011   4.881
 9595SOL    HW229685   0.581   2.890   4.878
 9596SOL     OW29686   0.646   5.110   6.171
 9596SOL    HW129687   0.669   5.207   6.180
 9596SOL    HW229688   0.576   5.099   6.100
 9597SOL     OW29689   0.711   4.547   0.926
 9597SOL    HW129690   0.757   4.636   0.922
 9597SOL    HW229691   0.706   4.508   0.834
 9598SOL     OW29692   1.637   4.431   3.825
 9598SOL    HW129693   1.723   4.479   3.804
 9598SOL    HW229694   1.655   4.356   3.889
 9599SOL     OW29695   2.763   0.238   4.637
 9599SOL    HW129696   2.777   0.310   4.706
 9599SOL    HW229697   2.674   0.195   4.651
 9600SOL     OW29698   2.998   6.521   6.728
 9600SOL    HW129699   3.036   6.611   6.705
 9600SOL    HW229700   3.001   6.462   6.647
 9601SOL     OW29701   4.560   3.844   0.550
 9601SOL    HW129702   4.548   3.826   0.453
 9601SOL    HW229703   4.539   3.762   0.603
 9602SOL     OW29704   6.605   4.469   5.835
 9602SOL    HW129705   6.620   4.400   5.765
 9602SOL    HW229706   6.689   4.479   5.890
 9603SOL     OW29707   3.975   1.607   4.787
 9603SOL    HW129708   3.929   1.693   4.765
 9603SOL    HW229709   4.019   1.615   4.876
 9604SOL     OW29710   4.499   0.171   6.994
 9604SOL    HW129711   4.513   0.268   6.977
 9604SOL    HW229712   4.445   0.131   6.919
 9605SOL     OW29713   0.486   5.687   3.938
 9605SOL    HW129714   0.445   5.640   3.860
 9605SOL    HW229715   0.552   5.755   3.906
 9606SOL     OW29716   2.085   6.005   6.769
 9606SOL    HW129717   1.990   5.975   6.762
 9606SOL    HW229718   2.090   6.083   6.830
 9607SOL     OW29719   1.775   1.773   0.064
 9607SOL    HW129720   1.826   1.836   0.121
 9607SOL    HW229721   1.837   1.704   0.026
 9608SOL     OW29722   6.564   5.305   2.866
 9608SOL    HW129723   6.527   5.392   2.897
 9608SOL    HW229724   6.660   5.298   2.893
 9609SOL     OW29725   2.351   3.906   6.783
 9609SOL    HW129726   2.345   3.807   6.788
 9609SOL    HW229727   2.278   3.940   6.723
 9610SOL     OW29728   1.876   4.604   3.890
 9610SOL    HW129729   1.820   4.677   3.851
 9610SOL    HW229730   1.973   4.629   3.882
 9611SOL     OW29731   0.905   6.601   6.617
 9611SOL    HW129732   0.958   6.554   6.688
 9611SOL    HW229733   0.807   6.590   6.635
 9612SOL     OW29734   0.441   4.136   1.344
 9612SOL    HW129735   0.342   4.123   1.337
 9612SOL    HW229736   0.473   4.189   1.265
 9613SOL     OW29737   5.452   0.024   3.280
 9613SOL    HW129738   5.464   0.004   3.183
 9613SOL    HW229739   5.446   0.122   3.294
 9614SOL     OW29740   3.361   2.527   0.998
 9614SOL    HW129741   3.401   2.506   1.087
 9614SOL    HW229742   3.426   2.580   0.944
 9615SOL     OW29743   2.131   6.579   6.865
 9615SOL    HW129744   2.162   6.506   6.804
 9615SOL    HW229745   2.180   6.663   6.843
 9616SOL     OW29746   4.346   4.011   1.152
 9616SOL    HW129747   4.440   3.985   1.131
 9616SOL    HW229748   4.333   4.013   1.251
 9617SOL     OW29749   1.383   3.106   3.149
 9617SOL    HW129750   1.454   3.122   3.081
 9617SOL    HW229751   1.426   3.080   3.236
 9618SOL     OW29752   3.784   6.951   6.012
 9618SOL    HW129753   3.751   0.007   6.060
 9618SOL    HW229754   3.758   6.957   5.916
 9619SOL     OW29755   1.406   0.007   7.024
 9619SOL    HW129756   1.482   6.970   0.010
 9619SOL    HW229757   1.322   6.982   7.006
 9620SOL     OW29758   4.731   1.192   5.951
 9620SOL    HW129759   4.702   1.263   5.888
 9620SOL    HW229760   4.663   1.118   5.953
 9621SOL     OW29761   0.977   1.289   2.292
 9621SOL    HW129762   1.041   1.213   2.286
 9621SOL    HW229763   0.898   1.262   2.347
 9622SOL     OW29764   6.833   0.918   0.306
 9622SOL    HW129765   6.817   0.894   0.210
 9622SOL    HW229766   6.890   1.000   0.311
 9623SOL     OW29767   3.163   4.402   5.707
 9623SOL    HW129768   3.203   4.316   5.677
 9623SOL    HW229769   3.063   4.395   5.705
 9624SOL     OW29770   6.965   4.419   2.822
 9624SOL    HW129771   6.983   4.449   2.729
 9624SOL    HW229772   6.937   4.323   2.822
 9625SOL     OW29773   5.291   5.162   6.905
 9625SOL    HW129774   5.363   5.229   6.925
 9625SOL    HW229775   5.286   5.148   6.806
 9626SOL     OW29776   3.396   5.318   0.190
 9626SOL    HW129777   3.490   5.310   0.158
 9626SOL    HW229778   3.392   5.304   0.289
 9627SOL     OW29779   6.347   6.028   4.093
 9627SOL    HW129780   6.441   6.021   4.061
 9627SOL    HW229781   6.308   5.936   4.102
 9628SOL     OW29782   5.034   4.618   6.779
 9628SOL    HW129783   4.988   4.706   6.767
 9628SOL    HW229784   4.965   4.546   6.794
 9629SOL     OW29785   0.174   7.012   2.422
 9629SOL    HW129786   0.130   0.048   2.486
 9629SOL    HW229787   0.245   0.035   2.371
 9630SOL     OW29788   6.217   6.331   5.535
 9630SOL    HW129789   6.217   6.327   5.435
 9630SOL    HW229790   6.238   6.240   5.572
 9631SOL     OW29791   6.869   6.929   6.796
 9631SOL    HW129792   6.949   6.871   6.813
 9631SOL    HW229793   6.869   6.958   6.700
 9632SOL     OW29794   1.323   6.672   2.678
 9632SOL    HW129795   1.366   6.670   2.768
 9632SOL    HW229796   1.297   6.766   2.656
 9633SOL     OW29797   5.911   4.845   6.528
 9633SOL    HW129798   5.813   4.841   6.508
 9633SOL    HW229799   5.954   4.917   6.473
 9634SOL     OW29800   1.380   5.831   3.783
 9634SOL    HW129801   1.309   5.761   3.785
 9634SOL    HW229802   1.354   5.904   3.720
 9635SOL     OW29803   1.666   4.935   5.465
 9635SOL    HW129804   1.697   5.028   5.446
 9635SOL    HW229805   1.644   4.889   5.379
 9636SOL     OW29806   3.912   1.598   6.309
 9636SOL    HW129807   3.925   1.621   6.406
 9636SOL    HW229808   4.001   1.591   6.264
 9637SOL     OW29809   2.972   2.348   6.140
 9637SOL    HW129810   2.959   2.364   6.237
 9637SOL    HW229811   3.004   2.254   6.125
 9638SOL     OW29812   6.550   3.226   6.355
 9638SOL    HW129813   6.637   3.265   6.325
 9638SOL    HW229814   6.566   3.143   6.407
 9639SOL     OW29815   3.626   1.524   2.052
 9639SOL    HW129816   3.620   1.611   2.002
 9639SOL    HW229817   3.605   1.541   2.148
 9640SOL     OW29818   2.535   2.257   3.235
 9640SOL    HW129819   2.479   2.186   3.191
 9640SOL    HW229820   2.586   2.218   3.311
 9641SOL     OW29821   4.389   6.453   0.611
 9641SOL    HW129822   4.483   6.456   0.646
 9641SOL    HW229823   4.369   6.540   0.565
 9642SOL     OW29824   3.522   6.413   5.101
 9642SOL    HW129825   3.523   6.513   5.090
 9642SOL    HW229826   3.431   6.383   5.127
 9643SOL     OW29827   5.566   5.074   4.058
 9643SOL    HW129828   5.542   5.171   4.049
 9643SOL    HW229829   5.665   5.064   4.055
 9644SOL     OW29830   1.326   4.241   5.585
 9644SOL    HW129831   1.291   4.187   5.508
 9644SOL    HW229832   1.250   4.285   5.632
 9645SOL     OW29833   3.889   5.303   3.079
 9645SOL    HW129834   3.794   5.323   3.058
 9645SOL    HW229835   3.900   5.204   3.091
 9646SOL     OW29836   2.736   4.742   2.244
 9646SOL    HW129837   2.783   4.687   2.174
 9646SOL    HW229838   2.803   4.801   2.289
 9647SOL     OW29839   6.090   5.464   1.667
 9647SOL    HW129840   6.185   5.486   1.690
 9647SOL    HW229841   6.029   5.523   1.720
 9648SOL     OW29842   4.113   2.119   6.794
 9648SOL    HW129843   4.202   2.160   6.811
 9648SOL    HW229844   4.108   2.089   6.699
 9649SOL     OW29845   2.876   6.278   6.839
 9649SOL    HW129846   2.895   6.360   6.785
 9649SOL    HW229847   2.962   6.244   6.877
 9650SOL     OW29848   5.633   5.034   2.812
 9650SOL    HW129849   5.557   4.999   2.866
 9650SOL    HW229850   5.598   5.090   2.737
 9651SOL     OW29851   0.036   0.941   6.324
 9651SOL    HW129852   0.073   0.901   6.240
 9651SOL    HW229853   6.980   0.995   6.302
 9652SOL     OW29854   2.245   4.967   0.825
 9652SOL    HW129855   2.242   4.867   0.816
 9652SOL    HW229856   2.152   5.004   0.820
 9653SOL     OW29857   3.760   5.380   4.745
 9653SOL    HW129858   3.791   5.297   4.791
 9653SOL    HW229859   3.832   5.415   4.686
 9654SOL     OW29860   3.757   3.274   1.249
 9654SOL    HW129861   3.738   3.253   1.153
 9654SOL    HW229862   3.786   3.192   1.296
 9655SOL     OW29863   0.331   1.938   6.843
 9655SOL    HW129864   0.283   1.970   6.925
 9655SOL    HW229865   0.297   1.847   6.818
 9656SOL     OW29866   2.910   2.822   1.200
 9656SOL    HW129867   2.879   2.833   1.106
 9656SOL    HW229868   2.925   2.912   1.241
 9657SOL     OW29869   6.343   0.909   3.917
 9657SOL    HW129870   6.443   0.912   3.923
 9657SOL    HW229871   6.310   0.826   3.962
 9658SOL     OW29872   6.145   2.136   2.883
 9658SOL    HW129873   6.222   2.086   2.922
 9658SOL    HW229874   6.132   2.222   2.932
 9659SOL     OW29875   6.486   4.753   0.088
 9659SOL    HW129876   6.574   4.743   0.042
 9659SOL    HW229877   6.443   4.839   0.061
 9660SOL     OW29878   0.616   5.919   1.404
 9660SOL    HW129879   0.688   5.855   1.429
 9660SOL    HW229880   0.542   5.914   1.471
 9661SOL     OW29881   4.058   6.123   2.297
 9661SOL    HW129882   4.017   6.149   2.210
 9661SOL    HW229883   4.007   6.166   2.372
 9662SOL     OW29884   5.189   2.333   5.065
 9662SOL    HW129885   5.234   2.353   4.978
 9662SOL    HW229886   5.165   2.419   5.111
 9663SOL     OW29887   0.670   5.669   4.413
 9663SOL    HW129888   0.602   5.631   4.350
 9663SOL    HW229889   0.761   5.637   4.386
 9664SOL     OW29890   6.250   6.962   3.939
 9664SOL    HW129891   6.232   0.006   4.008
 9664SOL    HW229892   6.237   7.002   3.848
 9665SOL     OW29893   5.005   5.798   6.082
 9665SOL    HW129894   5.019   5.891   6.046
 9665SOL    HW229895   4.908   5.786   6.103
 9666SOL     OW29896   5.843   4.406   1.961
 9666SOL    HW129897   5.796   4.426   1.876
 9666SOL    HW229898   5.849   4.489   2.017
 9667SOL     OW29899   2.984   3.568   4.161
 9667SOL    HW129900   3.017   3.499   4.226
 9667SOL    HW229901   2.929   3.636   4.210
 9668SOL     OW29902   5.518   1.134   6.806
 9668SOL    HW129903   5.539   1.101   6.714
 9668SOL    HW229904   5.480   1.059   6.860
 9669SOL     OW29905   0.975   0.013   1.903
 9669SOL    HW129906   0.914   0.090   1.919
 9669SOL    HW229907   1.058   0.024   1.956
 9670SOL     OW29908   5.546   4.601   6.526
 9670SOL    HW129909   5.450   4.610   6.555
 9670SOL    HW229910   5.585   4.692   6.513
 9671SOL     OW29911   6.882   5.392   6.681
 9671SOL    HW129912   6.898   5.309   6.735
 9671SOL    HW229913   6.793   5.431   6.706
 9672SOL     OW29914   1.114   5.846   4.871
 9672SOL    HW129915   1.060   5.762   4.860
 9672SOL    HW229916   1.190   5.845   4.806
 9673SOL     OW29917   5.685   4.045   6.873
 9673SOL    HW129918   5.649   4.042   6.966
 9673SOL    HW229919   5.782   4.070   6.876
 9674SOL     OW29920   2.780   6.349   3.676
 9674SOL    HW129921   2.802   6.388   3.587
 9674SOL    HW229922   2.696   6.391   3.711
 9675SOL     OW29923   5.973   1.891   1.254
 9675SOL    HW129924   6.051   1.954   1.250
 9675SOL    HW229925   5.903   1.929   1.314
 9676SOL     OW29926   1.321   3.577   5.417
 9676SOL    HW129927   1.254   3.504   5.433
 9676SOL    HW229928   1.411   3.548   5.451
 9677SOL     OW29929   2.049   5.762   5.617
 9677SOL    HW129930   2.020   5.812   5.698
 9677SOL    HW229931   2.020   5.667   5.623
 9678SOL     OW29932   3.266   3.843   2.497
 9678SOL    HW129933   3.168   3.831   2.510
 9678SOL    HW229934   3.282   3.899   2.416
 9679SOL     OW29935   2.035   1.086   2.867
 9679SOL    HW129936   1.985   1.037   2.795
 9679SOL    HW229937   2.122   1.119   2.830
 9680SOL     OW29938   6.032   0.329   4.328
 9680SOL    HW129939   6.066   0.243   4.290
 9680SOL    HW229940   5.940   0.348   4.291
 9681SOL     OW29941   3.077   1.097   0.487
 9681SOL    HW129942   3.023   1.160   0.543
 9681SOL    HW229943   3.048   1.104   0.391
 9682SOL     OW29944   4.957   5.078   3.783
 9682SOL    HW129945   4.999   5.145   3.843
 9682SOL    HW229946   4.891   5.124   3.723
 9683SOL     OW29947   2.784   5.541   1.017
 9683SOL    HW129948   2.841   5.624   1.023
 9683SOL    HW229949   2.745   5.521   1.106
 9684SOL     OW29950   0.186   2.262   4.798
 9684SOL    HW129951   0.208   2.278   4.894
 9684SOL    HW229952   0.219   2.339   4.743
 9685SOL     OW29953   2.225   3.538   0.728
 9685SOL    HW129954   2.227   3.528   0.828
 9685SOL    HW229955   2.130   3.540   0.697
 9686SOL     OW29956   6.170   2.297   0.930
 9686SOL    HW129957   6.091   2.302   0.869
 9686SOL    HW229958   6.225   2.217   0.908
 9687SOL     OW29959   1.878   1.143   4.025
 9687SOL    HW129960   1.953   1.082   3.999
 9687SOL    HW229961   1.812   1.094   4.081
 9688SOL     OW29962   6.711   2.176   3.300
 9688SOL    HW129963   6.774   2.159   3.224
 9688SOL    HW229964   6.637   2.109   3.298
 9689SOL     OW29965   1.884   6.322   1.104
 9689SOL    HW129966   1.960   6.382   1.082
 9689SOL    HW229967   1.897   6.233   1.059
 9690SOL     OW29968   5.669   5.567   6.534
 9690SOL    HW129969   5.727   5.542   6.611
 9690SOL    HW229970   5.587   5.509   6.534
 9691SOL     OW29971   2.658   4.810   1.637
 9691SOL    HW129972   2.667   4.900   1.680
 9691SOL    HW229973   2.632   4.743   1.706
 9692SOL     OW29974   3.146   5.076   2.314
 9692SOL    HW129975   3.236   5.058   2.354
 9692SOL    HW229976   3.148   5.161   2.263
 9693SOL     OW29977   6.372   5.457   1.653
 9693SOL    HW129978   6.466   5.455   1.686
 9693SOL    HW229979   6.351   5.372   1.605
 9694SOL     OW29980   2.053   1.262   6.053
 9694SOL    HW129981   2.100   1.184   6.011
 9694SOL    HW229982   2.118   1.337   6.066
 9695SOL     OW29983   7.006   3.869   1.672
 9695SOL    HW129984   6.990   3.838   1.578
 9695SOL    HW229985   6.919   3.888   1.716
 9696SOL     OW29986   5.460   2.591   0.905
 9696SOL    HW129987   5.425   2.659   0.969
 9696SOL    HW229988   5.435   2.499   0.935
 9697SOL     OW29989   6.618   5.870   0.414
 9697SOL    HW129990   6.698   5.854   0.472
 9697SOL    HW229991   6.616   5.803   0.340
 9698SOL     OW29992   5.693   1.899   6.232
 9698SOL    HW129993   5.706   1.859   6.323
 9698SOL    HW229994   5.777   1.890   6.179
 9699SOL     OW29995   0.102   4.471   6.981
 9699SOL    HW129996   0.161   4.427   0.023
 9699SOL    HW229997   0.151   4.476   6.894
 9700SOL     OW29998   4.187   5.164   5.140
 9700SOL    HW129999   4.195   5.118   5.052
 9700SOL    HW230000   4.195   5.263   5.127
 9701SOL     OW30001   3.792   5.036   4.979
 9701SOL    HW130002   3.844   4.997   5.055
 9701SOL    HW230003   3.854   5.060   4.905
 9702SOL     OW30004   5.102   0.381   0.396
 9702SOL    HW130005   5.013   0.378   0.349
 9702SOL    HW230006   5.128   0.476   0.412
 9703SOL     OW30007   4.022   5.325   4.037
 9703SOL    HW130008   4.119   5.319   4.059
 9703SOL    HW230009   3.982   5.233   4.035
 9704SOL     OW30010   3.086   1.209   2.389
 9704SOL    HW130011   3.077   1.191   2.487
 9704SOL    HW230012   3.182   1.227   2.367
 9705SOL     OW30013   4.722   5.625   6.832
 9705SOL    HW130014   4.688   5.712   6.798
 9705SOL    HW230015   4.775   5.639   6.915
 9706SOL     OW30016   0.965   2.232   0.564
 9706SOL    HW130017   1.064   2.222   0.553
 9706SOL    HW230018   0.919   2.162   0.509
 9707SOL     OW30019   6.901   4.152   1.558
 9707SOL    HW130020   6.821   4.092   1.552
 9707SOL    HW230021   6.959   4.122   1.634
 9708SOL     OW30022   1.402   2.110   2.776
 9708SOL    HW130023   1.338   2.055   2.829
 9708SOL    HW230024   1.375   2.108   2.680
 9709SOL     OW30025   5.958   5.576   2.473
 9709SOL    HW130026   6.030   5.518   2.435
 9709SOL    HW230027   5.898   5.521   2.531
 9710SOL     OW30028   0.221   1.505   2.272
 9710SOL    HW130029   0.230   1.564   2.192
 9710SOL    HW230030   0.293   1.526   2.338
 9711SOL     OW30031   1.416   3.199   6.098
 9711SOL    HW130032   1.422   3.207   5.998
 9711SOL    HW230033   1.374   3.111   6.121
 9712SOL     OW30034   5.655   3.753   5.651
 9712SOL    HW130035   5.669   3.851   5.668
 9712SOL    HW230036   5.565   3.740   5.609
 9713SOL     OW30037   1.097   4.378   3.701
 9713SOL    HW130038   1.067   4.301   3.645
 9713SOL    HW230039   1.194   4.397   3.683
 9714SOL     OW30040   2.617   1.718   1.857
 9714SOL    HW130041   2.599   1.739   1.761
 9714SOL    HW230042   2.683   1.784   1.894
 9715SOL     OW30043   5.649   5.105   6.115
 9715SOL    HW130044   5.611   5.013   6.126
 9715SOL    HW230045   5.740   5.099   6.075
 9716SOL     OW30046   4.070   2.670   6.503
 9716SOL    HW130047   3.977   2.635   6.507
 9716SOL    HW230048   4.076   2.754   6.556
 9717SOL     OW30049   5.647   5.659   5.865
 9717SOL    HW130050   5.616   5.752   5.844
 9717SOL    HW230051   5.735   5.664   5.913
 9718SOL     OW30052   4.711   2.863   1.735
 9718SOL    HW130053   4.683   2.924   1.809
 9718SOL    HW230054   4.677   2.898   1.648
 9719SOL     OW30055   0.521   2.061   7.011
 9719SOL    HW130056   0.514   2.013   0.072
 9719SOL    HW230057   0.462   2.017   6.944
 9720SOL     OW30058   0.309   5.719   1.547
 9720SOL    HW130059   0.249   5.771   1.609
 9720SOL    HW230060   0.393   5.695   1.595
 9721SOL     OW30061   1.027   2.846   0.999
 9721SOL    HW130062   0.954   2.911   0.977
 9721SOL    HW230063   1.111   2.873   0.953
 9722SOL     OW30064   0.182   0.447   3.425
 9722SOL    HW130065   0.102   0.498   3.391
 9722SOL    HW230066   0.250   0.441   3.352
 9723SOL     OW30067   2.199   6.183   3.794
 9723SOL    HW130068   2.245   6.271   3.808
 9723SOL    HW230069   2.245   6.132   3.721
 9724SOL     OW30070   2.571   3.670   0.446
 9724SOL    HW130071   2.518   3.608   0.504
 9724SOL    HW230072   2.622   3.617   0.378
 9725SOL     OW30073   3.868   3.934   6.701
 9725SOL    HW130074   3.835   3.975   6.615
 9725SOL    HW230075   3.950   3.984   6.732
 9726SOL     OW30076   4.514   6.859   3.967
 9726SOL    HW130077   4.455   6.921   3.914
 9726SOL    HW230078   4.610   6.881   3.949
 9727SOL     OW30079   0.360   3.432   5.280
 9727SOL    HW130080   0.279   3.441   5.221
 9727SOL    HW230081   0.421   3.509   5.263
 9728SOL     OW30082   0.738   0.444   5.968
 9728SOL    HW130083   0.642   0.435   5.996
 9728SOL    HW230084   0.789   0.363   5.996
 9729SOL     OW30085   1.067   4.272   2.850
 9729SOL    HW130086   1.003   4.334   2.896
 9729SOL    HW230087   1.021   4.184   2.833
 9730SOL     OW30088   7.013   3.332   2.550
 9730SOL    HW130089   0.042   3.252   2.574
 9730SOL    HW230090   0.040   3.391   2.488
 9731SOL     OW30091   4.589   4.056   0.795
 9731SOL    HW130092   4.594   4.034   0.892
 9731SOL    HW230093   4.612   4.153   0.782
 9732SOL     OW30094   5.262   5.822   3.208
 9732SOL    HW130095   5.325   5.899   3.205
 9732SOL    HW230096   5.282   5.758   3.133
 9733SOL     OW30097   5.652   4.858   6.453
 9733SOL    HW130098   5.572   4.883   6.507
 9733SOL    HW230099   5.632   4.870   6.356
 9734SOL     OW30100   5.612   2.317   3.444
 9734SOL    HW130101   5.573   2.387   3.504
 9734SOL    HW230102   5.712   2.320   3.451
 9735SOL     OW30103   1.637   4.302   2.588
 9735SOL    HW130104   1.563   4.273   2.528
 9735SOL    HW230105   1.609   4.293   2.684
 9736SOL     OW30106   5.957   1.659   6.488
 9736SOL    HW130107   5.965   1.636   6.585
 9736SOL    HW230108   6.048   1.661   6.447
 9737SOL     OW30109   6.960   3.177   4.936
 9737SOL    HW130110   6.913   3.256   4.975
 9737SOL    HW230111   7.020   3.207   4.862
 9738SOL     OW30112   1.953   0.123   2.740
 9738SOL    HW130113   1.871   0.123   2.683
 9738SOL    HW230114   1.939   0.182   2.819
 9739SOL     OW30115   6.398   5.196   1.982
 9739SOL    HW130116   6.391   5.118   1.919
 9739SOL    HW230117   6.482   5.247   1.962
 9740SOL     OW30118   6.678   2.997   3.911
 9740SOL    HW130119   6.579   2.991   3.899
 9740SOL    HW230120   6.701   3.078   3.965
 9741SOL     OW30121   4.552   1.580   2.456
 9741SOL    HW130122   4.523   1.619   2.544
 9741SOL    HW230123   4.473   1.538   2.410
 9742SOL     OW30124   4.064   0.184   2.252
 9742SOL    HW130125   4.137   0.123   2.219
 9742SOL    HW230126   3.993   0.191   2.182
 9743SOL     OW30127   1.651   1.897   4.647
 9743SOL    HW130128   1.693   1.819   4.694
 9743SOL    HW230129   1.560   1.870   4.614
 9744SOL     OW30130   7.006   0.306   2.918
 9744SOL    HW130131   7.009   0.368   2.840
 9744SOL    HW230132   6.950   0.345   2.991
 9745SOL     OW30133   6.728   2.741   6.166
 9745SOL    HW130134   6.790   2.819   6.174
 9745SOL    HW230135   6.761   2.679   6.095
 9746SOL     OW30136   6.095   1.008   6.256
 9746SOL    HW130137   6.095   0.980   6.160
 9746SOL    HW230138   6.154   1.087   6.268
 9747SOL     OW30139   2.217   0.606   1.800
 9747SOL    HW130140   2.302   0.565   1.764
 9747SOL    HW230141   2.141   0.544   1.783
 9748SOL     OW30142   1.241   1.400   3.653
 9748SOL    HW130143   1.175   1.392   3.729
 9748SOL    HW230144   1.320   1.453   3.683
 9749SOL     OW30145   2.189   2.032   4.862
 9749SOL    HW130146   2.252   1.970   4.909
 9749SOL    HW230147   2.214   2.036   4.765
 9750SOL     OW30148   5.314   4.844   3.660
 9750SOL    HW130149   5.326   4.875   3.565
 9750SOL    HW230150   5.364   4.905   3.721
 9751SOL     OW30151   2.160   1.343   0.951
 9751SOL    HW130152   2.128   1.390   1.033
 9751SOL    HW230153   2.200   1.409   0.888
 9752SOL     OW30154   5.194   0.984   0.173
 9752SOL    HW130155   5.170   1.060   0.233
 9752SOL    HW230156   5.112   0.933   0.149
 9753SOL     OW30157   5.588   5.353   5.222
 9753SOL    HW130158   5.666   5.314   5.174
 9753SOL    HW230159   5.535   5.280   5.265
 9754SOL     OW30160   0.875   1.717   0.318
 9754SOL    HW130161   0.866   1.769   0.232
 9754SOL    HW230162   0.901   1.623   0.297
 9755SOL     OW30163   4.161   3.573   4.915
 9755SOL    HW130164   4.144   3.672   4.918
 9755SOL    HW230165   4.136   3.532   5.002
 9756SOL     OW30166   6.257   3.440   0.292
 9756SOL    HW130167   6.207   3.358   0.264
 9756SOL    HW230168   6.191   3.511   0.317
 9757SOL     OW30169   5.712   3.381   3.111
 9757SOL    HW130170   5.637   3.427   3.158
 9757SOL    HW230171   5.740   3.301   3.163
 9758SOL     OW30172   2.576   6.953   6.682
 9758SOL    HW130173   2.514   0.000   6.711
 9758SOL    HW230174   2.583   6.952   6.583
 9759SOL     OW30175   2.169   0.143   6.921
 9759SOL    HW130176   2.088   0.104   6.877
 9759SOL    HW230177   2.141   0.217   6.982
 9760SOL     OW30178   4.524   3.403   5.396
 9760SOL    HW130179   4.592   3.466   5.357
 9760SOL    HW230180   4.542   3.310   5.364
 9761SOL     OW30181   6.127   6.465   1.923
 9761SOL    HW130182   6.048   6.509   1.880
 9761SOL    HW230183   6.173   6.407   1.856
 9762SOL     OW30184   2.585   2.561   4.444
 9762SOL    HW130185   2.664   2.618   4.422
 9762SOL    HW230186   2.543   2.593   4.529
 9763SOL     OW30187   4.397   2.343   1.311
 9763SOL    HW130188   4.304   2.379   1.302
 9763SOL    HW230189   4.426   2.349   1.406
 9764SOL     OW30190   0.991   2.574   2.361
 9764SOL    HW130191   1.014   2.535   2.450
 9764SOL    HW230192   0.918   2.519   2.318
 9765SOL     OW30193   6.466   2.077   3.399
 9765SOL    HW130194   6.418   2.072   3.486
 9765SOL    HW230195   6.404   2.050   3.325
 9766SOL     OW30196   2.645   0.599   3.082
 9766SOL    HW130197   2.702   0.527   3.123
 9766SOL    HW230198   2.652   0.682   3.137
 9767SOL     OW30199   5.274   2.188   5.274
 9767SOL    HW130200   5.209   2.233   5.211
 9767SOL    HW230201   5.362   2.176   5.228
 9768SOL     OW30202   4.455   1.520   1.985
 9768SOL    HW130203   4.500   1.607   1.965
 9768SOL    HW230204   4.436   1.515   2.083
 9769SOL     OW30205   1.969   1.330   2.070
 9769SOL    HW130206   2.053   1.304   2.023
 9769SOL    HW230207   1.942   1.422   2.043
 9770SOL     OW30208   5.449   0.271   0.054
 9770SOL    HW130209   5.389   0.336   0.007
 9770SOL    HW230210   5.393   0.209   0.110
 9771SOL     OW30211   3.836   5.112   1.449
 9771SOL    HW130212   3.820   5.183   1.380
 9771SOL    HW230213   3.749   5.072   1.477
 9772SOL     OW30214   0.908   6.062   2.316
 9772SOL    HW130215   0.969   5.997   2.270
 9772SOL    HW230216   0.915   6.151   2.271
 9773SOL     OW30217   5.515   6.811   4.194
 9773SOL    HW130218   5.460   6.800   4.111
 9773SOL    HW230219   5.556   6.723   4.218
 9774SOL     OW30220   6.423   4.739   2.142
 9774SOL    HW130221   6.372   4.789   2.072
 9774SOL    HW230222   6.425   4.793   2.226
 9775SOL     OW30223   3.313   1.601   3.643
 9775SOL    HW130224   3.259   1.684   3.633
 9775SOL    HW230225   3.253   1.521   3.630
 9776SOL     OW30226   6.746   5.412   4.406
 9776SOL    HW130227   6.672   5.470   4.372
 9776SOL    HW230228   6.834   5.456   4.388
 9777SOL     OW30229   5.954   5.091   6.359
 9777SOL    HW130230   6.022   5.152   6.400
 9777SOL    HW230231   5.866   5.139   6.354
 9778SOL     OW30232   6.498   0.414   3.674
 9778SOL    HW130233   6.477   0.477   3.749
 9778SOL    HW230234   6.494   0.320   3.708
 9779SOL     OW30235   2.376   1.596   4.800
 9779SOL    HW130236   2.370   1.693   4.822
 9779SOL    HW230237   2.471   1.566   4.803
 9780SOL     OW30238   2.155   1.897   1.013
 9780SOL    HW130239   2.148   1.799   0.991
 9780SOL    HW230240   2.185   1.947   0.931
 9781SOL     OW30241   1.513   4.039   3.722
 9781SOL    HW130242   1.512   4.021   3.820
 9781SOL    HW230243   1.446   3.981   3.676
 9782SOL     OW30244   0.292   0.571   1.346
 9782SOL    HW130245   0.355   0.583   1.423
 9782SOL    HW230246   0.344   0.544   1.265
 9783SOL     OW30247   4.501   1.686   1.711
 9783SOL    HW130248   4.503   1.586   1.711
 9783SOL    HW230249   4.444   1.719   1.636
 9784SOL     OW30250   4.479   1.250   3.830
 9784SOL    HW130251   4.570   1.259   3.789
 9784SOL    HW230252   4.431   1.337   3.823
 9785SOL     OW30253   0.230   4.146   4.663
 9785SOL    HW130254   0.142   4.105   4.685
 9785SOL    HW230255   0.231   4.173   4.567
 9786SOL     OW30256   1.851   4.897   6.523
 9786SOL    HW130257   1.814   4.974   6.575
 9786SOL    HW230258   1.948   4.912   6.505
 9787SOL     OW30259   5.219   3.381   1.004
 9787SOL    HW130260   5.294   3.347   0.948
 9787SOL    HW230261   5.157   3.436   0.948
 9788SOL     OW30262   0.600   0.458   3.709
 9788SOL    HW130263   0.524   0.414   3.661
 9788SOL    HW230264   0.595   0.437   3.807
 9789SOL     OW30265   1.541   5.903   6.505
 9789SOL    HW130266   1.447   5.887   6.534
 9789SOL    HW230267   1.559   5.851   6.421
 9790SOL     OW30268   5.842   3.998   5.398
 9790SOL    HW130269   5.881   3.985   5.490
 9790SOL    HW230270   5.806   3.912   5.365
 9791SOL     OW30271   0.473   0.879   3.157
 9791SOL    HW130272   0.528   0.938   3.216
 9791SOL    HW230273   0.412   0.935   3.100
 9792SOL     OW30274   5.131   4.948   1.251
 9792SOL    HW130275   5.201   5.015   1.274
 9792SOL    HW230276   5.170   4.856   1.253
 9793SOL     OW30277   5.554   5.787   3.444
 9793SOL    HW130278   5.646   5.770   3.480
 9793SOL    HW230279   5.520   5.874   3.480
 9794SOL     OW30280   6.217   4.049   6.258
 9794SOL    HW130281   6.251   4.054   6.165
 9794SOL    HW230282   6.188   3.956   6.279
 9795SOL     OW30283   1.308   1.974   4.146
 9795SOL    HW130284   1.339   2.051   4.202
 9795SOL    HW230285   1.382   1.945   4.086
 9796SOL     OW30286   3.343   4.080   0.471
 9796SOL    HW130287   3.291   4.047   0.550
 9796SOL    HW230288   3.411   4.147   0.502
 9797SOL     OW30289   3.802   4.037   6.449
 9797SOL    HW130290   3.898   4.049   6.423
 9797SOL    HW230291   3.754   3.987   6.377
 9798SOL     OW30292   2.524   0.654   0.756
 9798SOL    HW130293   2.511   0.608   0.668
 9798SOL    HW230294   2.469   0.738   0.757
 9799SOL     OW30295   3.229   3.442   2.802
 9799SOL    HW130296   3.284   3.484   2.729
 9799SOL    HW230297   3.242   3.343   2.801
 9800SOL     OW30298   3.198   6.042   5.783
 9800SOL    HW130299   3.269   5.997   5.837
 9800SOL    HW230300   3.221   6.038   5.686
 9801SOL     OW30301   4.524   4.818   0.335
 9801SOL    HW130302   4.425   4.806   0.345
 9801SOL    HW230303   4.553   4.896   0.390
 9802SOL     OW30304   6.723   2.629   2.254
 9802SOL    HW130305   6.648   2.684   2.218
 9802SOL    HW230306   6.715   2.535   2.219
 9803SOL     OW30307   6.201   1.183   0.166
 9803SOL    HW130308   6.171   1.089   0.183
 9803SOL    HW230309   6.244   1.219   0.249
 9804SOL     OW30310   0.350   5.516   3.440
 9804SOL    HW130311   0.306   5.541   3.527
 9804SOL    HW230312   0.291   5.544   3.364
 9805SOL     OW30313   1.186   5.861   6.565
 9805SOL    HW130314   1.097   5.838   6.527
 9805SOL    HW230315   1.220   5.946   6.522
 9806SOL     OW30316   0.896   1.625   1.048
 9806SOL    HW130317   0.876   1.570   0.967
 9806SOL    HW230318   0.889   1.722   1.025
 9807SOL     OW30319   2.469   2.770   0.109
 9807SOL    HW130320   2.379   2.735   0.134
 9807SOL    HW230321   2.537   2.697   0.116
 9808SOL     OW30322   5.565   0.870   5.518
 9808SOL    HW130323   5.526   0.778   5.518
 9808SOL    HW230324   5.594   0.894   5.425
 9809SOL     OW30325   0.516   1.755   6.122
 9809SOL    HW130326   0.606   1.771   6.163
 9809SOL    HW230327   0.459   1.703   6.186
 9810SOL     OW30328   2.770   2.220   3.112
 9810SOL    HW130329   2.679   2.230   3.153
 9810SOL    HW230330   2.763   2.229   3.013
 9811SOL     OW30331   5.707   5.215   3.736
 9811SOL    HW130332   5.777   5.224   3.806
 9811SOL    HW230333   5.730   5.138   3.676
 9812SOL     OW30334   3.429   2.188   6.159
 9812SOL    HW130335   3.425   2.214   6.063
 9812SOL    HW230336   3.519   2.209   6.196
 9813SOL     OW30337   5.649   6.227   6.789
 9813SOL    HW130338   5.674   6.228   6.885
 9813SOL    HW230339   5.606   6.139   6.766
 9814SOL     OW30340   0.651   1.050   5.942
 9814SOL    HW130341   0.716   1.118   5.908
 9814SOL    HW230342   0.612   0.999   5.865
 9815SOL     OW30343   6.885   1.914   1.884
 9815SOL    HW130344   6.933   1.996   1.854
 9815SOL    HW230345   6.843   1.869   1.805
 9816SOL     OW30346   6.691   1.439   6.687
 9816SOL    HW130347   6.642   1.419   6.602
 9816SOL    HW230348   6.656   1.381   6.760
 9817SOL     OW30349   2.731   5.679   1.802
 9817SOL    HW130350   2.805   5.629   1.758
 9817SOL    HW230351   2.767   5.738   1.873
 9818SOL     OW30352   1.533   1.239   3.491
 9818SOL    HW130353   1.544   1.279   3.582
 9818SOL    HW230354   1.577   1.149   3.488
 9819SOL     OW30355   5.199   3.629   4.924
 9819SOL    HW130356   5.153   3.599   5.007
 9819SOL    HW230357   5.135   3.680   4.866
 9820SOL     OW30358   2.992   2.177   6.725
 9820SOL    HW130359   2.961   2.132   6.808
 9820SOL    HW230360   2.957   2.271   6.723
 9821SOL     OW30361   3.910   1.809   1.092
 9821SOL    HW130362   3.830   1.869   1.100
 9821SOL    HW230363   3.925   1.787   0.996
 9822SOL     OW30364   3.856   5.554   4.004
 9822SOL    HW130365   3.903   5.467   4.019
 9822SOL    HW230366   3.901   5.625   4.058
 9823SOL     OW30367   0.922   0.230   2.230
 9823SOL    HW130368   0.910   0.131   2.245
 9823SOL    HW230369   1.011   0.246   2.187
 9824SOL     OW30370   2.611   5.861   5.729
 9824SOL    HW130371   2.631   5.763   5.735
 9824SOL    HW230372   2.642   5.896   5.641
 9825SOL     OW30373   5.507   5.782   5.382
 9825SOL    HW130374   5.549   5.839   5.453
 9825SOL    HW230375   5.522   5.825   5.292
 9826SOL     OW30376   3.778   6.331   5.194
 9826SOL    HW130377   3.783   6.327   5.293
 9826SOL    HW230378   3.684   6.350   5.166
 9827SOL     OW30379   2.007   5.255   3.128
 9827SOL    HW130380   2.014   5.348   3.165
 9827SOL    HW230381   2.014   5.189   3.203
 9828SOL     OW30382   3.597   2.076   4.892
 9828SOL    HW130383   3.508   2.122   4.889
 9828SOL    HW230384   3.650   2.101   4.811
 9829SOL     OW30385   4.999   6.692   6.327
 9829SOL    HW130386   4.919   6.669   6.382
 9829SOL    HW230387   4.978   6.675   6.231
 9830SOL     OW30388   5.595   1.230   2.144
 9830SOL    HW130389   5.672   1.294   2.142
 9830SOL    HW230390   5.630   1.136   2.143
 9831SOL     OW30391   0.660   4.510   1.687
 9831SOL    HW130392   0.747   4.481   1.728
 9831SOL    HW230393   0.658   4.483   1.591
 9832SOL     OW30394   4.536   5.472   4.292
 9832SOL    HW130395   4.506   5.486   4.386
 9832SOL    HW230396   4.633   5.447   4.292
 9833SOL     OW30397   3.519   3.606   3.232
 9833SOL    HW130398   3.422   3.626   3.223
 9833SOL    HW230399   3.531   3.515   3.272
 9834SOL     OW30400   1.839   5.020   6.128
 9834SOL    HW130401   1.937   5.017   6.148
 9834SOL    HW230402   1.791   4.953   6.185
 9835SOL     OW30403   3.686   3.374   3.853
 9835SOL    HW130404   3.774   3.420   3.843
 9835SOL    HW230405   3.700   3.275   3.861
 9836SOL     OW30406   0.291   4.396   5.110
 9836SOL    HW130407   0.351   4.383   5.030
 9836SOL    HW230408   0.236   4.478   5.096
 9837SOL     OW30409   5.609   1.800   2.362
 9837SOL    HW130410   5.679   1.836   2.423
 9837SOL    HW230411   5.640   1.714   2.322
 9838SOL     OW30412   1.356   6.742   1.242
 9838SOL    HW130413   1.368   6.698   1.331
 9838SOL    HW230414   1.271   6.710   1.201
 9839SOL     OW30415   4.404   0.783   3.527
 9839SOL    HW130416   4.365   0.706   3.577
 9839SOL    HW230417   4.493   0.757   3.490
 9840SOL     OW30418   4.670   1.505   6.696
 9840SOL    HW130419   4.765   1.514   6.726
 9840SOL    HW230420   4.653   1.567   6.619
 9841SOL     OW30421   0.793   4.841   3.568
 9841SOL    HW130422   0.808   4.935   3.537
 9841SOL    HW230423   0.715   4.802   3.519
 9842SOL     OW30424   3.598   3.434   0.085
 9842SOL    HW130425   3.556   3.348   0.115
 9842SOL    HW230426   3.648   3.474   0.162
 9843SOL     OW30427   6.873   0.335   1.863
 9843SOL    HW130428   6.885   0.372   1.955
 9843SOL    HW230429   6.807   0.390   1.813
 9844SOL     OW30430   6.189   0.627   4.812
 9844SOL    HW130431   6.104   0.580   4.784
 9844SOL    HW230432   6.240   0.568   4.874
 9845SOL     OW30433   1.316   2.122   2.517
 9845SOL    HW130434   1.371   2.205   2.506
 9845SOL    HW230435   1.235   2.129   2.459
 9846SOL     OW30436   5.014   1.330   0.955
 9846SOL    HW130437   5.003   1.240   0.996
 9846SOL    HW230438   4.928   1.381   0.962
 9847SOL     OW30439   4.078   3.443   1.981
 9847SOL    HW130440   4.007   3.415   2.046
 9847SOL    HW230441   4.163   3.460   2.030
 9848SOL     OW30442   3.512   4.359   5.523
 9848SOL    HW130443   3.582   4.388   5.588
 9848SOL    HW230444   3.452   4.291   5.567
 9849SOL     OW30445   0.664   6.795   6.468
 9849SOL    HW130446   0.620   6.719   6.421
 9849SOL    HW230447   0.629   6.802   6.562
 9850SOL     OW30448   0.239   0.379   3.985
 9850SOL    HW130449   0.199   0.416   3.901
 9850SOL    HW230450   0.298   0.302   3.963
 9851SOL     OW30451   2.949   5.577   4.973
 9851SOL    HW130452   2.912   5.529   4.893
 9851SOL    HW230453   2.876   5.590   5.041
 9852SOL     OW30454   1.353   1.935   4.978
 9852SOL    HW130455   1.417   1.982   5.039
 9852SOL    HW230456   1.343   1.986   4.893
 9853SOL     OW30457   6.957   3.656   5.245
 9853SOL    HW130458   6.922   3.706   5.166
 9853SOL    HW230459   7.010   3.577   5.214
 9854SOL     OW30460   0.891   5.727   5.110
 9854SOL    HW130461   0.799   5.765   5.113
 9854SOL    HW230462   0.902   5.670   5.029
 9855SOL     OW30463   1.196   3.540   1.269
 9855SOL    HW130464   1.239   3.450   1.276
 9855SOL    HW230465   1.103   3.535   1.306
 9856SOL     OW30466   5.614   4.483   4.280
 9856SOL    HW130467   5.585   4.554   4.344
 9856SOL    HW230468   5.713   4.481   4.275
 9857SOL     OW30469   5.596   2.821   2.882
 9857SOL    HW130470   5.615   2.884   2.956
 9857SOL    HW230471   5.653   2.843   2.803
 9858SOL     OW30472   0.761   6.581   2.054
 9858SOL    HW130473   0.776   6.663   1.999
 9858SOL    HW230474   0.665   6.577   2.082
 9859SOL     OW30475   6.707   4.794   4.969
 9859SOL    HW130476   6.676   4.885   4.997
 9859SOL    HW230477   6.676   4.726   5.035
 9860SOL     OW30478   2.010   2.281   4.851
 9860SOL    HW130479   2.054   2.202   4.894
 9860SOL    HW230480   1.993   2.262   4.755
 9861SOL     OW30481   3.527   1.207   3.658
 9861SOL    HW130482   3.612   1.233   3.612
 9861SOL    HW230483   3.519   1.257   3.744
 9862SOL     OW30484   2.634   4.245   1.199
 9862SOL    HW130485   2.728   4.220   1.176
 9862SOL    HW230486   2.627   4.255   1.299
 9863SOL     OW30487   3.331   6.013   0.870
 9863SOL    HW130488   3.418   6.018   0.821
 9863SOL    HW230489   3.265   5.962   0.814
 9864SOL     OW30490   3.039   7.013   5.244
 9864SOL    HW130491   2.945   7.003   5.278
 9864SOL    HW230492   3.093   6.933   5.272
 9865SOL     OW30493   0.207   7.023   5.097
 9865SOL    HW130494   0.305   7.006   5.092
 9865SOL    HW230495   0.178   7.023   5.193
 9866SOL     OW30496   6.102   4.310   5.090
 9866SOL    HW130497   6.189   4.312   5.039
 9866SOL    HW230498   6.106   4.239   5.160
 9867SOL     OW30499   4.594   2.482   2.814
 9867SOL    HW130500   4.622   2.578   2.812
 9867SOL    HW230501   4.610   2.441   2.725
 9868SOL     OW30502   0.428   3.811   3.621
 9868SOL    HW130503   0.449   3.872   3.697
 9868SOL    HW230504   0.512   3.791   3.570
 9869SOL     OW30505   0.646   2.660   1.233
 9869SOL    HW130506   0.720   2.604   1.270
 9869SOL    HW230507   0.683   2.743   1.192
 9870SOL     OW30508   4.223   1.088   1.862
 9870SOL    HW130509   4.263   1.179   1.877
 9870SOL    HW230510   4.263   1.023   1.926
 9871SOL     OW30511   6.608   2.403   5.826
 9871SOL    HW130512   6.588   2.421   5.730
 9871SOL    HW230513   6.638   2.309   5.837
 9872SOL     OW30514   2.172   5.411   5.198
 9872SOL    HW130515   2.132   5.355   5.126
 9872SOL    HW230516   2.243   5.359   5.246
 9873SOL     OW30517   1.969   2.160   5.454
 9873SOL    HW130518   2.021   2.077   5.433
 9873SOL    HW230519   2.007   2.203   5.536
 9874SOL     OW30520   0.713   2.930   4.608
 9874SOL    HW130521   0.695   2.935   4.510
 9874SOL    HW230522   0.636   2.885   4.654
 9875SOL     OW30523   0.229   6.296   1.537
 9875SOL    HW130524   0.271   6.256   1.619
 9875SOL    HW230525   0.300   6.319   1.471
 9876SOL     OW30526   3.618   6.907   3.705
 9876SOL    HW130527   3.647   6.825   3.655
 9876SOL    HW230528   3.655   6.988   3.661
 9877SOL     OW30529   0.170   4.155   3.888
 9877SOL    HW130530   0.255   4.139   3.937
 9877SOL    HW230531   0.188   4.160   3.790
 9878SOL     OW30532   1.418   3.024   6.911
 9878SOL    HW130533   1.471   2.962   6.852
 9878SOL    HW230534   1.476   3.055   6.986
 9879SOL     OW30535   1.135   4.372   5.733
 9879SOL    HW130536   1.143   4.471   5.745
 9879SOL    HW230537   1.041   4.343   5.752
 9880SOL     OW30538   2.794   0.908   6.596
 9880SOL    HW130539   2.738   0.938   6.519
 9880SOL    HW230540   2.778   0.810   6.612
 9881SOL     OW30541   5.796   0.357   4.551
 9881SOL    HW130542   5.868   0.334   4.486
 9881SOL    HW230543   5.725   0.287   4.548
 9882SOL     OW30544   3.486   3.491   4.401
 9882SOL    HW130545   3.436   3.423   4.348
 9882SOL    HW230546   3.427   3.569   4.420
 9883SOL     OW30547   1.802   5.674   2.094
 9883SOL    HW130548   1.887   5.683   2.043
 9883SOL    HW230549   1.812   5.718   2.183
 9884SOL     OW30550   2.023   3.194   6.960
 9884SOL    HW130551   2.090   3.124   6.985
 9884SOL    HW230552   1.942   3.186   7.019
 9885SOL     OW30553   0.351   2.972   3.968
 9885SOL    HW130554   0.370   2.946   3.874
 9885SOL    HW230555   0.312   3.064   3.970
 9886SOL     OW30556   6.258   6.302   1.757
 9886SOL    HW130557   6.198   6.283   1.679
 9886SOL    HW230558   6.353   6.284   1.731
 9887SOL     OW30559   4.052   6.681   0.561
 9887SOL    HW130560   4.152   6.673   0.560
 9887SOL    HW230561   4.024   6.755   0.499
 9888SOL     OW30562   5.869   5.693   2.752
 9888SOL    HW130563   5.803   5.760   2.717
 9888SOL    HW230564   5.917   5.732   2.831
 9889SOL     OW30565   0.404   4.740   3.183
 9889SOL    HW130566   0.481   4.792   3.147
 9889SOL    HW230567   0.362   4.686   3.110
 9890SOL     OW30568   6.480   3.000   0.664
 9890SOL    HW130569   6.546   2.925   0.674
 9890SOL    HW230570   6.473   3.049   0.750
 9891SOL     OW30571   5.189   4.642   1.210
 9891SOL    HW130572   5.159   4.547   1.215
 9891SOL    HW230573   5.283   4.645   1.177
 9892SOL     OW30574   2.095   4.812   3.900
 9892SOL    HW130575   2.107   4.774   3.992
 9892SOL    HW230576   2.046   4.899   3.905
 9893SOL     OW30577   6.233   5.854   2.966
 9893SOL    HW130578   6.287   5.918   2.910
 9893SOL    HW230579   6.274   5.848   3.056
 9894SOL     OW30580   3.142   2.123   6.052
 9894SOL    HW130581   3.121   2.104   5.956
 9894SOL    HW230582   3.219   2.187   6.058
 9895SOL     OW30583   5.826   2.096   6.577
 9895SOL    HW130584   5.732   2.063   6.564
 9895SOL    HW230585   5.825   2.196   6.585
 9896SOL     OW30586   4.041   3.016   0.661
 9896SOL    HW130587   3.980   3.057   0.593
 9896SOL    HW230588   4.129   3.064   0.660
 9897SOL     OW30589   5.488   1.434   3.191
 9897SOL    HW130590   5.563   1.497   3.211
 9897SOL    HW230591   5.460   1.443   3.096
 9898SOL     OW30592   1.217   4.762   5.536
 9898SOL    HW130593   1.178   4.800   5.452
 9898SOL    HW230594   1.162   4.683   5.565
 9899SOL     OW30595   5.552   4.448   2.158
 9899SOL    HW130596   5.588   4.531   2.115
 9899SOL    HW230597   5.623   4.407   2.215
 9900SOL     OW30598   1.359   1.772   3.114
 9900SOL    HW130599   1.263   1.800   3.113
 9900SOL    HW230600   1.395   1.779   3.207
 9901SOL     OW30601   1.588   1.741   6.266
 9901SOL    HW130602   1.528   1.789   6.330
 9901SOL    HW230603   1.569   1.643   6.268
 9902SOL     OW30604   3.937   3.399   0.632
 9902SOL    HW130605   3.999   3.355   0.566
 9902SOL    HW230606   3.844   3.362   0.620
 9903SOL     OW30607   4.857   0.774   2.589
 9903SOL    HW130608   4.907   0.687   2.587
 9903SOL    HW230609   4.762   0.758   2.561
 9904SOL     OW30610   0.109   3.633   6.544
 9904SOL    HW130611   0.158   3.553   6.508
 9904SOL    HW230612   0.035   3.657   6.482
 9905SOL     OW30613   1.369   6.611   6.930
 9905SOL    HW130614   1.437   6.603   7.002
 9905SOL    HW230615   1.395   6.684   6.867
 9906SOL     OW30616   1.543   3.115   6.352
 9906SOL    HW130617   1.472   3.156   6.295
 9906SOL    HW230618   1.505   3.095   6.443
 9907SOL     OW30619   2.846   6.093   3.626
 9907SOL    HW130620   2.790   6.176   3.630
 9907SOL    HW230621   2.800   6.019   3.676
 9908SOL     OW30622   0.714   2.971   6.402
 9908SOL    HW130623   0.692   3.068   6.398
 9908SOL    HW230624   0.785   2.955   6.470
 9909SOL     OW30625   3.079   0.951   3.148
 9909SOL    HW130626   3.010   0.931   3.079
 9909SOL    HW230627   3.081   0.878   3.216
 9910SOL     OW30628   0.575   5.075   1.068
 9910SOL    HW130629   0.536   5.034   0.985
 9910SOL    HW230630   0.578   5.174   1.057
 9911SOL     OW30631   5.186   5.078   2.680
 9911SOL    HW130632   5.257   5.042   2.740
 9911SOL    HW230633   5.122   5.005   2.657
 9912SOL     OW30634   3.702   0.487   2.690
 9912SOL    HW130635   3.695   0.586   2.701
 9912SOL    HW230636   3.749   0.465   2.605
 9913SOL     OW30637   5.562   2.745   2.523
 9913SOL    HW130638   5.484   2.738   2.585
 9913SOL    HW230639   5.529   2.740   2.428
 9914SOL     OW30640   1.594   0.767   5.739
 9914SOL    HW130641   1.561   0.674   5.726
 9914SOL    HW230642   1.625   0.804   5.652
 9915SOL     OW30643   5.745   3.762   3.953
 9915SOL    HW130644   5.694   3.770   4.039
 9915SOL    HW230645   5.689   3.714   3.886
 9916SOL     OW30646   2.229   2.716   3.243
 9916SOL    HW130647   2.301   2.649   3.223
 9916SOL    HW230648   2.258   2.807   3.212
 9917SOL     OW30649   3.546   3.740   4.901
 9917SOL    HW130650   3.465   3.775   4.855
 9917SOL    HW230651   3.597   3.816   4.943
 9918SOL     OW30652   1.874   1.549   6.316
 9918SOL    HW130653   1.914   1.639   6.333
 9918SOL    HW230654   1.777   1.559   6.296
 9919SOL     OW30655   1.809   5.542   2.802
 9919SOL    HW130656   1.864   5.524   2.721
 9919SOL    HW230657   1.718   5.572   2.774
 9920SOL     OW30658   3.632   6.654   2.062
 9920SOL    HW130659   3.700   6.687   2.128
 9920SOL    HW230660   3.678   6.620   1.980
 9921SOL     OW30661   6.021   6.498   3.485
 9921SOL    HW130662   6.085   6.462   3.553
 9921SOL    HW230663   6.070   6.559   3.423
 9922SOL     OW30664   4.831   4.316   0.933
 9922SOL    HW130665   4.912   4.374   0.926
 9922SOL    HW230666   4.760   4.351   0.871
 9923SOL     OW30667   6.750   2.667   6.485
 9923SOL    HW130668   6.712   2.676   6.393
 9923SOL    HW230669   6.732   2.751   6.536
 9924SOL     OW30670   5.618   1.393   1.702
 9924SOL    HW130671   5.621   1.480   1.750
 9924SOL    HW230672   5.555   1.331   1.749
 9925SOL     OW30673   1.767   3.759   5.695
 9925SOL    HW130674   1.726   3.835   5.645
 9925SOL    HW230675   1.812   3.697   5.630
 9926SOL     OW30676   2.496   2.111   1.038
 9926SOL    HW130677   2.516   2.027   1.088
 9926SOL    HW230678   2.404   2.142   1.061
 9927SOL     OW30679   0.925   1.989   2.167
 9927SOL    HW130680   0.991   1.936   2.220
 9927SOL    HW230681   0.894   2.067   2.220
 9928SOL     OW30682   0.090   4.622   1.962
 9928SOL    HW130683   0.160   4.604   1.893
 9928SOL    HW230684   0.069   4.538   2.011
 9929SOL     OW30685   3.157   4.337   5.406
 9929SOL    HW130686   3.087   4.272   5.435
 9929SOL    HW230687   3.241   4.288   5.385
 9930SOL     OW30688   0.300   0.469   5.545
 9930SOL    HW130689   0.386   0.447   5.498
 9930SOL    HW230690   0.231   0.400   5.522
 9931SOL     OW30691   0.662   6.138   4.460
 9931SOL    HW130692   0.652   6.044   4.492
 9931SOL    HW230693   0.727   6.186   4.519
 9932SOL     OW30694   1.867   1.916   0.876
 9932SOL    HW130695   1.819   1.829   0.868
 9932SOL    HW230696   1.801   1.991   0.864
 9933SOL     OW30697   2.483   0.764   3.643
 9933SOL    HW130698   2.509   0.696   3.574
 9933SOL    HW230699   2.406   0.818   3.610
 9934SOL     OW30700   5.763   1.735   0.335
 9934SOL    HW130701   5.776   1.688   0.422
 9934SOL    HW230702   5.666   1.754   0.321
 9935SOL     OW30703   2.811   2.451   0.848
 9935SOL    HW130704   2.797   2.406   0.936
 9935SOL    HW230705   2.817   2.549   0.861
 9936SOL     OW30706   5.256   4.883   6.090
 9936SOL    HW130707   5.294   4.929   6.009
 9936SOL    HW230708   5.286   4.788   6.092
 9937SOL     OW30709   6.846   0.382   3.144
 9937SOL    HW130710   6.797   0.388   3.231
 9937SOL    HW230711   6.833   0.467   3.093
 9938SOL     OW30712   5.979   0.853   4.543
 9938SOL    HW130713   6.057   0.796   4.516
 9938SOL    HW230714   5.922   0.871   4.464
 9939SOL     OW30715   1.302   3.612   0.616
 9939SOL    HW130716   1.236   3.548   0.654
 9939SOL    HW230717   1.374   3.630   0.684
 9940SOL     OW30718   6.785   6.747   3.356
 9940SOL    HW130719   6.739   6.672   3.403
 9940SOL    HW230720   6.878   6.718   3.333
 9941SOL     OW30721   3.769   5.014   5.641
 9941SOL    HW130722   3.795   4.921   5.614
 9941SOL    HW230723   3.837   5.079   5.609
 9942SOL     OW30724   4.980   5.287   2.315
 9942SOL    HW130725   4.983   5.280   2.415
 9942SOL    HW230726   5.020   5.374   2.286
 9943SOL     OW30727   1.424   4.036   6.553
 9943SOL    HW130728   1.355   4.089   6.602
 9943SOL    HW230729   1.382   3.953   6.516
 9944SOL     OW30730   0.911   5.163   6.304
 9944SOL    HW130731   0.921   5.106   6.386
 9944SOL    HW230732   0.831   5.222   6.315
 9945SOL     OW30733   6.409   3.761   6.468
 9945SOL    HW130734   6.472   3.818   6.417
 9945SOL    HW230735   6.438   3.755   6.563
 9946SOL     OW30736   5.808   0.112   3.089
 9946SOL    HW130737   5.816   0.199   3.136
 9946SOL    HW230738   5.712   0.095   3.066
 9947SOL     OW30739   1.181   1.724   4.197
 9947SOL    HW130740   1.217   1.817   4.195
 9947SOL    HW230741   1.256   1.659   4.209
 9948SOL     OW30742   6.732   6.373   5.035
 9948SOL    HW130743   6.723   6.471   5.020
 9948SOL    HW230744   6.735   6.325   4.947
 9949SOL     OW30745   6.963   4.650   4.300
 9949SOL    HW130746   6.893   4.690   4.241
 9949SOL    HW230747   0.026   4.657   4.255
 9950SOL     OW30748   6.412   4.743   6.589
 9950SOL    HW130749   6.359   4.660   6.605
 9950SOL    HW230750   6.351   4.818   6.566
 9951SOL     OW30751   1.288   2.976   2.673
 9951SOL    HW130752   1.288   2.977   2.573
 9951SOL    HW230753   1.245   2.892   2.706
 9952SOL     OW30754   0.843   3.626   1.819
 9952SOL    HW130755   0.909   3.551   1.831
 9952SOL    HW230756   0.768   3.595   1.761
 9953SOL     OW30757   6.232   3.029   3.677
 9953SOL    HW130758   6.322   3.067   3.697
 9953SOL    HW230759   6.227   2.935   3.711
 9954SOL     OW30760   2.595   2.003   5.072
 9954SOL    HW130761   2.606   1.984   5.169
 9954SOL    HW230762   2.686   2.010   5.029
 9955SOL     OW30763   4.178   3.275   6.922
 9955SOL    HW130764   4.099   3.277   6.860
 9955SOL    HW230765   4.234   3.194   6.902
 9956SOL     OW30766   0.646   4.515   2.116
 9956SOL    HW130767   0.653   4.437   2.178
 9956SOL    HW230768   0.649   4.484   2.021
 9957SOL     OW30769   5.736   6.776   1.578
 9957SOL    HW130770   5.804   6.834   1.533
 9957SOL    HW230771   5.648   6.823   1.581
 9958SOL     OW30772   3.454   5.238   6.460
 9958SOL    HW130773   3.499   5.155   6.428
 9958SOL    HW230774   3.427   5.226   6.556
 9959SOL     OW30775   4.443   3.553   1.617
 9959SOL    HW130776   4.460   3.583   1.523
 9959SOL    HW230777   4.457   3.454   1.624
 9960SOL     OW30778   6.349   6.654   1.304
 9960SOL    HW130779   6.340   6.703   1.217
 9960SOL    HW230780   6.387   6.563   1.286
 9961SOL     OW30781   1.539   4.650   1.896
 9961SOL    HW130782   1.626   4.601   1.895
 9961SOL    HW230783   1.480   4.610   1.965
 9962SOL     OW30784   3.708   0.092   1.839
 9962SOL    HW130785   3.639   0.055   1.776
 9962SOL    HW230786   3.714   0.033   1.920
 9963SOL     OW30787   2.920   2.298   0.550
 9963SOL    HW130788   3.016   2.286   0.526
 9963SOL    HW230789   2.903   2.254   0.638
 9964SOL     OW30790   4.083   5.155   5.973
 9964SOL    HW130791   4.096   5.092   5.897
 9964SOL    HW230792   4.015   5.224   5.949
 9965SOL     OW30793   3.749   5.525   5.219
 9965SOL    HW130794   3.654   5.494   5.206
 9965SOL    HW230795   3.768   5.602   5.159
 9966SOL     OW30796   2.903   4.956   2.277
 9966SOL    HW130797   2.985   5.012   2.279
 9966SOL    HW230798   2.823   5.015   2.265
 9967SOL     OW30799   6.431   6.083   2.883
 9967SOL    HW130800   6.431   6.170   2.932
 9967SOL    HW230801   6.477   6.094   2.795
 9968SOL     OW30802   4.332   5.871   0.077
 9968SOL    HW130803   4.416   5.816   0.078
 9968SOL    HW230804   4.262   5.824   0.024
 9969SOL     OW30805   1.012   4.331   4.395
 9969SOL    HW130806   1.051   4.369   4.479
 9969SOL    HW230807   0.916   4.307   4.411
 9970SOL     OW30808   5.873   4.994   1.617
 9970SOL    HW130809   5.895   5.012   1.521
 9970SOL    HW230810   5.940   5.041   1.675
 9971SOL     OW30811   1.430   2.736   1.519
 9971SOL    HW130812   1.478   2.822   1.505
 9971SOL    HW230813   1.354   2.729   1.455
 9972SOL     OW30814   3.386   4.452   1.214
 9972SOL    HW130815   3.380   4.516   1.290
 9972SOL    HW230816   3.324   4.480   1.141
 9973SOL     OW30817   4.572   2.615   5.124
 9973SOL    HW130818   4.484   2.630   5.170
 9973SOL    HW230819   4.638   2.577   5.188
 9974SOL     OW30820   6.796   1.884   3.145
 9974SOL    HW130821   6.813   1.957   3.080
 9974SOL    HW230822   6.823   1.796   3.105
 9975SOL     OW30823   0.641   5.125   6.603
 9975SOL    HW130824   0.601   5.046   6.650
 9975SOL    HW230825   0.576   5.202   6.606
 9976SOL     OW30826   1.061   5.083   5.610
 9976SOL    HW130827   1.099   5.173   5.631
 9976SOL    HW230828   1.045   5.032   5.694
 9977SOL     OW30829   5.115   5.088   5.843
 9977SOL    HW130830   5.077   5.042   5.763
 9977SOL    HW230831   5.061   5.065   5.924
 9978SOL     OW30832   0.227   2.199   6.025
 9978SOL    HW130833   0.202   2.249   6.108
 9978SOL    HW230834   0.191   2.248   5.945
 9979SOL     OW30835   5.278   4.110   5.917
 9979SOL    HW130836   5.238   4.185   5.970
 9979SOL    HW230837   5.215   4.032   5.918
 9980SOL     OW30838   2.061   0.634   0.589
 9980SOL    HW130839   1.983   0.576   0.614
 9980SOL    HW230840   2.146   0.590   0.618
 9981SOL     OW30841   1.543   1.949   1.115
 9981SOL    HW130842   1.487   1.877   1.156
 9981SOL    HW230843   1.546   2.028   1.177
 9982SOL     OW30844   2.028   0.910   4.494
 9982SOL    HW130845   2.052   0.912   4.591
 9982SOL    HW230846   1.931   0.931   4.482
 9983SOL     OW30847   6.631   2.283   2.414
 9983SOL    HW130848   6.683   2.346   2.472
 9983SOL    HW230849   6.537   2.315   2.406
 9984SOL     OW30850   0.026   6.086   0.696
 9984SOL    HW130851   0.049   6.165   0.753
 9984SOL    HW230852   0.094   6.075   0.624
 9985SOL     OW30853   2.873   5.257   1.168
 9985SOL    HW130854   2.900   5.347   1.134
 9985SOL    HW230855   2.798   5.221   1.111
 9986SOL     OW30856   6.370   4.543   0.886
 9986SOL    HW130857   6.458   4.592   0.883
 9986SOL    HW230858   6.303   4.590   0.830
 9987SOL     OW30859   5.121   2.965   1.808
 9987SOL    HW130860   5.108   2.910   1.890
 9987SOL    HW230861   5.064   3.047   1.814
 9988SOL     OW30862   0.188   5.335   4.403
 9988SOL    HW130863   0.131   5.350   4.484
 9988SOL    HW230864   0.149   5.262   4.348
 9989SOL     OW30865   6.028   3.857   2.195
 9989SOL    HW130866   6.043   3.863   2.096
 9989SOL    HW230867   6.072   3.934   2.240
 9990SOL     OW30868   1.068   6.247   3.314
 9990SOL    HW130869   1.026   6.174   3.367
 9990SOL    HW230870   1.162   6.262   3.346
 9991SOL     OW30871   2.036   3.267   4.179
 9991SOL    HW130872   1.959   3.328   4.160
 9991SOL    HW230873   2.079   3.295   4.265
 9992SOL     OW30874   3.196   3.623   1.027
 9992SOL    HW130875   3.118   3.579   1.072
 9992SOL    HW230876   3.268   3.555   1.010
 9993SOL     OW30877   3.213   6.158   4.100
 9993SOL    HW130878   3.266   6.243   4.094
 9993SOL    HW230879   3.181   6.132   4.009
 9994SOL     OW30880   6.768   3.895   3.527
 9994SOL    HW130881   6.868   3.906   3.527
 9994SOL    HW230882   6.741   3.834   3.452
 9995SOL     OW30883   3.478   1.112   3.080
 9995SOL    HW130884   3.508   1.121   3.176
 9995SOL    HW230885   3.558   1.113   3.020
 9996SOL     OW30886   3.235   3.879   0.927
 9996SOL    HW130887   3.234   3.790   0.973
 9996SOL    HW230888   3.329   3.913   0.924
 9997SOL     OW30889   5.096   1.495   3.506
 9997SOL    HW130890   5.078   1.558   3.582
 9997SOL    HW230891   5.173   1.529   3.452
 9998SOL     OW30892   4.888   3.743   2.398
 9998SOL    HW130893   4.865   3.835   2.365
 9998SOL    HW230894   4.895   3.680   2.321
 9999SOL     OW30895   0.054   6.497   4.020
 9999SOL    HW130896   0.064   6.550   4.103
 9999SOL    HW230897   0.099   6.408   4.031
10000SOL     OW30898   5.782   1.597   1.456
10000SOL    HW130899   5.833   1.626   1.537
10000SOL    HW230900   5.845   1.579   1.381
10001SOL     OW30901   3.369   6.675   2.098
10001SOL    HW130902   3.329   6.631   2.017
10001SOL    HW230903   3.469   6.673   2.091
10002SOL     OW30904   2.477   1.445   1.174
10002SOL    HW130905   2.529   1.526   1.145
10002SOL    HW230906   2.525   1.363   1.145
10003SOL     OW30907   3.232   1.488   2.547
10003SOL    HW130908   3.263   1.557   2.482
10003SOL    HW230909   3.148   1.446   2.513
10004SOL     OW30910   5.289   3.966   4.816
10004SOL    HW130911   5.343   3.989   4.898
10004SOL    HW230912   5.351   3.951   4.739
10005SOL     OW30913   3.614   5.375   2.576
10005SOL    HW130914   3.694   5.431   2.595
10005SOL    HW230915   3.532   5.433   2.574
10006SOL     OW30916   5.381   6.967   5.467
10006SOL    HW130917   5.331   0.020   5.431
10006SOL    HW230918   5.474   6.995   5.492
10007SOL     OW30919   0.712   3.511   4.627
10007SOL    HW130920   0.621   3.506   4.586
10007SOL    HW230921   0.704   3.545   4.721
10008SOL     OW30922   5.041   2.226   3.807
10008SOL    HW130923   5.129   2.189   3.838
10008SOL    HW230924   4.973   2.153   3.810
10009SOL     OW30925   1.798   4.645   1.561
10009SOL    HW130926   1.780   4.742   1.541
10009SOL    HW230927   1.890   4.621   1.528
10010SOL     OW30928   3.139   5.874   0.003
10010SOL    HW130929   3.224   5.821   0.005
10010SOL    HW230930   3.061   5.813   0.016
10011SOL     OW30931   0.154   4.180   6.928
10011SOL    HW130932   0.217   4.200   6.854
10011SOL    HW230933   0.060   4.194   6.896
10012SOL     OW30934   4.841   0.161   2.455
10012SOL    HW130935   4.856   0.083   2.515
10012SOL    HW230936   4.909   0.232   2.473
10013SOL     OW30937   0.852   3.549   3.880
10013SOL    HW130938   0.803   3.631   3.910
10013SOL    HW230939   0.948   3.571   3.866
10014SOL     OW30940   0.855   6.777   1.858
10014SOL    HW130941   0.879   6.758   1.762
10014SOL    HW230942   0.864   6.875   1.875
10015SOL     OW30943   4.002   5.053   0.346
10015SOL    HW130944   4.058   5.113   0.403
10015SOL    HW230945   3.915   5.034   0.392
10016SOL     OW30946   2.517   1.256   4.939
10016SOL    HW130947   2.530   1.200   4.857
10016SOL    HW230948   2.420   1.279   4.948
10017SOL     OW30949   1.588   1.273   2.857
10017SOL    HW130950   1.489   1.278   2.846
10017SOL    HW230951   1.630   1.351   2.812
10018SOL     OW30952   6.276   4.005   5.485
10018SOL    HW130953   6.251   4.022   5.389
10018SOL    HW230954   6.368   3.968   5.489
10019SOL     OW30955   0.433   1.502   3.077
10019SOL    HW130956   0.365   1.446   3.029
10019SOL    HW230957   0.425   1.487   3.175
10020SOL     OW30958   0.458   1.012   2.089
10020SOL    HW130959   0.546   0.987   2.050
10020SOL    HW230960   0.397   0.933   2.088
10021SOL     OW30961   0.557   3.095   2.281
10021SOL    HW130962   0.512   3.006   2.271
10021SOL    HW230963   0.651   3.081   2.312
10022SOL     OW30964   3.115   5.692   0.307
10022SOL    HW130965   3.040   5.747   0.272
10022SOL    HW230966   3.143   5.727   0.396
10023SOL     OW30967   2.478   5.505   4.915
10023SOL    HW130968   2.482   5.603   4.936
10023SOL    HW230969   2.530   5.454   4.983
10024SOL     OW30970   1.161   5.204   3.139
10024SOL    HW130971   1.189   5.150   3.059
10024SOL    HW230972   1.194   5.160   3.222
10025SOL     OW30973   1.426   3.315   2.093
10025SOL    HW130974   1.462   3.323   2.000
10025SOL    HW230975   1.494   3.272   2.152
10026SOL     OW30976   4.916   6.858   3.667
10026SOL    HW130977   4.990   6.791   3.669
10026SOL    HW230978   4.924   6.920   3.745
10027SOL     OW30979   0.828   2.094   5.010
10027SOL    HW130980   0.842   2.025   4.938
10027SOL    HW230981   0.734   2.128   5.005
10028SOL     OW30982   2.320   1.700   1.504
10028SOL    HW130983   2.399   1.642   1.484
10028SOL    HW230984   2.296   1.753   1.422
10029SOL     OW30985   1.398   3.307   3.561
10029SOL    HW130986   1.299   3.301   3.559
10029SOL    HW230987   1.433   3.329   3.470
10030SOL     OW30988   3.401   0.694   5.068
10030SOL    HW130989   3.366   0.698   4.974
10030SOL    HW230990   3.436   0.783   5.095
10031SOL     OW30991   5.035   5.201   4.562
10031SOL    HW130992   5.100   5.132   4.594
10031SOL    HW230993   5.069   5.243   4.479
10032SOL     OW30994   4.128   0.397   5.905
10032SOL    HW130995   4.091   0.370   5.817
10032SOL    HW230996   4.162   0.316   5.953
10033SOL     OW30997   4.463   2.287   4.639
10033SOL    HW130998   4.453   2.207   4.698
10033SOL    HW230999   4.493   2.365   4.694
10034SOL     OW31000   2.704   0.917   3.674
10034SOL    HW131001   2.642   0.838   3.684
10034SOL    HW231002   2.717   0.959   3.764
10035SOL     OW31003   6.177   4.119   0.542
10035SOL    HW131004   6.201   4.186   0.611
10035SOL    HW231005   6.231   4.135   0.459
10036SOL     OW31006   0.103   0.552   0.498
10036SOL    HW131007   0.010   0.528   0.470
10036SOL    HW231008   0.145   0.473   0.543
10037SOL     OW31009   6.077   0.233   6.715
10037SOL    HW131010   6.083   0.304   6.785
10037SOL    HW231011   6.100   0.272   6.626
10038SOL     OW31012   4.390   7.002   6.363
10038SOL    HW131013   4.433   6.990   6.273
10038SOL    HW231014   4.405   6.919   6.417
10039SOL     OW31015   5.231   6.771   5.388
10039SOL    HW131016   5.271   6.694   5.438
10039SOL    HW231017   5.291   6.851   5.395
10040SOL     OW31018   4.276   6.087   5.927
10040SOL    HW131019   4.191   6.114   5.882
10040SOL    HW231020   4.344   6.061   5.859
10041SOL     OW31021   5.419   5.411   6.536
10041SOL    HW131022   5.458   5.321   6.516
10041SOL    HW231023   5.358   5.438   6.461
10042SOL     OW31024   0.601   1.123   5.433
10042SOL    HW131025   0.588   1.084   5.524
10042SOL    HW231026   0.680   1.080   5.390
10043SOL     OW31027   0.645   1.202   4.089
10043SOL    HW131028   0.634   1.301   4.099
10043SOL    HW231029   0.629   1.176   3.994
10044SOL     OW31030   2.659   2.205   3.454
10044SOL    HW131031   2.702   2.275   3.510
10044SOL    HW231032   2.709   2.119   3.464
10045SOL     OW31033   4.926   0.045   3.856
10045SOL    HW131034   4.878   0.129   3.882
10045SOL    HW231035   5.009   0.035   3.912
10046SOL     OW31036   1.604   2.560   1.429
10046SOL    HW131037   1.545   2.618   1.484
10046SOL    HW231038   1.700   2.579   1.451
10047SOL     OW31039   5.507   3.402   5.184
10047SOL    HW131040   5.532   3.456   5.104
10047SOL    HW231041   5.420   3.436   5.221
10048SOL     OW31042   3.697   1.828   2.246
10048SOL    HW131043   3.737   1.917   2.269
10048SOL    HW231044   3.618   1.812   2.304
10049SOL     OW31045   0.438   0.441   6.512
10049SOL    HW131046   0.461   0.480   6.601
10049SOL    HW231047   0.477   0.349   6.504
10050SOL     OW31048   6.594   2.391   5.213
10050SOL    HW131049   6.641   2.315   5.168
10050SOL    HW231050   6.538   2.357   5.288
10051SOL     OW31051   6.129   1.894   5.075
10051SOL    HW131052   6.155   1.828   5.146
10051SOL    HW231053   6.211   1.930   5.031
10052SOL     OW31054   2.371   2.285   2.769
10052SOL    HW131055   2.457   2.319   2.808
10052SOL    HW231056   2.391   2.223   2.694
10053SOL     OW31057   3.548   5.345   1.545
10053SOL    HW131058   3.456   5.361   1.511
10053SOL    HW231059   3.544   5.284   1.624
10054SOL     OW31060   4.246   5.792   5.876
10054SOL    HW131061   4.266   5.840   5.791
10054SOL    HW231062   4.150   5.806   5.900
10055SOL     OW31063   5.741   2.444   5.529
10055SOL    HW131064   5.772   2.376   5.463
10055SOL    HW231065   5.667   2.497   5.489
10056SOL     OW31066   6.712   5.062   1.169
10056SOL    HW131067   6.667   4.977   1.141
10056SOL    HW231068   6.811   5.052   1.163
10057SOL     OW31069   3.759   1.874   4.337
10057SOL    HW131070   3.745   1.787   4.290
10057SOL    HW231071   3.857   1.893   4.346
10058SOL     OW31072   0.067   3.813   4.553
10058SOL    HW131073   0.019   3.727   4.533
10058SOL    HW231074   0.164   3.803   4.528
10059SOL     OW31075   5.272   6.261   0.610
10059SOL    HW131076   5.273   6.190   0.540
10059SOL    HW231077   5.366   6.288   0.632
10060SOL     OW31078   2.205   1.979   2.301
10060SOL    HW131079   2.152   1.896   2.284
10060SOL    HW231080   2.198   2.039   2.221
10061SOL     OW31081   5.322   0.971   4.772
10061SOL    HW131082   5.339   1.069   4.784
10061SOL    HW231083   5.259   0.958   4.695
10062SOL     OW31084   6.382   7.005   4.884
10062SOL    HW131085   6.330   6.984   4.966
10062SOL    HW231086   6.457   6.940   4.875
10063SOL     OW31087   1.745   1.731   3.868
10063SOL    HW131088   1.747   1.690   3.777
10063SOL    HW231089   1.651   1.733   3.902
10064SOL     OW31090   5.299   6.178   6.583
10064SOL    HW131091   5.363   6.254   6.587
10064SOL    HW231092   5.246   6.183   6.498
10065SOL     OW31093   2.304   0.816   2.444
10065SOL    HW131094   2.233   0.856   2.501
10065SOL    HW231095   2.334   0.883   2.377
10066SOL     OW31096   1.591   1.285   3.762
10066SOL    HW131097   1.543   1.221   3.822
10066SOL    HW231098   1.678   1.245   3.733
10067SOL     OW31099   6.056   3.915   5.009
10067SOL    HW131100   6.059   3.938   4.911
10067SOL    HW231101   6.043   3.998   5.062
10068SOL     OW31102   6.127   3.273   3.602
10068SOL    HW131103   6.187   3.298   3.526
10068SOL    HW231104   6.149   3.181   3.633
10069SOL     OW31105   2.056   5.272   3.786
10069SOL    HW131106   2.054   5.203   3.859
10069SOL    HW231107   2.053   5.228   3.697
10070SOL     OW31108   6.708   0.251   5.089
10070SOL    HW131109   6.678   0.340   5.056
10070SOL    HW231110   6.635   0.209   5.142
10071SOL     OW31111   5.603   5.611   3.743
10071SOL    HW131112   5.521   5.667   3.755
10071SOL    HW231113   5.603   5.537   3.810
10072SOL     OW31114   0.198   5.829   3.691
10072SOL    HW131115   0.102   5.856   3.688
10072SOL    HW231116   0.205   5.730   3.704
10073SOL     OW31117   5.733   4.879   4.762
10073SOL    HW131118   5.831   4.882   4.745
10073SOL    HW231119   5.711   4.803   4.823
10074SOL     OW31120   1.529   1.178   5.220
10074SOL    HW131121   1.486   1.228   5.145
10074SOL    HW231122   1.475   1.190   5.303
10075SOL     OW31123   1.146   2.549   2.592
10075SOL    HW131124   1.114   2.511   2.679
10075SOL    HW231125   1.135   2.648   2.592
10076SOL     OW31126   6.156   0.250   3.882
10076SOL    HW131127   6.154   0.345   3.849
10076SOL    HW231128   6.106   0.191   3.818
10077SOL     OW31129   3.570   3.070   5.947
10077SOL    HW131130   3.611   3.025   6.027
10077SOL    HW231131   3.632   3.142   5.914
10078SOL     OW31132   0.194   5.552   3.660
10078SOL    HW131133   0.116   5.493   3.642
10078SOL    HW231134   0.256   5.507   3.723
10079SOL     OW31135   0.531   3.528   2.539
10079SOL    HW131136   0.612   3.586   2.540
10079SOL    HW231137   0.528   3.476   2.454
10080SOL     OW31138   3.584   1.488   5.551
10080SOL    HW131139   3.504   1.471   5.493
10080SOL    HW231140   3.555   1.492   5.647
10081SOL     OW31141   0.773   0.871   0.124
10081SOL    HW131142   0.804   0.964   0.145
10081SOL    HW231143   0.793   0.850   0.029
10082SOL     OW31144   0.213   4.811   2.298
10082SOL    HW131145   0.255   4.794   2.209
10082SOL    HW231146   0.114   4.819   2.288
10083SOL     OW31147   4.835   0.518   3.183
10083SOL    HW131148   4.801   0.501   3.276
10083SOL    HW231149   4.811   0.611   3.155
10084SOL     OW31150   3.265   1.381   6.284
10084SOL    HW131151   3.209   1.399   6.365
10084SOL    HW231152   3.204   1.363   6.206
10085SOL     OW31153   0.883   6.657   2.448
10085SOL    HW131154   0.981   6.636   2.444
10085SOL    HW231155   0.863   6.705   2.534
10086SOL     OW31156   5.982   5.018   2.061
10086SOL    HW131157   6.016   5.062   1.978
10086SOL    HW231158   5.972   4.920   2.045
10087SOL     OW31159   6.894   6.617   3.669
10087SOL    HW131160   6.947   6.533   3.676
10087SOL    HW231161   6.798   6.598   3.684
10088SOL     OW31162   6.905   0.545   0.129
10088SOL    HW131163   6.858   0.619   0.178
10088SOL    HW231164   6.922   0.469   0.192
10089SOL     OW31165   2.725   2.185   2.815
10089SOL    HW131166   2.819   2.197   2.785
10089SOL    HW231167   2.680   2.117   2.757
10090SOL     OW31168   1.026   5.114   0.937
10090SOL    HW131169   0.981   5.056   1.005
10090SOL    HW231170   0.957   5.169   0.890
10091SOL     OW31171   1.327   3.272   5.559
10091SOL    HW131172   1.227   3.276   5.549
10091SOL    HW231173   1.356   3.176   5.562
10092SOL     OW31174   1.766   3.556   5.092
10092SOL    HW131175   1.668   3.542   5.103
10092SOL    HW231176   1.816   3.493   5.151
10093SOL     OW31177   0.204   3.866   4.932
10093SOL    HW131178   0.229   3.858   5.028
10093SOL    HW231179   0.105   3.879   4.924
10094SOL     OW31180   1.635   6.112   2.146
10094SOL    HW131181   1.653   6.025   2.192
10094SOL    HW231182   1.695   6.121   2.066
10095SOL     OW31183   5.913   1.657   4.938
10095SOL    HW131184   5.868   1.592   4.999
10095SOL    HW231185   5.854   1.737   4.926
10096SOL     OW31186   5.390   5.108   2.229
10096SOL    HW131187   5.356   5.015   2.212
10096SOL    HW231188   5.448   5.136   2.152
10097SOL     OW31189   1.166   1.187   6.991
10097SOL    HW131190   1.229   1.263   7.005
10097SOL    HW231191   1.206   1.104   0.004
10098SOL     OW31192   2.557   0.674   5.222
10098SOL    HW131193   2.586   0.579   5.233
10098SOL    HW231194   2.580   0.726   5.303
10099SOL     OW31195   6.806   4.834   0.555
10099SOL    HW131196   6.740   4.907   0.570
10099SOL    HW231197   6.870   4.861   0.484
10100SOL     OW31198   5.000   6.904   4.432
10100SOL    HW131199   4.915   6.908   4.380
10100SOL    HW231200   4.980   6.902   4.530
10101SOL     OW31201   6.230   3.784   1.315
10101SOL    HW131202   6.287   3.823   1.243
10101SOL    HW231203   6.153   3.846   1.334
10102SOL     OW31204   1.632   0.528   2.514
10102SOL    HW131205   1.610   0.478   2.430
10102SOL    HW231206   1.671   0.617   2.490
10103SOL     OW31207   2.428   1.717   6.278
10103SOL    HW131208   2.458   1.677   6.192
10103SOL    HW231209   2.452   1.814   6.279
10104SOL     OW31210   1.144   2.753   4.229
10104SOL    HW131211   1.216   2.822   4.243
10104SOL    HW231212   1.115   2.754   4.133
10105SOL     OW31213   0.916   0.578   7.019
10105SOL    HW131214   0.865   0.646   6.967
10105SOL    HW231215   0.972   0.523   6.956
10106SOL     OW31216   4.484   6.589   0.870
10106SOL    HW131217   4.532   6.556   0.789
10106SOL    HW231218   4.526   6.548   0.952
10107SOL     OW31219   0.416   1.224   6.420
10107SOL    HW131220   0.397   1.136   6.377
10107SOL    HW231221   0.332   1.265   6.454
10108SOL     OW31222   6.693   6.569   0.404
10108SOL    HW131223   6.675   6.476   0.436
10108SOL    HW231224   6.651   6.582   0.314
10109SOL     OW31225   4.389   0.219   1.166
10109SOL    HW131226   4.330   0.157   1.114
10109SOL    HW231227   4.355   0.313   1.157
10110SOL     OW31228   4.434   6.182   4.496
10110SOL    HW131229   4.481   6.124   4.429
10110SOL    HW231230   4.403   6.125   4.573
10111SOL     OW31231   5.274   3.882   3.509
10111SOL    HW131232   5.340   3.814   3.541
10111SOL    HW231233   5.183   3.841   3.506
10112SOL     OW31234   5.953   3.992   3.708
10112SOL    HW131235   5.861   3.953   3.711
10112SOL    HW231236   5.992   3.979   3.616
10113SOL     OW31237   4.402   0.156   5.293
10113SOL    HW131238   4.302   0.155   5.283
10113SOL    HW231239   4.440   0.235   5.245
10114SOL     OW31240   5.812   1.137   0.827
10114SOL    HW131241   5.879   1.169   0.761
10114SOL    HW231242   5.844   1.052   0.869
10115SOL     OW31243   3.381   1.524   3.982
10115SOL    HW131244   3.416   1.433   3.960
10115SOL    HW231245   3.438   1.566   4.052
10116SOL     OW31246   6.932   5.968   0.489
10116SOL    HW131247   6.922   6.015   0.401
10116SOL    HW231248   6.956   6.035   0.560
10117SOL     OW31249   0.353   6.551   4.942
10117SOL    HW131250   0.293   6.614   4.992
10117SOL    HW231251   0.297   6.491   4.885
10118SOL     OW31252   1.778   5.046   3.132
10118SOL    HW131253   1.786   4.948   3.150
10118SOL    HW231254   1.802   5.064   3.036
10119SOL     OW31255   0.317   5.901   4.388
10119SOL    HW131256   0.360   5.878   4.301
10119SOL    HW231257   0.382   5.951   4.446
10120SOL     OW31258   1.816   4.055   5.115
10120SOL    HW131259   1.910   4.048   5.080
10120SOL    HW231260   1.795   3.976   5.171
10121SOL     OW31261   6.229   4.292   6.419
10121SOL    HW131262   6.205   4.216   6.359
10121SOL    HW231263   6.160   4.364   6.412
10122SOL     OW31264   6.096   2.733   1.193
10122SOL    HW131265   6.046   2.650   1.170
10122SOL    HW231266   6.095   2.796   1.115
10123SOL     OW31267   6.186   0.019   0.246
10123SOL    HW131268   6.285   0.034   0.250
10123SOL    HW231269   6.156   6.999   0.330
10124SOL     OW31270   1.901   3.526   6.644
10124SOL    HW131271   1.926   3.518   6.548
10124SOL    HW231272   1.904   3.623   6.671
10125SOL     OW31273   2.012   1.016   2.420
10125SOL    HW131274   1.949   1.094   2.416
10125SOL    HW231275   2.056   1.014   2.510
10126SOL     OW31276   0.700   6.974   5.907
10126SOL    HW131277   0.726   0.040   5.937
10126SOL    HW231278   0.602   6.960   5.921
10127SOL     OW31279   2.663   4.712   6.389
10127SOL    HW131280   2.631   4.629   6.435
10127SOL    HW231281   2.753   4.737   6.425
10128SOL     OW31282   1.998   0.912   1.260
10128SOL    HW131283   2.019   0.991   1.318
10128SOL    HW231284   2.082   0.867   1.232
10129SOL     OW31285   5.746   2.543   3.195
10129SOL    HW131286   5.713   2.572   3.285
10129SOL    HW231287   5.670   2.544   3.130
10130SOL     OW31288   1.720   3.865   2.194
10130SOL    HW131289   1.680   3.774   2.188
10130SOL    HW231290   1.814   3.862   2.161
10131SOL     OW31291   0.697   0.208   3.483
10131SOL    HW131292   0.775   0.202   3.421
10131SOL    HW231293   0.722   0.166   3.571
10132SOL     OW31294   3.343   0.035   4.943
10132SOL    HW131295   3.413   7.012   4.891
10132SOL    HW231296   3.387   0.083   5.020
10133SOL     OW31297   4.787   6.527   1.330
10133SOL    HW131298   4.767   6.478   1.414
10133SOL    HW231299   4.846   6.605   1.351
10134SOL     OW31300   0.005   6.000   3.940
10134SOL    HW131301   0.064   5.922   3.962
10134SOL    HW231302   0.005   6.015   3.841
10135SOL     OW31303   5.004   3.356   3.614
10135SOL    HW131304   4.961   3.428   3.669
10135SOL    HW231305   4.937   3.285   3.595
10136SOL     OW31306   4.797   0.398   3.428
10136SOL    HW131307   4.830   0.450   3.507
10136SOL    HW231308   4.766   0.308   3.458
10137SOL     OW31309   5.896   4.375   3.633
10137SOL    HW131310   5.990   4.370   3.598
10137SOL    HW231311   5.832   4.373   3.557
10138SOL     OW31312   5.357   2.533   0.600
10138SOL    HW131313   5.282   2.597   0.616
10138SOL    HW231314   5.416   2.530   0.680
10139SOL     OW31315   4.030   3.882   3.359
10139SOL    HW131316   3.974   3.890   3.276
10139SOL    HW231317   4.117   3.839   3.337
10140SOL     OW31318   6.191   6.257   6.152
10140SOL    HW131319   6.183   6.343   6.203
10140SOL    HW231320   6.213   6.276   6.057
10141SOL     OW31321   4.225   1.900   4.772
10141SOL    HW131322   4.206   1.803   4.788
10141SOL    HW231323   4.322   1.912   4.751
10142SOL     OW31324   6.354   6.840   5.219
10142SOL    HW131325   6.337   6.840   5.318
10142SOL    HW231326   6.284   6.895   5.174
10143SOL     OW31327   4.614   0.976   6.764
10143SOL    HW131328   4.553   0.948   6.837
10143SOL    HW231329   4.588   1.067   6.731
10144SOL     OW31330   3.580   0.382   6.507
10144SOL    HW131331   3.653   0.395   6.440
10144SOL    HW231332   3.602   0.304   6.566
10145SOL     OW31333   3.239   5.361   5.225
10145SOL    HW131334   3.194   5.272   5.217
10145SOL    HW231335   3.245   5.387   5.322
10146SOL     OW31336   4.010   5.085   4.823
10146SOL    HW131337   4.034   5.161   4.762
10146SOL    HW231338   4.093   5.049   4.865
10147SOL     OW31339   5.243   4.067   5.208
10147SOL    HW131340   5.324   4.057   5.150
10147SOL    HW231341   5.271   4.096   5.299
10148SOL     OW31342   4.354   5.512   0.030
10148SOL    HW131343   4.438   5.512   7.002
10148SOL    HW231344   4.372   5.554   0.119
10149SOL     OW31345   6.269   2.824   0.523
10149SOL    HW131346   6.329   2.889   0.569
10149SOL    HW231347   6.266   2.845   0.425
10150SOL     OW31348   4.054   3.913   0.382
10150SOL    HW131349   4.057   3.945   0.477
10150SOL    HW231350   4.089   3.984   0.322
10151SOL     OW31351   0.560   6.831   6.714
10151SOL    HW131352   0.544   6.733   6.704
10151SOL    HW231353   0.489   6.871   6.773
10152SOL     OW31354   6.772   5.930   4.482
10152SOL    HW131355   6.791   5.871   4.561
10152SOL    HW231356   6.852   5.986   4.462
10153SOL     OW31357   5.036   6.198   4.030
10153SOL    HW131358   4.957   6.202   3.968
10153SOL    HW231359   5.055   6.289   4.066
10154SOL     OW31360   5.016   6.655   5.254
10154SOL    HW131361   5.090   6.709   5.293
10154SOL    HW231362   4.946   6.716   5.218
10155SOL     OW31363   3.665   2.520   5.554
10155SOL    HW131364   3.653   2.565   5.642
10155SOL    HW231365   3.759   2.531   5.523
10156SOL     OW31366   5.819   0.855   3.119
10156SOL    HW131367   5.779   0.854   3.210
10156SOL    HW231368   5.918   0.852   3.126
10157SOL     OW31369   6.930   2.873   0.273
10157SOL    HW131370   6.926   2.942   0.201
10157SOL    HW231371   6.974   2.790   0.237
10158SOL     OW31372   5.891   4.035   0.777
10158SOL    HW131373   5.889   4.026   0.677
10158SOL    HW231374   5.924   3.950   0.818
10159SOL     OW31375   2.828   3.498   7.019
10159SOL    HW131376   2.909   3.556   7.017
10159SOL    HW231377   2.809   3.464   6.927
10160SOL     OW31378   2.014   2.860   2.098
10160SOL    HW131379   2.095   2.860   2.156
10160SOL    HW231380   1.964   2.946   2.110
10161SOL     OW31381   3.035   2.987   6.252
10161SOL    HW131382   3.042   2.889   6.237
10161SOL    HW231383   2.940   3.016   6.244
10162SOL     OW31384   3.451   4.677   0.406
10162SOL    HW131385   3.458   4.735   0.324
10162SOL    HW231386   3.522   4.704   0.471
10163SOL     OW31387   6.110   4.754   6.266
10163SOL    HW131388   6.015   4.765   6.235
10163SOL    HW231389   6.125   4.660   6.296
10164SOL     OW31390   5.804   3.878   4.720
10164SOL    HW131391   5.804   3.839   4.812
10164SOL    HW231392   5.884   3.937   4.708
10165SOL     OW31393   0.215   1.925   3.093
10165SOL    HW131394   0.147   1.861   3.128
10165SOL    HW231395   0.216   1.922   2.993
10166SOL     OW31396   3.311   2.139   1.933
10166SOL    HW131397   3.217   2.112   1.952
10166SOL    HW231398   3.313   2.226   1.885
10167SOL     OW31399   2.406   3.646   0.100
10167SOL    HW131400   2.354   3.641   0.015
10167SOL    HW231401   2.352   3.608   0.175
10168SOL     OW31402   5.683   3.662   6.211
10168SOL    HW131403   5.779   3.690   6.210
10168SOL    HW231404   5.657   3.634   6.303
10169SOL     OW31405   6.761   4.207   3.655
10169SOL    HW131406   6.756   4.118   3.610
10169SOL    HW231407   6.693   4.212   3.728
10170SOL     OW31408   0.339   5.258   5.295
10170SOL    HW131409   0.367   5.338   5.243
10170SOL    HW231410   0.331   5.283   5.392
10171SOL     OW31411   0.007   2.135   5.003
10171SOL    HW131412   7.019   2.036   5.008
10171SOL    HW231413   0.022   2.162   4.908
10172SOL     OW31414   0.194   6.424   4.788
10172SOL    HW131415   0.160   6.366   4.862
10172SOL    HW231416   0.122   6.487   4.759
10173SOL     OW31417   1.315   3.494   1.719
10173SOL    HW131418   1.277   3.586   1.726
10173SOL    HW231419   1.343   3.477   1.624
10174SOL     OW31420   5.336   5.359   2.838
10174SOL    HW131421   5.313   5.282   2.898
10174SOL    HW231422   5.368   5.325   2.750
10175SOL     OW31423   5.291   1.532   3.757
10175SOL    HW131424   5.206   1.484   3.780
10175SOL    HW231425   5.361   1.466   3.730
10176SOL     OW31426   0.793   3.855   5.476
10176SOL    HW131427   0.832   3.919   5.543
10176SOL    HW231428   0.705   3.821   5.510
10177SOL     OW31429   2.454   0.635   1.035
10177SOL    HW131430   2.471   0.727   1.070
10177SOL    HW231431   2.480   0.630   0.939
10178SOL     OW31432   0.766   0.721   5.878
10178SOL    HW131433   0.774   0.803   5.935
10178SOL    HW231434   0.745   0.642   5.937
10179SOL     OW31435   0.784   2.090   0.043
10179SOL    HW131436   0.685   2.096   0.031
10179SOL    HW231437   0.816   2.168   0.095
10180SOL     OW31438   4.468   0.761   5.722
10180SOL    HW131439   4.502   0.782   5.814
10180SOL    HW231440   4.504   0.673   5.692
10181SOL     OW31441   6.500   3.414   1.654
10181SOL    HW131442   6.414   3.451   1.619
10181SOL    HW231443   6.487   3.318   1.679
10182SOL     OW31444   4.473   0.845   1.474
10182SOL    HW131445   4.461   0.830   1.376
10182SOL    HW231446   4.460   0.759   1.523
10183SOL     OW31447   6.936   2.345   6.800
10183SOL    HW131448   6.971   2.439   6.799
10183SOL    HW231449   6.874   2.331   6.723
10184SOL     OW31450   4.720   0.961   6.273
10184SOL    HW131451   4.785   0.907   6.219
10184SOL    HW231452   4.632   0.962   6.226
10185SOL     OW31453   5.978   6.020   2.378
10185SOL    HW131454   5.976   6.007   2.477
10185SOL    HW231455   6.073   6.027   2.347
10186SOL     OW31456   5.649   3.284   3.718
10186SOL    HW131457   5.632   3.271   3.816
10186SOL    HW231458   5.735   3.334   3.706
10187SOL     OW31459   0.982   3.317   0.336
10187SOL    HW131460   0.924   3.365   0.271
10187SOL    HW231461   0.979   3.219   0.317
10188SOL     OW31462   3.779   5.475   0.798
10188SOL    HW131463   3.859   5.416   0.802
10188SOL    HW231464   3.739   5.484   0.889
10189SOL     OW31465   1.209   1.346   6.019
10189SOL    HW131466   1.295   1.391   6.041
10189SOL    HW231467   1.141   1.414   5.991
10190SOL     OW31468   4.888   3.124   1.796
10190SOL    HW131469   4.826   3.082   1.862
10190SOL    HW231470   4.841   3.200   1.751
10191SOL     OW31471   5.284   5.310   6.172
10191SOL    HW131472   5.303   5.345   6.080
10191SOL    HW231473   5.292   5.211   6.172
10192SOL     OW31474   4.336   1.335   5.308
10192SOL    HW131475   4.320   1.433   5.316
10192SOL    HW231476   4.393   1.304   5.384
10193SOL     OW31477   3.969   3.733   1.711
10193SOL    HW131478   3.981   3.666   1.784
10193SOL    HW231479   3.908   3.697   1.642
10194SOL     OW31480   5.595   5.926   5.852
10194SOL    HW131481   5.652   6.003   5.824
10194SOL    HW231482   5.507   5.960   5.887
10195SOL     OW31483   5.850   5.765   0.875
10195SOL    HW131484   5.883   5.673   0.895
10195SOL    HW231485   5.792   5.797   0.949
10196SOL     OW31486   4.808   1.508   3.744
10196SOL    HW131487   4.859   1.594   3.738
10196SOL    HW231488   4.730   1.511   3.682
10197SOL     OW31489   5.894   1.571   5.246
10197SOL    HW131490   5.859   1.655   5.206
10197SOL    HW231491   5.845   1.493   5.207
10198SOL     OW31492   2.270   6.927   2.119
10198SOL    HW131493   2.229   6.995   2.179
10198SOL    HW231494   2.364   6.910   2.148
10199SOL     OW31495   2.143   3.526   0.241
10199SOL    HW131496   2.159   3.434   0.277
10199SOL    HW231497   2.095   3.580   0.310
10200SOL     OW31498   5.185   2.219   6.811
10200SOL    HW131499   5.101   2.167   6.830
10200SOL    HW231500   5.200   2.222   6.712
10201SOL     OW31501   1.275   4.869   0.952
10201SOL    HW131502   1.177   4.861   0.967
10201SOL    HW231503   1.324   4.813   1.018
10202SOL     OW31504   3.671   4.323   0.611
10202SOL    HW131505   3.657   4.225   0.592
10202SOL    HW231506   3.748   4.356   0.557
10203SOL     OW31507   6.197   2.979   2.893
10203SOL    HW131508   6.107   2.938   2.881
10203SOL    HW231509   6.265   2.907   2.910
10204SOL     OW31510   4.949   6.529   6.857
10204SOL    HW131511   4.860   6.484   6.860
10204SOL    HW231512   5.007   6.493   6.930
10205SOL     OW31513   1.598   7.020   1.629
10205SOL    HW131514   1.694   0.011   1.609
10205SOL    HW231515   1.548   7.010   1.543
10206SOL     OW31516   6.952   0.925   0.052
10206SOL    HW131517   6.983   1.019   0.040
10206SOL    HW231518   0.004   0.865   0.069
10207SOL     OW31519   1.148   1.916   0.390
10207SOL    HW131520   1.051   1.938   0.397
10207SOL    HW231521   1.182   1.882   0.477
10208SOL     OW31522   6.265   4.504   3.952
10208SOL    HW131523   6.173   4.480   3.982
10208SOL    HW231524   6.332   4.466   4.016
10209SOL     OW31525   0.344   6.948   0.624
10209SOL    HW131526   0.331   6.932   0.526
10209SOL    HW231527   0.435   6.916   0.651
10210SOL     OW31528   4.940   6.723   1.551
10210SOL    HW131529   4.928   6.793   1.481
10210SOL    HW231530   4.885   6.747   1.631
10211SOL     OW31531   4.064   6.198   4.866
10211SOL    HW131532   3.981   6.236   4.908
10211SOL    HW231533   4.038   6.131   4.797
10212SOL     OW31534   1.045   0.557   5.150
10212SOL    HW131535   0.997   0.610   5.220
10212SOL    HW231536   1.010   0.464   5.149
10213SOL     OW31537   5.923   2.804   1.767
10213SOL    HW131538   5.885   2.834   1.855
10213SOL    HW231539   6.016   2.838   1.758
10214SOL     OW31540   1.570   1.448   2.645
10214SOL    HW131541   1.585   1.484   2.553
10214SOL    HW231542   1.620   1.504   2.711
10215SOL     OW31543   3.896   3.022   3.634
10215SOL    HW131544   3.884   2.957   3.559
10215SOL    HW231545   3.835   3.100   3.622
10216SOL     OW31546   0.206   1.229   1.496
10216SOL    HW131547   0.173   1.140   1.466
10216SOL    HW231548   0.190   1.239   1.595
10217SOL     OW31549   3.024   1.732   3.078
10217SOL    HW131550   3.035   1.810   3.016
10217SOL    HW231551   3.017   1.764   3.172
10218SOL     OW31552   2.002   1.427   1.704
10218SOL    HW131553   2.092   1.470   1.714
10218SOL    HW231554   2.012   1.327   1.705
10219SOL     OW31555   0.658   1.902   2.974
10219SOL    HW131556   0.579   1.939   2.926
10219SOL    HW231557   0.714   1.849   2.910
10220SOL     OW31558   5.197   1.958   1.040
10220SOL    HW131559   5.249   1.976   1.123
10220SOL    HW231560   5.180   1.860   1.032
10221SOL     OW31561   1.063   4.946   3.358
10221SOL    HW131562   0.998   5.009   3.400
10221SOL    HW231563   1.100   4.885   3.429
10222SOL     OW31564   3.078   4.058   5.493
10222SOL    HW131565   3.137   4.029   5.417
10222SOL    HW231566   3.000   3.996   5.500
10223SOL     OW31567   1.473   5.049   1.424
10223SOL    HW131568   1.499   5.139   1.388
10223SOL    HW231569   1.375   5.036   1.412
10224SOL     OW31570   6.615   2.478   4.930
10224SOL    HW131571   6.657   2.563   4.898
10224SOL    HW231572   6.619   2.475   5.030
10225SOL     OW31573   0.811   5.249   5.845
10225SOL    HW131574   0.848   5.305   5.920
10225SOL    HW231575   0.868   5.168   5.834
10226SOL     OW31576   2.824   1.174   6.014
10226SOL    HW131577   2.743   1.186   6.072
10226SOL    HW231578   2.804   1.208   5.922
10227SOL     OW31579   5.436   4.968   0.835
10227SOL    HW131580   5.457   5.022   0.916
10227SOL    HW231581   5.514   4.909   0.813
10228SOL     OW31582   0.414   6.934   2.143
10228SOL    HW131583   0.319   6.918   2.116
10228SOL    HW231584   0.440   6.870   2.215
10229SOL     OW31585   1.064   3.210   4.564
10229SOL    HW131586   1.151   3.173   4.597
10229SOL    HW231587   1.061   3.309   4.581
10230SOL     OW31588   5.425   6.048   3.242
10230SOL    HW131589   5.420   6.037   3.341
10230SOL    HW231590   5.516   6.021   3.210
10231SOL     OW31591   6.715   5.378   5.558
10231SOL    HW131592   6.622   5.400   5.528
10231SOL    HW231593   6.742   5.439   5.631
10232SOL     OW31594   3.104   1.222   3.463
10232SOL    HW131595   3.200   1.207   3.441
10232SOL    HW231596   3.049   1.209   3.381
10233SOL     OW31597   3.958   4.085   4.946
10233SOL    HW131598   3.893   4.153   4.913
10233SOL    HW231599   4.045   4.131   4.967
10234SOL     OW31600   6.347   1.089   1.459
10234SOL    HW131601   6.313   1.182   1.461
10234SOL    HW231602   6.395   1.073   1.372
10235SOL     OW31603   2.308   2.723   1.724
10235SOL    HW131604   2.284   2.816   1.751
10235SOL    HW231605   2.226   2.677   1.689
10236SOL     OW31606   3.078   0.611   7.007
10236SOL    HW131607   3.125   0.658   6.933
10236SOL    HW231608   3.135   0.614   0.063
10237SOL     OW31609   0.562   3.534   6.947
10237SOL    HW131610   0.543   3.559   0.016
10237SOL    HW231611   0.477   3.510   6.901
10238SOL     OW31612   3.699   4.473   1.702
10238SOL    HW131613   3.651   4.544   1.754
10238SOL    HW231614   3.705   4.390   1.757
10239SOL     OW31615   1.391   3.216   5.001
10239SOL    HW131616   1.351   3.305   5.023
10239SOL    HW231617   1.461   3.193   5.068
10240SOL     OW31618   2.382   5.325   2.451
10240SOL    HW131619   2.313   5.260   2.418
10240SOL    HW231620   2.422   5.373   2.373
10241SOL     OW31621   6.368   6.936   2.342
10241SOL    HW131622   6.372   6.927   2.242
10241SOL    HW231623   6.297   6.875   2.378
10242SOL     OW31624   0.489   1.621   0.865
10242SOL    HW131625   0.422   1.599   0.936
10242SOL    HW231626   0.487   1.719   0.846
10243SOL     OW31627   2.317   4.359   2.548
10243SOL    HW131628   2.302   4.261   2.544
10243SOL    HW231629   2.229   4.406   2.548
10244SOL     OW31630   1.966   4.606   0.705
10244SOL    HW131631   2.040   4.561   0.656
10244SOL    HW231632   1.934   4.685   0.651
10245SOL     OW31633   3.496   3.985   0.883
10245SOL    HW131634   3.496   4.083   0.902
10245SOL    HW231635   3.585   3.959   0.843
10246SOL     OW31636   3.569   3.742   4.165
10246SOL    HW131637   3.567   3.742   4.265
10246SOL    HW231638   3.519   3.663   4.130
10247SOL     OW31639   6.465   3.860   5.786
10247SOL    HW131640   6.453   3.803   5.867
10247SOL    HW231641   6.482   3.955   5.815
10248SOL     OW31642   1.533   6.240   2.740
10248SOL    HW131643   1.582   6.206   2.660
10248SOL    HW231644   1.436   6.250   2.718
10249SOL     OW31645   3.708   5.917   6.479
10249SOL    HW131646   3.673   5.961   6.397
10249SOL    HW231647   3.631   5.889   6.537
10250SOL     OW31648   6.729   3.361   1.512
10250SOL    HW131649   6.687   3.272   1.493
10250SOL    HW231650   6.659   3.425   1.542
10251SOL     OW31651   2.097   1.778   4.696
10251SOL    HW131652   2.181   1.823   4.665
10251SOL    HW231653   2.058   1.828   4.773
10252SOL     OW31654   4.144   4.401   6.232
10252SOL    HW131655   4.058   4.436   6.194
10252SOL    HW231656   4.133   4.384   6.330
10253SOL     OW31657   2.828   5.453   0.684
10253SOL    HW131658   2.803   5.413   0.596
10253SOL    HW231659   2.758   5.430   0.752
10254SOL     OW31660   5.170   1.111   5.448
10254SOL    HW131661   5.140   1.199   5.412
10254SOL    HW231662   5.260   1.089   5.410
10255SOL     OW31663   2.447   6.417   1.346
10255SOL    HW131664   2.412   6.511   1.348
10255SOL    HW231665   2.456   6.387   1.251
10256SOL     OW31666   4.354   1.942   2.026
10256SOL    HW131667   4.389   1.905   1.940
10256SOL    HW231668   4.337   2.040   2.015
10257SOL     OW31669   1.931   5.155   4.279
10257SOL    HW131670   1.942   5.082   4.346
10257SOL    HW231671   1.837   5.190   4.283
10258SOL     OW31672   3.902   2.057   3.646
10258SOL    HW131673   3.992   2.076   3.686
10258SOL    HW231674   3.831   2.099   3.704
10259SOL     OW31675   0.364   3.992   2.771
10259SOL    HW131676   0.378   3.893   2.770
10259SOL    HW231677   0.372   4.027   2.677
10260SOL     OW31678   1.175   1.469   3.105
10260SOL    HW131679   1.179   1.494   3.202
10260SOL    HW231680   1.263   1.432   3.076
10261SOL     OW31681   6.523   5.090   1.389
10261SOL    HW131682   6.582   5.096   1.308
10261SOL    HW231683   6.477   5.001   1.390
10262SOL     OW31684   2.869   0.534   5.461
10262SOL    HW131685   2.908   0.459   5.514
10262SOL    HW231686   2.795   0.500   5.403
10263SOL     OW31687   5.711   7.010   0.749
10263SOL    HW131688   5.662   6.979   0.668
10263SOL    HW231689   5.783   0.047   0.723
10264SOL     OW31690   6.554   6.634   6.675
10264SOL    HW131691   6.476   6.687   6.707
10264SOL    HW231692   6.625   6.695   6.640
10265SOL     OW31693   3.165   2.838   1.539
10265SOL    HW131694   3.113   2.773   1.595
10265SOL    HW231695   3.101   2.890   1.481
10266SOL     OW31696   3.436   2.961   3.748
10266SOL    HW131697   3.462   2.918   3.835
10266SOL    HW231698   3.432   3.061   3.760
10267SOL     OW31699   5.214   1.994   0.280
10267SOL    HW131700   5.165   2.080   0.264
10267SOL    HW231701   5.198   1.932   0.204
10268SOL     OW31702   6.449   6.560   2.199
10268SOL    HW131703   6.368   6.599   2.156
10268SOL    HW231704   6.448   6.461   2.190
10269SOL     OW31705   0.761   4.134   6.576
10269SOL    HW131706   0.750   4.153   6.478
10269SOL    HW231707   0.721   4.209   6.629
10270SOL     OW31708   3.389   4.859   2.364
10270SOL    HW131709   3.313   4.839   2.426
10270SOL    HW231710   3.356   4.863   2.270
10271SOL     OW31711   3.641   2.556   6.934
10271SOL    HW131712   3.606   2.602   7.016
10271SOL    HW231713   3.718   2.608   6.897
10272SOL     OW31714   1.303   0.845   5.767
10272SOL    HW131715   1.261   0.775   5.824
10272SOL    HW231716   1.403   0.836   5.770
10273SOL     OW31717   3.048   5.585   2.638
10273SOL    HW131718   3.044   5.666   2.697
10273SOL    HW231719   3.034   5.612   2.543
10274SOL     OW31720   0.390   4.690   6.011
10274SOL    HW131721   0.400   4.593   5.988
10274SOL    HW231722   0.326   4.700   6.087
10275SOL     OW31723   0.568   6.271   2.045
10275SOL    HW131724   0.527   6.317   2.124
10275SOL    HW231725   0.666   6.261   2.058
10276SOL     OW31726   5.551   6.234   5.269
10276SOL    HW131727   5.508   6.224   5.358
10276SOL    HW231728   5.515   6.165   5.206
10277SOL     OW31729   1.913   6.154   5.242
10277SOL    HW131730   1.892   6.180   5.336
10277SOL    HW231731   2.011   6.146   5.230
10278SOL     OW31732   1.467   1.640   3.487
10278SOL    HW131733   1.480   1.613   3.582
10278SOL    HW231734   1.429   1.564   3.435
10279SOL     OW31735   1.204   4.785   4.177
10279SOL    HW131736   1.209   4.849   4.101
10279SOL    HW231737   1.206   4.691   4.143
10280SOL     OW31738   0.010   2.663   6.544
10280SOL    HW131739   6.943   2.670   6.580
10280SOL    HW231740   0.006   2.640   6.446
10281SOL     OW31741   5.552   1.603   3.523
10281SOL    HW131742   5.560   1.518   3.575
10281SOL    HW231743   5.624   1.606   3.454
10282SOL     OW31744   5.259   3.443   4.550
10282SOL    HW131745   5.306   3.384   4.616
10282SOL    HW231746   5.294   3.536   4.557
10283SOL     OW31747   1.885   2.994   1.283
10283SOL    HW131748   1.835   3.000   1.196
10283SOL    HW231749   1.909   2.899   1.301
10284SOL     OW31750   4.967   2.299   5.381
10284SOL    HW131751   4.935   2.204   5.373
10284SOL    HW231752   5.056   2.301   5.426
10285SOL     OW31753   5.240   6.272   3.118
10285SOL    HW131754   5.276   6.193   3.168
10285SOL    HW231755   5.288   6.355   3.147
10286SOL     OW31756   3.537   1.697   4.111
10286SOL    HW131757   3.568   1.779   4.063
10286SOL    HW231758   3.616   1.648   4.147
10287SOL     OW31759   3.318   5.543   1.750
10287SOL    HW131760   3.357   5.588   1.831
10287SOL    HW231761   3.285   5.452   1.775
10288SOL     OW31762   4.770   5.807   2.796
10288SOL    HW131763   4.855   5.810   2.744
10288SOL    HW231764   4.774   5.731   2.861
10289SOL     OW31765   3.016   6.304   6.497
10289SOL    HW131766   3.057   6.217   6.525
10289SOL    HW231767   3.056   6.332   6.409
10290SOL     OW31768   2.929   3.781   3.021
10290SOL    HW131769   2.943   3.806   3.117
10290SOL    HW231770   3.006   3.814   2.967
10291SOL     OW31771   3.640   1.800   1.967
10291SOL    HW131772   3.593   1.869   1.912
10291SOL    HW231773   3.651   1.834   2.061
10292SOL     OW31774   1.570   2.344   5.132
10292SOL    HW131775   1.618   2.420   5.177
10292SOL    HW231776   1.536   2.373   5.043
10293SOL     OW31777   1.414   3.785   2.338
10293SOL    HW131778   1.487   3.798   2.404
10293SOL    HW231779   1.417   3.692   2.303
10294SOL     OW31780   4.888   2.362   3.196
10294SOL    HW131781   4.976   2.409   3.199
10294SOL    HW231782   4.890   2.283   3.258
10295SOL     OW31783   0.648   3.465   6.245
10295SOL    HW131784   0.706   3.531   6.197
10295SOL    HW231785   0.581   3.513   6.301
10296SOL     OW31786   5.250   1.467   6.892
10296SOL    HW131787   5.208   1.380   6.920
10296SOL    HW231788   5.350   1.456   6.889
10297SOL     OW31789   1.888   1.011   6.160
10297SOL    HW131790   1.790   1.031   6.169
10297SOL    HW231791   1.941   1.089   6.192
10298SOL     OW31792   2.953   4.359   1.296
10298SOL    HW131793   2.883   4.412   1.343
10298SOL    HW231794   3.042   4.373   1.341
10299SOL     OW31795   4.085   4.850   2.926
10299SOL    HW131796   4.054   4.785   2.856
10299SOL    HW231797   4.171   4.891   2.897
10300SOL     OW31798   1.626   4.254   2.294
10300SOL    HW131799   1.618   4.229   2.198
10300SOL    HW231800   1.554   4.208   2.346
10301SOL     OW31801   5.024   1.931   5.212
10301SOL    HW131802   5.071   1.854   5.169
10301SOL    HW231803   5.011   2.004   5.145
10302SOL     OW31804   1.908   6.304   4.788
10302SOL    HW131805   1.903   6.300   4.688
10302SOL    HW231806   1.972   6.235   4.821
10303SOL     OW31807   1.896   5.926   2.915
10303SOL    HW131808   1.993   5.917   2.889
10303SOL    HW231809   1.888   5.994   2.988
10304SOL     OW31810   5.514   6.925   1.581
10304SOL    HW131811   5.471   7.015   1.584
10304SOL    HW231812   5.446   6.854   1.600
10305SOL     OW31813   0.907   4.542   6.037
10305SOL    HW131814   0.875   4.521   5.945
10305SOL    HW231815   0.948   4.460   6.078
10306SOL     OW31816   5.155   5.765   6.847
10306SOL    HW131817   5.231   5.706   6.819
10306SOL    HW231818   5.179   5.861   6.827
10307SOL     OW31819   3.002   2.284   5.345
10307SOL    HW131820   3.065   2.347   5.299
10307SOL    HW231821   2.950   2.334   5.414
10308SOL     OW31822   2.020   3.650   3.184
10308SOL    HW131823   1.943   3.712   3.165
10308SOL    HW231824   2.098   3.676   3.127
10309SOL     OW31825   6.786   2.348   7.008
10309SOL    HW131826   6.854   2.331   6.938
10309SOL    HW231827   6.831   2.376   0.067
10310SOL     OW31828   3.162   4.022   0.695
10310SOL    HW131829   3.172   3.983   0.787
10310SOL    HW231830   3.170   4.121   0.700
10311SOL     OW31831   6.354   5.793   0.501
10311SOL    HW131832   6.441   5.811   0.454
10311SOL    HW231833   6.301   5.878   0.504
10312SOL     OW31834   4.079   5.854   2.406
10312SOL    HW131835   4.065   5.945   2.369
10312SOL    HW231836   3.996   5.800   2.394
10313SOL     OW31837   4.493   6.200   1.674
10313SOL    HW131838   4.463   6.178   1.581
10313SOL    HW231839   4.421   6.177   1.739
10314SOL     OW31840   6.678   0.481   1.748
10314SOL    HW131841   6.598   0.459   1.692
10314SOL    HW231842   6.708   0.574   1.728
10315SOL     OW31843   5.276   5.703   5.202
10315SOL    HW131844   5.346   5.712   5.273
10315SOL    HW231845   5.247   5.607   5.196
10316SOL     OW31846   6.142   1.673   5.304
10316SOL    HW131847   6.063   1.624   5.265
10316SOL    HW231848   6.151   1.648   5.400
10317SOL     OW31849   4.543   6.109   5.771
10317SOL    HW131850   4.612   6.162   5.820
10317SOL    HW231851   4.502   6.166   5.699
10318SOL     OW31852   5.156   0.053   6.525
10318SOL    HW131853   5.226   7.011   6.548
10318SOL    HW231854   5.120   0.034   6.434
10319SOL     OW31855   0.650   2.768   5.827
10319SOL    HW131856   0.569   2.715   5.849
10319SOL    HW231857   0.623   2.860   5.797
10320SOL     OW31858   0.752   7.004   2.560
10320SOL    HW131859   0.818   0.044   2.526
10320SOL    HW231860   0.728   6.940   2.487
10321SOL     OW31861   4.110   2.066   1.763
10321SOL    HW131862   4.026   2.062   1.817
10321SOL    HW231863   4.148   1.973   1.753
10322SOL     OW31864   6.067   5.572   5.414
10322SOL    HW131865   6.055   5.508   5.339
10322SOL    HW231866   5.978   5.610   5.440
10323SOL     OW31867   5.755   3.520   5.200
10323SOL    HW131868   5.830   3.475   5.152
10323SOL    HW231869   5.674   3.462   5.197
10324SOL     OW31870   3.322   3.130   2.032
10324SOL    HW131871   3.297   3.057   1.968
10324SOL    HW231872   3.299   3.219   1.993
10325SOL     OW31873   6.688   4.489   2.294
10325SOL    HW131874   6.776   4.463   2.333
10325SOL    HW231875   6.642   4.408   2.257
10326SOL     OW31876   3.521   5.045   0.437
10326SOL    HW131877   3.519   4.994   0.351
10326SOL    HW231878   3.468   5.130   0.427
10327SOL     OW31879   2.245   1.655   0.882
10327SOL    HW131880   2.268   1.622   0.973
10327SOL    HW231881   2.326   1.696   0.840
10328SOL     OW31882   6.780   2.743   1.393
10328SOL    HW131883   6.770   2.650   1.359
10328SOL    HW231884   6.721   2.805   1.340
10329SOL     OW31885   3.453   0.937   3.648
10329SOL    HW131886   3.516   1.014   3.649
10329SOL    HW231887   3.362   0.968   3.675
10330SOL     OW31888   4.585   0.942   2.352
10330SOL    HW131889   4.524   0.994   2.412
10330SOL    HW231890   4.579   0.979   2.259
10331SOL     OW31891   6.372   0.721   6.036
10331SOL    HW131892   6.418   0.632   6.033
10331SOL    HW231893   6.318   0.728   6.119
10332SOL     OW31894   6.740   0.365   1.164
10332SOL    HW131895   6.663   0.428   1.175
10332SOL    HW231896   6.710   0.284   1.113
10333SOL     OW31897   0.132   4.589   5.034
10333SOL    HW131898   0.108   4.673   5.083
10333SOL    HW231899   0.071   4.578   4.955
10334SOL     OW31900   3.214   0.098   3.424
10334SOL    HW131901   3.120   0.090   3.457
10334SOL    HW231902   3.229   0.190   3.388
10335SOL     OW31903   2.555   4.096   6.445
10335SOL    HW131904   2.562   4.171   6.378
10335SOL    HW231905   2.642   4.049   6.451
10336SOL     OW31906   6.600   0.196   2.122
10336SOL    HW131907   6.632   0.140   2.046
10336SOL    HW231908   6.519   0.155   2.162
10337SOL     OW31909   0.145   6.478   5.755
10337SOL    HW131910   0.104   6.445   5.670
10337SOL    HW231911   0.076   6.524   5.810
10338SOL     OW31912   1.664   5.886   2.274
10338SOL    HW131913   1.722   5.863   2.352
10338SOL    HW231914   1.569   5.865   2.295
10339SOL     OW31915   4.230   3.922   6.598
10339SOL    HW131916   4.193   3.966   6.516
10339SOL    HW231917   4.187   3.961   6.679
10340SOL     OW31918   1.696   4.047   1.180
10340SOL    HW131919   1.606   4.039   1.136
10340SOL    HW231920   1.684   4.078   1.274
10341SOL     OW31921   2.130   3.352   2.688
10341SOL    HW131922   2.085   3.377   2.773
10341SOL    HW231923   2.222   3.392   2.686
10342SOL     OW31924   1.907   0.251   4.805
10342SOL    HW131925   1.826   0.249   4.865
10342SOL    HW231926   1.975   0.186   4.839
10343SOL     OW31927   3.666   5.746   0.051
10343SOL    HW131928   3.631   5.810   7.009
10343SOL    HW231929   3.596   5.728   0.120
10344SOL     OW31930   4.485   3.652   1.338
10344SOL    HW131931   4.571   3.702   1.338
10344SOL    HW231932   4.501   3.557   1.309
10345SOL     OW31933   1.580   1.469   6.330
10345SOL    HW131934   1.578   1.477   6.429
10345SOL    HW231935   1.532   1.386   6.301
10346SOL     OW31936   0.028   5.602   1.515
10346SOL    HW131937   0.075   5.562   1.594
10346SOL    HW231938   0.054   5.553   1.432
10347SOL     OW31939   4.291   1.870   3.909
10347SOL    HW131940   4.263   1.899   3.818
10347SOL    HW231941   4.373   1.921   3.937
10348SOL     OW31942   6.547   2.400   0.808
10348SOL    HW131943   6.501   2.437   0.727
10348SOL    HW231944   6.490   2.415   0.889
10349SOL     OW31945   1.063   1.036   0.391
10349SOL    HW131946   1.054   0.969   0.464
10349SOL    HW231947   1.015   1.003   0.309
10350SOL     OW31948   2.356   6.671   5.090
10350SOL    HW131949   2.367   6.751   5.031
10350SOL    HW231950   2.291   6.607   5.048
10351SOL     OW31951   4.255   4.651   6.125
10351SOL    HW131952   4.172   4.619   6.172
10351SOL    HW231953   4.282   4.739   6.162
10352SOL     OW31954   3.772   1.842   5.894
10352SOL    HW131955   3.864   1.822   5.860
10352SOL    HW231956   3.771   1.836   5.994
10353SOL     OW31957   6.964   2.503   4.987
10353SOL    HW131958   7.012   2.471   5.068
10353SOL    HW231959   6.894   2.570   5.014
10354SOL     OW31960   5.796   2.712   2.347
10354SOL    HW131961   5.722   2.645   2.350
10354SOL    HW231962   5.794   2.768   2.430
10355SOL     OW31963   1.488   6.917   1.977
10355SOL    HW131964   1.497   7.011   1.942
10355SOL    HW231965   1.577   6.886   2.012
10356SOL     OW31966   1.081   4.427   5.397
10356SOL    HW131967   1.047   4.486   5.470
10356SOL    HW231968   1.180   4.440   5.388
10357SOL     OW31969   1.816   3.231   6.348
10357SOL    HW131970   1.772   3.316   6.317
10357SOL    HW231971   1.747   3.170   6.386
10358SOL     OW31972   6.217   2.868   3.240
10358SOL    HW131973   6.211   2.824   3.151
10358SOL    HW231974   6.127   2.899   3.269
10359SOL     OW31975   0.566   1.589   2.020
10359SOL    HW131976   0.611   1.598   2.109
10359SOL    HW231977   0.543   1.493   2.003
10360SOL     OW31978   4.836   5.401   3.323
10360SOL    HW131979   4.796   5.319   3.363
10360SOL    HW231980   4.781   5.480   3.348
10361SOL     OW31981   3.325   6.636   3.613
10361SOL    HW131982   3.298   6.645   3.517
10361SOL    HW231983   3.270   6.697   3.669
10362SOL     OW31984   0.730   4.951   4.913
10362SOL    HW131985   0.742   4.898   4.997
10362SOL    HW231986   0.636   4.942   4.880
10363SOL     OW31987   4.981   1.657   1.761
10363SOL    HW131988   4.902   1.655   1.823
10363SOL    HW231989   5.064   1.634   1.813
10364SOL     OW31990   2.872   3.525   1.267
10364SOL    HW131991   2.791   3.472   1.288
10364SOL    HW231992   2.890   3.589   1.342
10365SOL     OW31993   4.551   4.993   6.071
10365SOL    HW131994   4.556   5.075   6.014
10365SOL    HW231995   4.458   4.982   6.105
10366SOL     OW31996   3.574   1.025   4.137
10366SOL    HW131997   3.553   0.983   4.049
10366SOL    HW231998   3.633   0.964   4.190
10367SOL     OW31999   6.359   1.784   2.696
10367SOL    HW132000   6.300   1.723   2.749
10367SOL    HW232001   6.451   1.744   2.690
10368SOL     OW32002   2.111   1.159   1.614
10368SOL    HW132003   2.091   1.177   1.518
10368SOL    HW232004   2.209   1.147   1.626
10369SOL     OW32005   4.156   0.919   5.222
10369SOL    HW132006   4.246   0.962   5.218
10369SOL    HW232007   4.168   0.820   5.232
10370SOL     OW32008   5.524   1.363   5.087
10370SOL    HW132009   5.478   1.279   5.059
10370SOL    HW232010   5.469   1.411   5.155
10371SOL     OW32011   3.129   6.120   5.286
10371SOL    HW132012   3.092   6.059   5.216
10371SOL    HW232013   3.092   6.095   5.375
10372SOL     OW32014   1.046   1.826   6.637
10372SOL    HW132015   1.107   1.880   6.695
10372SOL    HW232016   0.952   1.837   6.667
10373SOL     OW32017   2.146   5.899   4.939
10373SOL    HW132018   2.071   5.910   4.873
10373SOL    HW232019   2.196   5.986   4.947
10374SOL     OW32020   4.069   1.112   2.688
10374SOL    HW132021   4.052   1.018   2.657
10374SOL    HW232022   4.151   1.114   2.745
10375SOL     OW32023   3.333   1.678   6.066
10375SOL    HW132024   3.285   1.719   5.989
10375SOL    HW232025   3.331   1.741   6.144
10376SOL     OW32026   0.877   6.318   3.562
10376SOL    HW132027   0.910   6.227   3.538
10376SOL    HW232028   0.906   6.384   3.492
10377SOL     OW32029   0.125   0.678   3.938
10377SOL    HW132030   0.208   0.711   3.983
10377SOL    HW232031   0.147   0.648   3.845
10378SOL     OW32032   6.705   0.423   5.905
10378SOL    HW132033   6.739   0.501   5.852
10378SOL    HW232034   6.616   0.446   5.945
10379SOL     OW32035   3.536   6.716   5.149
10379SOL    HW132036   3.446   6.752   5.174
10379SOL    HW232037   3.585   6.785   5.094
10380SOL     OW32038   0.390   1.023   3.986
10380SOL    HW132039   0.367   1.104   4.039
10380SOL    HW232040   0.484   1.030   3.953
10381SOL     OW32041   4.078   5.565   6.187
10381SOL    HW132042   4.093   5.479   6.236
10381SOL    HW232043   4.161   5.620   6.189
10382SOL     OW32044   2.197   4.615   6.861
10382SOL    HW132045   2.130   4.635   6.790
10382SOL    HW232046   2.282   4.665   6.842
10383SOL     OW32047   0.607   3.609   1.048
10383SOL    HW132048   0.695   3.656   1.048
10383SOL    HW232049   0.558   3.632   0.964
10384SOL     OW32050   0.641   0.366   0.631
10384SOL    HW132051   0.717   0.391   0.572
10384SOL    HW232052   0.598   0.449   0.668
10385SOL     OW32053   4.446   0.428   6.676
10385SOL    HW132054   4.439   0.335   6.641
10385SOL    HW232055   4.417   0.493   6.606
10386SOL     OW32056   5.913   3.038   5.327
10386SOL    HW132057   5.850   3.104   5.286
10386SOL    HW232058   5.945   2.975   5.256
10387SOL     OW32059   3.806   2.070   2.224
10387SOL    HW132060   3.758   2.124   2.155
10387SOL    HW232061   3.892   2.116   2.248
10388SOL     OW32062   1.357   5.803   3.378
10388SOL    HW132063   1.399   5.727   3.328
10388SOL    HW232064   1.427   5.853   3.429
10389SOL     OW32065   0.262   6.587   1.527
10389SOL    HW132066   0.263   6.491   1.501
10389SOL    HW232067   0.351   6.612   1.565
10390SOL     OW32068   1.651   3.872   1.524
10390SOL    HW132069   1.571   3.907   1.573
10390SOL    HW232070   1.712   3.948   1.502
10391SOL     OW32071   0.988   5.601   4.897
10391SOL    HW132072   0.910   5.547   4.867
10391SOL    HW232073   1.042   5.550   4.963
10392SOL     OW32074   6.390   3.876   0.158
10392SOL    HW132075   6.428   3.802   0.102
10392SOL    HW232076   6.406   3.963   0.111
10393SOL     OW32077   1.799   1.840   2.848
10393SOL    HW132078   1.772   1.885   2.933
10393SOL    HW232079   1.782   1.901   2.771
10394SOL     OW32080   2.521   6.501   6.201
10394SOL    HW132081   2.527   6.403   6.183
10394SOL    HW232082   2.560   6.521   6.291
10395SOL     OW32083   6.108   0.571   4.365
10395SOL    HW132084   6.175   0.588   4.437
10395SOL    HW232085   6.083   0.474   4.365
10396SOL     OW32086   1.800   0.143   4.220
10396SOL    HW132087   1.880   0.202   4.227
10396SOL    HW232088   1.744   0.152   4.302
10397SOL     OW32089   3.575   1.839   3.569
10397SOL    HW132090   3.546   1.812   3.661
10397SOL    HW232091   3.654   1.784   3.541
10398SOL     OW32092   6.277   2.589   0.289
10398SOL    HW132093   6.242   2.506   0.334
10398SOL    HW232094   6.376   2.582   0.281
10399SOL     OW32095   4.677   1.242   5.129
10399SOL    HW132096   4.696   1.211   5.222
10399SOL    HW232097   4.653   1.163   5.072
10400SOL     OW32098   3.586   5.839   1.868
10400SOL    HW132099   3.675   5.805   1.900
10400SOL    HW232100   3.589   5.854   1.770
10401SOL     OW32101   6.771   0.464   2.160
10401SOL    HW132102   6.708   0.406   2.108
10401SOL    HW232103   6.750   0.560   2.141
10402SOL     OW32104   0.433   2.260   5.753
10402SOL    HW132105   0.337   2.238   5.737
10402SOL    HW232106   0.445   2.288   5.849
10403SOL     OW32107   5.325   1.549   2.349
10403SOL    HW132108   5.275   1.548   2.263
10403SOL    HW232109   5.345   1.643   2.375
10404SOL     OW32110   0.431   6.507   3.565
10404SOL    HW132111   0.338   6.534   3.541
10404SOL    HW232112   0.448   6.413   3.534
10405SOL     OW32113   1.710   5.320   5.022
10405SOL    HW132114   1.740   5.237   5.068
10405SOL    HW232115   1.769   5.338   4.943
10406SOL     OW32116   2.098   3.976   5.121
10406SOL    HW132117   2.189   4.003   5.091
10406SOL    HW232118   2.083   4.007   5.215
10407SOL     OW32119   1.685   1.171   6.698
10407SOL    HW132120   1.617   1.107   6.734
10407SOL    HW232121   1.742   1.124   6.629
10408SOL     OW32122   4.536   5.852   2.673
10408SOL    HW132123   4.553   5.933   2.616
10408SOL    HW232124   4.618   5.830   2.725
10409SOL     OW32125   0.798   4.937   1.050
10409SOL    HW132126   0.812   4.901   0.958
10409SOL    HW232127   0.719   4.999   1.049
10410SOL     OW32128   5.115   1.467   1.303
10410SOL    HW132129   5.194   1.432   1.353
10410SOL    HW232130   5.036   1.408   1.321
10411SOL     OW32131   2.921   5.277   4.193
10411SOL    HW132132   3.021   5.285   4.203
10411SOL    HW232133   2.880   5.367   4.208
10412SOL     OW32134   0.567   1.334   0.870
10412SOL    HW132135   0.583   1.431   0.851
10412SOL    HW232136   0.642   1.297   0.925
10413SOL     OW32137   0.957   1.890   1.003
10413SOL    HW132138   0.936   1.908   0.907
10413SOL    HW232139   0.981   1.975   1.049
10414SOL     OW32140   4.576   6.208   6.245
10414SOL    HW132141   4.595   6.298   6.204
10414SOL    HW232142   4.479   6.186   6.235
10415SOL     OW32143   2.244   4.901   4.461
10415SOL    HW132144   2.190   4.974   4.503
10415SOL    HW232145   2.280   4.841   4.533
10416SOL     OW32146   6.801   1.869   5.931
10416SOL    HW132147   6.858   1.824   5.863
10416SOL    HW232148   6.708   1.879   5.895
10417SOL     OW32149   4.375   4.647   3.328
10417SOL    HW132150   4.426   4.613   3.249
10417SOL    HW232151   4.425   4.625   3.412
10418SOL     OW32152   6.688   4.191   5.375
10418SOL    HW132153   6.755   4.160   5.308
10418SOL    HW232154   6.598   4.197   5.333
10419SOL     OW32155   2.764   1.027   4.888
10419SOL    HW132156   2.767   1.126   4.900
10419SOL    HW232157   2.820   1.002   4.809
10420SOL     OW32158   6.598   4.186   2.270
10420SOL    HW132159   6.577   4.098   2.228
10420SOL    HW232160   6.570   4.186   2.365
10421SOL     OW32161   1.260   3.647   3.964
10421SOL    HW132162   1.287   3.738   3.995
10421SOL    HW232163   1.328   3.613   3.899
10422SOL     OW32164   6.517   3.495   5.165
10422SOL    HW132165   6.483   3.545   5.085
10422SOL    HW232166   6.459   3.514   5.243
10423SOL     OW32167   3.801   4.902   4.691
10423SOL    HW132168   3.718   4.931   4.738
10423SOL    HW232169   3.878   4.958   4.722
10424SOL     OW32170   4.895   1.872   0.336
10424SOL    HW132171   4.973   1.902   0.391
10424SOL    HW232172   4.842   1.804   0.388
10425SOL     OW32173   0.648   6.351   1.657
10425SOL    HW132174   0.646   6.349   1.557
10425SOL    HW232175   0.606   6.435   1.690
10426SOL     OW32176   4.752   3.403   5.635
10426SOL    HW132177   4.818   3.365   5.700
10426SOL    HW232178   4.789   3.399   5.543
10427SOL     OW32179   5.294   5.321   5.866
10427SOL    HW132180   5.390   5.298   5.852
10427SOL    HW232181   5.237   5.241   5.847
10428SOL     OW32182   1.208   1.756   3.846
10428SOL    HW132183   1.127   1.748   3.788
10428SOL    HW232184   1.238   1.852   3.847
10429SOL     OW32185   1.343   3.887   3.283
10429SOL    HW132186   1.244   3.874   3.277
10429SOL    HW232187   1.378   3.915   3.194
10430SOL     OW32188   3.692   5.669   4.436
10430SOL    HW132189   3.639   5.750   4.409
10430SOL    HW232190   3.659   5.589   4.388
10431SOL     OW32191   2.688   1.070   4.246
10431SOL    HW132192   2.685   1.114   4.157
10431SOL    HW232193   2.692   1.140   4.318
10432SOL     OW32194   0.970   1.007   5.491
10432SOL    HW132195   0.954   1.100   5.525
10432SOL    HW232196   1.067   0.986   5.497
10433SOL     OW32197   1.146   6.158   1.534
10433SOL    HW132198   1.076   6.143   1.464
10433SOL    HW232199   1.164   6.256   1.542
10434SOL     OW32200   5.084   6.337   4.677
10434SOL    HW132201   5.040   6.260   4.722
10434SOL    HW232202   5.073   6.328   4.578
10435SOL     OW32203   1.282   2.376   6.202
10435SOL    HW132204   1.374   2.399   6.234
10435SOL    HW232205   1.220   2.371   6.281
10436SOL     OW32206   6.296   3.696   4.659
10436SOL    HW132207   6.320   3.788   4.628
10436SOL    HW232208   6.356   3.668   4.733
10437SOL     OW32209   5.150   5.084   5.480
10437SOL    HW132210   5.243   5.116   5.463
10437SOL    HW232211   5.122   5.022   5.407
10438SOL     OW32212   6.963   6.384   5.211
10438SOL    HW132213   6.873   6.388   5.169
10438SOL    HW232214   6.975   6.462   5.273
10439SOL     OW32215   6.240   0.885   4.962
10439SOL    HW132216   6.333   0.922   4.950
10439SOL    HW232217   6.226   0.810   4.897
10440SOL     OW32218   6.945   1.272   6.726
10440SOL    HW132219   6.886   1.270   6.807
10440SOL    HW232220   6.957   1.179   6.692
10441SOL     OW32221   3.330   1.863   1.116
10441SOL    HW132222   3.374   1.816   1.193
10441SOL    HW232223   3.322   1.961   1.137
10442SOL     OW32224   3.410   0.925   5.214
10442SOL    HW132225   3.339   0.969   5.269
10442SOL    HW232226   3.499   0.935   5.259
10443SOL     OW32227   0.030   2.245   2.599
10443SOL    HW132228   0.023   2.230   2.697
10443SOL    HW232229   0.041   2.157   2.552
10444SOL     OW32230   3.441   4.922   3.423
10444SOL    HW132231   3.401   4.945   3.512
10444SOL    HW232232   3.388   4.965   3.350
10445SOL     OW32233   0.401   3.549   2.141
10445SOL    HW132234   0.492   3.510   2.130
10445SOL    HW232235   0.337   3.500   2.080
10446SOL     OW32236   1.866   4.177   5.553
10446SOL    HW132237   1.898   4.121   5.629
10446SOL    HW232238   1.863   4.273   5.581
10447SOL     OW32239   6.279   1.721   2.177
10447SOL    HW132240   6.330   1.779   2.240
10447SOL    HW232241   6.193   1.693   2.219
10448SOL     OW32242   3.414   0.685   3.573
10448SOL    HW132243   3.455   0.628   3.644
10448SOL    HW232244   3.436   0.781   3.590
10449SOL     OW32245   3.678   5.333   0.125
10449SOL    HW132246   3.771   5.362   0.144
10449SOL    HW232247   3.646   5.375   0.041
10450SOL     OW32248   6.203   0.730   6.261
10450SOL    HW132249   6.151   0.810   6.291
10450SOL    HW232250   6.295   0.733   6.301
10451SOL     OW32251   2.907   0.507   3.777
10451SOL    HW132252   2.872   0.446   3.848
10451SOL    HW232253   2.968   0.575   3.819
10452SOL     OW32254   6.919   2.556   2.991
10452SOL    HW132255   6.896   2.517   3.081
10452SOL    HW232256   7.019   2.554   2.979
10453SOL     OW32257   4.611   6.066   2.436
10453SOL    HW132258   4.659   6.153   2.427
10453SOL    HW232259   4.515   6.077   2.410
10454SOL     OW32260   6.286   1.133   6.906
10454SOL    HW132261   6.270   1.133   7.005
10454SOL    HW232262   6.335   1.216   6.880
10455SOL     OW32263   6.136   6.243   4.458
10455SOL    HW132264   6.126   6.252   4.557
10455SOL    HW232265   6.049   6.215   4.418
10456SOL     OW32266   0.021   5.439   0.087
10456SOL    HW132267   0.005   5.347   0.122
10456SOL    HW232268   7.021   5.506   0.157
10457SOL     OW32269   4.347   3.424   6.649
10457SOL    HW132270   4.406   3.494   6.688
10457SOL    HW232271   4.257   3.428   6.693
10458SOL     OW32272   6.754   0.679   5.817
10458SOL    HW132273   6.790   0.755   5.872
10458SOL    HW232274   6.716   0.715   5.732
10459SOL     OW32275   6.359   4.980   0.824
10459SOL    HW132276   6.361   4.917   0.746
10459SOL    HW232277   6.452   5.008   0.847
10460SOL     OW32278   6.867   4.132   1.883
10460SOL    HW132279   6.846   4.035   1.868
10460SOL    HW232280   6.837   4.159   1.974
10461SOL     OW32281   6.712   4.494   5.419
10461SOL    HW132282   6.804   4.532   5.413
10461SOL    HW232283   6.716   4.398   5.445
10462SOL     OW32284   4.783   1.494   1.950
10462SOL    HW132285   4.726   1.457   1.876
10462SOL    HW232286   4.752   1.586   1.974
10463SOL     OW32287   4.948   1.480   6.202
10463SOL    HW132288   4.951   1.529   6.115
10463SOL    HW232289   4.923   1.543   6.275
10464SOL     OW32290   5.527   5.710   2.241
10464SOL    HW132291   5.613   5.668   2.271
10464SOL    HW232292   5.544   5.807   2.220
10465SOL     OW32293   5.083   4.506   2.551
10465SOL    HW132294   5.006   4.570   2.552
10465SOL    HW232295   5.093   4.468   2.459
10466SOL     OW32296   4.894   4.417   6.204
10466SOL    HW132297   4.902   4.321   6.176
10466SOL    HW232298   4.861   4.421   6.298
10467SOL     OW32299   1.553   2.535   6.956
10467SOL    HW132300   1.622   2.568   7.021
10467SOL    HW232301   1.550   2.435   6.959
10468SOL     OW32302   3.762   5.640   3.467
10468SOL    HW132303   3.714   5.718   3.508
10468SOL    HW232304   3.695   5.575   3.431
10469SOL     OW32305   4.879   3.947   5.921
10469SOL    HW132306   4.786   3.948   5.955
10469SOL    HW232307   4.881   3.908   5.829
10470SOL     OW32308   2.616   1.741   3.473
10470SOL    HW132309   2.633   1.836   3.450
10470SOL    HW232310   2.695   1.703   3.521
10471SOL     OW32311   2.926   0.469   6.864
10471SOL    HW132312   2.969   0.513   6.943
10471SOL    HW232313   2.993   0.462   6.789
10472SOL     OW32314   2.468   5.750   1.058
10472SOL    HW132315   2.494   5.655   1.072
10472SOL    HW232316   2.459   5.768   0.960
10473SOL     OW32317   5.447   6.291   5.813
10473SOL    HW132318   5.506   6.259   5.886
10473SOL    HW232319   5.379   6.355   5.850
10474SOL     OW32320   4.858   0.922   3.821
10474SOL    HW132321   4.777   0.863   3.824
10474SOL    HW232322   4.872   0.965   3.910
10475SOL     OW32323   2.168   6.551   1.788
10475SOL    HW132324   2.186   6.540   1.690
10475SOL    HW232325   2.252   6.580   1.834
10476SOL     OW32326   4.994   6.375   6.028
10476SOL    HW132327   5.011   6.346   5.933
10476SOL    HW232328   4.930   6.312   6.071
10477SOL     OW32329   0.017   0.296   4.347
10477SOL    HW132330   0.028   0.261   4.440
10477SOL    HW232331   6.948   0.287   4.320
10478SOL     OW32332   6.928   6.652   0.524
10478SOL    HW132333   6.846   6.620   0.476
10478SOL    HW232334   7.008   6.604   0.488
10479SOL     OW32335   6.656   1.586   2.091
10479SOL    HW132336   6.752   1.595   2.065
10479SOL    HW232337   6.649   1.572   2.190
10480SOL     OW32338   1.318   0.336   1.808
10480SOL    HW132339   1.309   0.435   1.800
10480SOL    HW232340   1.243   0.292   1.759
10481SOL     OW32341   1.120   6.098   2.891
10481SOL    HW132342   1.133   6.193   2.862
10481SOL    HW232343   1.076   6.096   2.980
10482SOL     OW32344   6.364   4.915   4.944
10482SOL    HW132345   6.394   4.859   5.021
10482SOL    HW232346   6.428   4.905   4.868
10483SOL     OW32347   4.946   5.896   0.156
10483SOL    HW132348   4.918   5.831   0.085
10483SOL    HW232349   4.866   5.924   0.208
10484SOL     OW32350   4.652   1.258   1.168
10484SOL    HW132351   4.602   1.203   1.235
10484SOL    HW232352   4.677   1.346   1.208
10485SOL     OW32353   3.350   4.319   6.727
10485SOL    HW132354   3.255   4.348   6.712
10485SOL    HW232355   3.354   4.259   6.807
10486SOL     OW32356   6.692   1.226   1.064
10486SOL    HW132357   6.783   1.250   1.097
10486SOL    HW232358   6.623   1.282   1.110
10487SOL     OW32359   5.349   6.800   2.402
10487SOL    HW132360   5.372   6.848   2.487
10487SOL    HW232361   5.407   6.834   2.328
10488SOL     OW32362   2.688   2.693   6.096
10488SOL    HW132363   2.719   2.609   6.051
10488SOL    HW232364   2.589   2.701   6.087
10489SOL     OW32365   0.568   6.882   5.473
10489SOL    HW132366   0.513   6.944   5.417
10489SOL    HW232367   0.643   6.933   5.515
10490SOL     OW32368   6.275   1.668   1.910
10490SOL    HW132369   6.222   1.745   1.874
10490SOL    HW232370   6.279   1.674   2.009
10491SOL     OW32371   1.732   3.462   0.379
10491SOL    HW132372   1.661   3.533   0.383
10491SOL    HW232373   1.793   3.481   0.302
10492SOL     OW32374   5.944   3.366   5.701
10492SOL    HW132375   5.942   3.398   5.796
10492SOL    HW232376   5.977   3.272   5.699
10493SOL     OW32377   3.233   0.990   1.921
10493SOL    HW132378   3.190   1.075   1.951
10493SOL    HW232379   3.222   0.981   1.822
10494SOL     OW32380   4.867   2.822   5.401
10494SOL    HW132381   4.775   2.838   5.436
10494SOL    HW232382   4.934   2.851   5.469
10495SOL     OW32383   2.072   0.050   0.212
10495SOL    HW132384   2.018   0.133   0.223
10495SOL    HW232385   2.127   0.035   0.294
10496SOL     OW32386   0.653   6.214   0.814
10496SOL    HW132387   0.615   6.232   0.723
10496SOL    HW232388   0.579   6.199   0.879
10497SOL     OW32389   2.087   6.333   1.970
10497SOL    HW132390   2.098   6.387   1.886
10497SOL    HW232391   1.995   6.348   2.007
10498SOL     OW32392   2.950   6.402   1.548
10498SOL    HW132393   2.957   6.336   1.472
10498SOL    HW232394   2.853   6.420   1.566
10499SOL     OW32395   3.325   6.214   2.107
10499SOL    HW132396   3.345   6.302   2.064
10499SOL    HW232397   3.227   6.194   2.098
10500SOL     OW32398   0.414   1.154   5.964
10500SOL    HW132399   0.504   1.110   5.962
10500SOL    HW232400   0.422   1.244   6.005
10501SOL     OW32401   2.079   5.482   3.245
10501SOL    HW132402   2.156   5.517   3.191
10501SOL    HW232403   2.098   5.493   3.342
10502SOL     OW32404   3.026   0.645   0.968
10502SOL    HW132405   3.081   0.690   1.039
10502SOL    HW232406   3.071   0.656   0.879
10503SOL     OW32407   4.524   2.769   0.172
10503SOL    HW132408   4.518   2.810   0.081
10503SOL    HW232409   4.620   2.754   0.195
10504SOL     OW32410   2.109   1.901   0.096
10504SOL    HW132411   2.086   1.991   0.133
10504SOL    HW232412   2.116   1.906   7.023
10505SOL     OW32413   5.984   5.488   0.895
10505SOL    HW132414   5.974   5.448   0.986
10505SOL    HW232415   6.049   5.435   0.842
10506SOL     OW32416   0.339   5.238   6.043
10506SOL    HW132417   0.342   5.154   6.096
10506SOL    HW232418   0.304   5.313   6.100
10507SOL     OW32419   2.659   6.685   6.730
10507SOL    HW132420   2.666   6.650   6.823
10507SOL    HW232421   2.620   6.777   6.733
10508SOL     OW32422   5.844   5.936   4.830
10508SOL    HW132423   5.767   5.872   4.834
10508SOL    HW232424   5.904   5.920   4.908
10509SOL     OW32425   0.782   6.523   5.760
10509SOL    HW132426   0.722   6.603   5.757
10509SOL    HW232427   0.752   6.462   5.833
10510SOL     OW32428   5.219   5.491   6.373
10510SOL    HW132429   5.217   5.585   6.339
10510SOL    HW232430   5.234   5.429   6.296
10511SOL     OW32431   5.014   2.738   1.185
10511SOL    HW132432   5.050   2.652   1.220
10511SOL    HW232433   4.975   2.723   1.094
10512SOL     OW32434   3.798   0.548   5.980
10512SOL    HW132435   3.828   0.453   5.982
10512SOL    HW232436   3.712   0.557   6.031
10513SOL     OW32437   0.091   2.657   5.415
10513SOL    HW132438   0.189   2.660   5.431
10513SOL    HW232439   0.055   2.750   5.407
10514SOL     OW32440   0.135   4.066   0.128
10514SOL    HW132441   0.203   4.098   0.194
10514SOL    HW232442   0.146   4.116   0.042
10515SOL     OW32443   6.426   2.306   3.034
10515SOL    HW132444   6.521   2.335   3.024
10515SOL    HW232445   6.417   2.212   3.001
10516SOL     OW32446   4.605   0.830   6.514
10516SOL    HW132447   4.641   0.883   6.437
10516SOL    HW232448   4.615   0.884   6.598
10517SOL     OW32449   0.009   2.199   2.877
10517SOL    HW132450   0.052   2.275   2.925
10517SOL    HW232451   6.981   2.145   2.942
10518SOL     OW32452   1.026   4.637   6.850
10518SOL    HW132453   1.124   4.651   6.839
10518SOL    HW232454   0.990   4.707   6.912
10519SOL     OW32455   2.400   2.359   6.384
10519SOL    HW132456   2.446   2.364   6.295
10519SOL    HW232457   2.321   2.298   6.378
10520SOL     OW32458   1.994   2.413   6.455
10520SOL    HW132459   1.922   2.448   6.394
10520SOL    HW232460   2.078   2.466   6.441
10521SOL     OW32461   6.159   5.074   1.675
10521SOL    HW132462   6.141   5.125   1.759
10521SOL    HW232463   6.194   5.136   1.605
10522SOL     OW32464   6.243   0.689   6.985
10522SOL    HW132465   6.169   0.747   7.021
10522SOL    HW232466   6.327   0.708   0.009
10523SOL     OW32467   0.412   5.959   4.906
10523SOL    HW132468   0.361   6.014   4.973
10523SOL    HW232469   0.471   6.019   4.852
10524SOL     OW32470   2.276   1.371   4.963
10524SOL    HW132471   2.252   1.449   5.020
10524SOL    HW232472   2.224   1.374   4.878
10525SOL     OW32473   3.393   0.149   5.564
10525SOL    HW132474   3.444   0.159   5.650
10525SOL    HW232475   3.362   0.239   5.534
10526SOL     OW32476   0.473   6.758   2.960
10526SOL    HW132477   0.491   6.855   2.949
10526SOL    HW232478   0.376   6.745   2.982
10527SOL     OW32479   0.060   2.677   4.827
10527SOL    HW132480   0.050   2.753   4.891
10527SOL    HW232481   0.010   2.597   4.861
10528SOL     OW32482   0.456   3.848   6.096
10528SOL    HW132483   0.359   3.843   6.120
10528SOL    HW232484   0.482   3.765   6.047
10529SOL     OW32485   2.366   6.335   4.230
10529SOL    HW132486   2.279   6.342   4.182
10529SOL    HW232487   2.380   6.241   4.260
10530SOL     OW32488   1.744   1.316   5.957
10530SOL    HW132489   1.713   1.411   5.963
10530SOL    HW232490   1.835   1.307   5.998
10531SOL     OW32491   0.866   3.153   4.318
10531SOL    HW132492   0.908   3.153   4.408
10531SOL    HW232493   0.916   3.216   4.258
10532SOL     OW32494   2.390   4.140   0.429
10532SOL    HW132495   2.484   4.110   0.448
10532SOL    HW232496   2.391   4.235   0.400
10533SOL     OW32497   3.438   1.814   4.335
10533SOL    HW132498   3.465   1.754   4.260
10533SOL    HW232499   3.512   1.820   4.402
10534SOL     OW32500   6.263   5.652   1.850
10534SOL    HW132501   6.256   5.720   1.923
10534SOL    HW232502   6.323   5.686   1.777
10535SOL     OW32503   0.375   2.155   1.332
10535SOL    HW132504   0.437   2.141   1.409
10535SOL    HW232505   0.337   2.247   1.336
10536SOL     OW32506   3.937   0.927   2.947
10536SOL    HW132507   3.993   1.008   2.966
10536SOL    HW232508   3.985   0.868   2.882
10537SOL     OW32509   3.561   5.288   3.555
10537SOL    HW132510   3.623   5.210   3.567
10537SOL    HW232511   3.475   5.268   3.602
10538SOL     OW32512   4.888   3.157   6.954
10538SOL    HW132513   4.830   3.082   6.987
10538SOL    HW232514   4.983   3.138   6.978
10539SOL     OW32515   0.497   4.323   6.933
10539SOL    HW132516   0.463   4.230   6.943
10539SOL    HW232517   0.540   4.334   6.843
10540SOL     OW32518   1.523   2.071   5.155
10540SOL    HW132519   1.544   2.161   5.117
10540SOL    HW232520   1.589   2.005   5.121
10541SOL     OW32521   3.746   3.541   1.846
10541SOL    HW132522   3.708   3.469   1.904
10541SOL    HW232523   3.728   3.631   1.887
10542SOL     OW32524   6.715   1.675   0.352
10542SOL    HW132525   6.790   1.731   0.388
10542SOL    HW232526   6.749   1.617   0.279
10543SOL     OW32527   0.166   1.332   4.960
10543SOL    HW132528   0.167   1.376   5.050
10543SOL    HW232529   0.139   1.237   4.970
10544SOL     OW32530   1.287   6.954   2.637
10544SOL    HW132531   1.224   7.024   2.605
10544SOL    HW232532   1.327   6.982   2.725
10545SOL     OW32533   5.630   1.313   2.820
10545SOL    HW132534   5.701   1.380   2.843
10545SOL    HW232535   5.602   1.264   2.903
10546SOL     OW32536   0.692   1.221   6.152
10546SOL    HW132537   0.677   1.143   6.091
10546SOL    HW232538   0.682   1.306   6.100
10547SOL     OW32539   4.616   1.871   1.475
10547SOL    HW132540   4.695   1.858   1.535
10547SOL    HW232541   4.610   1.795   1.410
10548SOL     OW32542   5.069   4.012   4.673
10548SOL    HW132543   5.083   4.034   4.577
10548SOL    HW232544   5.156   3.989   4.716
10549SOL     OW32545   6.425   0.635   2.134
10549SOL    HW132546   6.440   0.694   2.213
10549SOL    HW232547   6.503   0.642   2.072
10550SOL     OW32548   4.721   6.531   4.633
10550SOL    HW132549   4.679   6.442   4.650
10550SOL    HW232550   4.808   6.537   4.683
10551SOL     OW32551   1.766   2.326   5.547
10551SOL    HW132552   1.818   2.249   5.510
10551SOL    HW232553   1.825   2.406   5.554
10552SOL     OW32554   4.001   2.302   5.726
10552SOL    HW132555   3.983   2.233   5.656
10552SOL    HW232556   4.088   2.282   5.771
10553SOL     OW32557   1.293   4.818   2.083
10553SOL    HW132558   1.253   4.898   2.040
10553SOL    HW232559   1.393   4.826   2.082
10554SOL     OW32560   5.020   4.973   6.594
10554SOL    HW132561   4.926   5.000   6.571
10554SOL    HW232562   5.067   4.943   6.511
10555SOL     OW32563   2.704   3.267   1.043
10555SOL    HW132564   2.697   3.325   1.125
10555SOL    HW232565   2.794   3.224   1.040
10556SOL     OW32566   2.027   2.953   5.413
10556SOL    HW132567   1.974   2.868   5.404
10556SOL    HW232568   2.093   2.958   5.338
10557SOL     OW32569   1.380   2.581   3.297
10557SOL    HW132570   1.466   2.535   3.273
10557SOL    HW232571   1.303   2.531   3.258
10558SOL     OW32572   3.992   0.256   4.182
10558SOL    HW132573   3.930   0.178   4.187
10558SOL    HW232574   4.027   0.264   4.089
10559SOL     OW32575   3.799   0.400   1.010
10559SOL    HW132576   3.790   0.477   0.947
10559SOL    HW232577   3.875   0.416   1.072
10560SOL     OW32578   2.813   6.393   4.141
10560SOL    HW132579   2.911   6.407   4.125
10560SOL    HW232580   2.782   6.311   4.094
10561SOL     OW32581   2.609   4.807   0.675
10561SOL    HW132582   2.563   4.771   0.756
10561SOL    HW232583   2.554   4.786   0.593
10562SOL     OW32584   5.429   6.554   0.548
10562SOL    HW132585   5.496   6.628   0.547
10562SOL    HW232586   5.467   6.476   0.597
10563SOL     OW32587   1.244   0.633   4.140
10563SOL    HW132588   1.166   0.683   4.176
10563SOL    HW232589   1.292   0.586   4.214
10564SOL     OW32590   5.935   6.410   2.325
10564SOL    HW132591   5.873   6.434   2.250
10564SOL    HW232592   5.892   6.341   2.383
10565SOL     OW32593   0.546   0.835   5.327
10565SOL    HW132594   0.558   0.915   5.269
10565SOL    HW232595   0.468   0.781   5.295
10566SOL     OW32596   3.772   3.141   6.843
10566SOL    HW132597   3.726   3.083   6.776
10566SOL    HW232598   3.757   3.104   6.935
10567SOL     OW32599   2.545   2.204   4.302
10567SOL    HW132600   2.626   2.259   4.279
10567SOL    HW232601   2.499   2.244   4.381
10568SOL     OW32602   5.711   1.043   1.477
10568SOL    HW132603   5.651   1.084   1.408
10568SOL    HW232604   5.664   1.038   1.564
10569SOL     OW32605   6.651   2.656   1.611
10569SOL    HW132606   6.711   2.680   1.534
10569SOL    HW232607   6.604   2.738   1.643
10570SOL     OW32608   1.815   4.765   3.121
10570SOL    HW132609   1.758   4.756   3.039
10570SOL    HW232610   1.765   4.732   3.201
10571SOL     OW32611   0.193   4.841   4.415
10571SOL    HW132612   0.251   4.919   4.439
10571SOL    HW232613   0.231   4.758   4.455
10572SOL     OW32614   6.695   3.707   3.320
10572SOL    HW132615   6.641   3.624   3.332
10572SOL    HW232616   6.792   3.682   3.313
10573SOL     OW32617   5.020   6.030   4.454
10573SOL    HW132618   5.019   6.119   4.408
10573SOL    HW232619   5.089   6.030   4.526
10574SOL     OW32620   1.686   1.563   4.438
10574SOL    HW132621   1.660   1.648   4.394
10574SOL    HW232622   1.767   1.578   4.495
10575SOL     OW32623   6.901   0.839   3.284
10575SOL    HW132624   6.952   0.925   3.288
10575SOL    HW232625   6.838   0.841   3.206
10576SOL     OW32626   0.053   6.603   5.410
10576SOL    HW132627   0.051   6.670   5.336
10576SOL    HW232628   0.135   6.545   5.400
10577SOL     OW32629   1.479   2.489   6.585
10577SOL    HW132630   1.517   2.401   6.612
10577SOL    HW232631   1.545   2.561   6.604
10578SOL     OW32632   6.170   0.549   3.887
10578SOL    HW132633   6.083   0.551   3.837
10578SOL    HW232634   6.167   0.615   3.962
10579SOL     OW32635   3.562   1.561   0.591
10579SOL    HW132636   3.543   1.544   0.494
10579SOL    HW232637   3.535   1.480   0.644
10580SOL     OW32638   6.941   0.284   0.310
10580SOL    HW132639   7.016   0.220   0.289
10580SOL    HW232640   6.946   0.310   0.406
10581SOL     OW32641   5.909   6.753   2.854
10581SOL    HW132642   5.857   6.706   2.925
10581SOL    HW232643   5.920   6.693   2.775
10582SOL     OW32644   3.991   4.650   6.967
10582SOL    HW132645   3.903   4.608   6.948
10582SOL    HW232646   4.056   4.627   6.894
10583SOL     OW32647   4.246   1.080   5.503
10583SOL    HW132648   4.195   1.047   5.424
10583SOL    HW232649   4.191   1.145   5.554
10584SOL     OW32650   6.307   7.014   1.168
10584SOL    HW132651   6.345   6.997   1.259
10584SOL    HW232652   6.208   0.005   1.177
10585SOL     OW32653   1.582   3.466   5.467
10585SOL    HW132654   1.673   3.499   5.493
10585SOL    HW232655   1.564   3.379   5.513
10586SOL     OW32656   1.461   5.662   5.232
10586SOL    HW132657   1.539   5.601   5.250
10586SOL    HW232658   1.385   5.636   5.292
10587SOL     OW32659   6.128   4.534   0.096
10587SOL    HW132660   6.225   4.524   0.116
10587SOL    HW232661   6.116   4.599   0.021
10588SOL     OW32662   1.039   4.305   2.334
10588SOL    HW132663   0.953   4.324   2.381
10588SOL    HW232664   1.040   4.209   2.304
10589SOL     OW32665   5.876   1.617   4.415
10589SOL    HW132666   5.842   1.547   4.477
10589SOL    HW232667   5.976   1.614   4.412
10590SOL     OW32668   0.841   0.265   1.890
10590SOL    HW132669   0.891   0.351   1.901
10590SOL    HW232670   0.808   0.258   1.796
10591SOL     OW32671   1.180   1.529   6.390
10591SOL    HW132672   1.224   1.461   6.449
10591SOL    HW232673   1.151   1.486   6.304
10592SOL     OW32674   5.736   2.420   0.184
10592SOL    HW132675   5.708   2.414   0.280
10592SOL    HW232676   5.836   2.421   0.178
10593SOL     OW32677   2.650   5.084   0.651
10593SOL    HW132678   2.644   4.985   0.655
10593SOL    HW232679   2.694   5.111   0.565
10594SOL     OW32680   5.562   1.162   3.065
10594SOL    HW132681   5.618   1.094   3.018
10594SOL    HW232682   5.605   1.189   3.151
10595SOL     OW32683   3.424   0.486   6.070
10595SOL    HW132684   3.354   0.546   6.030
10595SOL    HW232685   3.407   0.392   6.041
10596SOL     OW32686   4.616   0.343   1.330
10596SOL    HW132687   4.584   0.303   1.244
10596SOL    HW232688   4.709   0.311   1.349
10597SOL     OW32689   3.295   0.942   4.819
10597SOL    HW132690   3.276   0.844   4.811
10597SOL    HW232691   3.276   0.987   4.731
10598SOL     OW32692   2.625   2.508   0.234
10598SOL    HW132693   2.691   2.568   0.278
10598SOL    HW232694   2.660   2.479   0.145
10599SOL     OW32695   5.302   2.243   0.047
10599SOL    HW132696   5.338   2.154   0.076
10599SOL    HW232697   5.257   2.234   6.985
10600SOL     OW32698   2.059   3.367   0.477
10600SOL    HW132699   2.068   3.464   0.497
10600SOL    HW232700   1.962   3.344   0.468
10601SOL     OW32701   1.685   4.819   6.298
10601SOL    HW132702   1.605   4.791   6.351
10601SOL    HW232703   1.756   4.853   6.360
10602SOL     OW32704   5.149   2.003   3.498
10602SOL    HW132705   5.196   1.997   3.586
10602SOL    HW232706   5.190   1.938   3.434
10603SOL     OW32707   2.397   5.841   3.521
10603SOL    HW132708   2.476   5.797   3.479
10603SOL    HW232709   2.364   5.786   3.598
10604SOL     OW32710   5.839   4.130   5.156
10604SOL    HW132711   5.787   4.090   5.232
10604SOL    HW232712   5.790   4.209   5.120
10605SOL     OW32713   1.728   4.495   0.826
10605SOL    HW132714   1.806   4.550   0.798
10605SOL    HW232715   1.648   4.519   0.770
10606SOL     OW32716   5.997   0.214   2.108
10606SOL    HW132717   5.934   0.138   2.125
10606SOL    HW232718   6.039   0.242   2.195
10607SOL     OW32719   4.390   3.568   5.779
10607SOL    HW132720   4.373   3.589   5.876
10607SOL    HW232721   4.332   3.626   5.722
10608SOL     OW32722   5.704   2.087   5.163
10608SOL    HW132723   5.787   2.076   5.109
10608SOL    HW232724   5.624   2.079   5.103
10609SOL     OW32725   3.401   6.647   1.705
10609SOL    HW132726   3.444   6.558   1.687
10609SOL    HW232727   3.340   6.639   1.784
10610SOL     OW32728   0.186   3.873   6.634
10610SOL    HW132729   0.113   3.918   6.686
10610SOL    HW232730   0.152   3.787   6.597
10611SOL     OW32731   4.583   3.369   6.338
10611SOL    HW132732   4.500   3.313   6.342
10611SOL    HW232733   4.565   3.458   6.379
10612SOL     OW32734   2.851   0.044   5.614
10612SOL    HW132735   2.858   6.971   5.607
10612SOL    HW232736   2.796   0.080   5.539
10613SOL     OW32737   0.170   6.986   5.349
10613SOL    HW132738   0.073   7.001   5.331
10613SOL    HW232739   0.197   0.006   5.434
10614SOL     OW32740   6.848   1.948   4.237
10614SOL    HW132741   6.888   2.015   4.300
10614SOL    HW232742   6.907   1.938   4.157
10615SOL     OW32743   3.635   5.315   5.938
10615SOL    HW132744   3.651   5.376   6.015
10615SOL    HW232745   3.546   5.270   5.949
10616SOL     OW32746   3.278   6.342   0.790
10616SOL    HW132747   3.309   6.435   0.767
10616SOL    HW232748   3.311   6.278   0.721
10617SOL     OW32749   2.687   3.118   0.640
10617SOL    HW132750   2.643   3.174   0.710
10617SOL    HW232751   2.621   3.094   0.569
10618SOL     OW32752   5.572   3.623   6.805
10618SOL    HW132753   5.656   3.589   6.846
10618SOL    HW232754   5.594   3.700   6.745
10619SOL     OW32755   0.444   3.772   1.702
10619SOL    HW132756   0.469   3.793   1.608
10619SOL    HW232757   0.473   3.846   1.762
10620SOL     OW32758   1.332   5.930   5.844
10620SOL    HW132759   1.368   5.838   5.864
10620SOL    HW232760   1.232   5.927   5.846
10621SOL     OW32761   1.336   5.694   0.901
10621SOL    HW132762   1.347   5.771   0.838
10621SOL    HW232763   1.420   5.682   0.954
10622SOL     OW32764   4.971   1.227   1.296
10622SOL    HW132765   4.895   1.164   1.281
10622SOL    HW232766   5.045   1.180   1.344
10623SOL     OW32767   6.052   3.664   3.439
10623SOL    HW132768   6.145   3.639   3.413
10623SOL    HW232769   5.987   3.601   3.396
10624SOL     OW32770   0.975   1.294   4.713
10624SOL    HW132771   0.896   1.268   4.657
10624SOL    HW232772   1.020   1.373   4.672
10625SOL     OW32773   0.730   4.685   0.328
10625SOL    HW132774   0.700   4.756   0.263
10625SOL    HW232775   0.830   4.681   0.329
10626SOL     OW32776   1.372   2.557   1.014
10626SOL    HW132777   1.292   2.561   1.074
10626SOL    HW232778   1.358   2.487   0.944
10627SOL     OW32779   5.232   6.107   2.314
10627SOL    HW132780   5.310   6.048   2.296
10627SOL    HW232781   5.263   6.194   2.354
10628SOL     OW32782   5.821   5.438   6.203
10628SOL    HW132783   5.919   5.431   6.223
10628SOL    HW232784   5.769   5.387   6.272
10629SOL     OW32785   2.630   4.675   5.201
10629SOL    HW132786   2.722   4.648   5.175
10629SOL    HW232787   2.570   4.673   5.121
10630SOL     OW32788   5.995   0.977   3.716
10630SOL    HW132789   5.941   0.896   3.693
10630SOL    HW232790   5.940   1.038   3.773
10631SOL     OW32791   1.803   4.949   4.822
10631SOL    HW132792   1.712   4.972   4.786
10631SOL    HW232793   1.793   4.895   4.905
10632SOL     OW32794   5.740   2.049   4.220
10632SOL    HW132795   5.767   2.144   4.203
10632SOL    HW232796   5.775   2.020   4.309
10633SOL     OW32797   2.810   4.523   1.437
10633SOL    HW132798   2.766   4.612   1.419
10633SOL    HW232799   2.833   4.516   1.534
10634SOL     OW32800   3.188   5.257   0.939
10634SOL    HW132801   3.261   5.245   1.007
10634SOL    HW232802   3.160   5.167   0.904
10635SOL     OW32803   3.109   1.236   1.327
10635SOL    HW132804   3.185   1.179   1.294
10635SOL    HW232805   3.108   1.234   1.427
10636SOL     OW32806   1.464   2.065   2.003
10636SOL    HW132807   1.507   2.045   1.915
10636SOL    HW232808   1.375   2.019   2.008
10637SOL     OW32809   3.541   4.499   5.806
10637SOL    HW132810   3.519   4.408   5.842
10637SOL    HW232811   3.462   4.536   5.756
10638SOL     OW32812   0.216   5.358   2.590
10638SOL    HW132813   0.308   5.343   2.624
10638SOL    HW232814   0.218   5.421   2.512
10639SOL     OW32815   0.680   2.221   2.938
10639SOL    HW132816   0.722   2.282   2.870
10639SOL    HW232817   0.581   2.221   2.926
10640SOL     OW32818   3.835   7.015   6.545
10640SOL    HW132819   3.788   6.951   6.485
10640SOL    HW232820   3.849   6.973   6.635
10641SOL     OW32821   3.249   1.929   0.286
10641SOL    HW132822   3.337   1.882   0.278
10641SOL    HW232823   3.208   1.906   0.374
10642SOL     OW32824   0.785   2.488   1.792
10642SOL    HW132825   0.860   2.443   1.839
10642SOL    HW232826   0.781   2.584   1.820
10643SOL     OW32827   2.139   4.929   5.861
10643SOL    HW132828   2.083   4.858   5.818
10643SOL    HW232829   2.107   5.019   5.831
10644SOL     OW32830   5.076   2.239   3.414
10644SOL    HW132831   5.086   2.150   3.458
10644SOL    HW232832   5.164   2.285   3.409
10645SOL     OW32833   0.849   1.021   4.353
10645SOL    HW132834   0.857   1.119   4.373
10645SOL    HW232835   0.932   0.989   4.307
10646SOL     OW32836   0.418   1.839   5.026
10646SOL    HW132837   0.479   1.785   4.968
10646SOL    HW232838   0.449   1.835   5.121
10647SOL     OW32839   4.905   6.183   6.875
10647SOL    HW132840   4.865   6.206   6.964
10647SOL    HW232841   5.003   6.203   6.876
10648SOL     OW32842   5.234   3.116   6.314
10648SOL    HW132843   5.334   3.125   6.310
10648SOL    HW232844   5.193   3.177   6.246
10649SOL     OW32845   0.580   4.625   3.617
10649SOL    HW132846   0.597   4.680   3.699
10649SOL    HW232847   0.487   4.590   3.620
10650SOL     OW32848   1.476   5.888   3.075
10650SOL    HW132849   1.468   5.986   3.091
10650SOL    HW232850   1.533   5.847   3.146
10651SOL     OW32851   4.731   0.485   5.964
10651SOL    HW132852   4.722   0.435   6.050
10651SOL    HW232853   4.692   0.430   5.890
10652SOL     OW32854   3.384   0.248   0.163
10652SOL    HW132855   3.339   0.337   0.165
10652SOL    HW232856   3.417   0.231   0.070
10653SOL     OW32857   4.927   4.952   4.246
10653SOL    HW132858   4.995   4.978   4.176
10653SOL    HW232859   4.855   5.022   4.249
10654SOL     OW32860   4.837   0.855   0.909
10654SOL    HW132861   4.837   0.782   0.978
10654SOL    HW232862   4.747   0.899   0.907
10655SOL     OW32863   3.355   5.592   1.473
10655SOL    HW132864   3.333   5.688   1.459
10655SOL    HW232865   3.337   5.567   1.568
10656SOL     OW32866   6.166   2.091   0.681
10656SOL    HW132867   6.161   2.011   0.620
10656SOL    HW232868   6.240   2.078   0.747
10657SOL     OW32869   6.370   6.775   0.108
10657SOL    HW132870   6.352   6.840   0.034
10657SOL    HW232871   6.291   6.715   0.120
10658SOL     OW32872   6.916   4.000   4.893
10658SOL    HW132873   6.849   4.069   4.922
10658SOL    HW232874   6.954   4.026   4.804
10659SOL     OW32875   6.831   6.297   0.964
10659SOL    HW132876   6.873   6.272   1.052
10659SOL    HW232877   6.806   6.214   0.914
10660SOL     OW32878   5.287   4.462   6.403
10660SOL    HW132879   5.291   4.515   6.487
10660SOL    HW232880   5.287   4.365   6.425
10661SOL     OW32881   6.992   6.467   2.675
10661SOL    HW132882   6.933   6.459   2.755
10661SOL    HW232883   6.964   6.545   2.620
10662SOL     OW32884   5.988   1.012   2.559
10662SOL    HW132885   5.976   0.953   2.480
10662SOL    HW232886   6.075   0.991   2.604
10663SOL     OW32887   0.546   6.751   1.336
10663SOL    HW132888   0.598   6.706   1.263
10663SOL    HW232889   0.575   6.714   1.425
10664SOL     OW32890   1.928   4.247   6.303
10664SOL    HW132891   1.962   4.337   6.332
10664SOL    HW232892   2.001   4.195   6.261
10665SOL     OW32893   1.453   0.638   0.063
10665SOL    HW132894   1.393   0.565   0.096
10665SOL    HW232895   1.548   0.617   0.086
10666SOL     OW32896   3.854   4.274   6.995
10666SOL    HW132897   3.918   4.279   0.046
10666SOL    HW232898   3.895   4.317   6.915
10667SOL     OW32899   3.985   2.080   5.543
10667SOL    HW132900   3.986   1.982   5.564
10667SOL    HW232901   3.923   2.096   5.466
10668SOL     OW32902   1.324   1.672   4.925
10668SOL    HW132903   1.233   1.638   4.903
10668SOL    HW232904   1.323   1.772   4.928
10669SOL     OW32905   6.769   6.929   0.924
10669SOL    HW132906   6.724   7.010   0.962
10669SOL    HW232907   6.774   6.938   0.825
10670SOL     OW32908   4.956   4.707   5.737
10670SOL    HW132909   4.901   4.754   5.806
10670SOL    HW232910   4.935   4.744   5.647
10671SOL     OW32911   2.147   3.092   3.116
10671SOL    HW132912   2.091   3.070   3.196
10671SOL    HW232913   2.177   3.187   3.121
10672SOL     OW32914   6.920   2.952   0.811
10672SOL    HW132915   6.919   2.935   0.909
10672SOL    HW232916   6.908   3.050   0.794
10673SOL     OW32917   2.270   2.339   5.320
10673SOL    HW132918   2.177   2.364   5.294
10673SOL    HW232919   2.320   2.310   5.238
10674SOL     OW32920   3.984   3.568   0.172
10674SOL    HW132921   4.053   3.603   0.235
10674SOL    HW232922   3.909   3.633   0.164
10675SOL     OW32923   1.745   1.003   6.486
10675SOL    HW132924   1.813   1.072   6.460
10675SOL    HW232925   1.670   1.004   6.421
10676SOL     OW32926   6.069   0.146   6.251
10676SOL    HW132927   6.083   0.048   6.270
10676SOL    HW232928   5.985   0.159   6.199
10677SOL     OW32929   1.007   0.981   2.264
10677SOL    HW132930   1.067   0.927   2.324
10677SOL    HW232931   1.012   0.944   2.171
10678SOL     OW32932   3.472   5.275   2.869
10678SOL    HW132933   3.536   5.210   2.827
10678SOL    HW232934   3.511   5.367   2.865
10679SOL     OW32935   5.542   5.193   5.848
10679SOL    HW132936   5.588   5.196   5.937
10679SOL    HW232937   5.596   5.243   5.781
10680SOL     OW32938   1.666   2.995   3.470
10680SOL    HW132939   1.735   3.052   3.514
10680SOL    HW232940   1.706   2.951   3.389
10681SOL     OW32941   0.422   3.912   6.772
10681SOL    HW132942   0.496   3.900   6.705
10681SOL    HW232943   0.336   3.879   6.732
10682SOL     OW32944   2.008   1.984   3.325
10682SOL    HW132945   2.026   2.064   3.381
10682SOL    HW232946   1.963   1.914   3.380
10683SOL     OW32947   2.974   2.227   3.714
10683SOL    HW132948   2.917   2.293   3.762
10683SOL    HW232949   2.963   2.239   3.615
10684SOL     OW32950   4.518   4.042   6.884
10684SOL    HW132951   4.478   4.062   6.974
10684SOL    HW232952   4.471   3.963   6.844
10685SOL     OW32953   0.119   4.041   2.796
10685SOL    HW132954   0.214   4.030   2.768
10685SOL    HW232955   0.090   3.960   2.849
10686SOL     OW32956   4.067   5.843   6.387
10686SOL    HW132957   4.007   5.855   6.308
10686SOL    HW232958   4.148   5.791   6.359
10687SOL     OW32959   0.368   5.249   1.829
10687SOL    HW132960   0.443   5.182   1.832
10687SOL    HW232961   0.300   5.219   1.763
10688SOL     OW32962   6.336   4.212   2.089
10688SOL    HW132963   6.342   4.265   2.005
10688SOL    HW232964   6.429   4.194   2.123
10689SOL     OW32965   6.890   0.068   3.084
10689SOL    HW132966   6.810   0.048   3.141
10689SOL    HW232967   6.961   0.110   3.141
10690SOL     OW32968   5.108   5.566   3.306
10690SOL    HW132969   5.156   5.651   3.326
10690SOL    HW232970   5.025   5.586   3.254
10691SOL     OW32971   6.973   1.512   2.121
10691SOL    HW132972   7.018   1.507   2.032
10691SOL    HW232973   0.004   1.563   2.185
10692SOL     OW32974   2.964   5.624   4.022
10692SOL    HW132975   2.967   5.712   3.974
10692SOL    HW232976   2.950   5.550   3.957
10693SOL     OW32977   1.845   1.176   1.173
10693SOL    HW132978   1.908   1.151   1.101
10693SOL    HW232979   1.896   1.205   1.254
10694SOL     OW32980   3.435   6.597   1.157
10694SOL    HW132981   3.419   6.505   1.120
10694SOL    HW232982   3.362   6.658   1.125
10695SOL     OW32983   6.565   2.222   3.907
10695SOL    HW132984   6.590   2.268   3.822
10695SOL    HW232985   6.564   2.288   3.982
10696SOL     OW32986   6.979   4.933   1.219
10696SOL    HW132987   6.931   4.848   1.199
10696SOL    HW232988   0.020   4.951   1.147
10697SOL     OW32989   0.221   6.221   3.778
10697SOL    HW132990   0.259   6.180   3.696
10697SOL    HW232991   0.121   6.231   3.768
10698SOL     OW32992   3.002   0.002   3.863
10698SOL    HW132993   2.918   7.023   3.917
10698SOL    HW232994   3.060   0.076   3.898
10699SOL     OW32995   4.453   1.702   2.675
10699SOL    HW132996   4.505   1.641   2.735
10699SOL    HW232997   4.363   1.719   2.715
10700SOL     OW32998   0.466   0.106   0.148
10700SOL    HW132999   0.470   0.103   0.048
10700SOL    HW233000   0.379   0.144   0.177
10701SOL     OW33001   4.350   6.162   6.621
10701SOL    HW133002   4.293   6.209   6.554
10701SOL    HW233003   4.351   6.215   6.706
10702SOL     OW33004   5.718   2.357   1.587
10702SOL    HW133005   5.644   2.382   1.648
10702SOL    HW233006   5.755   2.268   1.613
10703SOL     OW33007   3.745   3.724   3.672
10703SOL    HW133008   3.736   3.823   3.660
10703SOL    HW233009   3.659   3.687   3.707
10704SOL     OW33010   4.711   6.728   2.394
10704SOL    HW133011   4.716   6.827   2.375
10704SOL    HW233012   4.616   6.704   2.417
10705SOL     OW33013   1.505   3.627   0.103
10705SOL    HW133014   1.512   3.726   0.113
10705SOL    HW233015   1.500   3.585   0.194
10706SOL     OW33016   4.669   0.633   2.164
10706SOL    HW133017   4.631   0.686   2.088
10706SOL    HW233018   4.607   0.559   2.188
10707SOL     OW33019   6.961   6.692   5.889
10707SOL    HW133020   6.955   6.705   5.790
10707SOL    HW233021   6.889   6.744   5.935
10708SOL     OW33022   5.172   1.134   1.472
10708SOL    HW133023   5.190   1.055   1.531
10708SOL    HW233024   5.237   1.207   1.491
10709SOL     OW33025   5.811   0.501   5.817
10709SOL    HW133026   5.759   0.583   5.793
10709SOL    HW233027   5.815   0.493   5.917
10710SOL     OW33028   6.948   6.125   4.346
10710SOL    HW133029   6.988   6.215   4.364
10710SOL    HW233030   7.013   6.070   4.293
10711SOL     OW33031   2.302   0.022   4.060
10711SOL    HW133032   2.248   7.011   4.135
10711SOL    HW233033   2.338   6.974   4.004
10712SOL     OW33034   3.966   1.398   4.292
10712SOL    HW133035   4.011   1.481   4.325
10712SOL    HW233036   3.899   1.367   4.360
10713SOL     OW33037   2.051   5.658   1.948
10713SOL    HW133038   2.125   5.658   2.016
10713SOL    HW233039   2.038   5.751   1.914
10714SOL     OW33040   0.276   4.630   4.586
10714SOL    HW133041   0.288   4.538   4.624
10714SOL    HW233042   0.233   4.689   4.655
10715SOL     OW33043   5.461   1.350   4.009
10715SOL    HW133044   5.554   1.324   3.982
10715SOL    HW233045   5.395   1.287   3.968
10716SOL     OW33046   6.612   1.109   3.596
10716SOL    HW133047   6.562   1.025   3.579
10716SOL    HW233048   6.550   1.177   3.636
10717SOL     OW33049   0.690   1.286   1.289
10717SOL    HW133050   0.605   1.269   1.339
10717SOL    HW233051   0.704   1.384   1.280
10718SOL     OW33052   6.817   5.603   0.657
10718SOL    HW133053   6.755   5.533   0.621
10718SOL    HW233054   6.863   5.568   0.739
10719SOL     OW33055   4.858   0.158   2.757
10719SOL    HW133056   4.949   0.116   2.760
10719SOL    HW233057   4.859   0.236   2.695
10720SOL     OW33058   6.996   3.374   6.101
10720SOL    HW133059   6.971   3.278   6.091
10720SOL    HW233060   0.044   3.396   6.036
10721SOL     OW33061   6.469   2.201   4.334
10721SOL    HW133062   6.406   2.272   4.301
10721SOL    HW233063   6.457   2.118   4.281
10722SOL     OW33064   6.999   3.578   6.955
10722SOL    HW133065   6.958   3.606   6.868
10722SOL    HW233066   6.932   3.588   0.002
10723SOL     OW33067   5.158   4.023   6.939
10723SOL    HW133068   5.079   3.972   6.971
10723SOL    HW233069   5.235   3.960   6.925
10724SOL     OW33070   4.201   6.778   6.202
10724SOL    HW133071   4.235   6.712   6.135
10724SOL    HW233072   4.268   6.788   6.276
10725SOL     OW33073   0.318   5.645   4.595
10725SOL    HW133074   0.370   5.564   4.567
10725SOL    HW233075   0.371   5.727   4.576
10726SOL     OW33076   5.369   0.644   5.133
10726SOL    HW133077   5.453   0.676   5.177
10726SOL    HW233078   5.375   0.659   5.034
10727SOL     OW33079   2.068   4.740   4.868
10727SOL    HW133080   1.969   4.755   4.864
10727SOL    HW233081   2.100   4.751   4.962
10728SOL     OW33082   5.115   6.830   3.153
10728SOL    HW133083   5.136   6.770   3.230
10728SOL    HW233084   5.073   6.777   3.080
10729SOL     OW33085   6.577   1.891   2.893
10729SOL    HW133086   6.649   1.956   2.917
10729SOL    HW233087   6.568   1.886   2.794
10730SOL     OW33088   2.402   5.824   2.485
10730SOL    HW133089   2.313   5.784   2.508
10730SOL    HW233090   2.395   5.877   2.401
10731SOL     OW33091   3.082   5.431   0.257
10731SOL    HW133092   3.131   5.375   0.324
10731SOL    HW233093   3.086   5.527   0.285
10732SOL     OW33094   5.774   6.518   3.003
10732SOL    HW133095   5.718   6.451   3.052
10732SOL    HW233096   5.868   6.484   2.998
10733SOL     OW33097   5.897   1.379   0.406
10733SOL    HW133098   5.818   1.417   0.455
10733SOL    HW233099   5.864   1.328   0.326
10734SOL     OW33100   0.670   0.220   6.262
10734SOL    HW133101   0.682   0.128   6.224
10734SOL    HW233102   0.727   0.285   6.211
10735SOL     OW33103   0.896   5.511   2.582
10735SOL    HW133104   0.940   5.558   2.506
10735SOL    HW233105   0.943   5.424   2.599
10736SOL     OW33106   0.508   0.715   3.711
10736SOL    HW133107   0.557   0.630   3.726
10736SOL    HW233108   0.474   0.750   3.799
10737SOL     OW33109   0.663   2.082   1.521
10737SOL    HW133110   0.574   2.122   1.545
10737SOL    HW233111   0.675   1.997   1.572
10738SOL     OW33112   2.370   1.004   2.262
10738SOL    HW133113   2.447   1.067   2.270
10738SOL    HW233114   2.286   1.056   2.244
10739SOL     OW33115   5.992   1.711   2.335
10739SOL    HW133116   6.037   1.625   2.356
10739SOL    HW233117   5.970   1.714   2.238
10740SOL     OW33118   1.459   6.370   5.482
10740SOL    HW133119   1.476   6.447   5.543
10740SOL    HW233120   1.399   6.303   5.528
10741SOL     OW33121   1.567   2.849   3.651
10741SOL    HW133122   1.534   2.779   3.588
10741SOL    HW233123   1.600   2.927   3.599
10742SOL     OW33124   5.805   5.972   1.921
10742SOL    HW133125   5.770   5.918   1.845
10742SOL    HW233126   5.879   5.923   1.966
10743SOL     OW33127   3.650   1.228   5.159
10743SOL    HW133128   3.670   1.159   5.090
10743SOL    HW233129   3.657   1.187   5.250
10744SOL     OW33130   3.160   0.506   1.619
10744SOL    HW133131   3.189   0.417   1.584
10744SOL    HW233132   3.138   0.567   1.543
10745SOL     OW33133   2.534   4.995   0.964
10745SOL    HW133134   2.591   5.065   0.922
10745SOL    HW233135   2.446   4.990   0.917
10746SOL     OW33136   2.810   6.021   1.019
10746SOL    HW133137   2.782   6.109   1.058
10746SOL    HW233138   2.749   5.998   0.943
10747SOL     OW33139   5.905   2.263   4.203
10747SOL    HW133140   5.839   2.329   4.240
10747SOL    HW233141   5.996   2.283   4.239
10748SOL     OW33142   5.058   5.583   1.068
10748SOL    HW133143   5.065   5.552   1.163
10748SOL    HW233144   5.144   5.625   1.041
10749SOL     OW33145   6.210   4.656   3.487
10749SOL    HW133146   6.113   4.677   3.489
10749SOL    HW233147   6.261   4.737   3.457
10750SOL     OW33148   4.701   4.183   3.982
10750SOL    HW133149   4.626   4.248   3.974
10750SOL    HW233150   4.776   4.224   4.034
10751SOL     OW33151   1.237   3.414   5.113
10751SOL    HW133152   1.244   3.422   5.213
10751SOL    HW233153   1.174   3.483   5.078
10752SOL     OW33154   6.014   5.032   0.146
10752SOL    HW133155   6.063   4.963   0.092
10752SOL    HW233156   5.985   4.991   0.233
10753SOL     OW33157   4.641   0.052   4.481
10753SOL    HW133158   4.562   0.084   4.429
10753SOL    HW233159   4.684   0.128   4.529
10754SOL     OW33160   0.382   3.217   1.776
10754SOL    HW133161   0.289   3.236   1.744
10754SOL    HW233162   0.448   3.255   1.710
10755SOL     OW33163   0.379   1.955   1.699
10755SOL    HW133164   0.442   1.931   1.772
10755SOL    HW233165   0.353   1.873   1.648
10756SOL     OW33166   6.306   2.294   0.092
10756SOL    HW133167   6.212   2.300   0.057
10756SOL    HW233168   6.363   2.361   0.044
10757SOL     OW33169   0.141   3.709   0.838
10757SOL    HW133170   0.094   3.713   0.926
10757SOL    HW233171   0.157   3.614   0.813
10758SOL     OW33172   0.922   5.769   6.527
10758SOL    HW133173   0.872   5.855   6.522
10758SOL    HW233174   0.867   5.701   6.574
10759SOL     OW33175   1.463   2.768   5.944
10759SOL    HW133176   1.467   2.829   6.023
10759SOL    HW233177   1.417   2.683   5.970
10760SOL     OW33178   1.397   6.168   0.455
10760SOL    HW133179   1.400   6.240   0.524
10760SOL    HW233180   1.307   6.167   0.412
10761SOL     OW33181   1.063   2.356   6.617
10761SOL    HW133182   0.975   2.370   6.662
10761SOL    HW233183   1.057   2.385   6.521
10762SOL     OW33184   4.057   0.562   6.111
10762SOL    HW133185   3.958   0.569   6.099
10762SOL    HW233186   4.096   0.507   6.037
10763SOL     OW33187   5.459   0.532   2.588
10763SOL    HW133188   5.510   0.615   2.610
10763SOL    HW233189   5.505   0.483   2.514
10764SOL     OW33190   4.791   1.010   5.244
10764SOL    HW133191   4.709   0.963   5.273
10764SOL    HW233192   4.826   0.968   5.160
10765SOL     OW33193   5.616   1.517   2.309
10765SOL    HW133194   5.518   1.538   2.313
10765SOL    HW233195   5.636   1.439   2.368
10766SOL     OW33196   1.939   4.963   0.129
10766SOL    HW133197   2.007   4.945   0.058
10766SOL    HW233198   1.945   4.892   0.199
10767SOL     OW33199   1.968   6.421   0.645
10767SOL    HW133200   1.880   6.430   0.598
10767SOL    HW233201   2.031   6.369   0.588
10768SOL     OW33202   5.241   5.359   0.209
10768SOL    HW133203   5.266   5.425   0.138
10768SOL    HW233204   5.201   5.408   0.287
10769SOL     OW33205   2.738   4.411   5.364
10769SOL    HW133206   2.790   4.456   5.291
10769SOL    HW233207   2.703   4.324   5.331
10770SOL     OW33208   5.605   0.014   4.612
10770SOL    HW133209   5.552   0.027   4.696
10770SOL    HW233210   5.613   6.943   4.592
10771SOL     OW33211   4.151   0.181   5.174
10771SOL    HW133212   4.114   0.260   5.223
10771SOL    HW233213   4.111   0.097   5.210
10772SOL     OW33214   6.193   6.915   4.685
10772SOL    HW133215   6.250   6.988   4.725
10772SOL    HW233216   6.209   6.830   4.734
10773SOL     OW33217   6.756   4.532   6.771
10773SOL    HW133218   6.665   4.573   6.774
10773SOL    HW233219   6.773   4.481   6.856
10774SOL     OW33220   1.175   2.186   0.993
10774SOL    HW133221   1.197   2.218   1.085
10774SOL    HW233222   1.226   2.102   0.973
10775SOL     OW33223   1.565   4.496   1.567
10775SOL    HW133224   1.486   4.545   1.603
10775SOL    HW233225   1.640   4.561   1.550
10776SOL     OW33226   6.242   0.449   3.111
10776SOL    HW133227   6.184   0.390   3.055
10776SOL    HW233228   6.338   0.434   3.088
10777SOL     OW33229   3.493   0.866   3.932
10777SOL    HW133230   3.441   0.838   3.851
10777SOL    HW233231   3.469   0.808   4.010
10778SOL     OW33232   6.289   6.090   4.958
10778SOL    HW133233   6.337   6.078   4.871
10778SOL    HW233234   6.294   6.186   4.985
10779SOL     OW33235   5.767   4.629   3.064
10779SOL    HW133236   5.779   4.702   2.997
10779SOL    HW233237   5.672   4.599   3.064
10780SOL     OW33238   6.961   5.582   4.491
10780SOL    HW133239   6.933   5.658   4.551
10780SOL    HW233240   6.979   5.501   4.545
10781SOL     OW33241   5.895   0.846   4.792
10781SOL    HW133242   5.971   0.861   4.855
10781SOL    HW233243   5.925   0.862   4.698
10782SOL     OW33244   6.660   2.987   5.380
10782SOL    HW133245   6.641   2.890   5.368
10782SOL    HW233246   6.699   3.003   5.471
10783SOL     OW33247   1.920   2.528   2.491
10783SOL    HW133248   1.980   2.487   2.559
10783SOL    HW233249   1.913   2.627   2.508
10784SOL     OW33250   2.822   6.044   2.063
10784SOL    HW133251   2.828   5.944   2.059
10784SOL    HW233252   2.803   6.079   1.971
10785SOL     OW33253   1.642   5.200   1.655
10785SOL    HW133254   1.596   5.211   1.566
10785SOL    HW233255   1.713   5.270   1.664
10786SOL     OW33256   4.036   2.138   2.511
10786SOL    HW133257   4.032   2.167   2.415
10786SOL    HW233258   4.130   2.119   2.537
10787SOL     OW33259   3.026   1.355   4.226
10787SOL    HW133260   3.054   1.368   4.132
10787SOL    HW233261   3.094   1.394   4.288
10788SOL     OW33262   1.196   4.623   0.087
10788SOL    HW133263   1.232   4.635   7.021
10788SOL    HW233264   1.216   4.530   0.119
10789SOL     OW33265   6.114   0.941   0.250
10789SOL    HW133266   6.178   0.897   0.313
10789SOL    HW233267   6.047   0.993   0.302
10790SOL     OW33268   0.214   1.420   5.214
10790SOL    HW133269   0.208   1.514   5.180
10790SOL    HW233270   0.128   1.395   5.258
10791SOL     OW33271   2.006   1.620   2.053
10791SOL    HW133272   1.943   1.629   1.976
10791SOL    HW233273   1.998   1.699   2.113
10792SOL     OW33274   3.483   2.461   1.241
10792SOL    HW133275   3.412   2.505   1.295
10792SOL    HW233276   3.517   2.380   1.290
10793SOL     OW33277   5.306   1.762   4.675
10793SOL    HW133278   5.392   1.813   4.670
10793SOL    HW233279   5.325   1.664   4.675
10794SOL     OW33280   3.967   3.334   1.557
10794SOL    HW133281   4.013   3.323   1.644
10794SOL    HW233282   3.906   3.413   1.561
10795SOL     OW33283   7.015   4.188   2.447
10795SOL    HW133284   0.087   4.205   2.435
10795SOL    HW233285   7.001   4.128   2.525
10796SOL     OW33286   5.603   0.017   6.670
10796SOL    HW133287   5.612   0.103   6.618
10796SOL    HW233288   5.549   0.034   6.752
10797SOL     OW33289   3.854   2.731   6.855
10797SOL    HW133290   3.951   2.704   6.856
10797SOL    HW233291   3.833   2.776   6.769
10798SOL     OW33292   2.544   6.959   6.098
10798SOL    HW133293   2.550   6.892   6.025
10798SOL    HW233294   2.455   6.952   6.142
10799SOL     OW33295   2.925   1.941   2.566
10799SOL    HW133296   2.931   2.040   2.579
10799SOL    HW233297   3.012   1.899   2.590
10800SOL     OW33298   1.673   0.080   0.690
10800SOL    HW133299   1.738   0.109   0.760
10800SOL    HW233300   1.624   0.159   0.653
10801SOL     OW33301   1.840   6.142   5.495
10801SOL    HW133302   1.933   6.134   5.529
10801SOL    HW233303   1.782   6.185   5.564
10802SOL     OW33304   1.562   3.214   3.980
10802SOL    HW133305   1.630   3.161   4.031
10802SOL    HW233306   1.585   3.211   3.882
10803SOL     OW33307   5.251   4.223   5.660
10803SOL    HW133308   5.195   4.305   5.669
10803SOL    HW233309   5.274   4.189   5.751
10804SOL     OW33310   6.304   4.123   1.365
10804SOL    HW133311   6.249   4.146   1.285
10804SOL    HW233312   6.291   4.193   1.436
10805SOL     OW33313   3.946   6.909   0.130
10805SOL    HW133314   4.007   6.834   0.156
10805SOL    HW233315   3.994   6.971   0.069
10806SOL     OW33316   5.713   3.400   0.371
10806SOL    HW133317   5.670   3.430   0.286
10806SOL    HW233318   5.756   3.311   0.357
10807SOL     OW33319   3.382   5.874   3.567
10807SOL    HW133320   3.459   5.813   3.586
10807SOL    HW233321   3.387   5.953   3.628
10808SOL     OW33322   1.082   3.882   6.991
10808SOL    HW133323   1.181   3.884   7.007
10808SOL    HW233324   1.055   3.965   6.942
10809SOL     OW33325   2.775   1.469   4.242
10809SOL    HW133326   2.780   1.553   4.296
10809SOL    HW233327   2.865   1.425   4.240
10810SOL     OW33328   0.513   1.382   5.771
10810SOL    HW133329   0.428   1.429   5.749
10810SOL    HW233330   0.554   1.423   5.853
10811SOL     OW33331   4.055   5.006   5.773
10811SOL    HW133332   4.044   4.927   5.713
10811SOL    HW233333   4.018   5.087   5.729
10812SOL     OW33334   6.601   2.866   2.496
10812SOL    HW133335   6.631   2.853   2.591
10812SOL    HW233336   6.681   2.885   2.438
10813SOL     OW33337   2.741   6.101   1.811
10813SOL    HW133338   2.722   6.197   1.793
10813SOL    HW233339   2.773   6.057   1.726
10814SOL     OW33340   2.165   0.152   5.260
10814SOL    HW133341   2.197   0.190   5.174
10814SOL    HW233342   2.217   0.068   5.280
10815SOL     OW33343   5.160   4.165   3.142
10815SOL    HW133344   5.130   4.241   3.085
10815SOL    HW233345   5.257   4.147   3.126
10816SOL     OW33346   1.879   1.262   2.371
10816SOL    HW133347   1.884   1.356   2.404
10816SOL    HW233348   1.856   1.260   2.274
10817SOL     OW33349   5.563   0.117   2.740
10817SOL    HW133350   5.646   0.152   2.696
10817SOL    HW233351   5.513   0.193   2.783
10818SOL     OW33352   5.678   2.681   6.454
10818SOL    HW133353   5.694   2.717   6.546
10818SOL    HW233354   5.650   2.585   6.460
10819SOL     OW33355   0.331   4.195   6.730
10819SOL    HW133356   0.388   4.116   6.749
10819SOL    HW233357   0.320   4.206   6.631
10820SOL     OW33358   0.275   6.768   3.890
10820SOL    HW133359   0.211   6.721   3.830
10820SOL    HW233360   0.324   6.701   3.945
10821SOL     OW33361   6.975   6.811   2.103
10821SOL    HW133362   0.028   6.838   2.049
10821SOL    HW233363   7.007   6.771   2.189
10822SOL     OW33364   1.298   3.324   2.501
10822SOL    HW133365   1.242   3.246   2.474
10822SOL    HW233366   1.240   3.405   2.508
10823SOL     OW33367   2.631   5.678   1.509
10823SOL    HW133368   2.701   5.673   1.580
10823SOL    HW233369   2.598   5.772   1.502
10824SOL     OW33370   5.041   0.062   3.540
10824SOL    HW133371   4.987   7.018   3.586
10824SOL    HW233372   4.980   0.125   3.492
10825SOL     OW33373   2.617   1.652   1.113
10825SOL    HW133374   2.574   1.731   1.158
10825SOL    HW233375   2.668   1.683   1.033
10826SOL     OW33376   7.014   3.972   2.146
10826SOL    HW133377   0.022   3.950   2.237
10826SOL    HW233378   6.959   4.055   2.150
10827SOL     OW33379   6.220   3.834   4.352
10827SOL    HW133380   6.246   3.890   4.431
10827SOL    HW233381   6.122   3.813   4.358
10828SOL     OW33382   1.224   5.777   1.163
10828SOL    HW133383   1.238   5.698   1.222
10828SOL    HW233384   1.237   5.750   1.067
10829SOL     OW33385   2.978   3.727   1.492
10829SOL    HW133386   2.912   3.729   1.567
10829SOL    HW233387   2.970   3.811   1.438
10830SOL     OW33388   6.249   3.236   4.645
10830SOL    HW133389   6.196   3.201   4.722
10830SOL    HW233390   6.215   3.195   4.560
10831SOL     OW33391   5.164   0.825   2.726
10831SOL    HW133392   5.160   0.795   2.821
10831SOL    HW233393   5.088   0.887   2.707
10832SOL     OW33394   0.881   1.923   0.488
10832SOL    HW133395   0.791   1.966   0.481
10832SOL    HW233396   0.882   1.839   0.433
10833SOL     OW33397   2.331   0.811   3.889
10833SOL    HW133398   2.371   0.883   3.946
10833SOL    HW233399   2.400   0.777   3.825
10834SOL     OW33400   0.451   1.047   4.894
10834SOL    HW133401   0.449   1.137   4.850
10834SOL    HW233402   0.493   1.054   4.984
10835SOL     OW33403   6.721   1.557   2.357
10835SOL    HW133404   6.655   1.553   2.432
10835SOL    HW233405   6.792   1.488   2.371
10836SOL     OW33406   0.474   1.090   5.199
10836SOL    HW133407   0.549   1.155   5.190
10836SOL    HW233408   0.470   1.057   5.294
10837SOL     OW33409   6.422   4.525   0.227
10837SOL    HW133410   6.498   4.516   0.292
10837SOL    HW233411   6.424   4.616   0.186
10838SOL     OW33412   5.854   0.409   6.500
10838SOL    HW133413   5.811   0.443   6.416
10838SOL    HW233414   5.948   0.380   6.480
10839SOL     OW33415   2.844   2.097   6.943
10839SOL    HW133416   2.901   2.157   7.000
10839SOL    HW233417   2.753   2.137   6.935
10840SOL     OW33418   3.367   6.171   1.381
10840SOL    HW133419   3.385   6.128   1.293
10840SOL    HW233420   3.377   6.103   1.454
10841SOL     OW33421   3.689   6.066   5.878
10841SOL    HW133422   3.724   6.123   5.952
10841SOL    HW233423   3.742   5.981   5.874
10842SOL     OW33424   6.760   3.203   0.930
10842SOL    HW133425   6.796   3.220   0.838
10842SOL    HW233426   6.836   3.204   0.995
10843SOL     OW33427   1.425   1.613   2.350
10843SOL    HW133428   1.460   1.701   2.382
10843SOL    HW233429   1.377   1.626   2.263
10844SOL     OW33430   6.591   6.130   4.562
10844SOL    HW133431   6.655   6.066   4.519
10844SOL    HW233432   6.531   6.169   4.492
10845SOL     OW33433   1.106   1.184   2.012
10845SOL    HW133434   1.118   1.200   2.110
10845SOL    HW233435   1.194   1.195   1.966
10846SOL     OW33436   4.304   2.019   0.910
10846SOL    HW133437   4.325   2.098   0.967
10846SOL    HW233438   4.351   2.029   0.822
10847SOL     OW33439   2.740   1.297   5.741
10847SOL    HW133440   2.796   1.297   5.658
10847SOL    HW233441   2.698   1.387   5.752
10848SOL     OW33442   2.584   1.701   6.978
10848SOL    HW133443   2.671   1.745   6.952
10848SOL    HW233444   2.562   1.724   0.046
10849SOL     OW33445   3.111   4.858   3.608
10849SOL    HW133446   3.024   4.908   3.612
10849SOL    HW233447   3.114   4.790   3.682
10850SOL     OW33448   4.057   6.303   6.888
10850SOL    HW133449   4.076   6.218   6.839
10850SOL    HW233450   3.994   6.285   6.964
10851SOL     OW33451   2.774   3.089   6.250
10851SOL    HW133452   2.701   3.104   6.317
10851SOL    HW233453   2.739   3.034   6.174
10852SOL     OW33454   7.014   1.238   5.875
10852SOL    HW133455   0.057   1.166   5.875
10852SOL    HW233456   6.953   1.225   5.796
10853SOL     OW33457   2.943   2.194   4.279
10853SOL    HW133458   2.915   2.266   4.215
10853SOL    HW233459   2.989   2.121   4.229
10854SOL     OW33460   5.301   0.402   6.889
10854SOL    HW133461   5.367   0.466   6.849
10854SOL    HW233462   5.230   0.381   6.821
10855SOL     OW33463   1.924   6.051   2.535
10855SOL    HW133464   1.882   5.961   2.542
10855SOL    HW233465   1.961   6.077   2.624
10856SOL     OW33466   6.089   6.658   0.420
10856SOL    HW133467   6.136   6.675   0.507
10856SOL    HW233468   5.996   6.693   0.426
10857SOL     OW33469   6.568   2.418   3.314
10857SOL    HW133470   6.606   2.325   3.311
10857SOL    HW233471   6.551   2.444   3.409
10858SOL     OW33472   1.622   3.697   0.469
10858SOL    HW133473   1.665   3.787   0.473
10858SOL    HW233474   1.591   3.671   0.560
10859SOL     OW33475   0.743   3.557   3.435
10859SOL    HW133476   0.790   3.490   3.493
10859SOL    HW233477   0.663   3.514   3.393
10860SOL     OW33478   6.858   1.256   0.633
10860SOL    HW133479   6.845   1.321   0.708
10860SOL    HW233480   6.952   1.261   0.601
10861SOL     OW33481   3.529   2.758   1.859
10861SOL    HW133482   3.559   2.761   1.954
10861SOL    HW233483   3.540   2.849   1.818
10862SOL     OW33484   2.743   2.439   6.015
10862SOL    HW133485   2.820   2.403   6.067
10862SOL    HW233486   2.748   2.408   5.921
10863SOL     OW33487   2.549   6.978   2.971
10863SOL    HW133488   2.517   6.923   2.894
10863SOL    HW233489   2.583   0.039   2.938
10864SOL     OW33490   3.110   4.694   1.484
10864SOL    HW133491   3.030   4.707   1.543
10864SOL    HW233492   3.126   4.596   1.472
10865SOL     OW33493   5.444   3.031   3.678
10865SOL    HW133494   5.434   3.052   3.775
10865SOL    HW233495   5.374   3.080   3.626
10866SOL     OW33496   6.862   2.855   1.060
10866SOL    HW133497   6.876   2.757   1.074
10866SOL    HW233498   6.768   2.879   1.083
10867SOL     OW33499   2.808   2.748   0.347
10867SOL    HW133500   2.811   2.844   0.320
10867SOL    HW233501   2.747   2.737   0.425
10868SOL     OW33502   0.733   2.143   3.190
10868SOL    HW133503   0.757   2.047   3.204
10868SOL    HW233504   0.723   2.161   3.092
10869NA      NA33505   0.474   1.843   5.906
10870NA      NA33506   4.451   4.596   5.242
10871NA      NA33507   2.033   5.024   2.777
10872NA      NA33508   5.083   4.192   3.889
10873NA      NA33509   4.280   2.312   5.217
10874NA      NA33510   2.980   5.155   1.359
10875NA      NA33511   1.272   5.185   0.556
10876NA      NA33512   3.768   4.452   1.477
10877NA      NA33513   4.727   3.983   0.612
10878NA      NA33514   3.635   1.315   6.025
10879NA      NA33515   5.040   6.056   2.174
10880NA      NA33516   1.693   0.288   5.503
10881NA      NA33517   5.010   4.802   1.557
10882NA      NA33518   3.222   3.443   0.009
   7.02622   7.02622   7.02622
