Generated by trjconv : CNT in water t= 181.00000
33518
    1C        C    1   2.841   2.767   4.743
    1C        C    2   2.895   2.714   4.862
    1C        C    3   2.846   2.772   4.980
    1C        C    4   2.845   2.770   4.257
    1C        C    5   2.899   2.728   4.380
    1C        C    6   2.840   2.768   4.502
    1C        C    7   3.009   2.634   4.622
    1C        C    8   2.895   2.717   4.622
    1C        C    9   3.070   2.594   4.743
    1C        C   10   3.008   2.629   4.865
    1C        C   11   3.183   2.493   4.974
    1C        C   12   3.061   2.562   4.975
    1C        C   13   2.843   2.769   3.769
    1C        C   14   2.898   2.722   3.890
    1C        C   15   2.848   2.773   4.011
    1C        C   16   3.016   2.647   4.135
    1C        C   17   2.900   2.727   4.134
    1C        C   18   3.078   2.614   4.257
    1C        C   19   3.015   2.647   4.379
    1C        C   20   3.207   2.557   4.503
    1C        C   21   3.073   2.602   4.500
    1C        C   22   3.277   2.537   4.624
    1C        C   23   3.203   2.545   4.744
    1C        C   24   3.413   2.481   4.864
    1C        C   25   3.271   2.500   4.861
    1C        C   26   3.490   2.481   4.981
    1C        C   27   2.846   2.768   3.279
    1C        C   28   2.904   2.727   3.402
    1C        C   29   2.849   2.773   3.524
    1C        C   30   3.018   2.647   3.647
    1C        C   31   2.899   2.725   3.647
    1C        C   32   3.078   2.610   3.770
    1C        C   33   3.016   2.644   3.892
    1C        C   34   3.210   2.556   4.015
    1C        C   35   3.079   2.610   4.014
    1C        C   36   3.277   2.535   4.137
    1C        C   37   3.208   2.560   4.259
    1C        C   38   3.413   2.507   4.380
    1C        C   39   3.275   2.535   4.381
    1C        C   40   3.485   2.501   4.501
    1C        C   41   3.414   2.505   4.624
    1C        C   42   3.629   2.476   4.743
    1C        C   43   3.486   2.478   4.742
    1C        C   44   3.702   2.482   4.864
    1C        C   45   3.629   2.482   4.983
    1C        C   46   2.839   2.756   2.792
    1C        C   47   2.890   2.708   2.915
    1C        C   48   2.839   2.758   3.036
    1C        C   49   3.017   2.641   3.160
    1C        C   50   2.898   2.716   3.158
    1C        C   51   3.081   2.609   3.282
    1C        C   52   3.017   2.644   3.403
    1C        C   53   3.206   2.547   3.524
    1C        C   54   3.079   2.609   3.526
    1C        C   55   3.272   2.525   3.647
    1C        C   56   3.206   2.552   3.769
    1C        C   57   3.413   2.509   3.893
    1C        C   58   3.274   2.535   3.891
    1C        C   59   3.486   2.504   4.015
    1C        C   60   3.415   2.505   4.137
    1C        C   61   3.627   2.497   4.257
    1C        C   62   3.485   2.495   4.259
    1C        C   63   3.697   2.506   4.379
    1C        C   64   3.626   2.499   4.501
    1C        C   65   3.834   2.538   4.621
    1C        C   66   3.698   2.499   4.622
    1C        C   67   3.903   2.557   4.743
    1C        C   68   3.837   2.521   4.862
    1C        C   69   4.051   2.577   4.974
    1C        C   70   3.925   2.514   4.971
    1C        C   71   2.823   2.734   2.306
    1C        C   72   2.884   2.691   2.426
    1C        C   73   2.833   2.745   2.546
    1C        C   74   3.010   2.631   2.670
    1C        C   75   2.892   2.710   2.670
    1C        C   76   3.071   2.597   2.792
    1C        C   77   3.013   2.637   2.914
    1C        C   78   3.204   2.547   3.034
    1C        C   79   3.073   2.602   3.037
    1C        C   80   3.274   2.531   3.156
    1C        C   81   3.211   2.554   3.280
    1C        C   82   3.413   2.494   3.400
    1C        C   83   3.276   2.527   3.403
    1C        C   84   3.481   2.491   3.524
    1C        C   85   3.412   2.505   3.647
    1C        C   86   3.623   2.499   3.768
    1C        C   87   3.481   2.498   3.770
    1C        C   88   3.696   2.507   3.888
    1C        C   89   3.627   2.507   4.012
    1C        C   90   3.833   2.545   4.133
    1C        C   91   3.696   2.512   4.135
    1C        C   92   3.900   2.569   4.255
    1C        C   93   3.833   2.543   4.377
    1C        C   94   4.024   2.633   4.499
    1C        C   95   3.900   2.566   4.499
    1C        C   96   4.090   2.666   4.620
    1C        C   97   4.030   2.621   4.740
    1C        C   98   4.189   2.761   4.862
    1C        C   99   4.098   2.651   4.861
    1C        C  100   4.207   2.845   4.973
    1C        C  101   2.819   2.726   2.068
    1C        C  102   2.985   2.585   2.187
    1C        C  103   2.875   2.677   2.187
    1C        C  104   3.061   2.569   2.306
    1C        C  105   3.001   2.612   2.426
    1C        C  106   3.198   2.535   2.549
    1C        C  107   3.067   2.588   2.549
    1C        C  108   3.268   2.517   2.671
    1C        C  109   3.200   2.538   2.793
    1C        C  110   3.410   2.497   2.912
    1C        C  111   3.270   2.515   2.914
    1C        C  112   3.482   2.494   3.034
    1C        C  113   3.412   2.501   3.157
    1C        C  114   3.625   2.494   3.279
    1C        C  115   3.484   2.489   3.278
    1C        C  116   3.695   2.505   3.402
    1C        C  117   3.622   2.497   3.522
    1C        C  118   3.827   2.544   3.643
    1C        C  119   3.692   2.505   3.645
    1C        C  120   3.897   2.564   3.764
    1C        C  121   3.834   2.536   3.887
    1C        C  122   4.022   2.633   4.011
    1C        C  123   3.899   2.564   4.009
    1C        C  124   4.079   2.675   4.133
    1C        C  125   4.024   2.638   4.258
    1C        C  126   4.198   2.760   4.377
    1C        C  127   4.087   2.672   4.379
    1C        C  128   4.239   2.820   4.498
    1C        C  129   4.190   2.766   4.620
    1C        C  130   4.321   2.934   4.739
    1C        C  131   4.240   2.816   4.742
    1C        C  132   4.352   3.000   4.860
    1C        C  133   4.282   2.962   4.975
    1C        C  134   3.171   2.466   2.081
    1C        C  135   3.036   2.505   2.080
    1C        C  136   3.259   2.472   2.190
    1C        C  137   3.191   2.512   2.308
    1C        C  138   3.403   2.476   2.427
    1C        C  139   3.265   2.506   2.428
    1C        C  140   3.478   2.476   2.548
    1C        C  141   3.406   2.488   2.669
    1C        C  142   3.620   2.488   2.789
    1C        C  143   3.479   2.490   2.789
    1C        C  144   3.692   2.493   2.911
    1C        C  145   3.623   2.495   3.034
    1C        C  146   3.831   2.534   3.152
    1C        C  147   3.693   2.505   3.156
    1C        C  148   3.896   2.560   3.275
    1C        C  149   3.832   2.541   3.399
    1C        C  150   4.026   2.624   3.519
    1C        C  151   3.896   2.567   3.522
    1C        C  152   4.083   2.662   3.643
    1C        C  153   4.023   2.629   3.767
    1C        C  154   4.187   2.764   3.888
    1C        C  155   4.081   2.671   3.888
    1C        C  156   4.239   2.813   4.010
    1C        C  157   4.190   2.762   4.132
    1C        C  158   4.337   2.917   4.251
    1C        C  159   4.247   2.807   4.254
    1C        C  160   4.373   2.981   4.371
    1C        C  161   4.327   2.930   4.495
    1C        C  162   4.436   3.110   4.614
    1C        C  163   4.369   2.986   4.617
    1C        C  164   4.459   3.185   4.732
    1C        C  165   4.426   3.120   4.854
    1C        C  166   4.520   3.318   4.967
    1C        C  167   4.481   3.184   4.966
    1C        C  168   3.475   2.436   2.072
    1C        C  169   3.398   2.448   2.188
    1C        C  170   3.616   2.460   2.306
    1C        C  171   3.474   2.457   2.307
    1C        C  172   3.691   2.479   2.424
    1C        C  173   3.619   2.481   2.546
    1C        C  174   3.826   2.536   2.665
    1C        C  175   3.690   2.497   2.667
    1C        C  176   3.893   2.559   2.787
    1C        C  177   3.828   2.531   2.910
    1C        C  178   4.023   2.623   3.028
    1C        C  179   3.896   2.561   3.030
    1C        C  180   4.084   2.660   3.150
    1C        C  181   4.022   2.624   3.272
    1C        C  182   4.193   2.747   3.397
    1C        C  183   4.085   2.656   3.395
    1C        C  184   4.238   2.802   3.519
    1C        C  185   4.191   2.752   3.642
    1C        C  186   4.334   2.910   3.761
    1C        C  187   4.242   2.803   3.764
    1C        C  188   4.371   2.974   3.881
    1C        C  189   4.331   2.921   4.006
    1C        C  190   4.442   3.101   4.127
    1C        C  191   4.373   2.978   4.128
    1C        C  192   4.469   3.168   4.248
    1C        C  193   4.436   3.107   4.371
    1C        C  194   4.507   3.310   4.490
    1C        C  195   4.463   3.176   4.492
    1C        C  196   4.528   3.384   4.609
    1C        C  197   4.511   3.317   4.732
    1C        C  198   4.554   3.535   4.850
    1C        C  199   4.533   3.393   4.850
    1C        C  200   4.580   3.619   4.962
    1C        C  201   3.613   2.416   2.070
    1C        C  202   3.822   2.513   2.179
    1C        C  203   3.688   2.461   2.183
    1C        C  204   3.893   2.540   2.300
    1C        C  205   3.827   2.516   2.423
    1C        C  206   4.019   2.618   2.540
    1C        C  207   3.894   2.551   2.542
    1C        C  208   4.080   2.653   2.662
    1C        C  209   4.017   2.627   2.786
    1C        C  210   4.195   2.747   2.905
    1C        C  211   4.080   2.664   2.906
    1C        C  212   4.247   2.794   3.028
    1C        C  213   4.195   2.747   3.150
    1C        C  214   4.328   2.908   3.272
    1C        C  215   4.244   2.795   3.274
    1C        C  216   4.365   2.971   3.393
    1C        C  217   4.319   2.918   3.515
    1C        C  218   4.428   3.098   3.635
    1C        C  219   4.367   2.971   3.637
    1C        C  220   4.456   3.164   3.757
    1C        C  221   4.436   3.099   3.881
    1C        C  222   4.498   3.302   4.004
    1C        C  223   4.466   3.165   4.003
    1C        C  224   4.511   3.376   4.124
    1C        C  225   4.504   3.305   4.245
    1C        C  226   4.522   3.518   4.363
    1C        C  227   4.517   3.377   4.366
    1C        C  228   4.517   3.592   4.484
    1C        C  229   4.530   3.525   4.608
    1C        C  230   4.496   3.739   4.726
    1C        C  231   4.533   3.602   4.726
    1C        C  232   4.493   3.817   4.844
    1C        C  233   4.545   3.755   4.958
    1C        C  234   4.011   2.615   2.060
    1C        C  235   3.893   2.541   2.062
    1C        C  236   4.082   2.643   2.177
    1C        C  237   4.018   2.608   2.298
    1C        C  238   4.199   2.728   2.417
    1C        C  239   4.082   2.647   2.417
    1C        C  240   4.250   2.780   2.539
    1C        C  241   4.192   2.740   2.661
    1C        C  242   4.335   2.901   2.782
    1C        C  243   4.244   2.793   2.781
    1C        C  244   4.376   2.961   2.904
    1C        C  245   4.337   2.903   3.026
    1C        C  246   4.432   3.091   3.148
    1C        C  247   4.372   2.963   3.150
    1C        C  248   4.452   3.160   3.269
    1C        C  249   4.428   3.098   3.393
    1C        C  250   4.494   3.302   3.513
    1C        C  251   4.454   3.166   3.514
    1C        C  252   4.501   3.370   3.636
    1C        C  253   4.490   3.301   3.759
    1C        C  254   4.521   3.511   3.876
    1C        C  255   4.508   3.370   3.881
    1C        C  256   4.518   3.585   3.996
    1C        C  257   4.515   3.518   4.120
    1C        C  258   4.489   3.729   4.240
    1C        C  259   4.516   3.590   4.241
    1C        C  260   4.467   3.798   4.361
    1C        C  261   4.484   3.729   4.483
    1C        C  262   4.422   3.935   4.601
    1C        C  263   4.472   3.803   4.603
    1C        C  264   4.397   4.006   4.720
    1C        C  265   4.432   3.944   4.842
    1C        C  266   4.320   4.130   4.955
    1C        C  267   4.395   4.013   4.959
    1C        C  268   4.258   2.769   2.059
    1C        C  269   4.194   2.729   2.177
    1C        C  270   4.338   2.892   2.295
    1C        C  271   4.246   2.783   2.296
    1C        C  272   4.378   2.952   2.416
    1C        C  273   4.333   2.893   2.537
    1C        C  274   4.441   3.079   2.659
    1C        C  275   4.372   2.956   2.657
    1C        C  276   4.468   3.150   2.778
    1C        C  277   4.443   3.085   2.902
    1C        C  278   4.499   3.289   3.022
    1C        C  279   4.463   3.152   3.024
    1C        C  280   4.512   3.361   3.143
    1C        C  281   4.491   3.296   3.267
    1C        C  282   4.515   3.507   3.391
    1C        C  283   4.510   3.366   3.388
    1C        C  284   4.511   3.582   3.511
    1C        C  285   4.508   3.511   3.633
    1C        C  286   4.495   3.723   3.749
    1C        C  287   4.512   3.583   3.755
    1C        C  288   4.476   3.790   3.871
    1C        C  289   4.492   3.724   3.995
    1C        C  290   4.417   3.924   4.111
    1C        C  291   4.471   3.794   4.116
    1C        C  292   4.393   3.992   4.233
    1C        C  293   4.420   3.931   4.358
    1C        C  294   4.320   4.121   4.476
    1C        C  295   4.390   3.998   4.478
    1C        C  296   4.278   4.183   4.596
    1C        C  297   4.322   4.127   4.718
    1C        C  298   4.202   4.313   4.831
    1C        C  299   4.281   4.194   4.836
    1C        C  300   4.175   4.400   4.942
    1C        C  301   4.343   2.879   2.058
    1C        C  302   4.466   3.065   2.171
    1C        C  303   4.390   2.944   2.173
    1C        C  304   4.480   3.137   2.293
    1C        C  305   4.449   3.074   2.415
    1C        C  306   4.505   3.279   2.531
    1C        C  307   4.476   3.141   2.537
    1C        C  308   4.514   3.351   2.652
    1C        C  309   4.501   3.287   2.777
    1C        C  310   4.523   3.498   2.897
    1C        C  311   4.512   3.357   2.899
    1C        C  312   4.518   3.568   3.019
    1C        C  313   4.517   3.502   3.144
    1C        C  314   4.487   3.712   3.259
    1C        C  315   4.514   3.573   3.266
    1C        C  316   4.469   3.784   3.380
    1C        C  317   4.484   3.721   3.505
    1C        C  318   4.426   3.925   3.625
    1C        C  319   4.476   3.792   3.627
    1C        C  320   4.392   3.985   3.747
    1C        C  321   4.423   3.922   3.869
    1C        C  322   4.306   4.104   3.989
    1C        C  323   4.388   3.989   3.989
    1C        C  324   4.272   4.166   4.111
    1C        C  325   4.318   4.112   4.233
    1C        C  326   4.189   4.284   4.351
    1C        C  327   4.281   4.177   4.353
    1C        C  328   4.137   4.340   4.470
    1C        C  329   4.189   4.292   4.593
    1C        C  330   4.026   4.439   4.710
    1C        C  331   4.139   4.352   4.710
    1C        C  332   3.970   4.490   4.828
    1C        C  333   4.056   4.473   4.938
    1C        C  334   4.550   3.267   2.057
    1C        C  335   4.526   3.129   2.058
    1C        C  336   4.534   3.347   2.171
    1C        C  337   4.518   3.274   2.291
    1C        C  338   4.518   3.491   2.409
    1C        C  339   4.519   3.350   2.410
    1C        C  340   4.509   3.564   2.530
    1C        C  341   4.516   3.493   2.652
    1C        C  342   4.492   3.705   2.770
    1C        C  343   4.515   3.566   2.773
    1C        C  344   4.469   3.773   2.891
    1C        C  345   4.485   3.706   3.014
    1C        C  346   4.420   3.909   3.135
    1C        C  347   4.466   3.776   3.135
    1C        C  348   4.387   3.974   3.256
    1C        C  349   4.418   3.916   3.381
    1C        C  350   4.319   4.106   3.500
    1C        C  351   4.392   3.985   3.501
    1C        C  352   4.273   4.163   3.621
    1C        C  353   4.313   4.103   3.743
    1C        C  354   4.167   4.257   3.864
    1C        C  355   4.263   4.154   3.864
    1C        C  356   4.114   4.306   3.985
    1C        C  357   4.174   4.268   4.107
    1C        C  358   4.009   4.399   4.227
    1C        C  359   4.127   4.321   4.230
    1C        C  360   3.951   4.441   4.349
    1C        C  361   4.020   4.420   4.470
    1C        C  362   3.826   4.514   4.593
    1C        C  363   3.957   4.463   4.588
    1C        C  364   3.760   4.548   4.714
    1C        C  365   3.839   4.544   4.831
    1C        C  366   3.630   4.589   4.947
    1C        C  367   3.766   4.563   4.949
    1C        C  368   4.507   3.559   2.047
    1C        C  369   4.521   3.487   2.167
    1C        C  370   4.501   3.702   2.282
    1C        C  371   4.520   3.562   2.287
    1C        C  372   4.477   3.772   2.402
    1C        C  373   4.491   3.704   2.525
    1C        C  374   4.418   3.902   2.644
    1C        C  375   4.477   3.773   2.647
    1C        C  376   4.384   3.963   2.766
    1C        C  377   4.415   3.904   2.891
    1C        C  378   4.313   4.090   3.008
    1C        C  379   4.389   3.972   3.012
    1C        C  380   4.270   4.147   3.130
    1C        C  381   4.308   4.092   3.254
    1C        C  382   4.166   4.248   3.376
    1C        C  383   4.267   4.150   3.376
    1C        C  384   4.115   4.302   3.497
    1C        C  385   4.170   4.260   3.620
    1C        C  386   4.003   4.391   3.740
    1C        C  387   4.119   4.310   3.741
    1C        C  388   3.942   4.430   3.861
    1C        C  389   4.000   4.390   3.984
    1C        C  390   3.816   4.489   4.105
    1C        C  391   3.947   4.435   4.106
    1C        C  392   3.751   4.511   4.228
    1C        C  393   3.820   4.496   4.350
    1C        C  394   3.616   4.553   4.473
    1C        C  395   3.754   4.524   4.472
    1C        C  396   3.544   4.566   4.594
    1C        C  397   3.620   4.566   4.713
    1C        C  398   3.409   4.549   4.843
    1C        C  399   3.548   4.575   4.834
    1C        C  400   3.343   4.514   4.961
    1C        C  401   4.501   3.698   2.046
    1C        C  402   4.446   3.910   2.160
    1C        C  403   4.490   3.775   2.162
    1C        C  404   4.403   3.971   2.280
    1C        C  405   4.428   3.905   2.402
    1C        C  406   4.318   4.090   2.523
    1C        C  407   4.394   3.970   2.523
    1C        C  408   4.269   4.143   2.644
    1C        C  409   4.307   4.082   2.765
    1C        C  410   4.166   4.244   2.887
    1C        C  411   4.262   4.140   2.886
    1C        C  412   4.115   4.292   3.009
    1C        C  413   4.168   4.246   3.131
    1C        C  414   3.997   4.372   3.248
    1C        C  415   4.113   4.291   3.253
    1C        C  416   3.938   4.409   3.371
    1C        C  417   3.998   4.382   3.495
    1C        C  418   3.810   4.478   3.616
    1C        C  419   3.939   4.419   3.618
    1C        C  420   3.747   4.511   3.738
    1C        C  421   3.815   4.490   3.860
    1C        C  422   3.609   4.537   3.987
    1C        C  423   3.747   4.509   3.983
    1C        C  424   3.540   4.547   4.110
    1C        C  425   3.614   4.545   4.231
    1C        C  426   3.402   4.553   4.354
    1C        C  427   3.543   4.555   4.352
    1C        C  428   3.332   4.543   4.476
    1C        C  429   3.403   4.555   4.597
    1C        C  430   3.198   4.517   4.721
    1C        C  431   3.338   4.540   4.722
    1C        C  432   3.125   4.495   4.841
    1C        C  433   3.206   4.489   4.955
    1C        C  434   4.385   4.125   2.053
    1C        C  435   4.438   3.995   2.050
    1C        C  436   4.296   4.159   2.159
    1C        C  437   4.327   4.091   2.280
    1C        C  438   4.178   4.247   2.399
    1C        C  439   4.277   4.147   2.400
    1C        C  440   4.120   4.292   2.520
    1C        C  441   4.167   4.240   2.643
    1C        C  442   4.002   4.375   2.761
    1C        C  443   4.117   4.293   2.764
    1C        C  444   3.939   4.410   2.883
    1C        C  445   4.000   4.375   3.005
    1C        C  446   3.807   4.468   3.129
    1C        C  447   3.936   4.411   3.126
    1C        C  448   3.743   4.493   3.252
    1C        C  449   3.810   4.468   3.374
    1C        C  450   3.606   4.535   3.495
    1C        C  451   3.743   4.500   3.494
    1C        C  452   3.538   4.547   3.619
    1C        C  453   3.608   4.540   3.742
    1C        C  454   3.398   4.550   3.864
    1C        C  455   3.540   4.549   3.865
    1C        C  456   3.329   4.539   3.987
    1C        C  457   3.399   4.543   4.109
    1C        C  458   3.193   4.503   4.234
    1C        C  459   3.330   4.536   4.233
    1C        C  460   3.127   4.485   4.358
    1C        C  461   3.195   4.510   4.479
    1C        C  462   3.002   4.425   4.601
    1C        C  463   3.126   4.493   4.601
    1C        C  464   2.935   4.393   4.721
    1C        C  465   2.992   4.442   4.842
    1C        C  466   2.805   4.334   4.957
    1C        C  467   2.911   4.425   4.959
    1C        C  468   4.124   4.295   2.041
    1C        C  469   4.186   4.251   2.158
    1C        C  470   4.004   4.372   2.278
    1C        C  471   4.126   4.298   2.278
    1C        C  472   3.938   4.406   2.398
    1C        C  473   4.004   4.372   2.518
    1C        C  474   3.812   4.468   2.641
    1C        C  475   3.942   4.411   2.639
    1C        C  476   3.744   4.493   2.762
    1C        C  477   3.811   4.469   2.885
    1C        C  478   3.603   4.518   3.007
    1C        C  479   3.742   4.493   3.006
    1C        C  480   3.535   4.535   3.130
    1C        C  481   3.606   4.528   3.253
    1C        C  482   3.393   4.535   3.374
    1C        C  483   3.534   4.536   3.374
    1C        C  484   3.324   4.531   3.498
    1C        C  485   3.397   4.546   3.618
    1C        C  486   3.193   4.496   3.742
    1C        C  487   3.329   4.536   3.742
    1C        C  488   3.129   4.475   3.866
    1C        C  489   3.193   4.500   3.989
    1C        C  490   3.001   4.413   4.112
    1C        C  491   3.126   4.480   4.112
    1C        C  492   2.945   4.373   4.236
    1C        C  493   3.004   4.416   4.357
    1C        C  494   2.833   4.293   4.478
    1C        C  495   2.944   4.381   4.480
    1C        C  496   2.775   4.251   4.600
    1C        C  497   2.823   4.305   4.721
    1C        C  498   2.668   4.161   4.841
    1C        C  499   2.763   4.265   4.842
    1C        C  500   2.601   4.114   4.955
    1C        C  501   4.000   4.359   2.041
    1C        C  502   3.810   4.465   2.152
    1C        C  503   3.938   4.404   2.158
    1C        C  504   3.742   4.484   2.274
    1C        C  505   3.806   4.458   2.397
    1C        C  506   3.603   4.512   2.517
    1C        C  507   3.742   4.486   2.520
    1C        C  508   3.533   4.519   2.639
    1C        C  509   3.605   4.518   2.761
    1C        C  510   3.394   4.520   2.884
    1C        C  511   3.535   4.524   2.883
    1C        C  512   3.323   4.515   3.006
    1C        C  513   3.394   4.533   3.127
    1C        C  514   3.189   4.490   3.253
    1C        C  515   3.326   4.527   3.250
    1C        C  516   3.123   4.466   3.376
    1C        C  517   3.189   4.491   3.498
    1C        C  518   2.999   4.407   3.622
    1C        C  519   3.124   4.472   3.622
    1C        C  520   2.943   4.368   3.746
    1C        C  521   3.005   4.406   3.867
    1C        C  522   2.838   4.278   3.991
    1C        C  523   2.947   4.369   3.990
    1C        C  524   2.790   4.228   4.114
    1C        C  525   2.838   4.282   4.236
    1C        C  526   2.694   4.129   4.360
    1C        C  527   2.779   4.243   4.358
    1C        C  528   2.652   4.071   4.482
    1C        C  529   2.687   4.140   4.600
    1C        C  530   2.590   3.955   4.732
    1C        C  531   2.642   4.087   4.723
    1C        C  532   2.539   3.899   4.852
    1C        C  533   2.528   3.995   4.957
    1C        C  534   3.614   4.553   2.037
    1C        C  535   3.745   4.504   2.035
    1C        C  536   3.534   4.531   2.154
    1C        C  537   3.602   4.508   2.276
    1C        C  538   3.387   4.513   2.396
    1C        C  539   3.529   4.516   2.397
    1C        C  540   3.318   4.511   2.519
    1C        C  541   3.392   4.514   2.640
    1C        C  542   3.185   4.476   2.762
    1C        C  543   3.323   4.509   2.762
    1C        C  544   3.116   4.462   2.884
    1C        C  545   3.186   4.480   3.006
    1C        C  546   2.998   4.396   3.132
    1C        C  547   3.125   4.458   3.132
    1C        C  548   2.942   4.359   3.256
    1C        C  549   2.998   4.399   3.379
    1C        C  550   2.829   4.275   3.502
    1C        C  551   2.935   4.369   3.501
    1C        C  552   2.780   4.228   3.625
    1C        C  553   2.833   4.280   3.746
    1C        C  554   2.704   4.114   3.873
    1C        C  555   2.788   4.227   3.870
    1C        C  556   2.668   4.055   3.996
    1C        C  557   2.709   4.113   4.118
    1C        C  558   2.597   3.936   4.246
    1C        C  559   2.664   4.060   4.241
    1C        C  560   2.566   3.874   4.369
    1C        C  561   2.592   3.944   4.490
    1C        C  562   2.530   3.745   4.614
    1C        C  563   2.566   3.881   4.614
    1C        C  564   2.511   3.678   4.737
    1C        C  565   2.513   3.758   4.855
    1C        C  566   2.529   3.545   4.975
    1C        C  567   2.513   3.683   4.973
    1C        C  568   3.323   4.472   2.039
    1C        C  569   3.394   4.507   2.154
    1C        C  570   3.178   4.474   2.278
    1C        C  571   3.317   4.504   2.274
    1C        C  572   3.111   4.454   2.400
    1C        C  573   3.179   4.486   2.520
    1C        C  574   2.987   4.397   2.644
    1C        C  575   3.112   4.464   2.642
    1C        C  576   2.932   4.353   2.767
    1C        C  577   2.992   4.394   2.888
    1C        C  578   2.825   4.268   3.014
    1C        C  579   2.936   4.355   3.012
    1C        C  580   2.782   4.215   3.137
    1C        C  581   2.833   4.268   3.258
    1C        C  582   2.698   4.107   3.382
    1C        C  583   2.782   4.221   3.380
    1C        C  584   2.663   4.050   3.506
    1C        C  585   2.698   4.114   3.627
    1C        C  586   2.598   3.929   3.756
    1C        C  587   2.664   4.054   3.751
    1C        C  588   2.569   3.865   3.878
    1C        C  589   2.600   3.931   4.000
    1C        C  590   2.533   3.734   4.128
    1C        C  591   2.572   3.869   4.124
    1C        C  592   2.521   3.666   4.251
    1C        C  593   2.530   3.738   4.373
    1C        C  594   2.509   3.528   4.496
    1C        C  595   2.520   3.668   4.496
    1C        C  596   2.511   3.461   4.621
    1C        C  597   2.510   3.536   4.741
    1C        C  598   2.536   3.322   4.863
    1C        C  599   2.524   3.463   4.861
    1C        C  600   2.529   3.246   4.980
    1C        C  601   3.189   4.437   2.041
    1C        C  602   2.977   4.388   2.159
    1C        C  603   3.111   4.440   2.157
    1C        C  604   2.917   4.355   2.283
    1C        C  605   2.982   4.396   2.401
    1C        C  606   2.820   4.263   2.527
    1C        C  607   2.924   4.358   2.524
    1C        C  608   2.770   4.211   2.649
    1C        C  609   2.822   4.264   2.769
    1C        C  610   2.691   4.102   2.894
    1C        C  611   2.774   4.216   2.892
    1C        C  612   2.653   4.045   3.018
    1C        C  613   2.694   4.104   3.139
    1C        C  614   2.593   3.919   3.265
    1C        C  615   2.655   4.046   3.262
    1C        C  616   2.559   3.861   3.390
    1C        C  617   2.597   3.925   3.510
    1C        C  618   2.528   3.728   3.636
    1C        C  619   2.571   3.862   3.634
    1C        C  620   2.513   3.661   3.759
    1C        C  621   2.524   3.732   3.881
    1C        C  622   2.504   3.524   4.008
    1C        C  623   2.516   3.665   4.006
    1C        C  624   2.502   3.453   4.130
    1C        C  625   2.506   3.526   4.250
    1C        C  626   2.536   3.320   4.377
    1C        C  627   2.502   3.457   4.374
    1C        C  628   2.556   3.251   4.498
    1C        C  629   2.534   3.322   4.618
    1C        C  630   2.594   3.118   4.743
    1C        C  631   2.554   3.254   4.740
    1C        C  632   2.614   3.046   4.864
    1C        C  633   2.559   3.109   4.980
    1C        C  634   2.778   4.304   2.051
    1C        C  635   2.890   4.388   2.046
    1C        C  636   2.743   4.229   2.165
    1C        C  637   2.799   4.276   2.286
    1C        C  638   2.670   4.107   2.407
    1C        C  639   2.759   4.217   2.408
    1C        C  640   2.634   4.045   2.528
    1C        C  641   2.681   4.102   2.649
    1C        C  642   2.588   3.915   2.776
    1C        C  643   2.650   4.041   2.773
    1C        C  644   2.559   3.854   2.900
    1C        C  645   2.585   3.922   3.022
    1C        C  646   2.523   3.718   3.147
    1C        C  647   2.562   3.854   3.144
    1C        C  648   2.508   3.654   3.272
    1C        C  649   2.518   3.726   3.393
    1C        C  650   2.495   3.516   3.515
    1C        C  651   2.505   3.657   3.515
    1C        C  652   2.503   3.449   3.640
    1C        C  653   2.498   3.521   3.762
    1C        C  654   2.528   3.314   3.887
    1C        C  655   2.502   3.453   3.886
    1C        C  656   2.545   3.246   4.010
    1C        C  657   2.520   3.312   4.132
    1C        C  658   2.602   3.119   4.256
    1C        C  659   2.546   3.248   4.256
    1C        C  660   2.635   3.056   4.378
    1C        C  661   2.604   3.118   4.501
    1C        C  662   2.707   2.934   4.622
    1C        C  663   2.629   3.051   4.623
    1C        C  664   2.748   2.875   4.744
    1C        C  665   2.695   2.927   4.865
    1C        C  666   2.744   2.867   4.981
    1C        C  667   2.672   4.023   2.051
    1C        C  668   2.674   4.106   2.163
    1C        C  669   2.581   3.913   2.286
    1C        C  670   2.639   4.043   2.284
    1C        C  671   2.552   3.848   2.408
    1C        C  672   2.576   3.916   2.530
    1C        C  673   2.516   3.715   2.655
    1C        C  674   2.556   3.851   2.654
    1C        C  675   2.504   3.648   2.779
    1C        C  676   2.525   3.717   2.901
    1C        C  677   2.497   3.509   3.029
    1C        C  678   2.511   3.649   3.024
    1C        C  679   2.507   3.439   3.151
    1C        C  680   2.505   3.513   3.271
    1C        C  681   2.523   3.304   3.397
    1C        C  682   2.501   3.443   3.394
    1C        C  683   2.546   3.240   3.521
    1C        C  684   2.530   3.311   3.642
    1C        C  685   2.595   3.112   3.767
    1C        C  686   2.544   3.243   3.766
    1C        C  687   2.628   3.051   3.890
    1C        C  688   2.598   3.115   4.012
    1C        C  689   2.707   2.933   4.135
    1C        C  690   2.632   3.053   4.134
    1C        C  691   2.751   2.876   4.257
    1C        C  692   2.708   2.935   4.378
    1C        C  693   2.752   2.878   4.500
    1C        C  694   2.620   3.893   2.051
    1C        C  695   2.519   3.704   2.173
    1C        C  696   2.569   3.836   2.169
    1C        C  697   2.497   3.638   2.296
    1C        C  698   2.512   3.713   2.415
    1C        C  699   2.481   3.502   2.540
    1C        C  700   2.498   3.642   2.536
    1C        C  701   2.496   3.434   2.663
    1C        C  702   2.495   3.507   2.784
    1C        C  703   2.522   3.298   2.909
    1C        C  704   2.499   3.438   2.907
    1C        C  705   2.542   3.229   3.031
    1C        C  706   2.528   3.299   3.153
    1C        C  707   2.593   3.101   3.277
    1C        C  708   2.541   3.232   3.276
    1C        C  709   2.625   3.041   3.401
    1C        C  710   2.600   3.109   3.523
    1C        C  711   2.705   2.928   3.647
    1C        C  712   2.627   3.046   3.646
    1C        C  713   2.749   2.875   3.771
    1C        C  714   2.706   2.933   3.892
    1C        C  715   2.752   2.877   4.014
    1C        C  716   2.449   3.494   2.060
    1C        C  717   2.489   3.629   2.059
    1C        C  718   2.460   3.417   2.181
    1C        C  719   2.478   3.497   2.297
    1C        C  720   2.505   3.288   2.422
    1C        C  721   2.485   3.428   2.420
    1C        C  722   2.529   3.221   2.544
    1C        C  723   2.521   3.295   2.665
    1C        C  724   2.589   3.096   2.788
    1C        C  725   2.536   3.227   2.788
    1C        C  726   2.622   3.033   2.910
    1C        C  727   2.593   3.097   3.032
    1C        C  728   2.699   2.916   3.155
    1C        C  729   2.624   3.036   3.155
    1C        C  730   2.746   2.868   3.280
    1C        C  731   2.702   2.923   3.402
    1C        C  732   2.752   2.875   3.525
    1C        C  733   2.485   3.192   2.073
    1C        C  734   2.483   3.276   2.185
    1C        C  735   2.576   3.080   2.306
    1C        C  736   2.514   3.208   2.306
    1C        C  737   2.599   3.013   2.428
    1C        C  738   2.578   3.088   2.545
    1C        C  739   2.694   2.910   2.666
    1C        C  740   2.619   3.030   2.667
    1C        C  741   2.738   2.855   2.788
    1C        C  742   2.699   2.915   2.910
    1C        C  743   2.742   2.860   3.033
    1C        C  744   2.550   3.069   2.069
    1C        C  745   2.688   2.899   2.183
    1C        C  746   2.609   3.016   2.185
    1C        C  747   2.732   2.843   2.305
    1C        C  748   2.685   2.900   2.425
    1C        C  749   2.739   2.850   2.546
    1C        C  750   2.742   2.842   2.067
    1C        C  751   3.656   2.321   1.965
    1C        O  752   3.678   2.200   1.995
    1C        O  753   3.665   2.347   1.828
    1C        C  754   4.625   3.058   1.973
    1C        O  755   4.599   3.026   1.854
    1C        O  756   4.748   3.019   2.028
    1C        C  757   4.472   4.236   2.008
    1C        O  758   4.566   4.273   2.083
    1C        O  759   4.482   4.235   1.869
    1C        C  760   3.592   4.668   1.947
    1C        O  761   3.577   4.785   1.992
    1C        O  762   3.605   4.658   1.808
    1C        C  763   2.890   4.500   1.949
    1C        O  764   2.912   4.491   1.825
    1C        O  765   2.802   4.606   1.973
    1C        C  766   2.353   3.460   1.953
    1C        O  767   2.396   3.448   1.835
    1C        O  768   2.220   3.430   1.983
    1C        C  769   4.672   3.588   5.074
    1C        O  770   4.636   3.581   5.194
    1C        O  771   4.811   3.590   5.056
    1C        C  772   4.285   4.463   5.019
    1C        O  773   4.290   4.455   5.145
    1C        O  774   4.404   4.512   4.965
    1C        C  775   4.149   2.530   5.075
    1C        O  776   4.238   2.445   5.046
    1C        O  777   4.123   2.516   5.211
    1C        C  778   2.916   4.516   5.076
    1C        O  779   2.899   4.640   5.065
    1C        O  780   2.898   4.479   5.210
    1C        C  781   2.480   3.029   5.077
    1C        O  782   2.380   2.957   5.050
    1C        O  783   2.509   3.044   5.212
    1C        C  784   2.409   4.004   5.045
    1C        O  785   2.298   4.048   5.005
    1C        O  786   2.419   3.950   5.173
    1C        C  787   2.954   2.429   1.982
    1C        O  788   2.949   2.474   1.865
    1C        O  789   2.904   2.300   1.996
    1C        C  790   3.171   2.370   5.055
    1C        O  791   3.155   2.256   5.003
    1C        O  792   3.184   2.378   5.194
    1C        H  793   4.328   2.980   5.070
    1C        H  794   4.182   2.809   5.071
    1C        H  795   4.521   3.119   5.041
    1C        H  796   4.575   3.348   5.054
    1C        H  797   4.564   3.813   5.046
    1C        H  798   4.461   3.997   5.042
    1C        H  799   4.270   4.156   5.046
    1C        H  800   4.034   4.531   5.025
    1C        H  801   3.817   4.570   5.043
    1C        H  802   3.586   4.597   5.045
    1C        H  803   3.400   4.466   5.038
    1C        H  804   3.174   4.422   5.032
    1C        H  805   3.898   2.447   5.050
    1C        H  806   3.677   2.494   5.078
    1C        H  807   3.014   2.567   5.072
    1C        H  808   3.448   2.458   5.077
    1C        H  809   2.902   2.767   5.071
    1C        H  810   2.732   2.919   5.074
    1C        H  811   2.493   3.290   5.071
    1C        H  812   2.581   3.509   5.061
    1C        H  813   2.473   3.722   5.064
    1C        H  814   2.556   4.194   5.011
    1C        H  815   2.773   4.304   5.054
    1C        H  816   2.727   2.891   1.973
    1C        H  817   2.822   2.668   1.978
    1C        H  818   3.205   2.413   1.995
    1C        H  819   3.436   2.495   1.992
    1C        H  820   3.862   2.499   1.968
    1C        H  821   4.025   2.671   1.970
    1C        H  822   4.283   2.693   1.988
    1C        H  823   4.393   2.905   1.967
    1C        H  824   4.618   3.297   1.980
    1C        H  825   4.475   3.510   1.957
    1C        H  826   4.536   3.746   1.957
    1C        H  827   3.769   4.453   1.944
    1C        H  828   3.966   4.393   1.946
    1C        H  829   4.162   4.248   1.952
    1C        H  830   4.504   3.971   1.969
    1C        H  831   2.650   3.822   1.977
    1C        H  832   2.732   4.050   1.966
    1C        H  833   2.706   4.299   1.972
    1C        H  834   3.357   4.509   1.944
    1C        H  835   3.162   4.360   1.971
    1C        H  836   2.592   3.036   1.977
    1C        H  837   2.468   3.236   1.977
    1C        H  838   2.443   3.686   1.982
    2V3OU   H29  839   2.800   3.545   1.956
    2V3OU   C27  840   2.783   3.503   2.058
    2V3OU   H27  841   2.724   3.563   2.132
    2V3OU   H28  842   2.732   3.405   2.040
    2V3OU   O11  843   2.913   3.468   2.107
    2V3OU   C15  844   2.920   3.393   2.222
    2V3OU   C13  845   3.046   3.372   2.283
    2V3OU   C14  846   3.071   3.269   2.374
    2V3OU   C16  847   2.971   3.187   2.423
    2V3OU    H6  848   2.993   3.105   2.493
    2V3OU   C12  849   3.209   3.235   2.417
    2V3OU    O2  850   3.232   3.131   2.481
    2V3OU   C10  851   3.322   3.305   2.355
    2V3OU    C8  852   3.453   3.268   2.385
    2V3OU   O10  853   3.484   3.154   2.453
    2V3OU   H26  854   3.404   3.114   2.490
    2V3OU    C6  855   3.563   3.350   2.345
    2V3OU    C5  856   3.535   3.466   2.273
    2V3OU    C4  857   3.702   3.296   2.350
    2V3OU    H4  858   3.715   3.227   2.439
    2V3OU    H5  859   3.713   3.230   2.259
    2V3OU    C2  860   3.815   3.399   2.350
    2V3OU    O6  861   3.804   3.480   2.467
    2V3OU   H21  862   3.762   3.561   2.434
    2V3OU    C3  863   3.776   3.495   2.237
    2V3OU    H2  864   3.863   3.566   2.235
    2V3OU    H3  865   3.781   3.436   2.142
    2V3OU   C25  866   3.949   3.326   2.334
    2V3OU    O7  867   4.003   3.291   2.229
    2V3OU   C26  868   4.028   3.292   2.460
    2V3OU   H22  869   4.068   3.385   2.508
    2V3OU   H23  870   4.115   3.226   2.435
    2V3OU    O8  871   3.956   3.205   2.544
    2V3OU   H24  872   3.927   3.256   2.622
    2V3OU    C1  873   3.642   3.566   2.241
    2V3OU    H1  874   3.622   3.616   2.142
    2V3OU    O3  875   3.650   3.651   2.356
    2V3OU   C19  876   3.616   3.789   2.337
    2V3OU    H9  877   3.520   3.804   2.279
    2V3OU    O4  878   3.711   3.841   2.247
    2V3OU   C20  879   3.841   3.871   2.297
    2V3OU   H10  880   3.887   3.770   2.316
    2V3OU   C24  881   3.608   3.856   2.474
    2V3OU   H16  882   3.541   3.797   2.541
    2V3OU   H17  883   3.562   3.958   2.463
    2V3OU   C23  884   3.749   3.871   2.533
    2V3OU   H15  885   3.792   3.766   2.544
    2V3OU    N1  886   3.733   3.953   2.651
    2V3OU   H19  887   3.810   3.932   2.711
    2V3OU   H20  888   3.653   3.927   2.705
    2V3OU   C21  889   3.846   3.941   2.433
    2V3OU   H11  890   3.948   3.923   2.478
    2V3OU    O5  891   3.825   4.082   2.433
    2V3OU   H18  892   3.775   4.103   2.513
    2V3OU   C22  893   3.909   3.946   2.183
    2V3OU   H12  894   3.855   4.042   2.164
    2V3OU   H13  895   3.902   3.887   2.088
    2V3OU   H14  896   4.019   3.955   2.201
    2V3OU   C11  897   3.156   3.465   2.255
    2V3OU    O1  898   3.136   3.587   2.233
    2V3OU    C9  899   3.296   3.420   2.276
    2V3OU    C7  900   3.401   3.503   2.239
    2V3OU    O9  901   3.389   3.623   2.171
    2V3OU   H25  902   3.294   3.626   2.154
    2V3OU   C17  903   2.820   3.307   2.271
    2V3OU    H7  904   2.717   3.341   2.261
    2V3OU   C18  905   2.845   3.212   2.370
    2V3OU    H8  906   2.765   3.161   2.426
    3SOL     OW  907   2.992   4.178   0.631
    3SOL    HW1  908   2.990   4.120   0.549
    3SOL    HW2  909   3.068   4.243   0.623
    4SOL     OW  910   6.202   5.707   1.811
    4SOL    HW1  911   6.299   5.717   1.835
    4SOL    HW2  912   6.185   5.755   1.725
    5SOL     OW  913   3.748   1.518   2.858
    5SOL    HW1  914   3.829   1.552   2.810
    5SOL    HW2  915   3.776   1.478   2.946
    6SOL     OW  916   4.519   1.388   1.752
    6SOL    HW1  917   4.449   1.403   1.821
    6SOL    HW2  918   4.589   1.326   1.788
    7SOL     OW  919   6.491   3.619   2.325
    7SOL    HW1  920   6.435   3.544   2.359
    7SOL    HW2  921   6.550   3.653   2.399
    8SOL     OW  922   3.121   0.385   5.738
    8SOL    HW1  923   3.154   0.451   5.670
    8SOL    HW2  924   3.198   0.327   5.768
    9SOL     OW  925   6.623   5.483   5.716
    9SOL    HW1  926   6.626   5.575   5.756
    9SOL    HW2  927   6.715   5.455   5.691
   10SOL     OW  928   0.762   4.601   6.044
   10SOL    HW1  929   0.717   4.660   5.977
   10SOL    HW2  930   0.851   4.640   6.069
   11SOL     OW  931   3.106   0.155   0.195
   11SOL    HW1  932   3.200   0.162   0.162
   11SOL    HW2  933   3.043   0.169   0.119
   12SOL     OW  934   4.257   6.298   4.119
   12SOL    HW1  935   4.182   6.244   4.080
   12SOL    HW2  936   4.291   6.362   4.050
   13SOL     OW  937   3.124   5.452   3.953
   13SOL    HW1  938   3.063   5.517   3.908
   13SOL    HW2  939   3.156   5.490   4.040
   14SOL     OW  940   5.348   5.653   6.462
   14SOL    HW1  941   5.328   5.590   6.536
   14SOL    HW2  942   5.420   5.615   6.404
   15SOL     OW  943   0.808   5.474   0.703
   15SOL    HW1  944   0.879   5.405   0.697
   15SOL    HW2  945   0.849   5.563   0.724
   16SOL     OW  946   5.336   2.835   5.525
   16SOL    HW1  947   5.322   2.932   5.548
   16SOL    HW2  948   5.432   2.820   5.502
   17SOL     OW  949   5.131   6.157   5.479
   17SOL    HW1  950   5.161   6.252   5.493
   17SOL    HW2  951   5.175   6.120   5.397
   18SOL     OW  952   3.012   0.915   6.366
   18SOL    HW1  953   3.108   0.894   6.387
   18SOL    HW2  954   2.971   0.838   6.317
   19SOL     OW  955   0.251   6.976   3.337
   19SOL    HW1  956   0.203   7.009   3.419
   19SOL    HW2  957   0.348   6.999   3.344
   20SOL     OW  958   4.957   2.174   4.513
   20SOL    HW1  959   4.936   2.076   4.503
   20SOL    HW2  960   5.034   2.198   4.455
   21SOL     OW  961   3.165   2.138   2.427
   21SOL    HW1  962   3.081   2.183   2.398
   21SOL    HW2  963   3.239   2.161   2.363
   22SOL     OW  964   2.441   6.932   0.639
   22SOL    HW1  965   2.360   6.987   0.659
   22SOL    HW2  966   2.421   6.835   0.655
   23SOL     OW  967   4.679   6.741   3.620
   23SOL    HW1  968   4.590   6.786   3.626
   23SOL    HW2  969   4.672   6.647   3.654
   24SOL     OW  970   5.095   1.300   2.688
   24SOL    HW1  971   5.095   1.304   2.788
   24SOL    HW2  972   5.185   1.325   2.653
   25SOL     OW  973   3.608   6.644   5.717
   25SOL    HW1  974   3.642   6.556   5.686
   25SOL    HW2  975   3.518   6.633   5.760
   26SOL     OW  976   6.235   1.013   0.577
   26SOL    HW1  977   6.301   1.000   0.503
   26SOL    HW2  978   6.284   1.011   0.665
   27SOL     OW  979   0.305   1.611   1.389
   27SOL    HW1  980   0.354   1.698   1.385
   27SOL    HW2  981   0.274   1.594   1.483
   28SOL     OW  982   3.748   1.523   0.181
   28SOL    HW1  983   3.723   1.555   0.272
   28SOL    HW2  984   3.706   1.433   0.165
   29SOL     OW  985   5.525   3.220   2.211
   29SOL    HW1  986   5.458   3.181   2.148
   29SOL    HW2  987   5.616   3.186   2.188
   30SOL     OW  988   3.715   0.480   5.210
   30SOL    HW1  989   3.718   0.422   5.129
   30SOL    HW2  990   3.622   0.517   5.221
   31SOL     OW  991   0.717   1.853   5.877
   31SOL    HW1  992   0.685   1.850   5.783
   31SOL    HW2  993   0.734   1.948   5.904
   32SOL     OW  994   6.981   1.600   3.109
   32SOL    HW1  995   6.898   1.639   3.069
   32SOL    HW2  996   0.039   1.664   3.096
   33SOL     OW  997   2.498   3.639   0.035
   33SOL    HW1  998   2.570   3.647   6.984
   33SOL    HW2  999   2.409   3.636   7.010
   34SOL     OW 1000   2.346   1.722   3.179
   34SOL    HW1 1001   2.291   1.703   3.099
   34SOL    HW2 1002   2.314   1.805   3.224
   35SOL     OW 1003   3.194   2.588   0.002
   35SOL    HW1 1004   3.172   2.682   0.026
   35SOL    HW2 1005   3.124   2.527   0.037
   36SOL     OW 1006   0.138   0.756   6.041
   36SOL    HW1 1007   0.207   0.740   6.113
   36SOL    HW2 1008   0.073   0.825   6.072
   37SOL     OW 1009   1.388   6.975   0.705
   37SOL    HW1 1010   1.310   6.931   0.751
   37SOL    HW2 1011   1.356   0.003   0.623
   38SOL     OW 1012   0.002   4.492   2.466
   38SOL    HW1 1013   6.956   4.533   2.402
   38SOL    HW2 1014   0.074   4.557   2.488
   39SOL     OW 1015   6.628   4.957   6.392
   39SOL    HW1 1016   6.569   5.024   6.437
   39SOL    HW2 1017   6.572   4.887   6.348
   40SOL     OW 1018   5.638   2.549   1.312
   40SOL    HW1 1019   5.585   2.487   1.254
   40SOL    HW2 1020   5.732   2.554   1.278
   41SOL     OW 1021   6.954   6.770   4.196
   41SOL    HW1 1022   6.861   6.732   4.203
   41SOL    HW2 1023   7.003   6.754   4.282
   42SOL     OW 1024   2.358   5.570   5.594
   42SOL    HW1 1025   2.454   5.559   5.567
   42SOL    HW2 1026   2.300   5.514   5.535
   43SOL     OW 1027   5.574   6.695   5.001
   43SOL    HW1 1028   5.674   6.694   5.001
   43SOL    HW2 1029   5.540   6.612   4.958
   44SOL     OW 1030   5.697   1.929   6.080
   44SOL    HW1 1031   5.736   1.939   6.171
   44SOL    HW2 1032   5.767   1.894   6.017
   45SOL     OW 1033   3.771   6.441   3.024
   45SOL    HW1 1034   3.754   6.346   3.047
   45SOL    HW2 1035   3.867   6.463   3.041
   46SOL     OW 1036   1.324   3.411   3.644
   46SOL    HW1 1037   1.263   3.491   3.649
   46SOL    HW2 1038   1.278   3.332   3.685
   47SOL     OW 1039   4.679   4.609   1.508
   47SOL    HW1 1040   4.696   4.562   1.421
   47SOL    HW2 1041   4.665   4.541   1.580
   48SOL     OW 1042   6.862   2.994   6.097
   48SOL    HW1 1043   6.860   2.994   6.197
   48SOL    HW2 1044   6.806   2.919   6.062
   49SOL     OW 1045   4.723   4.136   1.769
   49SOL    HW1 1046   4.643   4.162   1.824
   49SOL    HW2 1047   4.696   4.126   1.674
   50SOL     OW 1048   0.043   2.656   5.771
   50SOL    HW1 1049   6.978   2.603   5.752
   50SOL    HW2 1050   0.018   2.742   5.816
   51SOL     OW 1051   2.898   6.410   2.279
   51SOL    HW1 1052   2.900   6.345   2.355
   51SOL    HW2 1053   2.939   6.367   2.198
   52SOL     OW 1054   5.212   2.648   3.285
   52SOL    HW1 1055   5.175   2.596   3.208
   52SOL    HW2 1056   5.163   2.624   3.369
   53SOL     OW 1057   4.037   0.225   4.665
   53SOL    HW1 1058   4.003   0.264   4.579
   53SOL    HW2 1059   4.132   0.196   4.653
   54SOL     OW 1060   4.090   4.532   0.679
   54SOL    HW1 1061   4.031   4.541   0.599
   54SOL    HW2 1062   4.033   4.528   0.761
   55SOL     OW 1063   3.359   1.625   6.591
   55SOL    HW1 1064   3.375   1.536   6.550
   55SOL    HW2 1065   3.325   1.689   6.522
   56SOL     OW 1066   0.025   6.922   0.856
   56SOL    HW1 1067   0.062   6.829   0.859
   56SOL    HW2 1068   0.025   6.961   0.948
   57SOL     OW 1069   5.296   0.710   0.629
   57SOL    HW1 1070   5.201   0.737   0.644
   57SOL    HW2 1071   5.334   0.761   0.552
   58SOL     OW 1072   6.249   6.863   5.522
   58SOL    HW1 1073   6.162   6.899   5.555
   58SOL    HW2 1074   6.295   6.813   5.597
   59SOL     OW 1075   1.470   1.062   6.122
   59SOL    HW1 1076   1.552   1.118   6.108
   59SOL    HW2 1077   1.402   1.086   6.054
   60SOL     OW 1078   5.532   1.162   5.860
   60SOL    HW1 1079   5.468   1.199   5.928
   60SOL    HW2 1080   5.616   1.216   5.861
   61SOL     OW 1081   4.991   1.610   4.903
   61SOL    HW1 1082   5.044   1.561   4.972
   61SOL    HW2 1083   5.053   1.665   4.847
   62SOL     OW 1084   0.322   0.776   3.178
   62SOL    HW1 1085   0.291   0.834   3.103
   62SOL    HW2 1086   0.340   0.683   3.144
   63SOL     OW 1087   5.887   1.710   3.814
   63SOL    HW1 1088   5.847   1.646   3.748
   63SOL    HW2 1089   5.873   1.675   3.906
   64SOL     OW 1090   0.525   3.971   6.030
   64SOL    HW1 1091   0.493   3.882   5.997
   64SOL    HW2 1092   0.579   3.957   6.114
   65SOL     OW 1093   6.919   4.769   5.213
   65SOL    HW1 1094   6.921   4.855   5.264
   65SOL    HW2 1095   6.982   4.704   5.255
   66SOL     OW 1096   3.933   0.910   6.238
   66SOL    HW1 1097   3.933   0.957   6.150
   66SOL    HW2 1098   3.914   0.813   6.224
   67SOL     OW 1099   5.424   4.458   5.752
   67SOL    HW1 1100   5.342   4.507   5.723
   67SOL    HW2 1101   5.469   4.508   5.826
   68SOL     OW 1102   5.765   0.711   6.842
   68SOL    HW1 1103   5.717   0.697   6.929
   68SOL    HW2 1104   5.736   0.640   6.777
   69SOL     OW 1105   0.772   3.484   6.715
   69SOL    HW1 1106   0.735   3.508   6.626
   69SOL    HW2 1107   0.839   3.410   6.705
   70SOL     OW 1108   5.828   4.893   3.968
   70SOL    HW1 1109   5.745   4.862   4.015
   70SOL    HW2 1110   5.878   4.957   4.027
   71SOL     OW 1111   4.317   1.498   2.922
   71SOL    HW1 1112   4.256   1.432   2.878
   71SOL    HW2 1113   4.263   1.562   2.976
   72SOL     OW 1114   2.507   6.025   4.967
   72SOL    HW1 1115   2.584   5.985   4.917
   72SOL    HW2 1116   2.433   6.046   4.903
   73SOL     OW 1117   3.599   0.738   0.842
   73SOL    HW1 1118   3.650   0.769   0.922
   73SOL    HW2 1119   3.538   0.663   0.868
   74SOL     OW 1120   5.142   6.449   5.880
   74SOL    HW1 1121   5.089   6.377   5.836
   74SOL    HW2 1122   5.082   6.528   5.897
   75SOL     OW 1123   4.143   0.328   6.512
   75SOL    HW1 1124   4.117   0.296   6.421
   75SOL    HW2 1125   4.069   0.383   6.551
   76SOL     OW 1126   2.604   2.713   1.030
   76SOL    HW1 1127   2.528   2.675   0.977
   76SOL    HW2 1128   2.658   2.638   1.069
   77SOL     OW 1129   6.313   6.248   3.940
   77SOL    HW1 1130   6.251   6.198   4.000
   77SOL    HW2 1131   6.383   6.295   3.995
   78SOL     OW 1132   5.826   0.919   5.834
   78SOL    HW1 1133   5.765   0.868   5.893
   78SOL    HW2 1134   5.774   0.962   5.760
   79SOL     OW 1135   2.966   6.822   0.237
   79SOL    HW1 1136   2.967   6.912   0.192
   79SOL    HW2 1137   2.941   6.752   0.170
   80SOL     OW 1138   5.341   1.917   4.263
   80SOL    HW1 1139   5.409   1.974   4.309
   80SOL    HW2 1140   5.379   1.885   4.176
   81SOL     OW 1141   1.999   0.383   3.188
   81SOL    HW1 1142   2.024   0.469   3.143
   81SOL    HW2 1143   1.907   0.392   3.227
   82SOL     OW 1144   6.630   4.766   0.772
   82SOL    HW1 1145   6.582   4.793   0.856
   82SOL    HW2 1146   6.719   4.810   0.769
   83SOL     OW 1147   0.422   0.600   0.781
   83SOL    HW1 1148   0.412   0.562   0.689
   83SOL    HW2 1149   0.332   0.611   0.823
   84SOL     OW 1150   5.135   3.309   3.675
   84SOL    HW1 1151   5.183   3.238   3.725
   84SOL    HW2 1152   5.055   3.269   3.629
   85SOL     OW 1153   2.015   1.674   4.982
   85SOL    HW1 1154   1.977   1.631   5.065
   85SOL    HW2 1155   2.039   1.603   4.916
   86SOL     OW 1156   0.287   0.561   5.107
   86SOL    HW1 1157   0.224   0.587   5.034
   86SOL    HW2 1158   0.299   0.462   5.106
   87SOL     OW 1159   5.081   3.484   0.543
   87SOL    HW1 1160   5.032   3.460   0.627
   87SOL    HW2 1161   5.178   3.460   0.552
   88SOL     OW 1162   3.814   2.017   6.649
   88SOL    HW1 1163   3.845   2.092   6.591
   88SOL    HW2 1164   3.889   1.952   6.664
   89SOL     OW 1165   0.963   2.602   5.693
   89SOL    HW1 1166   1.001   2.563   5.777
   89SOL    HW2 1167   1.006   2.561   5.613
   90SOL     OW 1168   4.119   6.257   2.830
   90SOL    HW1 1169   4.147   6.196   2.755
   90SOL    HW2 1170   4.089   6.344   2.792
   91SOL     OW 1171   4.861   4.517   4.759
   91SOL    HW1 1172   4.928   4.459   4.805
   91SOL    HW2 1173   4.769   4.490   4.788
   92SOL     OW 1174   3.358   4.011   0.039
   92SOL    HW1 1175   3.429   3.962   7.006
   92SOL    HW2 1176   3.399   4.085   0.092
   93SOL     OW 1177   2.593   3.735   6.542
   93SOL    HW1 1178   2.571   3.641   6.518
   93SOL    HW2 1179   2.515   3.794   6.520
   94SOL     OW 1180   2.700   5.886   5.999
   94SOL    HW1 1181   2.615   5.899   5.948
   94SOL    HW2 1182   2.738   5.975   6.024
   95SOL     OW 1183   1.377   0.541   3.194
   95SOL    HW1 1184   1.393   0.594   3.277
   95SOL    HW2 1185   1.310   0.469   3.213
   96SOL     OW 1186   3.372   0.206   5.073
   96SOL    HW1 1187   3.341   0.237   5.163
   96SOL    HW2 1188   3.434   0.275   5.034
   97SOL     OW 1189   1.644   3.391   5.938
   97SOL    HW1 1190   1.634   3.297   5.905
   97SOL    HW2 1191   1.598   3.399   6.027
   98SOL     OW 1192   6.242   4.023   0.538
   98SOL    HW1 1193   6.203   4.064   0.620
   98SOL    HW2 1194   6.339   4.006   0.552
   99SOL     OW 1195   4.720   3.711   1.412
   99SOL    HW1 1196   4.713   3.656   1.329
   99SOL    HW2 1197   4.817   3.731   1.431
  100SOL     OW 1198   0.031   0.387   5.022
  100SOL    HW1 1199   0.072   0.444   4.951
  100SOL    HW2 1200   0.022   0.293   4.987
  101SOL     OW 1201   1.635   5.548   2.102
  101SOL    HW1 1202   1.713   5.527   2.161
  101SOL    HW2 1203   1.554   5.562   2.159
  102SOL     OW 1204   4.398   6.921   2.610
  102SOL    HW1 1205   4.469   6.967   2.663
  102SOL    HW2 1206   4.383   6.971   2.525
  103SOL     OW 1207   3.236   1.197   2.026
  103SOL    HW1 1208   3.326   1.213   2.066
  103SOL    HW2 1209   3.167   1.196   2.098
  104SOL     OW 1210   0.238   5.170   2.517
  104SOL    HW1 1211   0.274   5.261   2.492
  104SOL    HW2 1212   0.188   5.177   2.603
  105SOL     OW 1213   0.014   2.854   6.704
  105SOL    HW1 1214   6.977   2.935   6.691
  105SOL    HW2 1215   0.067   2.862   6.789
  106SOL     OW 1216   3.996   5.851   4.714
  106SOL    HW1 1217   3.984   5.922   4.644
  106SOL    HW2 1218   4.067   5.787   4.685
  107SOL     OW 1219   1.980   1.180   2.116
  107SOL    HW1 1220   2.030   1.258   2.078
  107SOL    HW2 1221   1.914   1.147   2.049
  108SOL     OW 1222   3.789   5.090   5.813
  108SOL    HW1 1223   3.795   5.000   5.769
  108SOL    HW2 1224   3.693   5.118   5.817
  109SOL     OW 1225   6.943   0.566   1.346
  109SOL    HW1 1226   6.859   0.597   1.390
  109SOL    HW2 1227   6.979   0.486   1.395
  110SOL     OW 1228   3.395   5.980   5.550
  110SOL    HW1 1229   3.467   6.044   5.578
  110SOL    HW2 1230   3.317   6.031   5.515
  111SOL     OW 1231   3.326   1.049   4.298
  111SOL    HW1 1232   3.228   1.038   4.284
  111SOL    HW2 1233   3.376   0.999   4.228
  112SOL     OW 1234   5.072   6.705   5.572
  112SOL    HW1 1235   4.998   6.686   5.637
  112SOL    HW2 1236   5.160   6.701   5.620
  113SOL     OW 1237   6.127   5.071   3.319
  113SOL    HW1 1238   6.210   5.090   3.372
  113SOL    HW2 1239   6.146   5.082   3.221
  114SOL     OW 1240   0.867   0.578   1.041
  114SOL    HW1 1241   0.934   0.503   1.046
  114SOL    HW2 1242   0.865   0.613   0.947
  115SOL     OW 1243   3.927   1.421   3.086
  115SOL    HW1 1244   3.969   1.511   3.102
  115SOL    HW2 1245   3.999   1.352   3.077
  116SOL     OW 1246   5.719   5.100   1.665
  116SOL    HW1 1247   5.811   5.124   1.635
  116SOL    HW2 1248   5.697   5.007   1.634
  117SOL     OW 1249   1.404   1.416   0.428
  117SOL    HW1 1250   1.353   1.380   0.506
  117SOL    HW2 1251   1.457   1.342   0.386
  118SOL     OW 1252   1.734   1.314   3.043
  118SOL    HW1 1253   1.787   1.381   2.990
  118SOL    HW2 1254   1.642   1.349   3.057
  119SOL     OW 1255   0.987   1.448   6.745
  119SOL    HW1 1256   1.078   1.483   6.768
  119SOL    HW2 1257   0.993   1.351   6.721
  120SOL     OW 1258   6.240   6.659   0.260
  120SOL    HW1 1259   6.321   6.601   0.256
  120SOL    HW2 1260   6.159   6.602   0.246
  121SOL     OW 1261   2.551   3.464   6.434
  121SOL    HW1 1262   2.615   3.389   6.452
  121SOL    HW2 1263   2.561   3.494   6.339
  122SOL     OW 1264   1.818   4.743   6.428
  122SOL    HW1 1265   1.855   4.661   6.472
  122SOL    HW2 1266   1.892   4.796   6.387
  123SOL     OW 1267   0.222   1.580   1.654
  123SOL    HW1 1268   0.145   1.517   1.667
  123SOL    HW2 1269   0.250   1.616   1.743
  124SOL     OW 1270   5.150   3.162   0.750
  124SOL    HW1 1271   5.150   3.076   0.800
  124SOL    HW2 1272   5.103   3.232   0.804
  125SOL     OW 1273   3.150   1.588   1.925
  125SOL    HW1 1274   3.099   1.654   1.869
  125SOL    HW2 1275   3.206   1.638   1.991
  126SOL     OW 1276   2.702   3.826   1.232
  126SOL    HW1 1277   2.628   3.771   1.191
  126SOL    HW2 1278   2.676   3.853   1.324
  127SOL     OW 1279   0.118   5.251   6.175
  127SOL    HW1 1280   0.100   5.340   6.218
  127SOL    HW2 1281   0.084   5.178   6.233
  128SOL     OW 1282   4.725   2.882   1.223
  128SOL    HW1 1283   4.747   2.857   1.128
  128SOL    HW2 1284   4.810   2.897   1.274
  129SOL     OW 1285   2.695   2.893   6.254
  129SOL    HW1 1286   2.640   2.886   6.337
  129SOL    HW2 1287   2.790   2.869   6.274
  130SOL     OW 1288   0.688   1.434   3.961
  130SOL    HW1 1289   0.667   1.401   3.869
  130SOL    HW2 1290   0.782   1.407   3.985
  131SOL     OW 1291   4.795   1.971   3.696
  131SOL    HW1 1292   4.862   2.004   3.762
  131SOL    HW2 1293   4.785   2.037   3.622
  132SOL     OW 1294   2.222   2.361   1.215
  132SOL    HW1 1295   2.305   2.408   1.187
  132SOL    HW2 1296   2.158   2.427   1.255
  133SOL     OW 1297   5.118   6.409   4.331
  133SOL    HW1 1298   5.126   6.487   4.269
  133SOL    HW2 1299   5.026   6.405   4.369
  134SOL     OW 1300   6.477   1.580   2.585
  134SOL    HW1 1301   6.467   1.661   2.529
  134SOL    HW2 1302   6.398   1.519   2.571
  135SOL     OW 1303   5.684   3.597   3.173
  135SOL    HW1 1304   5.741   3.523   3.136
  135SOL    HW2 1305   5.644   3.649   3.098
  136SOL     OW 1306   3.345   3.664   6.319
  136SOL    HW1 1307   3.445   3.659   6.311
  136SOL    HW2 1308   3.306   3.576   6.292
  137SOL     OW 1309   5.293   1.561   4.894
  137SOL    HW1 1310   5.373   1.527   4.944
  137SOL    HW2 1311   5.303   1.540   4.797
  138SOL     OW 1312   0.919   4.779   3.217
  138SOL    HW1 1313   0.961   4.866   3.190
  138SOL    HW2 1314   0.871   4.740   3.138
  139SOL     OW 1315   2.248   6.575   4.921
  139SOL    HW1 1316   2.285   6.635   4.992
  139SOL    HW2 1317   2.317   6.508   4.894
  140SOL     OW 1318   0.828   5.837   3.370
  140SOL    HW1 1319   0.868   5.755   3.412
  140SOL    HW2 1320   0.892   5.873   3.302
  141SOL     OW 1321   6.020   3.627   4.853
  141SOL    HW1 1322   6.096   3.577   4.812
  141SOL    HW2 1323   6.036   3.725   4.844
  142SOL     OW 1324   1.928   3.941   0.475
  142SOL    HW1 1325   1.829   3.956   0.477
  142SOL    HW2 1326   1.965   3.969   0.387
  143SOL     OW 1327   5.888   4.753   0.997
  143SOL    HW1 1328   5.975   4.785   1.034
  143SOL    HW2 1329   5.828   4.832   0.982
  144SOL     OW 1330   1.130   6.316   6.058
  144SOL    HW1 1331   1.214   6.308   6.005
  144SOL    HW2 1332   1.142   6.269   6.146
  145SOL     OW 1333   6.982   5.685   0.237
  145SOL    HW1 1334   6.970   5.749   0.161
  145SOL    HW2 1335   6.998   5.736   0.321
  146SOL     OW 1336   4.991   0.456   6.210
  146SOL    HW1 1337   5.063   0.448   6.141
  146SOL    HW2 1338   4.907   0.415   6.176
  147SOL     OW 1339   6.178   3.818   6.490
  147SOL    HW1 1340   6.176   3.836   6.588
  147SOL    HW2 1341   6.259   3.859   6.449
  148SOL     OW 1342   0.190   5.551   6.518
  148SOL    HW1 1343   0.198   5.502   6.605
  148SOL    HW2 1344   0.174   5.648   6.535
  149SOL     OW 1345   3.001   1.473   4.790
  149SOL    HW1 1346   3.061   1.552   4.802
  149SOL    HW2 1347   3.011   1.438   4.697
  150SOL     OW 1348   5.507   5.958   6.273
  150SOL    HW1 1349   5.559   5.873   6.274
  150SOL    HW2 1350   5.496   5.991   6.366
  151SOL     OW 1351   3.038   2.491   1.126
  151SOL    HW1 1352   3.070   2.457   1.215
  151SOL    HW2 1353   2.996   2.415   1.075
  152SOL     OW 1354   1.386   0.858   2.901
  152SOL    HW1 1355   1.367   0.950   2.937
  152SOL    HW2 1356   1.483   0.850   2.879
  153SOL     OW 1357   3.212   0.426   2.069
  153SOL    HW1 1358   3.186   0.518   2.099
  153SOL    HW2 1359   3.296   0.431   2.014
  154SOL     OW 1360   0.741   2.114   2.909
  154SOL    HW1 1361   0.685   2.159   2.840
  154SOL    HW2 1362   0.682   2.076   2.981
  155SOL     OW 1363   6.543   1.720   3.488
  155SOL    HW1 1364   6.491   1.743   3.570
  155SOL    HW2 1365   6.529   1.791   3.419
  156SOL     OW 1366   0.406   1.953   0.645
  156SOL    HW1 1367   0.421   1.859   0.614
  156SOL    HW2 1368   0.346   1.952   0.725
  157SOL     OW 1369   5.853   3.169   1.135
  157SOL    HW1 1370   5.802   3.098   1.086
  157SOL    HW2 1371   5.883   3.134   1.223
  158SOL     OW 1372   2.168   6.005   2.433
  158SOL    HW1 1373   2.188   6.082   2.495
  158SOL    HW2 1374   2.085   6.024   2.381
  159SOL     OW 1375   4.189   4.667   1.871
  159SOL    HW1 1376   4.264   4.602   1.857
  159SOL    HW2 1377   4.226   4.758   1.886
  160SOL     OW 1378   6.304   5.692   0.263
  160SOL    HW1 1379   6.219   5.745   0.253
  160SOL    HW2 1380   6.353   5.691   0.176
  161SOL     OW 1381   2.052   5.703   4.574
  161SOL    HW1 1382   1.971   5.653   4.546
  161SOL    HW2 1383   2.056   5.708   4.674
  162SOL     OW 1384   3.844   6.793   6.939
  162SOL    HW1 1385   3.803   6.868   6.887
  162SOL    HW2 1386   3.935   6.820   6.972
  163SOL     OW 1387   5.470   5.936   0.868
  163SOL    HW1 1388   5.465   5.864   0.936
  163SOL    HW2 1389   5.478   5.895   0.777
  164SOL     OW 1390   6.441   4.104   7.002
  164SOL    HW1 1391   6.446   4.129   6.905
  164SOL    HW2 1392   6.349   4.121   0.018
  165SOL     OW 1393   5.366   3.060   2.017
  165SOL    HW1 1394   5.417   2.974   2.012
  165SOL    HW2 1395   5.362   3.102   1.926
  166SOL     OW 1396   0.123   4.980   3.567
  166SOL    HW1 1397   0.135   5.077   3.544
  166SOL    HW2 1398   0.050   4.971   3.635
  167SOL     OW 1399   5.925   2.763   0.361
  167SOL    HW1 1400   5.826   2.753   0.345
  167SOL    HW2 1401   5.971   2.775   0.273
  168SOL     OW 1402   2.297   3.115   1.357
  168SOL    HW1 1403   2.271   3.027   1.397
  168SOL    HW2 1404   2.283   3.113   1.258
  169SOL     OW 1405   4.331   0.628   1.807
  169SOL    HW1 1406   4.409   0.657   1.863
  169SOL    HW2 1407   4.328   0.683   1.724
  170SOL     OW 1408   0.967   1.239   3.825
  170SOL    HW1 1409   1.043   1.202   3.878
  170SOL    HW2 1410   0.894   1.171   3.822
  171SOL     OW 1411   3.671   4.551   0.140
  171SOL    HW1 1412   3.609   4.478   0.109
  171SOL    HW2 1413   3.759   4.542   0.094
  172SOL     OW 1414   5.762   1.851   4.145
  172SOL    HW1 1415   5.720   1.771   4.187
  172SOL    HW2 1416   5.708   1.880   4.066
  173SOL     OW 1417   6.910   2.206   4.560
  173SOL    HW1 1418   6.925   2.283   4.622
  173SOL    HW2 1419   6.924   2.236   4.466
  174SOL     OW 1420   3.376   5.165   4.347
  174SOL    HW1 1421   3.306   5.206   4.289
  174SOL    HW2 1422   3.333   5.100   4.411
  175SOL     OW 1423   2.622   6.822   1.870
  175SOL    HW1 1424   2.685   6.828   1.793
  175SOL    HW2 1425   2.670   6.845   1.954
  176SOL     OW 1426   1.106   4.414   0.970
  176SOL    HW1 1427   1.098   4.492   1.031
  176SOL    HW2 1428   1.167   4.346   1.011
  177SOL     OW 1429   6.017   3.451   2.314
  177SOL    HW1 1430   5.921   3.440   2.341
  177SOL    HW2 1431   6.029   3.539   2.268
  178SOL     OW 1432   2.318   2.268   6.679
  178SOL    HW1 1433   2.376   2.257   6.759
  178SOL    HW2 1434   2.375   2.272   6.597
  179SOL     OW 1435   2.427   1.156   6.377
  179SOL    HW1 1436   2.340   1.205   6.377
  179SOL    HW2 1437   2.419   1.073   6.321
  180SOL     OW 1438   1.534   6.779   6.849
  180SOL    HW1 1439   1.598   6.721   6.900
  180SOL    HW2 1440   1.529   6.747   6.754
  181SOL     OW 1441   2.827   2.326   6.134
  181SOL    HW1 1442   2.874   2.342   6.221
  181SOL    HW2 1443   2.895   2.310   6.063
  182SOL     OW 1444   3.322   1.255   3.640
  182SOL    HW1 1445   3.400   1.303   3.600
  182SOL    HW2 1446   3.305   1.291   3.732
  183SOL     OW 1447   3.513   2.131   3.532
  183SOL    HW1 1448   3.472   2.129   3.623
  183SOL    HW2 1449   3.607   2.097   3.537
  184SOL     OW 1450   1.907   6.192   4.234
  184SOL    HW1 1451   1.880   6.276   4.281
  184SOL    HW2 1452   1.901   6.206   4.135
  185SOL     OW 1453   0.004   1.548   6.308
  185SOL    HW1 1454   0.062   1.471   6.281
  185SOL    HW2 1455   6.994   1.536   6.404
  186SOL     OW 1456   5.649   1.331   4.015
  186SOL    HW1 1457   5.736   1.342   3.967
  186SOL    HW2 1458   5.598   1.417   4.013
  187SOL     OW 1459   4.429   0.416   2.991
  187SOL    HW1 1460   4.455   0.357   3.067
  187SOL    HW2 1461   4.430   0.364   2.906
  188SOL     OW 1462   6.932   2.081   2.639
  188SOL    HW1 1463   6.873   2.020   2.586
  188SOL    HW2 1464   0.003   2.087   2.595
  189SOL     OW 1465   2.249   5.475   1.313
  189SOL    HW1 1466   2.321   5.538   1.344
  189SOL    HW2 1467   2.288   5.384   1.301
  190SOL     OW 1468   4.343   1.573   4.523
  190SOL    HW1 1469   4.419   1.571   4.458
  190SOL    HW2 1470   4.365   1.516   4.602
  191SOL     OW 1471   5.746   6.134   6.590
  191SOL    HW1 1472   5.800   6.157   6.510
  191SOL    HW2 1473   5.664   6.084   6.562
  192SOL     OW 1474   0.400   5.473   1.966
  192SOL    HW1 1475   0.477   5.478   2.030
  192SOL    HW2 1476   0.320   5.435   2.013
  193SOL     OW 1477   4.725   3.092   5.273
  193SOL    HW1 1478   4.630   3.062   5.260
  193SOL    HW2 1479   4.749   3.084   5.370
  194SOL     OW 1480   4.124   0.664   2.745
  194SOL    HW1 1481   4.027   0.674   2.722
  194SOL    HW2 1482   4.174   0.631   2.665
  195SOL     OW 1483   1.895   0.125   4.799
  195SOL    HW1 1484   1.887   0.186   4.878
  195SOL    HW2 1485   1.982   0.142   4.752
  196SOL     OW 1486   2.255   0.698   0.300
  196SOL    HW1 1487   2.289   0.746   0.219
  196SOL    HW2 1488   2.331   0.652   0.346
  197SOL     OW 1489   2.618   0.341   1.101
  197SOL    HW1 1490   2.629   0.242   1.091
  197SOL    HW2 1491   2.534   0.370   1.054
  198SOL     OW 1492   4.598   0.704   2.708
  198SOL    HW1 1493   4.692   0.722   2.680
  198SOL    HW2 1494   4.579   0.751   2.794
  199SOL     OW 1495   0.473   2.356   4.021
  199SOL    HW1 1496   0.462   2.384   3.926
  199SOL    HW2 1497   0.546   2.288   4.027
  200SOL     OW 1498   1.425   3.516   0.824
  200SOL    HW1 1499   1.493   3.553   0.887
  200SOL    HW2 1500   1.351   3.582   0.812
  201SOL     OW 1501   0.270   6.984   6.183
  201SOL    HW1 1502   0.330   6.922   6.133
  201SOL    HW2 1503   0.177   6.948   6.181
  202SOL     OW 1504   3.752   1.544   6.846
  202SOL    HW1 1505   3.762   1.572   6.942
  202SOL    HW2 1506   3.692   1.609   6.800
  203SOL     OW 1507   5.808   2.371   5.706
  203SOL    HW1 1508   5.850   2.290   5.746
  203SOL    HW2 1509   5.853   2.453   5.741
  204SOL     OW 1510   0.964   0.176   4.550
  204SOL    HW1 1511   1.035   0.238   4.517
  204SOL    HW2 1512   0.991   0.082   4.533
  205SOL     OW 1513   1.067   2.614   2.974
  205SOL    HW1 1514   1.166   2.600   2.973
  205SOL    HW2 1515   1.044   2.681   3.046
  206SOL     OW 1516   0.348   4.144   1.043
  206SOL    HW1 1517   0.381   4.147   0.949
  206SOL    HW2 1518   0.373   4.229   1.089
  207SOL     OW 1519   6.129   1.364   3.967
  207SOL    HW1 1520   6.193   1.297   4.004
  207SOL    HW2 1521   6.133   1.448   4.022
  208SOL     OW 1522   6.995   4.459   5.300
  208SOL    HW1 1523   6.945   4.378   5.331
  208SOL    HW2 1524   6.998   4.460   5.200
  209SOL     OW 1525   0.441   5.310   3.855
  209SOL    HW1 1526   0.503   5.387   3.868
  209SOL    HW2 1527   0.375   5.307   3.930
  210SOL     OW 1528   4.674   1.518   0.411
  210SOL    HW1 1529   4.606   1.540   0.341
  210SOL    HW2 1530   4.754   1.475   0.368
  211SOL     OW 1531   1.354   6.177   1.946
  211SOL    HW1 1532   1.325   6.266   1.983
  211SOL    HW2 1533   1.428   6.190   1.881
  212SOL     OW 1534   1.316   3.704   1.844
  212SOL    HW1 1535   1.370   3.740   1.768
  212SOL    HW2 1536   1.226   3.747   1.844
  213SOL     OW 1537   2.838   6.757   0.608
  213SOL    HW1 1538   2.871   6.852   0.607
  213SOL    HW2 1539   2.909   6.698   0.571
  214SOL     OW 1540   3.526   5.604   3.063
  214SOL    HW1 1541   3.520   5.518   3.013
  214SOL    HW2 1542   3.544   5.679   2.998
  215SOL     OW 1543   3.024   3.648   0.559
  215SOL    HW1 1544   3.004   3.733   0.608
  215SOL    HW2 1545   3.112   3.612   0.588
  216SOL     OW 1546   0.865   5.477   3.205
  216SOL    HW1 1547   0.940   5.542   3.194
  216SOL    HW2 1548   0.780   5.526   3.225
  217SOL     OW 1549   1.563   2.772   4.374
  217SOL    HW1 1550   1.585   2.799   4.468
  217SOL    HW2 1551   1.583   2.675   4.362
  218SOL     OW 1552   1.047   2.879   4.233
  218SOL    HW1 1553   0.974   2.916   4.176
  218SOL    HW2 1554   1.094   2.954   4.279
  219SOL     OW 1555   4.156   0.029   0.140
  219SOL    HW1 1556   4.101   0.021   0.224
  219SOL    HW2 1557   4.250   0.050   0.164
  220SOL     OW 1558   2.857   6.609   1.411
  220SOL    HW1 1559   2.862   6.527   1.467
  220SOL    HW2 1560   2.949   6.646   1.398
  221SOL     OW 1561   5.748   4.339   1.126
  221SOL    HW1 1562   5.788   4.383   1.207
  221SOL    HW2 1563   5.756   4.239   1.135
  222SOL     OW 1564   1.300   4.974   5.605
  222SOL    HW1 1565   1.219   4.984   5.547
  222SOL    HW2 1566   1.273   4.944   5.696
  223SOL     OW 1567   6.846   3.285   6.032
  223SOL    HW1 1568   6.762   3.308   5.984
  223SOL    HW2 1569   6.846   3.187   6.054
  224SOL     OW 1570   2.878   1.917   5.917
  224SOL    HW1 1571   2.858   1.953   5.826
  224SOL    HW2 1572   2.826   1.969   5.985
  225SOL     OW 1573   5.036   3.931   6.404
  225SOL    HW1 1574   5.041   3.998   6.478
  225SOL    HW2 1575   4.989   3.849   6.436
  226SOL     OW 1576   0.592   1.248   5.648
  226SOL    HW1 1577   0.668   1.200   5.604
  226SOL    HW2 1578   0.629   1.321   5.706
  227SOL     OW 1579   0.850   3.985   2.169
  227SOL    HW1 1580   0.807   3.949   2.086
  227SOL    HW2 1581   0.864   3.911   2.235
  228SOL     OW 1582   2.304   0.112   3.037
  228SOL    HW1 1583   2.235   0.179   3.008
  228SOL    HW2 1584   2.357   0.082   2.958
  229SOL     OW 1585   6.128   6.021   5.947
  229SOL    HW1 1586   6.036   6.028   5.910
  229SOL    HW2 1587   6.179   5.951   5.898
  230SOL     OW 1588   3.737   5.661   4.080
  230SOL    HW1 1589   3.702   5.628   4.167
  230SOL    HW2 1590   3.824   5.616   4.060
  231SOL     OW 1591   5.892   1.519   0.001
  231SOL    HW1 1592   5.962   1.591   7.012
  231SOL    HW2 1593   5.935   1.434   0.032
  232SOL     OW 1594   0.186   3.384   6.636
  232SOL    HW1 1595   0.201   3.310   6.570
  232SOL    HW2 1596   0.148   3.463   6.590
  233SOL     OW 1597   3.411   0.982   3.023
  233SOL    HW1 1598   3.468   1.025   3.093
  233SOL    HW2 1599   3.377   1.052   2.960
  234SOL     OW 1600   5.092   1.019   6.178
  234SOL    HW1 1601   5.056   0.978   6.261
  234SOL    HW2 1602   5.176   0.973   6.151
  235SOL     OW 1603   4.829   2.773   1.928
  235SOL    HW1 1604   4.759   2.759   1.857
  235SOL    HW2 1605   4.822   2.866   1.964
  236SOL     OW 1606   5.614   2.840   6.733
  236SOL    HW1 1607   5.686   2.905   6.760
  236SOL    HW2 1608   5.568   2.875   6.651
  237SOL     OW 1609   0.277   4.371   2.168
  237SOL    HW1 1610   0.350   4.364   2.100
  237SOL    HW2 1611   0.190   4.343   2.127
  238SOL     OW 1612   5.724   0.995   0.612
  238SOL    HW1 1613   5.661   1.043   0.552
  238SOL    HW2 1614   5.817   1.005   0.578
  239SOL     OW 1615   0.868   4.254   6.682
  239SOL    HW1 1616   0.928   4.261   6.761
  239SOL    HW2 1617   0.802   4.181   6.697
  240SOL     OW 1618   0.427   2.704   3.319
  240SOL    HW1 1619   0.447   2.736   3.411
  240SOL    HW2 1620   0.336   2.662   3.317
  241SOL     OW 1621   2.692   2.429   4.680
  241SOL    HW1 1622   2.648   2.510   4.717
  241SOL    HW2 1623   2.759   2.394   4.746
  242SOL     OW 1624   3.224   4.115   4.347
  242SOL    HW1 1625   3.215   4.019   4.322
  242SOL    HW2 1626   3.239   4.169   4.264
  243SOL     OW 1627   4.476   1.044   0.008
  243SOL    HW1 1628   4.438   0.952   0.020
  243SOL    HW2 1629   4.423   1.110   0.061
  244SOL     OW 1630   6.479   3.549   5.487
  244SOL    HW1 1631   6.567   3.549   5.535
  244SOL    HW2 1632   6.456   3.456   5.459
  245SOL     OW 1633   5.118   2.467   4.245
  245SOL    HW1 1634   5.160   2.558   4.253
  245SOL    HW2 1635   5.034   2.464   4.299
  246SOL     OW 1636   4.997   2.138   3.416
  246SOL    HW1 1637   4.907   2.166   3.383
  246SOL    HW2 1638   5.066   2.165   3.349
  247SOL     OW 1639   2.530   1.555   0.447
  247SOL    HW1 1640   2.496   1.537   0.540
  247SOL    HW2 1641   2.458   1.602   0.395
  248SOL     OW 1642   3.598   1.262   2.823
  248SOL    HW1 1643   3.580   1.360   2.810
  248SOL    HW2 1644   3.654   1.228   2.748
  249SOL     OW 1645   4.979   0.256   4.952
  249SOL    HW1 1646   4.952   0.347   4.985
  249SOL    HW2 1647   5.062   0.227   4.999
  250SOL     OW 1648   5.034   3.500   0.279
  250SOL    HW1 1649   5.044   3.508   0.379
  250SOL    HW2 1650   5.115   3.455   0.242
  251SOL     OW 1651   4.853   3.469   5.305
  251SOL    HW1 1652   4.925   3.539   5.308
  251SOL    HW2 1653   4.771   3.507   5.261
  252SOL     OW 1654   6.695   6.411   5.595
  252SOL    HW1 1655   6.758   6.420   5.672
  252SOL    HW2 1656   6.742   6.369   5.517
  253SOL     OW 1657   2.683   5.189   6.006
  253SOL    HW1 1658   2.716   5.149   5.920
  253SOL    HW2 1659   2.602   5.139   6.037
  254SOL     OW 1660   6.208   2.561   3.798
  254SOL    HW1 1661   6.271   2.592   3.869
  254SOL    HW2 1662   6.130   2.514   3.840
  255SOL     OW 1663   1.940   4.736   5.609
  255SOL    HW1 1664   1.971   4.830   5.596
  255SOL    HW2 1665   1.853   4.723   5.561
  256SOL     OW 1666   6.026   4.111   6.100
  256SOL    HW1 1667   5.954   4.042   6.097
  256SOL    HW2 1668   6.115   4.069   6.084
  257SOL     OW 1669   5.222   0.412   3.633
  257SOL    HW1 1670   5.258   0.323   3.661
  257SOL    HW2 1671   5.134   0.428   3.678
  258SOL     OW 1672   2.141   5.009   5.092
  258SOL    HW1 1673   2.044   5.012   5.113
  258SOL    HW2 1674   2.194   5.038   5.172
  259SOL     OW 1675   6.550   2.053   2.871
  259SOL    HW1 1676   6.461   2.068   2.826
  259SOL    HW2 1677   6.574   1.956   2.865
  260SOL     OW 1678   4.293   6.411   1.990
  260SOL    HW1 1679   4.361   6.357   2.040
  260SOL    HW2 1680   4.322   6.507   1.987
  261SOL     OW 1681   6.221   2.924   0.638
  261SOL    HW1 1682   6.284   2.979   0.692
  261SOL    HW2 1683   6.267   2.841   0.607
  262SOL     OW 1684   0.633   3.679   0.108
  262SOL    HW1 1685   0.678   3.638   0.029
  262SOL    HW2 1686   0.543   3.714   0.081
  263SOL     OW 1687   2.595   0.586   4.715
  263SOL    HW1 1688   2.603   0.679   4.751
  263SOL    HW2 1689   2.674   0.566   4.657
  264SOL     OW 1690   5.867   2.949   6.766
  264SOL    HW1 1691   5.887   3.047   6.769
  264SOL    HW2 1692   5.949   2.898   6.742
  265SOL     OW 1693   5.406   6.571   2.572
  265SOL    HW1 1694   5.463   6.566   2.654
  265SOL    HW2 1695   5.427   6.654   2.521
  266SOL     OW 1696   3.560   2.623   5.799
  266SOL    HW1 1697   3.494   2.646   5.728
  266SOL    HW2 1698   3.512   2.598   5.883
  267SOL     OW 1699   0.870   1.278   6.393
  267SOL    HW1 1700   0.842   1.371   6.416
  267SOL    HW2 1701   0.922   1.279   6.307
  268SOL     OW 1702   3.379   1.385   6.403
  268SOL    HW1 1703   3.279   1.385   6.402
  268SOL    HW2 1704   3.414   1.410   6.313
  269SOL     OW 1705   1.490   3.614   1.497
  269SOL    HW1 1706   1.576   3.642   1.541
  269SOL    HW2 1707   1.454   3.533   1.543
  270SOL     OW 1708   1.349   6.112   0.422
  270SOL    HW1 1709   1.383   6.050   0.352
  270SOL    HW2 1710   1.425   6.138   0.483
  271SOL     OW 1711   0.113   1.784   6.979
  271SOL    HW1 1712   0.032   1.839   6.958
  271SOL    HW2 1713   0.186   1.808   6.914
  272SOL     OW 1714   3.496   5.564   4.018
  272SOL    HW1 1715   3.468   5.592   3.926
  272SOL    HW2 1716   3.588   5.599   4.037
  273SOL     OW 1717   2.530   4.489   4.193
  273SOL    HW1 1718   2.519   4.401   4.239
  273SOL    HW2 1719   2.456   4.550   4.221
  274SOL     OW 1720   4.114   1.681   3.048
  274SOL    HW1 1721   4.082   1.752   2.985
  274SOL    HW2 1722   4.112   1.717   3.142
  275SOL     OW 1723   6.540   4.979   3.642
  275SOL    HW1 1724   6.604   5.055   3.659
  275SOL    HW2 1725   6.539   4.919   3.722
  276SOL     OW 1726   6.669   6.283   2.644
  276SOL    HW1 1727   6.762   6.280   2.607
  276SOL    HW2 1728   6.637   6.378   2.645
  277SOL     OW 1729   1.529   4.263   0.498
  277SOL    HW1 1730   1.614   4.305   0.528
  277SOL    HW2 1731   1.469   4.332   0.459
  278SOL     OW 1732   0.318   4.810   2.031
  278SOL    HW1 1733   0.271   4.766   1.955
  278SOL    HW2 1734   0.293   4.765   2.117
  279SOL     OW 1735   5.865   3.287   4.486
  279SOL    HW1 1736   5.959   3.307   4.455
  279SOL    HW2 1737   5.859   3.192   4.513
  280SOL     OW 1738   3.033   6.425   3.259
  280SOL    HW1 1739   3.121   6.456   3.294
  280SOL    HW2 1740   3.044   6.398   3.163
  281SOL     OW 1741   2.503   4.349   1.495
  281SOL    HW1 1742   2.530   4.273   1.437
  281SOL    HW2 1743   2.453   4.314   1.574
  282SOL     OW 1744   3.065   1.495   6.108
  282SOL    HW1 1745   3.108   1.413   6.070
  282SOL    HW2 1746   3.084   1.573   6.048
  283SOL     OW 1747   5.805   1.864   6.359
  283SOL    HW1 1748   5.802   1.912   6.446
  283SOL    HW2 1749   5.887   1.893   6.308
  284SOL     OW 1750   1.154   3.999   3.574
  284SOL    HW1 1751   1.130   4.069   3.642
  284SOL    HW2 1752   1.073   3.946   3.551
  285SOL     OW 1753   5.810   4.770   4.505
  285SOL    HW1 1754   5.727   4.791   4.556
  285SOL    HW2 1755   5.833   4.847   4.445
  286SOL     OW 1756   3.656   5.137   6.297
  286SOL    HW1 1757   3.686   5.041   6.300
  286SOL    HW2 1758   3.563   5.141   6.260
  287SOL     OW 1759   0.884   3.788   1.312
  287SOL    HW1 1760   0.932   3.701   1.305
  287SOL    HW2 1761   0.833   3.805   1.227
  288SOL     OW 1762   3.312   1.551   6.984
  288SOL    HW1 1763   3.269   1.623   6.930
  288SOL    HW2 1764   3.403   1.582   7.012
  289SOL     OW 1765   1.324   4.491   5.422
  289SOL    HW1 1766   1.384   4.413   5.439
  289SOL    HW2 1767   1.231   4.458   5.403
  290SOL     OW 1768   6.289   2.232   4.620
  290SOL    HW1 1769   6.306   2.330   4.614
  290SOL    HW2 1770   6.374   2.185   4.644
  291SOL     OW 1771   1.397   2.328   4.474
  291SOL    HW1 1772   1.417   2.349   4.570
  291SOL    HW2 1773   1.462   2.259   4.441
  292SOL     OW 1774   1.902   2.370   3.277
  292SOL    HW1 1775   1.853   2.311   3.213
  292SOL    HW2 1776   1.992   2.330   3.297
  293SOL     OW 1777   4.174   6.101   2.602
  293SOL    HW1 1778   4.252   6.145   2.558
  293SOL    HW2 1779   4.100   6.088   2.536
  294SOL     OW 1780   0.586   6.087   6.566
  294SOL    HW1 1781   0.592   6.167   6.625
  294SOL    HW2 1782   0.551   6.009   6.620
  295SOL     OW 1783   3.655   1.175   3.440
  295SOL    HW1 1784   3.614   1.200   3.528
  295SOL    HW2 1785   3.742   1.224   3.430
  296SOL     OW 1786   3.617   2.020   3.038
  296SOL    HW1 1787   3.556   2.041   3.114
  296SOL    HW2 1788   3.568   2.035   2.951
  297SOL     OW 1789   2.767   5.053   3.486
  297SOL    HW1 1790   2.856   5.047   3.441
  297SOL    HW2 1791   2.694   5.047   3.417
  298SOL     OW 1792   3.209   5.642   1.587
  298SOL    HW1 1793   3.212   5.689   1.675
  298SOL    HW2 1794   3.234   5.706   1.514
  299SOL     OW 1795   5.341   3.293   6.081
  299SOL    HW1 1796   5.242   3.280   6.079
  299SOL    HW2 1797   5.383   3.222   6.137
  300SOL     OW 1798   6.450   0.623   2.610
  300SOL    HW1 1799   6.356   0.655   2.599
  300SOL    HW2 1800   6.467   0.548   2.546
  301SOL     OW 1801   4.696   3.287   1.245
  301SOL    HW1 1802   4.665   3.352   1.175
  301SOL    HW2 1803   4.774   3.235   1.210
  302SOL     OW 1804   1.423   0.255   3.516
  302SOL    HW1 1805   1.373   0.265   3.430
  302SOL    HW2 1806   1.359   0.265   3.593
  303SOL     OW 1807   5.943   0.775   2.440
  303SOL    HW1 1808   5.951   0.784   2.539
  303SOL    HW2 1809   5.848   0.793   2.412
  304SOL     OW 1810   2.367   0.422   3.479
  304SOL    HW1 1811   2.368   0.363   3.560
  304SOL    HW2 1812   2.300   0.387   3.414
  305SOL     OW 1813   0.046   3.478   0.372
  305SOL    HW1 1814   0.132   3.468   0.421
  305SOL    HW2 1815   0.032   3.398   0.313
  306SOL     OW 1816   1.618   0.554   3.719
  306SOL    HW1 1817   1.676   0.616   3.772
  306SOL    HW2 1818   1.674   0.487   3.671
  307SOL     OW 1819   4.636   6.699   0.919
  307SOL    HW1 1820   4.557   6.691   0.981
  307SOL    HW2 1821   4.655   6.609   0.879
  308SOL     OW 1822   6.359   4.152   4.841
  308SOL    HW1 1823   6.387   4.064   4.802
  308SOL    HW2 1824   6.343   4.141   4.939
  309SOL     OW 1825   4.126   3.820   5.810
  309SOL    HW1 1826   4.136   3.839   5.713
  309SOL    HW2 1827   4.149   3.901   5.863
  310SOL     OW 1828   6.852   6.758   5.675
  310SOL    HW1 1829   6.942   6.763   5.631
  310SOL    HW2 1830   6.837   6.840   5.730
  311SOL     OW 1831   6.551   5.352   1.809
  311SOL    HW1 1832   6.572   5.268   1.759
  311SOL    HW2 1833   6.586   5.344   1.903
  312SOL     OW 1834   4.526   1.912   5.859
  312SOL    HW1 1835   4.454   1.944   5.797
  312SOL    HW2 1836   4.508   1.946   5.951
  313SOL     OW 1837   3.069   4.422   1.632
  313SOL    HW1 1838   2.998   4.446   1.697
  313SOL    HW2 1839   3.042   4.450   1.540
  314SOL     OW 1840   2.946   5.447   6.934
  314SOL    HW1 1841   2.877   5.516   6.958
  314SOL    HW2 1842   2.911   5.389   6.860
  315SOL     OW 1843   1.073   2.917   3.423
  315SOL    HW1 1844   0.991   2.887   3.374
  315SOL    HW2 1845   1.087   3.015   3.408
  316SOL     OW 1846   2.271   2.438   4.187
  316SOL    HW1 1847   2.237   2.430   4.094
  316SOL    HW2 1848   2.343   2.370   4.203
  317SOL     OW 1849   0.576   0.593   1.445
  317SOL    HW1 1850   0.618   0.584   1.355
  317SOL    HW2 1851   0.546   0.688   1.458
  318SOL     OW 1852   0.952   5.906   0.337
  318SOL    HW1 1853   0.923   5.952   0.253
  318SOL    HW2 1854   0.913   5.814   0.340
  319SOL     OW 1855   0.308   0.575   2.633
  319SOL    HW1 1856   0.375   0.618   2.694
  319SOL    HW2 1857   0.307   0.622   2.545
  320SOL     OW 1858   5.306   2.502   6.689
  320SOL    HW1 1859   5.237   2.546   6.747
  320SOL    HW2 1860   5.393   2.496   6.739
  321SOL     OW 1861   2.932   1.476   2.026
  321SOL    HW1 1862   3.030   1.492   2.016
  321SOL    HW2 1863   2.912   1.448   2.120
  322SOL     OW 1864   3.197   3.318   4.706
  322SOL    HW1 1865   3.134   3.359   4.640
  322SOL    HW2 1866   3.262   3.260   4.657
  323SOL     OW 1867   0.385   3.801   7.015
  323SOL    HW1 1868   0.304   3.750   0.023
  323SOL    HW2 1869   0.383   3.818   6.916
  324SOL     OW 1870   2.173   2.816   3.969
  324SOL    HW1 1871   2.159   2.825   4.067
  324SOL    HW2 1872   2.265   2.848   3.946
  325SOL     OW 1873   2.083   3.043   1.584
  325SOL    HW1 1874   2.173   3.063   1.624
  325SOL    HW2 1875   2.054   3.120   1.527
  326SOL     OW 1876   2.309   5.314   6.607
  326SOL    HW1 1877   2.235   5.324   6.540
  326SOL    HW2 1878   2.394   5.349   6.568
  327SOL     OW 1879   1.361   5.316   3.796
  327SOL    HW1 1880   1.372   5.217   3.789
  327SOL    HW2 1881   1.275   5.337   3.842
  328SOL     OW 1882   3.208   4.894   2.515
  328SOL    HW1 1883   3.185   4.860   2.424
  328SOL    HW2 1884   3.297   4.939   2.512
  329SOL     OW 1885   3.151   3.688   4.069
  329SOL    HW1 1886   3.183   3.594   4.077
  329SOL    HW2 1887   3.212   3.739   4.008
  330SOL     OW 1888   3.478   5.861   2.230
  330SOL    HW1 1889   3.513   5.832   2.141
  330SOL    HW2 1890   3.382   5.888   2.222
  331SOL     OW 1891   4.660   4.865   6.548
  331SOL    HW1 1892   4.566   4.841   6.526
  331SOL    HW2 1893   4.691   4.938   6.488
  332SOL     OW 1894   3.787   2.145   4.457
  332SOL    HW1 1895   3.859   2.195   4.506
  332SOL    HW2 1896   3.731   2.094   4.522
  333SOL     OW 1897   3.446   6.845   6.705
  333SOL    HW1 1898   3.412   6.934   6.675
  333SOL    HW2 1899   3.467   6.788   6.626
  334SOL     OW 1900   2.673   6.733   1.272
  334SOL    HW1 1901   2.659   6.675   1.192
  334SOL    HW2 1902   2.747   6.695   1.328
  335SOL     OW 1903   3.304   6.816   4.077
  335SOL    HW1 1904   3.228   6.871   4.113
  335SOL    HW2 1905   3.385   6.829   4.134
  336SOL     OW 1906   2.208   0.740   4.010
  336SOL    HW1 1907   2.277   0.700   3.950
  336SOL    HW2 1908   2.247   0.820   4.056
  337SOL     OW 1909   0.084   3.879   0.586
  337SOL    HW1 1910   0.100   3.883   0.487
  337SOL    HW2 1911   0.059   3.786   0.612
  338SOL     OW 1912   2.782   2.631   0.794
  338SOL    HW1 1913   2.848   2.651   0.866
  338SOL    HW2 1914   2.700   2.590   0.835
  339SOL     OW 1915   3.869   6.568   3.845
  339SOL    HW1 1916   3.939   6.597   3.780
  339SOL    HW2 1917   3.798   6.517   3.797
  340SOL     OW 1918   5.264   4.011   4.661
  340SOL    HW1 1919   5.349   4.060   4.642
  340SOL    HW2 1920   5.228   3.971   4.576
  341SOL     OW 1921   6.474   0.060   3.884
  341SOL    HW1 1922   6.562   0.056   3.931
  341SOL    HW2 1923   6.426   0.144   3.909
  342SOL     OW 1924   5.831   4.010   6.947
  342SOL    HW1 1925   5.744   4.009   6.898
  342SOL    HW2 1926   5.817   3.979   0.023
  343SOL     OW 1927   2.278   5.770   0.915
  343SOL    HW1 1928   2.335   5.698   0.955
  343SOL    HW2 1929   2.240   5.738   0.828
  344SOL     OW 1930   2.013   5.526   1.440
  344SOL    HW1 1931   2.097   5.544   1.389
  344SOL    HW2 1932   2.035   5.472   1.521
  345SOL     OW 1933   6.854   0.904   5.733
  345SOL    HW1 1934   6.923   0.942   5.672
  345SOL    HW2 1935   6.767   0.897   5.684
  346SOL     OW 1936   2.432   0.116   1.778
  346SOL    HW1 1937   2.351   0.162   1.741
  346SOL    HW2 1938   2.450   0.150   1.870
  347SOL     OW 1939   4.732   6.861   6.460
  347SOL    HW1 1940   4.646   6.908   6.478
  347SOL    HW2 1941   4.714   6.768   6.428
  348SOL     OW 1942   4.886   5.022   1.642
  348SOL    HW1 1943   4.909   4.926   1.662
  348SOL    HW2 1944   4.820   5.025   1.567
  349SOL     OW 1945   7.007   4.680   2.237
  349SOL    HW1 1946   6.982   4.776   2.251
  349SOL    HW2 1947   7.007   4.660   2.139
  350SOL     OW 1948   3.533   3.472   1.906
  350SOL    HW1 1949   3.475   3.400   1.943
  350SOL    HW2 1950   3.477   3.542   1.863
  351SOL     OW 1951   2.453   2.405   0.662
  351SOL    HW1 1952   2.401   2.411   0.576
  351SOL    HW2 1953   2.492   2.313   0.671
  352SOL     OW 1954   3.831   0.029   4.468
  352SOL    HW1 1955   3.929   0.036   4.449
  352SOL    HW2 1956   3.782   0.098   4.414
  353SOL     OW 1957   2.819   6.989   0.882
  353SOL    HW1 1958   2.891   0.001   0.820
  353SOL    HW2 1959   2.777   0.050   0.925
  354SOL     OW 1960   4.204   2.394   0.299
  354SOL    HW1 1961   4.190   2.446   0.214
  354SOL    HW2 1962   4.258   2.449   0.363
  355SOL     OW 1963   6.750   2.583   2.888
  355SOL    HW1 1964   6.742   2.574   2.988
  355SOL    HW2 1965   6.823   2.647   2.866
  356SOL     OW 1966   4.190   5.505   4.397
  356SOL    HW1 1967   4.183   5.415   4.353
  356SOL    HW2 1968   4.266   5.503   4.463
  357SOL     OW 1969   6.995   6.814   5.204
  357SOL    HW1 1970   6.937   6.788   5.281
  357SOL    HW2 1971   6.989   6.912   5.189
  358SOL     OW 1972   5.803   0.321   1.628
  358SOL    HW1 1973   5.847   0.333   1.717
  358SOL    HW2 1974   5.719   0.376   1.626
  359SOL     OW 1975   1.858   2.272   2.183
  359SOL    HW1 1976   1.787   2.319   2.235
  359SOL    HW2 1977   1.906   2.337   2.124
  360SOL     OW 1978   2.534   6.205   6.202
  360SOL    HW1 1979   2.626   6.165   6.197
  360SOL    HW2 1980   2.541   6.305   6.205
  361SOL     OW 1981   5.510   5.646   2.823
  361SOL    HW1 1982   5.498   5.560   2.873
  361SOL    HW2 1983   5.433   5.707   2.842
  362SOL     OW 1984   3.482   3.561   0.652
  362SOL    HW1 1985   3.483   3.659   0.630
  362SOL    HW2 1986   3.390   3.534   0.681
  363SOL     OW 1987   3.583   4.941   3.628
  363SOL    HW1 1988   3.559   4.928   3.724
  363SOL    HW2 1989   3.679   4.917   3.614
  364SOL     OW 1990   0.681   5.669   5.244
  364SOL    HW1 1991   0.688   5.688   5.146
  364SOL    HW2 1992   0.585   5.671   5.272
  365SOL     OW 1993   4.816   6.253   2.375
  365SOL    HW1 1994   4.723   6.225   2.350
  365SOL    HW2 1995   4.850   6.193   2.448
  366SOL     OW 1996   5.569   0.870   0.219
  366SOL    HW1 1997   5.664   0.871   0.248
  366SOL    HW2 1998   5.509   0.858   0.298
  367SOL     OW 1999   5.219   2.704   0.834
  367SOL    HW1 2000   5.265   2.749   0.758
  367SOL    HW2 2001   5.265   2.618   0.855
  368SOL     OW 2002   0.997   4.087   5.190
  368SOL    HW1 2003   0.956   4.154   5.128
  368SOL    HW2 2004   1.065   4.132   5.247
  369SOL     OW 2005   6.662   4.419   2.003
  369SOL    HW1 2006   6.725   4.389   2.075
  369SOL    HW2 2007   6.645   4.517   2.012
  370SOL     OW 2008   2.970   1.507   5.493
  370SOL    HW1 2009   2.929   1.585   5.540
  370SOL    HW2 2010   2.969   1.523   5.394
  371SOL     OW 2011   2.293   3.467   6.497
  371SOL    HW1 2012   2.231   3.478   6.419
  371SOL    HW2 2013   2.387   3.467   6.465
  372SOL     OW 2014   6.870   0.754   5.028
  372SOL    HW1 2015   6.811   0.678   5.002
  372SOL    HW2 2016   6.899   0.744   5.123
  373SOL     OW 2017   6.867   6.458   5.777
  373SOL    HW1 2018   6.945   6.419   5.826
  373SOL    HW2 2019   6.868   6.558   5.784
  374SOL     OW 2020   4.664   6.816   2.469
  374SOL    HW1 2021   4.647   6.746   2.400
  374SOL    HW2 2022   4.583   6.826   2.527
  375SOL     OW 2023   6.914   4.705   3.771
  375SOL    HW1 2024   6.906   4.620   3.824
  375SOL    HW2 2025   6.867   4.693   3.683
  376SOL     OW 2026   1.815   3.555   3.722
  376SOL    HW1 2027   1.826   3.521   3.628
  376SOL    HW2 2028   1.878   3.630   3.738
  377SOL     OW 2029   6.282   3.095   2.256
  377SOL    HW1 2030   6.261   3.173   2.197
  377SOL    HW2 2031   6.307   3.128   2.347
  378SOL     OW 2032   3.762   2.682   5.613
  378SOL    HW1 2033   3.759   2.779   5.637
  378SOL    HW2 2034   3.695   2.632   5.667
  379SOL     OW 2035   5.751   4.085   1.150
  379SOL    HW1 2036   5.673   4.068   1.209
  379SOL    HW2 2037   5.756   4.014   1.079
  380SOL     OW 2038   2.231   1.626   1.888
  380SOL    HW1 2039   2.217   1.590   1.796
  380SOL    HW2 2040   2.324   1.663   1.896
  381SOL     OW 2041   1.940   4.646   1.430
  381SOL    HW1 2042   1.880   4.688   1.498
  381SOL    HW2 2043   1.923   4.548   1.426
  382SOL     OW 2044   4.114   5.516   6.622
  382SOL    HW1 2045   4.152   5.448   6.560
  382SOL    HW2 2046   4.168   5.520   6.706
  383SOL     OW 2047   6.295   2.851   5.983
  383SOL    HW1 2048   6.259   2.869   6.074
  383SOL    HW2 2049   6.374   2.790   5.989
  384SOL     OW 2050   1.094   3.844   4.939
  384SOL    HW1 2051   1.040   3.823   5.021
  384SOL    HW2 2052   1.180   3.886   4.966
  385SOL     OW 2053   5.008   6.362   0.202
  385SOL    HW1 2054   4.917   6.394   0.179
  385SOL    HW2 2055   5.077   6.420   0.159
  386SOL     OW 2056   3.926   6.752   4.951
  386SOL    HW1 2057   3.950   6.841   4.914
  386SOL    HW2 2058   3.952   6.748   5.048
  387SOL     OW 2059   0.596   6.757   3.923
  387SOL    HW1 2060   0.594   6.657   3.925
  387SOL    HW2 2061   0.537   6.791   3.850
  388SOL     OW 2062   0.602   2.323   4.775
  388SOL    HW1 2063   0.626   2.312   4.679
  388SOL    HW2 2064   0.669   2.274   4.832
  389SOL     OW 2065   4.350   4.148   1.660
  389SOL    HW1 2066   4.359   4.049   1.664
  389SOL    HW2 2067   4.380   4.187   1.747
  390SOL     OW 2068   3.513   1.335   0.351
  390SOL    HW1 2069   3.447   1.317   0.424
  390SOL    HW2 2070   3.474   1.308   0.263
  391SOL     OW 2071   2.691   4.182   5.414
  391SOL    HW1 2072   2.660   4.097   5.373
  391SOL    HW2 2073   2.634   4.203   5.494
  392SOL     OW 2074   1.211   3.183   2.314
  392SOL    HW1 2075   1.292   3.195   2.370
  392SOL    HW2 2076   1.193   3.266   2.262
  393SOL     OW 2077   1.350   4.533   0.816
  393SOL    HW1 2078   1.310   4.477   0.889
  393SOL    HW2 2079   1.373   4.474   0.739
  394SOL     OW 2080   0.557   2.873   0.125
  394SOL    HW1 2081   0.511   2.877   0.036
  394SOL    HW2 2082   0.598   2.963   0.144
  395SOL     OW 2083   5.679   3.915   2.126
  395SOL    HW1 2084   5.653   4.005   2.163
  395SOL    HW2 2085   5.747   3.928   2.054
  396SOL     OW 2086   2.524   2.078   2.520
  396SOL    HW1 2087   2.565   2.120   2.439
  396SOL    HW2 2088   2.593   2.073   2.593
  397SOL     OW 2089   4.827   1.148   5.437
  397SOL    HW1 2090   4.888   1.216   5.475
  397SOL    HW2 2091   4.879   1.065   5.415
  398SOL     OW 2092   1.361   6.467   4.691
  398SOL    HW1 2093   1.359   6.496   4.596
  398SOL    HW2 2094   1.389   6.372   4.697
  399SOL     OW 2095   6.190   6.221   4.238
  399SOL    HW1 2096   6.103   6.179   4.210
  399SOL    HW2 2097   6.182   6.321   4.233
  400SOL     OW 2098   6.768   0.089   4.816
  400SOL    HW1 2099   6.770   0.123   4.723
  400SOL    HW2 2100   6.732   7.014   4.817
  401SOL     OW 2101   6.326   0.813   6.076
  401SOL    HW1 2102   6.390   0.832   6.002
  401SOL    HW2 2103   6.357   0.859   6.160
  402SOL     OW 2104   6.170   0.501   2.134
  402SOL    HW1 2105   6.232   0.552   2.194
  402SOL    HW2 2106   6.220   0.473   2.051
  403SOL     OW 2107   3.211   0.288   6.115
  403SOL    HW1 2108   3.145   0.232   6.065
  403SOL    HW2 2109   3.275   0.228   6.165
  404SOL     OW 2110   3.653   6.146   5.486
  404SOL    HW1 2111   3.673   6.170   5.391
  404SOL    HW2 2112   3.629   6.228   5.537
  405SOL     OW 2113   1.915   4.189   3.232
  405SOL    HW1 2114   2.007   4.181   3.194
  405SOL    HW2 2115   1.900   4.116   3.299
  406SOL     OW 2116   1.008   4.682   5.195
  406SOL    HW1 2117   0.969   4.601   5.239
  406SOL    HW2 2118   1.049   4.656   5.108
  407SOL     OW 2119   1.902   2.948   3.793
  407SOL    HW1 2120   1.888   3.026   3.733
  407SOL    HW2 2121   2.000   2.931   3.802
  408SOL     OW 2122   3.906   2.153   2.751
  408SOL    HW1 2123   3.865   2.146   2.660
  408SOL    HW2 2124   4.003   2.175   2.742
  409SOL     OW 2125   0.305   3.839   1.762
  409SOL    HW1 2126   0.231   3.806   1.820
  409SOL    HW2 2127   0.298   3.797   1.672
  410SOL     OW 2128   1.311   2.346   1.334
  410SOL    HW1 2129   1.285   2.441   1.350
  410SOL    HW2 2130   1.330   2.333   1.236
  411SOL     OW 2131   0.352   1.933   1.644
  411SOL    HW1 2132   0.426   1.868   1.664
  411SOL    HW2 2133   0.316   1.914   1.553
  412SOL     OW 2134   2.846   4.751   2.865
  412SOL    HW1 2135   2.878   4.776   2.957
  412SOL    HW2 2136   2.917   4.772   2.798
  413SOL     OW 2137   3.526   4.875   2.226
  413SOL    HW1 2138   3.537   4.837   2.135
  413SOL    HW2 2139   3.496   4.970   2.219
  414SOL     OW 2140   3.357   0.152   3.984
  414SOL    HW1 2141   3.403   0.086   3.924
  414SOL    HW2 2142   3.258   0.145   3.971
  415SOL     OW 2143   7.011   1.792   0.509
  415SOL    HW1 2144   6.931   1.825   0.459
  415SOL    HW2 2145   6.983   1.724   0.576
  416SOL     OW 2146   5.497   3.754   4.878
  416SOL    HW1 2147   5.425   3.721   4.817
  416SOL    HW2 2148   5.586   3.733   4.837
  417SOL     OW 2149   2.349   1.108   6.654
  417SOL    HW1 2150   2.256   1.144   6.657
  417SOL    HW2 2151   2.381   1.105   6.559
  418SOL     OW 2152   3.161   6.786   4.576
  418SOL    HW1 2153   3.227   6.713   4.556
  418SOL    HW2 2154   3.208   6.874   4.573
  419SOL     OW 2155   6.998   0.122   1.903
  419SOL    HW1 2156   0.012   0.028   1.902
  419SOL    HW2 2157   6.921   0.131   1.839
  420SOL     OW 2158   5.332   0.608   6.484
  420SOL    HW1 2159   5.367   0.591   6.576
  420SOL    HW2 2160   5.250   0.552   6.469
  421SOL     OW 2161   5.191   4.467   4.854
  421SOL    HW1 2162   5.193   4.555   4.903
  421SOL    HW2 2163   5.209   4.483   4.757
  422SOL     OW 2164   4.946   2.148   1.026
  422SOL    HW1 2165   4.950   2.094   1.110
  422SOL    HW2 2166   4.855   2.137   0.984
  423SOL     OW 2167   2.940   0.541   6.526
  423SOL    HW1 2168   2.993   0.600   6.587
  423SOL    HW2 2169   2.978   0.544   6.434
  424SOL     OW 2170   1.618   5.321   2.759
  424SOL    HW1 2171   1.676   5.249   2.721
  424SOL    HW2 2172   1.562   5.360   2.685
  425SOL     OW 2173   4.642   1.107   4.905
  425SOL    HW1 2174   4.561   1.160   4.882
  425SOL    HW2 2175   4.719   1.168   4.923
  426SOL     OW 2176   2.417   2.483   4.887
  426SOL    HW1 2177   2.406   2.583   4.894
  426SOL    HW2 2178   2.365   2.450   4.809
  427SOL     OW 2179   4.595   1.561   3.730
  427SOL    HW1 2180   4.521   1.501   3.700
  427SOL    HW2 2181   4.647   1.592   3.650
  428SOL     OW 2182   2.653   0.837   4.857
  428SOL    HW1 2183   2.670   0.931   4.826
  428SOL    HW2 2184   2.718   0.814   4.928
  429SOL     OW 2185   0.727   6.133   3.913
  429SOL    HW1 2186   0.780   6.104   3.993
  429SOL    HW2 2187   0.789   6.146   3.836
  430SOL     OW 2188   1.634   6.995   3.805
  430SOL    HW1 2189   1.635   6.901   3.771
  430SOL    HW2 2190   1.727   0.009   3.819
  431SOL     OW 2191   3.032   2.025   1.332
  431SOL    HW1 2192   3.086   1.966   1.393
  431SOL    HW2 2193   3.035   1.988   1.239
  432SOL     OW 2194   5.281   2.260   1.140
  432SOL    HW1 2195   5.207   2.237   1.077
  432SOL    HW2 2196   5.319   2.349   1.116
  433SOL     OW 2197   3.336   6.428   6.353
  433SOL    HW1 2198   3.309   6.335   6.379
  433SOL    HW2 2199   3.286   6.494   6.409
  434SOL     OW 2200   3.638   6.114   3.841
  434SOL    HW1 2201   3.579   6.075   3.911
  434SOL    HW2 2202   3.611   6.078   3.751
  435SOL     OW 2203   3.467   1.643   5.624
  435SOL    HW1 2204   3.537   1.590   5.671
  435SOL    HW2 2205   3.392   1.582   5.596
  436SOL     OW 2206   3.452   6.100   3.394
  436SOL    HW1 2207   3.359   6.087   3.359
  436SOL    HW2 2208   3.462   6.194   3.426
  437SOL     OW 2209   6.996   1.246   4.532
  437SOL    HW1 2210   0.039   1.199   4.597
  437SOL    HW2 2211   7.018   1.218   4.439
  438SOL     OW 2212   0.818   5.220   3.637
  438SOL    HW1 2213   0.789   5.243   3.544
  438SOL    HW2 2214   0.851   5.125   3.639
  439SOL     OW 2215   6.032   0.415   2.602
  439SOL    HW1 2216   6.021   0.437   2.699
  439SOL    HW2 2217   5.980   0.479   2.547
  440SOL     OW 2218   3.560   1.012   7.017
  440SOL    HW1 2219   3.523   0.919   7.012
  440SOL    HW2 2220   3.638   1.020   6.955
  441SOL     OW 2221   6.553   4.148   3.141
  441SOL    HW1 2222   6.479   4.117   3.082
  441SOL    HW2 2223   6.640   4.112   3.106
  442SOL     OW 2224   5.013   4.135   5.956
  442SOL    HW1 2225   5.007   4.036   5.953
  442SOL    HW2 2226   5.108   4.163   5.969
  443SOL     OW 2227   4.666   4.298   2.995
  443SOL    HW1 2228   4.736   4.370   2.995
  443SOL    HW2 2229   4.674   4.244   2.911
  444SOL     OW 2230   3.794   1.205   0.654
  444SOL    HW1 2231   3.807   1.194   0.556
  444SOL    HW2 2232   3.875   1.171   0.702
  445SOL     OW 2233   2.768   5.934   2.972
  445SOL    HW1 2234   2.823   5.851   2.982
  445SOL    HW2 2235   2.679   5.922   3.015
  446SOL     OW 2236   5.297   5.562   3.008
  446SOL    HW1 2237   5.275   5.651   2.968
  446SOL    HW2 2238   5.338   5.576   3.099
  447SOL     OW 2239   5.997   3.847   5.793
  447SOL    HW1 2240   5.925   3.803   5.847
  447SOL    HW2 2241   5.959   3.924   5.743
  448SOL     OW 2242   3.087   1.521   2.726
  448SOL    HW1 2243   3.143   1.549   2.648
  448SOL    HW2 2244   3.146   1.506   2.805
  449SOL     OW 2245   2.000   2.668   3.836
  449SOL    HW1 2246   1.930   2.717   3.783
  449SOL    HW2 2247   2.062   2.735   3.878
  450SOL     OW 2248   0.748   5.003   3.287
  450SOL    HW1 2249   0.814   4.928   3.294
  450SOL    HW2 2250   0.672   4.974   3.230
  451SOL     OW 2251   0.431   2.358   3.760
  451SOL    HW1 2252   0.347   2.305   3.761
  451SOL    HW2 2253   0.487   2.330   3.682
  452SOL     OW 2254   3.795   6.227   2.723
  452SOL    HW1 2255   3.787   6.130   2.747
  452SOL    HW2 2256   3.710   6.274   2.749
  453SOL     OW 2257   4.140   0.325   0.038
  453SOL    HW1 2258   4.218   0.279   0.081
  453SOL    HW2 2259   4.130   0.292   6.963
  454SOL     OW 2260   6.730   4.386   5.951
  454SOL    HW1 2261   6.691   4.478   5.940
  454SOL    HW2 2262   6.660   4.324   5.985
  455SOL     OW 2263   0.049   3.854   6.214
  455SOL    HW1 2264   0.029   3.949   6.193
  455SOL    HW2 2265   0.117   3.818   6.149
  456SOL     OW 2266   1.984   0.917   3.151
  456SOL    HW1 2267   2.031   0.852   3.091
  456SOL    HW2 2268   2.007   0.898   3.246
  457SOL     OW 2269   1.651   5.747   6.011
  457SOL    HW1 2270   1.675   5.660   5.968
  457SOL    HW2 2271   1.572   5.787   5.966
  458SOL     OW 2272   2.576   1.722   3.444
  458SOL    HW1 2273   2.636   1.685   3.516
  458SOL    HW2 2274   2.571   1.657   3.368
  459SOL     OW 2275   2.206   0.228   5.071
  459SOL    HW1 2276   2.220   0.137   5.033
  459SOL    HW2 2277   2.268   0.242   5.148
  460SOL     OW 2278   1.236   1.550   5.169
  460SOL    HW1 2279   1.302   1.547   5.093
  460SOL    HW2 2280   1.248   1.636   5.219
  461SOL     OW 2281   0.161   4.523   5.467
  461SOL    HW1 2282   0.098   4.508   5.391
  461SOL    HW2 2283   0.116   4.577   5.538
  462SOL     OW 2284   3.398   3.545   4.235
  462SOL    HW1 2285   3.371   3.510   4.145
  462SOL    HW2 2286   3.322   3.535   4.298
  463SOL     OW 2287   6.201   6.929   2.626
  463SOL    HW1 2288   6.292   6.957   2.596
  463SOL    HW2 2289   6.132   6.986   2.582
  464SOL     OW 2290   3.520   6.211   5.870
  464SOL    HW1 2291   3.558   6.120   5.882
  464SOL    HW2 2292   3.460   6.233   5.947
  465SOL     OW 2293   1.428   1.959   0.658
  465SOL    HW1 2294   1.373   2.029   0.612
  465SOL    HW2 2295   1.451   1.887   0.593
  466SOL     OW 2296   3.179   6.081   5.053
  466SOL    HW1 2297   3.246   6.149   5.023
  466SOL    HW2 2298   3.187   6.068   5.152
  467SOL     OW 2299   0.235   2.060   2.650
  467SOL    HW1 2300   0.252   2.012   2.563
  467SOL    HW2 2301   0.224   1.993   2.723
  468SOL     OW 2302   4.351   0.205   6.266
  468SOL    HW1 2303   4.422   0.155   6.216
  468SOL    HW2 2304   4.393   0.260   6.338
  469SOL     OW 2305   2.781   4.696   5.751
  469SOL    HW1 2306   2.824   4.744   5.827
  469SOL    HW2 2307   2.685   4.723   5.744
  470SOL     OW 2308   2.463   5.468   3.115
  470SOL    HW1 2309   2.477   5.434   3.208
  470SOL    HW2 2310   2.544   5.448   3.060
  471SOL     OW 2311   2.775   2.285   4.018
  471SOL    HW1 2312   2.688   2.241   3.996
  471SOL    HW2 2313   2.816   2.322   3.935
  472SOL     OW 2314   6.002   4.527   6.168
  472SOL    HW1 2315   5.992   4.460   6.242
  472SOL    HW2 2316   5.961   4.490   6.085
  473SOL     OW 2317   6.820   2.378   2.624
  473SOL    HW1 2318   6.862   2.294   2.590
  473SOL    HW2 2319   6.730   2.358   2.661
  474SOL     OW 2320   6.291   6.080   4.814
  474SOL    HW1 2321   6.280   6.047   4.907
  474SOL    HW2 2322   6.272   6.006   4.749
  475SOL     OW 2323   5.834   2.156   0.438
  475SOL    HW1 2324   5.916   2.213   0.437
  475SOL    HW2 2325   5.833   2.098   0.357
  476SOL     OW 2326   0.944   4.186   2.031
  476SOL    HW1 2327   0.920   4.157   1.939
  476SOL    HW2 2328   0.909   4.120   2.097
  477SOL     OW 2329   2.725   6.092   3.797
  477SOL    HW1 2330   2.680   6.177   3.769
  477SOL    HW2 2331   2.695   6.068   3.889
  478SOL     OW 2332   4.630   5.966   2.527
  478SOL    HW1 2333   4.556   5.899   2.532
  478SOL    HW2 2334   4.665   5.983   2.619
  479SOL     OW 2335   3.916   3.492   4.006
  479SOL    HW1 2336   3.935   3.424   3.935
  479SOL    HW2 2337   3.818   3.493   4.027
  480SOL     OW 2338   1.320   6.691   3.017
  480SOL    HW1 2339   1.257   6.715   3.091
  480SOL    HW2 2340   1.411   6.674   3.054
  481SOL     OW 2341   0.677   6.190   0.728
  481SOL    HW1 2342   0.619   6.111   0.745
  481SOL    HW2 2343   0.741   6.169   0.654
  482SOL     OW 2344   5.264   4.443   2.427
  482SOL    HW1 2345   5.209   4.445   2.343
  482SOL    HW2 2346   5.357   4.474   2.407
  483SOL     OW 2347   5.816   1.950   2.897
  483SOL    HW1 2348   5.736   1.998   2.862
  483SOL    HW2 2349   5.855   2.003   2.973
  484SOL     OW 2350   2.299   4.316   4.573
  484SOL    HW1 2351   2.290   4.270   4.661
  484SOL    HW2 2352   2.334   4.408   4.587
  485SOL     OW 2353   5.811   3.458   2.817
  485SOL    HW1 2354   5.735   3.416   2.767
  485SOL    HW2 2355   5.802   3.439   2.915
  486SOL     OW 2356   6.112   6.905   6.037
  486SOL    HW1 2357   6.145   6.867   6.124
  486SOL    HW2 2358   6.154   6.994   6.022
  487SOL     OW 2359   0.087   6.633   4.010
  487SOL    HW1 2360   0.009   6.575   3.986
  487SOL    HW2 2361   0.062   6.693   4.085
  488SOL     OW 2362   1.970   6.385   3.630
  488SOL    HW1 2363   1.944   6.295   3.667
  488SOL    HW2 2364   2.059   6.377   3.585
  489SOL     OW 2365   6.621   5.989   4.864
  489SOL    HW1 2366   6.617   5.901   4.912
  489SOL    HW2 2367   6.551   6.050   4.901
  490SOL     OW 2368   1.367   5.035   6.110
  490SOL    HW1 2369   1.450   4.989   6.142
  490SOL    HW2 2370   1.389   5.130   6.086
  491SOL     OW 2371   0.008   2.907   0.413
  491SOL    HW1 2372   6.945   2.935   0.463
  491SOL    HW2 2373   7.008   2.821   0.365
  492SOL     OW 2374   0.961   1.571   5.766
  492SOL    HW1 2375   1.060   1.570   5.761
  492SOL    HW2 2376   0.923   1.581   5.673
  493SOL     OW 2377   2.510   6.258   5.116
  493SOL    HW1 2378   2.416   6.261   5.152
  493SOL    HW2 2379   2.517   6.184   5.049
  494SOL     OW 2380   2.312   0.402   5.543
  494SOL    HW1 2381   2.219   0.408   5.578
  494SOL    HW2 2382   2.372   0.460   5.599
  495SOL     OW 2383   4.307   6.374   5.386
  495SOL    HW1 2384   4.283   6.374   5.483
  495SOL    HW2 2385   4.285   6.285   5.346
  496SOL     OW 2386   5.927   2.192   2.725
  496SOL    HW1 2387   5.966   2.198   2.817
  496SOL    HW2 2388   5.928   2.096   2.694
  497SOL     OW 2389   3.606   0.856   6.320
  497SOL    HW1 2390   3.576   0.790   6.389
  497SOL    HW2 2391   3.619   0.809   6.232
  498SOL     OW 2392   0.281   5.371   2.213
  498SOL    HW1 2393   0.220   5.292   2.219
  498SOL    HW2 2394   0.309   5.399   2.305
  499SOL     OW 2395   3.389   4.651   6.187
  499SOL    HW1 2396   3.451   4.575   6.204
  499SOL    HW2 2397   3.299   4.630   6.224
  500SOL     OW 2398   5.997   2.328   6.797
  500SOL    HW1 2399   5.951   2.298   6.881
  500SOL    HW2 2400   5.929   2.346   6.727
  501SOL     OW 2401   1.775   0.024   2.858
  501SOL    HW1 2402   1.810   6.973   2.796
  501SOL    HW2 2403   1.737   0.100   2.805
  502SOL     OW 2404   2.162   4.421   6.533
  502SOL    HW1 2405   2.106   4.359   6.479
  502SOL    HW2 2406   2.259   4.399   6.520
  503SOL     OW 2407   3.712   4.872   6.358
  503SOL    HW1 2408   3.633   4.824   6.395
  503SOL    HW2 2409   3.785   4.807   6.339
  504SOL     OW 2410   6.461   6.132   2.261
  504SOL    HW1 2411   6.391   6.167   2.199
  504SOL    HW2 2412   6.436   6.153   2.355
  505SOL     OW 2413   4.940   6.705   4.980
  505SOL    HW1 2414   4.864   6.762   5.011
  505SOL    HW2 2415   5.009   6.762   4.936
  506SOL     OW 2416   3.020   5.655   3.260
  506SOL    HW1 2417   3.120   5.654   3.265
  506SOL    HW2 2418   2.987   5.749   3.263
  507SOL     OW 2419   3.935   0.853   1.904
  507SOL    HW1 2420   3.990   0.844   1.987
  507SOL    HW2 2421   3.840   0.828   1.923
  508SOL     OW 2422   0.028   4.394   4.463
  508SOL    HW1 2423   0.045   4.474   4.521
  508SOL    HW2 2424   0.006   4.315   4.520
  509SOL     OW 2425   4.803   0.642   6.683
  509SOL    HW1 2426   4.763   0.715   6.739
  509SOL    HW2 2427   4.898   0.627   6.710
  510SOL     OW 2428   6.249   4.338   6.057
  510SOL    HW1 2429   6.220   4.430   6.086
  510SOL    HW2 2430   6.172   4.275   6.064
  511SOL     OW 2431   1.568   1.455   0.158
  511SOL    HW1 2432   1.624   1.501   0.227
  511SOL    HW2 2433   1.540   1.366   0.193
  512SOL     OW 2434   5.559   2.601   0.166
  512SOL    HW1 2435   5.584   2.682   0.218
  512SOL    HW2 2436   5.520   2.533   0.228
  513SOL     OW 2437   5.678   0.419   2.683
  513SOL    HW1 2438   5.599   0.431   2.623
  513SOL    HW2 2439   5.682   0.495   2.748
  514SOL     OW 2440   0.052   0.225   4.432
  514SOL    HW1 2441   0.072   0.172   4.350
  514SOL    HW2 2442   0.137   0.239   4.484
  515SOL     OW 2443   3.260   0.564   6.487
  515SOL    HW1 2444   3.253   0.664   6.489
  515SOL    HW2 2445   3.221   0.530   6.402
  516SOL     OW 2446   2.829   4.575   1.224
  516SOL    HW1 2447   2.911   4.560   1.280
  516SOL    HW2 2448   2.856   4.609   1.134
  517SOL     OW 2449   2.863   5.175   2.524
  517SOL    HW1 2450   2.919   5.163   2.441
  517SOL    HW2 2451   2.923   5.184   2.603
  518SOL     OW 2452   2.153   3.327   3.606
  518SOL    HW1 2453   2.131   3.424   3.600
  518SOL    HW2 2454   2.172   3.291   3.515
  519SOL     OW 2455   6.571   6.361   3.579
  519SOL    HW1 2456   6.523   6.436   3.624
  519SOL    HW2 2457   6.534   6.273   3.611
  520SOL     OW 2458   1.233   3.310   0.184
  520SOL    HW1 2459   1.322   3.350   0.160
  520SOL    HW2 2460   1.202   3.250   0.111
  521SOL     OW 2461   4.902   5.046   4.319
  521SOL    HW1 2462   4.968   4.973   4.304
  521SOL    HW2 2463   4.812   5.017   4.286
  522SOL     OW 2464   4.601   3.618   1.057
  522SOL    HW1 2465   4.559   3.578   1.139
  522SOL    HW2 2466   4.534   3.676   1.010
  523SOL     OW 2467   0.299   6.296   1.629
  523SOL    HW1 2468   0.394   6.299   1.661
  523SOL    HW2 2469   0.297   6.271   1.532
  524SOL     OW 2470   0.387   2.719   2.090
  524SOL    HW1 2471   0.399   2.795   2.026
  524SOL    HW2 2472   0.346   2.753   2.175
  525SOL     OW 2473   0.893   3.387   7.000
  525SOL    HW1 2474   0.974   3.408   6.945
  525SOL    HW2 2475   0.909   3.304   0.034
  526SOL     OW 2476   3.630   6.856   4.452
  526SOL    HW1 2477   3.696   6.929   4.467
  526SOL    HW2 2478   3.584   6.835   4.538
  527SOL     OW 2479   1.157   2.062   0.112
  527SOL    HW1 2480   1.195   2.060   0.019
  527SOL    HW2 2481   1.057   2.072   0.107
  528SOL     OW 2482   0.195   4.042   3.872
  528SOL    HW1 2483   0.204   3.952   3.828
  528SOL    HW2 2484   0.273   4.099   3.846
  529SOL     OW 2485   2.609   6.831   5.323
  529SOL    HW1 2486   2.609   6.836   5.223
  529SOL    HW2 2487   2.530   6.778   5.353
  530SOL     OW 2488   3.604   3.281   1.658
  530SOL    HW1 2489   3.529   3.308   1.718
  530SOL    HW2 2490   3.578   3.198   1.608
  531SOL     OW 2491   2.506   0.927   2.405
  531SOL    HW1 2492   2.498   0.838   2.361
  531SOL    HW2 2493   2.484   0.999   2.339
  532SOL     OW 2494   2.303   3.240   6.942
  532SOL    HW1 2495   2.241   3.218   7.018
  532SOL    HW2 2496   2.359   3.319   6.966
  533SOL     OW 2497   4.678   0.249   3.601
  533SOL    HW1 2498   4.751   0.284   3.543
  533SOL    HW2 2499   4.602   0.314   3.602
  534SOL     OW 2500   0.907   5.489   1.088
  534SOL    HW1 2501   0.839   5.559   1.109
  534SOL    HW2 2502   0.963   5.471   1.168
  535SOL     OW 2503   5.937   3.804   2.904
  535SOL    HW1 2504   5.985   3.719   2.928
  535SOL    HW2 2505   5.877   3.787   2.826
  536SOL     OW 2506   6.908   6.032   3.062
  536SOL    HW1 2507   6.966   5.951   3.055
  536SOL    HW2 2508   6.844   6.021   3.139
  537SOL     OW 2509   3.548   6.799   4.203
  537SOL    HW1 2510   3.588   6.836   4.286
  537SOL    HW2 2511   3.608   6.729   4.165
  538SOL     OW 2512   2.322   4.747   5.620
  538SOL    HW1 2513   2.261   4.824   5.600
  538SOL    HW2 2514   2.372   4.723   5.537
  539SOL     OW 2515   1.280   5.712   1.040
  539SOL    HW1 2516   1.223   5.650   0.985
  539SOL    HW2 2517   1.295   5.672   1.130
  540SOL     OW 2518   2.051   1.101   4.171
  540SOL    HW1 2519   1.972   1.161   4.176
  540SOL    HW2 2520   2.022   1.008   4.149
  541SOL     OW 2521   4.404   6.063   4.051
  541SOL    HW1 2522   4.480   6.015   4.095
  541SOL    HW2 2523   4.381   6.144   4.104
  542SOL     OW 2524   3.611   5.511   6.515
  542SOL    HW1 2525   3.647   5.603   6.526
  542SOL    HW2 2526   3.685   5.445   6.523
  543SOL     OW 2527   5.794   3.580   4.085
  543SOL    HW1 2528   5.782   3.563   3.987
  543SOL    HW2 2529   5.758   3.503   4.137
  544SOL     OW 2530   0.252   4.679   0.015
  544SOL    HW1 2531   0.290   4.586   0.015
  544SOL    HW2 2532   0.261   4.718   0.106
  545SOL     OW 2533   5.627   1.456   1.495
  545SOL    HW1 2534   5.577   1.528   1.448
  545SOL    HW2 2535   5.697   1.419   1.434
  546SOL     OW 2536   0.247   4.643   2.251
  546SOL    HW1 2537   0.148   4.658   2.244
  546SOL    HW2 2538   0.270   4.555   2.210
  547SOL     OW 2539   3.345   1.955   0.600
  547SOL    HW1 2540   3.408   1.917   0.533
  547SOL    HW2 2541   3.310   1.882   0.658
  548SOL     OW 2542   3.461   2.913   0.826
  548SOL    HW1 2543   3.453   2.903   0.727
  548SOL    HW2 2544   3.432   3.005   0.853
  549SOL     OW 2545   5.521   2.636   0.598
  549SOL    HW1 2546   5.426   2.657   0.618
  549SOL    HW2 2547   5.527   2.589   0.510
  550SOL     OW 2548   6.918   4.344   3.158
  550SOL    HW1 2549   6.913   4.397   3.073
  550SOL    HW2 2550   6.945   4.404   3.233
  551SOL     OW 2551   6.942   0.747   0.803
  551SOL    HW1 2552   0.010   0.771   0.848
  551SOL    HW2 2553   6.960   0.676   0.735
  552SOL     OW 2554   5.310   5.395   5.123
  552SOL    HW1 2555   5.361   5.443   5.052
  552SOL    HW2 2556   5.374   5.352   5.187
  553SOL     OW 2557   3.377   0.555   4.511
  553SOL    HW1 2558   3.333   0.586   4.595
  553SOL    HW2 2559   3.310   0.555   4.436
  554SOL     OW 2560   5.770   5.563   0.138
  554SOL    HW1 2561   5.736   5.656   0.152
  554SOL    HW2 2562   5.713   5.499   0.189
  555SOL     OW 2563   3.519   5.729   5.444
  555SOL    HW1 2564   3.462   5.805   5.475
  555SOL    HW2 2565   3.471   5.678   5.373
  556SOL     OW 2566   5.467   2.217   4.163
  556SOL    HW1 2567   5.557   2.221   4.119
  556SOL    HW2 2568   5.480   2.199   4.261
  557SOL     OW 2569   7.002   4.421   6.057
  557SOL    HW1 2570   0.059   4.404   5.994
  557SOL    HW2 2571   6.918   4.381   6.021
  558SOL     OW 2572   4.160   3.548   3.263
  558SOL    HW1 2573   4.206   3.519   3.346
  558SOL    HW2 2574   4.136   3.645   3.270
  559SOL     OW 2575   6.223   5.958   5.033
  559SOL    HW1 2576   6.164   5.879   5.013
  559SOL    HW2 2577   6.185   6.008   5.111
  560SOL     OW 2578   6.573   3.225   4.164
  560SOL    HW1 2579   6.560   3.199   4.068
  560SOL    HW2 2580   6.671   3.221   4.186
  561SOL     OW 2581   6.853   3.483   6.413
  561SOL    HW1 2582   6.787   3.438   6.353
  561SOL    HW2 2583   6.877   3.421   6.488
  562SOL     OW 2584   4.899   6.506   5.397
  562SOL    HW1 2585   4.898   6.480   5.494
  562SOL    HW2 2586   4.916   6.604   5.389
  563SOL     OW 2587   1.657   1.691   4.190
  563SOL    HW1 2588   1.714   1.664   4.112
  563SOL    HW2 2589   1.570   1.726   4.157
  564SOL     OW 2590   0.149   1.369   6.579
  564SOL    HW1 2591   0.233   1.318   6.566
  564SOL    HW2 2592   0.110   1.349   6.669
  565SOL     OW 2593   3.296   2.910   3.845
  565SOL    HW1 2594   3.288   2.943   3.751
  565SOL    HW2 2595   3.223   2.844   3.864
  566SOL     OW 2596   2.663   5.295   2.324
  566SOL    HW1 2597   2.736   5.257   2.381
  566SOL    HW2 2598   2.665   5.252   2.234
  567SOL     OW 2599   2.662   2.559   0.549
  567SOL    HW1 2600   2.731   2.590   0.615
  567SOL    HW2 2601   2.599   2.496   0.594
  568SOL     OW 2602   5.453   6.852   0.500
  568SOL    HW1 2603   5.489   6.911   0.428
  568SOL    HW2 2604   5.529   6.816   0.554
  569SOL     OW 2605   0.874   2.472   0.200
  569SOL    HW1 2606   0.948   2.499   0.138
  569SOL    HW2 2607   0.797   2.533   0.188
  570SOL     OW 2608   2.808   0.265   6.085
  570SOL    HW1 2609   2.796   0.241   6.181
  570SOL    HW2 2610   2.723   0.248   6.035
  571SOL     OW 2611   2.264   4.828   3.648
  571SOL    HW1 2612   2.287   4.814   3.552
  571SOL    HW2 2613   2.272   4.741   3.697
  572SOL     OW 2614   1.758   5.714   5.007
  572SOL    HW1 2615   1.801   5.749   4.923
  572SOL    HW2 2616   1.664   5.746   5.012
  573SOL     OW 2617   6.451   1.876   5.362
  573SOL    HW1 2618   6.517   1.803   5.380
  573SOL    HW2 2619   6.465   1.950   5.427
  574SOL     OW 2620   3.452   1.048   5.117
  574SOL    HW1 2621   3.460   1.037   5.018
  574SOL    HW2 2622   3.509   0.979   5.162
  575SOL     OW 2623   3.951   2.800   0.983
  575SOL    HW1 2624   3.900   2.753   1.055
  575SOL    HW2 2625   3.890   2.863   0.935
  576SOL     OW 2626   1.957   2.906   2.725
  576SOL    HW1 2627   2.048   2.907   2.767
  576SOL    HW2 2628   1.898   2.971   2.773
  577SOL     OW 2629   0.682   0.575   2.256
  577SOL    HW1 2630   0.779   0.585   2.233
  577SOL    HW2 2631   0.628   0.636   2.199
  578SOL     OW 2632   1.098   5.664   0.479
  578SOL    HW1 2633   1.168   5.683   0.410
  578SOL    HW2 2634   1.118   5.577   0.524
  579SOL     OW 2635   2.073   4.792   2.365
  579SOL    HW1 2636   2.128   4.714   2.337
  579SOL    HW2 2637   2.128   4.853   2.422
  580SOL     OW 2638   4.391   5.036   4.890
  580SOL    HW1 2639   4.323   5.067   4.957
  580SOL    HW2 2640   4.394   4.936   4.890
  581SOL     OW 2641   0.965   3.438   3.779
  581SOL    HW1 2642   0.965   3.340   3.761
  581SOL    HW2 2643   0.872   3.469   3.797
  582SOL     OW 2644   4.884   5.908   3.351
  582SOL    HW1 2645   4.825   5.827   3.350
  582SOL    HW2 2646   4.882   5.950   3.261
  583SOL     OW 2647   3.114   5.555   5.385
  583SOL    HW1 2648   3.160   5.519   5.466
  583SOL    HW2 2649   3.055   5.632   5.413
  584SOL     OW 2650   3.328   6.996   6.352
  584SOL    HW1 2651   3.248   6.972   6.407
  584SOL    HW2 2652   3.384   6.915   6.337
  585SOL     OW 2653   3.955   6.990   1.417
  585SOL    HW1 2654   3.986   6.998   1.512
  585SOL    HW2 2655   3.971   6.897   1.384
  586SOL     OW 2656   3.798   0.257   1.070
  586SOL    HW1 2657   3.832   0.294   0.984
  586SOL    HW2 2658   3.868   0.199   1.111
  587SOL     OW 2659   5.558   1.953   1.934
  587SOL    HW1 2660   5.482   1.906   1.890
  587SOL    HW2 2661   5.567   2.045   1.896
  588SOL     OW 2662   1.804   5.100   0.864
  588SOL    HW1 2663   1.768   5.039   0.793
  588SOL    HW2 2664   1.750   5.089   0.948
  589SOL     OW 2665   3.307   5.473   1.375
  589SOL    HW1 2666   3.319   5.541   1.447
  589SOL    HW2 2667   3.285   5.384   1.416
  590SOL     OW 2668   5.627   1.335   0.712
  590SOL    HW1 2669   5.712   1.294   0.747
  590SOL    HW2 2670   5.643   1.368   0.619
  591SOL     OW 2671   4.614   6.026   3.717
  591SOL    HW1 2672   4.593   5.967   3.639
  591SOL    HW2 2673   4.532   6.075   3.746
  592SOL     OW 2674   4.963   0.991   3.675
  592SOL    HW1 2675   5.059   1.014   3.693
  592SOL    HW2 2676   4.942   1.009   3.579
  593SOL     OW 2677   4.064   2.142   4.746
  593SOL    HW1 2678   4.117   2.186   4.818
  593SOL    HW2 2679   4.080   2.190   4.660
  594SOL     OW 2680   5.993   1.733   0.975
  594SOL    HW1 2681   6.045   1.703   1.055
  594SOL    HW2 2682   5.925   1.663   0.952
  595SOL     OW 2683   5.268   6.435   3.392
  595SOL    HW1 2684   5.281   6.475   3.483
  595SOL    HW2 2685   5.356   6.427   3.346
  596SOL     OW 2686   0.016   4.753   3.445
  596SOL    HW1 2687   0.062   4.839   3.466
  596SOL    HW2 2688   6.935   4.767   3.446
  597SOL     OW 2689   3.497   0.065   5.914
  597SOL    HW1 2690   3.565   0.081   5.842
  597SOL    HW2 2691   3.482   6.985   5.925
  598SOL     OW 2692   3.093   4.117   4.835
  598SOL    HW1 2693   3.080   4.074   4.924
  598SOL    HW2 2694   3.046   4.206   4.833
  599SOL     OW 2695   1.739   6.536   1.808
  599SOL    HW1 2696   1.698   6.559   1.720
  599SOL    HW2 2697   1.668   6.521   1.876
  600SOL     OW 2698   0.175   3.479   5.708
  600SOL    HW1 2699   0.218   3.568   5.720
  600SOL    HW2 2700   0.131   3.451   5.793
  601SOL     OW 2701   2.102   0.905   5.500
  601SOL    HW1 2702   2.023   0.948   5.457
  601SOL    HW2 2703   2.091   0.806   5.498
  602SOL     OW 2704   3.013   0.134   5.649
  602SOL    HW1 2705   3.014   0.233   5.661
  602SOL    HW2 2706   3.105   0.097   5.666
  603SOL     OW 2707   1.873   1.272   5.845
  603SOL    HW1 2708   1.920   1.192   5.809
  603SOL    HW2 2709   1.934   1.351   5.844
  604SOL     OW 2710   0.494   2.266   1.488
  604SOL    HW1 2711   0.484   2.209   1.407
  604SOL    HW2 2712   0.430   2.342   1.484
  605SOL     OW 2713   0.042   4.967   2.326
  605SOL    HW1 2714   0.070   5.037   2.392
  605SOL    HW2 2715   6.970   4.932   2.351
  606SOL     OW 2716   4.683   6.839   5.047
  606SOL    HW1 2717   4.640   6.754   5.017
  606SOL    HW2 2718   4.624   6.884   5.115
  607SOL     OW 2719   0.864   4.996   5.576
  607SOL    HW1 2720   0.789   4.985   5.511
  607SOL    HW2 2721   0.948   4.961   5.536
  608SOL     OW 2722   4.096   0.174   6.826
  608SOL    HW1 2723   4.169   0.111   6.852
  608SOL    HW2 2724   4.042   0.134   6.751
  609SOL     OW 2725   3.807   2.533   1.709
  609SOL    HW1 2726   3.799   2.606   1.777
  609SOL    HW2 2727   3.771   2.448   1.747
  610SOL     OW 2728   4.275   1.914   0.330
  610SOL    HW1 2729   4.197   1.901   0.391
  610SOL    HW2 2730   4.267   2.001   0.282
  611SOL     OW 2731   4.301   6.810   2.839
  611SOL    HW1 2732   4.349   6.726   2.815
  611SOL    HW2 2733   4.294   6.870   2.759
  612SOL     OW 2734   2.810   4.941   5.266
  612SOL    HW1 2735   2.763   4.853   5.282
  612SOL    HW2 2736   2.907   4.924   5.248
  613SOL     OW 2737   5.462   4.651   4.925
  613SOL    HW1 2738   5.391   4.703   4.879
  613SOL    HW2 2739   5.470   4.560   4.882
  614SOL     OW 2740   5.016   4.948   5.128
  614SOL    HW1 2741   4.967   4.862   5.142
  614SOL    HW2 2742   5.001   5.008   5.206
  615SOL     OW 2743   6.726   3.970   0.513
  615SOL    HW1 2744   6.659   3.916   0.564
  615SOL    HW2 2745   6.751   4.051   0.567
  616SOL     OW 2746   6.427   3.104   2.951
  616SOL    HW1 2747   6.466   3.013   2.942
  616SOL    HW2 2748   6.493   3.172   2.916
  617SOL     OW 2749   1.318   5.097   6.574
  617SOL    HW1 2750   1.270   5.017   6.538
  617SOL    HW2 2751   1.415   5.092   6.549
  618SOL     OW 2752   1.711   2.312   1.604
  618SOL    HW1 2753   1.630   2.371   1.595
  618SOL    HW2 2754   1.791   2.369   1.625
  619SOL     OW 2755   1.708   1.861   0.901
  619SOL    HW1 2756   1.740   1.869   0.807
  619SOL    HW2 2757   1.750   1.933   0.957
  620SOL     OW 2758   4.506   1.858   0.694
  620SOL    HW1 2759   4.472   1.883   0.785
  620SOL    HW2 2760   4.478   1.928   0.628
  621SOL     OW 2761   5.974   5.096   6.367
  621SOL    HW1 2762   5.960   5.061   6.274
  621SOL    HW2 2763   6.050   5.161   6.368
  622SOL     OW 2764   1.745   0.996   0.338
  622SOL    HW1 2765   1.780   0.973   0.247
  622SOL    HW2 2766   1.821   1.008   0.401
  623SOL     OW 2767   0.807   6.059   5.324
  623SOL    HW1 2768   0.804   5.964   5.353
  623SOL    HW2 2769   0.775   6.118   5.398
  624SOL     OW 2770   0.311   2.855   2.313
  624SOL    HW1 2771   0.304   2.953   2.296
  624SOL    HW2 2772   0.232   2.825   2.366
  625SOL     OW 2773   3.168   1.820   1.476
  625SOL    HW1 2774   3.240   1.811   1.545
  625SOL    HW2 2775   3.165   1.736   1.421
  626SOL     OW 2776   2.095   5.900   3.536
  626SOL    HW1 2777   2.176   5.955   3.555
  626SOL    HW2 2778   2.122   5.809   3.503
  627SOL     OW 2779   5.442   0.477   0.540
  627SOL    HW1 2780   5.480   0.420   0.612
  627SOL    HW2 2781   5.366   0.531   0.577
  628SOL     OW 2782   4.763   4.942   4.759
  628SOL    HW1 2783   4.689   4.991   4.714
  628SOL    HW2 2784   4.808   5.002   4.825
  629SOL     OW 2785   0.556   7.009   1.421
  629SOL    HW1 2786   0.467   0.037   1.428
  629SOL    HW2 2787   0.600   7.009   1.511
  630SOL     OW 2788   5.346   2.500   2.342
  630SOL    HW1 2789   5.260   2.517   2.390
  630SOL    HW2 2790   5.346   2.407   2.306
  631SOL     OW 2791   3.175   0.726   5.235
  631SOL    HW1 2792   3.111   0.688   5.168
  631SOL    HW2 2793   3.269   0.712   5.204
  632SOL     OW 2794   2.332   1.026   0.567
  632SOL    HW1 2795   2.409   1.057   0.622
  632SOL    HW2 2796   2.353   1.038   0.470
  633SOL     OW 2797   3.422   5.337   0.370
  633SOL    HW1 2798   3.373   5.404   0.315
  633SOL    HW2 2799   3.497   5.382   0.418
  634SOL     OW 2800   4.280   4.845   1.643
  634SOL    HW1 2801   4.226   4.884   1.569
  634SOL    HW2 2802   4.226   4.775   1.691
  635SOL     OW 2803   4.459   6.694   3.432
  635SOL    HW1 2804   4.481   6.789   3.410
  635SOL    HW2 2805   4.510   6.633   3.372
  636SOL     OW 2806   5.319   5.472   6.674
  636SOL    HW1 2807   5.416   5.451   6.660
  636SOL    HW2 2808   5.287   5.431   6.759
  637SOL     OW 2809   5.368   4.884   1.899
  637SOL    HW1 2810   5.303   4.858   1.971
  637SOL    HW2 2811   5.334   4.853   1.810
  638SOL     OW 2812   4.928   1.342   2.129
  638SOL    HW1 2813   4.933   1.364   2.227
  638SOL    HW2 2814   4.898   1.247   2.118
  639SOL     OW 2815   4.695   5.064   2.259
  639SOL    HW1 2816   4.767   5.054   2.191
  639SOL    HW2 2817   4.689   4.981   2.314
  640SOL     OW 2818   2.906   4.414   5.748
  640SOL    HW1 2819   2.831   4.360   5.709
  640SOL    HW2 2820   2.888   4.511   5.733
  641SOL     OW 2821   0.702   5.423   4.323
  641SOL    HW1 2822   0.681   5.332   4.287
  641SOL    HW2 2823   0.707   5.420   4.422
  642SOL     OW 2824   0.519   4.388   4.432
  642SOL    HW1 2825   0.483   4.438   4.354
  642SOL    HW2 2826   0.447   4.332   4.473
  643SOL     OW 2827   5.979   5.936   4.542
  643SOL    HW1 2828   5.919   5.891   4.608
  643SOL    HW2 2829   5.970   5.892   4.453
  644SOL     OW 2830   0.784   6.048   3.023
  644SOL    HW1 2831   0.730   5.971   2.989
  644SOL    HW2 2832   0.791   6.118   2.952
  645SOL     OW 2833   4.669   2.723   4.426
  645SOL    HW1 2834   4.679   2.813   4.468
  645SOL    HW2 2835   4.642   2.656   4.496
  646SOL     OW 2836   2.110   1.974   3.434
  646SOL    HW1 2837   2.198   1.927   3.432
  646SOL    HW2 2838   2.077   1.987   3.340
  647SOL     OW 2839   6.100   2.821   6.792
  647SOL    HW1 2840   6.096   2.734   6.842
  647SOL    HW2 2841   6.124   2.802   6.697
  648SOL     OW 2842   6.074   3.293   2.702
  648SOL    HW1 2843   6.062   3.226   2.628
  648SOL    HW2 2844   5.987   3.310   2.747
  649SOL     OW 2845   4.196   4.192   0.334
  649SOL    HW1 2846   4.248   4.278   0.328
  649SOL    HW2 2847   4.190   4.164   0.430
  650SOL     OW 2848   4.778   4.586   0.541
  650SOL    HW1 2849   4.802   4.514   0.475
  650SOL    HW2 2850   4.745   4.666   0.492
  651SOL     OW 2851   0.579   6.248   1.141
  651SOL    HW1 2852   0.517   6.180   1.180
  651SOL    HW2 2853   0.657   6.201   1.099
  652SOL     OW 2854   4.958   6.780   3.576
  652SOL    HW1 2855   4.859   6.776   3.564
  652SOL    HW2 2856   5.003   6.722   3.508
  653SOL     OW 2857   3.311   5.339   5.114
  653SOL    HW1 2858   3.331   5.408   5.184
  653SOL    HW2 2859   3.304   5.249   5.157
  654SOL     OW 2860   6.801   5.086   6.019
  654SOL    HW1 2861   6.852   5.029   6.084
  654SOL    HW2 2862   6.744   5.150   6.070
  655SOL     OW 2863   0.854   6.802   1.958
  655SOL    HW1 2864   0.882   6.897   1.976
  655SOL    HW2 2865   0.935   6.743   1.960
  656SOL     OW 2866   2.140   6.086   1.761
  656SOL    HW1 2867   2.160   6.181   1.740
  656SOL    HW2 2868   2.041   6.073   1.766
  657SOL     OW 2869   2.124   1.999   1.714
  657SOL    HW1 2870   2.180   1.961   1.641
  657SOL    HW2 2871   2.038   2.033   1.675
  658SOL     OW 2872   3.384   3.507   6.992
  658SOL    HW1 2873   3.397   3.574   0.048
  658SOL    HW2 2874   3.297   3.460   7.004
  659SOL     OW 2875   2.973   6.395   6.337
  659SOL    HW1 2876   3.005   6.361   6.249
  659SOL    HW2 2877   3.012   6.340   6.411
  660SOL     OW 2878   3.961   5.666   1.895
  660SOL    HW1 2879   3.909   5.721   1.830
  660SOL    HW2 2880   3.953   5.570   1.872
  661SOL     OW 2881   4.319   6.207   3.533
  661SOL    HW1 2882   4.350   6.179   3.624
  661SOL    HW2 2883   4.233   6.162   3.511
  662SOL     OW 2884   3.438   0.707   5.156
  662SOL    HW1 2885   3.523   0.741   5.197
  662SOL    HW2 2886   3.439   0.726   5.058
  663SOL     OW 2887   1.911   3.878   5.377
  663SOL    HW1 2888   1.986   3.842   5.323
  663SOL    HW2 2889   1.824   3.845   5.340
  664SOL     OW 2890   6.799   6.644   6.194
  664SOL    HW1 2891   6.783   6.656   6.096
  664SOL    HW2 2892   6.863   6.713   6.226
  665SOL     OW 2893   3.480   5.250   3.325
  665SOL    HW1 2894   3.426   5.193   3.387
  665SOL    HW2 2895   3.567   5.273   3.368
  666SOL     OW 2896   4.120   0.455   1.854
  666SOL    HW1 2897   4.087   0.437   1.947
  666SOL    HW2 2898   4.200   0.515   1.858
  667SOL     OW 2899   0.694   5.229   1.796
  667SOL    HW1 2900   0.731   5.183   1.876
  667SOL    HW2 2901   0.595   5.220   1.795
  668SOL     OW 2902   5.331   5.768   5.891
  668SOL    HW1 2903   5.387   5.851   5.893
  668SOL    HW2 2904   5.388   5.688   5.911
  669SOL     OW 2905   5.757   0.894   2.843
  669SOL    HW1 2906   5.802   0.950   2.913
  669SOL    HW2 2907   5.671   0.937   2.817
  670SOL     OW 2908   2.456   1.744   2.345
  670SOL    HW1 2909   2.548   1.777   2.362
  670SOL    HW2 2910   2.411   1.802   2.278
  671SOL     OW 2911   3.773   5.721   1.462
  671SOL    HW1 2912   3.764   5.814   1.428
  671SOL    HW2 2913   3.846   5.674   1.413
  672SOL     OW 2914   6.703   5.399   2.045
  672SOL    HW1 2915   6.703   5.498   2.061
  672SOL    HW2 2916   6.773   5.357   2.102
  673SOL     OW 2917   5.452   0.121   1.079
  673SOL    HW1 2918   5.535   0.102   1.027
  673SOL    HW2 2919   5.460   0.083   1.171
  674SOL     OW 2920   0.752   1.872   4.728
  674SOL    HW1 2921   0.818   1.837   4.794
  674SOL    HW2 2922   0.797   1.939   4.669
  675SOL     OW 2923   5.996   2.522   2.302
  675SOL    HW1 2924   6.088   2.561   2.296
  675SOL    HW2 2925   5.959   2.509   2.210
  676SOL     OW 2926   2.368   4.591   4.687
  676SOL    HW1 2927   2.454   4.604   4.637
  676SOL    HW2 2928   2.322   4.678   4.698
  677SOL     OW 2929   5.071   1.142   1.542
  677SOL    HW1 2930   5.146   1.207   1.545
  677SOL    HW2 2931   5.040   1.130   1.448
  678SOL     OW 2932   2.476   4.518   4.912
  678SOL    HW1 2933   2.425   4.537   4.828
  678SOL    HW2 2934   2.568   4.556   4.905
  679SOL     OW 2935   5.338   1.848   4.909
  679SOL    HW1 2936   5.313   1.752   4.919
  679SOL    HW2 2937   5.285   1.904   4.973
  680SOL     OW 2938   4.858   6.308   4.478
  680SOL    HW1 2939   4.804   6.333   4.398
  680SOL    HW2 2940   4.839   6.372   4.553
  681SOL     OW 2941   4.353   5.743   2.056
  681SOL    HW1 2942   4.336   5.671   1.988
  681SOL    HW2 2943   4.303   5.722   2.139
  682SOL     OW 2944   6.578   1.433   1.663
  682SOL    HW1 2945   6.658   1.372   1.667
  682SOL    HW2 2946   6.576   1.478   1.574
  683SOL     OW 2947   4.762   2.991   0.859
  683SOL    HW1 2948   4.691   2.996   0.789
  683SOL    HW2 2949   4.722   3.006   0.949
  684SOL     OW 2950   6.113   0.934   6.832
  684SOL    HW1 2951   6.122   0.873   6.754
  684SOL    HW2 2952   6.037   0.998   6.817
  685SOL     OW 2953   2.929   2.023   3.718
  685SOL    HW1 2954   2.953   1.999   3.812
  685SOL    HW2 2955   3.010   2.056   3.670
  686SOL     OW 2956   4.418   1.346   4.268
  686SOL    HW1 2957   4.414   1.302   4.179
  686SOL    HW2 2958   4.417   1.446   4.256
  687SOL     OW 2959   0.545   1.873   4.533
  687SOL    HW1 2960   0.484   1.808   4.489
  687SOL    HW2 2961   0.622   1.824   4.575
  688SOL     OW 2962   0.019   1.122   6.071
  688SOL    HW1 2963   6.996   1.032   6.059
  688SOL    HW2 2964   7.000   1.186   6.004
  689SOL     OW 2965   2.320   4.177   6.271
  689SOL    HW1 2966   2.331   4.268   6.231
  689SOL    HW2 2967   2.409   4.130   6.271
  690SOL     OW 2968   0.011   4.115   3.540
  690SOL    HW1 2969   0.042   4.025   3.571
  690SOL    HW2 2970   6.981   4.105   3.453
  691SOL     OW 2971   3.381   1.629   0.895
  691SOL    HW1 2972   3.444   1.573   0.949
  691SOL    HW2 2973   3.379   1.596   0.801
  692SOL     OW 2974   3.538   1.421   5.398
  692SOL    HW1 2975   3.485   1.348   5.355
  692SOL    HW2 2976   3.494   1.509   5.381
  693SOL     OW 2977   5.080   6.264   3.825
  693SOL    HW1 2978   4.988   6.227   3.838
  693SOL    HW2 2979   5.074   6.361   3.802
  694SOL     OW 2980   4.223   5.856   4.048
  694SOL    HW1 2981   4.270   5.942   4.065
  694SOL    HW2 2982   4.135   5.856   4.097
  695SOL     OW 2983   3.215   5.615   4.724
  695SOL    HW1 2984   3.284   5.633   4.654
  695SOL    HW2 2985   3.236   5.527   4.768
  696SOL     OW 2986   5.033   4.094   3.464
  696SOL    HW1 2987   4.937   4.066   3.463
  696SOL    HW2 2988   5.046   4.163   3.535
  697SOL     OW 2989   1.285   2.978   2.476
  697SOL    HW1 2990   1.272   2.913   2.400
  697SOL    HW2 2991   1.213   3.047   2.474
  698SOL     OW 2992   4.983   6.193   1.137
  698SOL    HW1 2993   4.995   6.179   1.038
  698SOL    HW2 2994   5.060   6.153   1.186
  699SOL     OW 2995   2.146   3.057   6.579
  699SOL    HW1 2996   2.213   3.130   6.591
  699SOL    HW2 2997   2.054   3.093   6.592
  700SOL     OW 2998   3.332   0.213   2.178
  700SOL    HW1 2999   3.272   0.134   2.162
  700SOL    HW2 3000   3.284   0.297   2.154
  701SOL     OW 3001   6.766   4.604   0.581
  701SOL    HW1 3002   6.717   4.602   0.668
  701SOL    HW2 3003   6.753   4.518   0.533
  702SOL     OW 3004   2.164   0.051   4.416
  702SOL    HW1 3005   2.070   0.079   4.396
  702SOL    HW2 3006   2.217   0.047   4.331
  703SOL     OW 3007   3.100   3.470   5.368
  703SOL    HW1 3008   3.162   3.479   5.291
  703SOL    HW2 3009   3.006   3.466   5.335
  704SOL     OW 3010   2.203   2.492   6.040
  704SOL    HW1 3011   2.293   2.513   6.003
  704SOL    HW2 3012   2.213   2.442   6.126
  705SOL     OW 3013   6.725   6.008   3.276
  705SOL    HW1 3014   6.688   6.008   3.370
  705SOL    HW2 3015   6.666   5.951   3.218
  706SOL     OW 3016   3.977   1.681   5.464
  706SOL    HW1 3017   3.910   1.618   5.428
  706SOL    HW2 3018   4.062   1.674   5.411
  707SOL     OW 3019   3.757   5.632   3.442
  707SOL    HW1 3020   3.658   5.628   3.427
  707SOL    HW2 3021   3.775   5.638   3.540
  708SOL     OW 3022   2.395   2.006   3.685
  708SOL    HW1 3023   2.490   1.979   3.704
  708SOL    HW2 3024   2.336   1.973   3.759
  709SOL     OW 3025   1.160   6.474   1.406
  709SOL    HW1 3026   1.189   6.529   1.484
  709SOL    HW2 3027   1.135   6.534   1.330
  710SOL     OW 3028   5.016   2.575   2.028
  710SOL    HW1 3029   5.005   2.484   1.988
  710SOL    HW2 3030   4.940   2.634   1.998
  711SOL     OW 3031   6.797   2.826   6.369
  711SOL    HW1 3032   6.833   2.748   6.318
  711SOL    HW2 3033   6.710   2.801   6.411
  712SOL     OW 3034   5.065   2.414   0.953
  712SOL    HW1 3035   5.147   2.424   0.898
  712SOL    HW2 3036   5.040   2.317   0.958
  713SOL     OW 3037   4.251   2.719   5.366
  713SOL    HW1 3038   4.214   2.809   5.344
  713SOL    HW2 3039   4.200   2.649   5.316
  714SOL     OW 3040   5.696   5.387   4.029
  714SOL    HW1 3041   5.766   5.316   4.041
  714SOL    HW2 3042   5.617   5.366   4.087
  715SOL     OW 3043   6.637   5.384   5.437
  715SOL    HW1 3044   6.633   5.284   5.443
  715SOL    HW2 3045   6.668   5.421   5.525
  716SOL     OW 3046   1.911   1.216   3.436
  716SOL    HW1 3047   1.876   1.139   3.383
  716SOL    HW2 3048   1.996   1.249   3.393
  717SOL     OW 3049   6.232   4.626   4.061
  717SOL    HW1 3050   6.329   4.611   4.077
  717SOL    HW2 3051   6.218   4.715   4.017
  718SOL     OW 3052   4.727   2.981   4.984
  718SOL    HW1 3053   4.722   2.883   4.963
  718SOL    HW2 3054   4.745   2.993   5.082
  719SOL     OW 3055   5.613   0.466   2.310
  719SOL    HW1 3056   5.688   0.400   2.312
  719SOL    HW2 3057   5.639   0.545   2.254
  720SOL     OW 3058   2.554   0.287   5.959
  720SOL    HW1 3059   2.557   0.338   5.873
  720SOL    HW2 3060   2.505   0.341   6.028
  721SOL     OW 3061   0.936   1.579   2.030
  721SOL    HW1 3062   0.991   1.495   2.032
  721SOL    HW2 3063   0.966   1.636   1.953
  722SOL     OW 3064   3.514   0.660   6.546
  722SOL    HW1 3065   3.530   0.623   6.637
  722SOL    HW2 3066   3.430   0.621   6.509
  723SOL     OW 3067   1.760   6.191   3.742
  723SOL    HW1 3068   1.768   6.124   3.667
  723SOL    HW2 3069   1.703   6.267   3.712
  724SOL     OW 3070   6.924   1.229   3.809
  724SOL    HW1 3071   0.002   1.223   3.785
  724SOL    HW2 3072   6.869   1.195   3.733
  725SOL     OW 3073   2.044   4.372   2.489
  725SOL    HW1 3074   1.980   4.304   2.526
  725SOL    HW2 3075   2.027   4.460   2.534
  726SOL     OW 3076   2.456   4.938   0.859
  726SOL    HW1 3077   2.508   4.856   0.837
  726SOL    HW2 3078   2.363   4.929   0.823
  727SOL     OW 3079   4.886   5.419   6.053
  727SOL    HW1 3080   4.925   5.360   5.982
  727SOL    HW2 3081   4.928   5.510   6.049
  728SOL     OW 3082   6.954   3.054   4.297
  728SOL    HW1 3083   6.907   3.065   4.385
  728SOL    HW2 3084   6.966   2.956   4.278
  729SOL     OW 3085   0.504   2.790   1.468
  729SOL    HW1 3086   0.570   2.728   1.512
  729SOL    HW2 3087   0.516   2.882   1.503
  730SOL     OW 3088   5.545   0.841   3.164
  730SOL    HW1 3089   5.636   0.872   3.189
  730SOL    HW2 3090   5.520   0.761   3.219
  731SOL     OW 3091   4.773   4.571   6.610
  731SOL    HW1 3092   4.725   4.655   6.585
  731SOL    HW2 3093   4.834   4.545   6.536
  732SOL     OW 3094   5.646   2.223   2.427
  732SOL    HW1 3095   5.685   2.165   2.355
  732SOL    HW2 3096   5.639   2.317   2.394
  733SOL     OW 3097   6.004   0.678   4.307
  733SOL    HW1 3098   5.945   0.670   4.227
  733SOL    HW2 3099   6.094   0.711   4.279
  734SOL     OW 3100   6.543   4.604   2.902
  734SOL    HW1 3101   6.505   4.517   2.870
  734SOL    HW2 3102   6.530   4.611   3.001
  735SOL     OW 3103   4.633   0.833   1.485
  735SOL    HW1 3104   4.638   0.765   1.558
  735SOL    HW2 3105   4.637   0.925   1.525
  736SOL     OW 3106   1.183   1.858   3.678
  736SOL    HW1 3107   1.144   1.945   3.709
  736SOL    HW2 3108   1.215   1.869   3.584
  737SOL     OW 3109   5.875   1.538   6.036
  737SOL    HW1 3110   5.951   1.515   6.097
  737SOL    HW2 3111   5.798   1.572   6.091
  738SOL     OW 3112   2.607   4.092   1.437
  738SOL    HW1 3113   2.658   4.111   1.521
  738SOL    HW2 3114   2.666   4.108   1.358
  739SOL     OW 3115   3.685   0.189   5.397
  739SOL    HW1 3116   3.715   0.177   5.302
  739SOL    HW2 3117   3.696   0.285   5.423
  740SOL     OW 3118   5.937   1.935   2.668
  740SOL    HW1 3119   5.906   1.914   2.761
  740SOL    HW2 3120   5.906   1.863   2.606
  741SOL     OW 3121   1.906   1.006   4.951
  741SOL    HW1 3122   1.985   0.993   5.010
  741SOL    HW2 3123   1.926   1.077   4.883
  742SOL     OW 3124   2.261   5.911   1.464
  742SOL    HW1 3125   2.166   5.881   1.463
  742SOL    HW2 3126   2.295   5.916   1.370
  743SOL     OW 3127   0.462   6.248   3.093
  743SOL    HW1 3128   0.397   6.208   3.158
  743SOL    HW2 3129   0.547   6.270   3.141
  744SOL     OW 3130   6.271   0.763   0.196
  744SOL    HW1 3131   6.323   0.830   0.143
  744SOL    HW2 3132   6.285   0.672   0.158
  745SOL     OW 3133   2.225   5.989   5.486
  745SOL    HW1 3134   2.247   5.995   5.389
  745SOL    HW2 3135   2.126   5.998   5.498
  746SOL     OW 3136   6.063   4.168   5.372
  746SOL    HW1 3137   5.995   4.228   5.330
  746SOL    HW2 3138   6.066   4.081   5.323
  747SOL     OW 3139   5.381   5.983   4.233
  747SOL    HW1 3140   5.318   6.062   4.231
  747SOL    HW2 3141   5.337   5.905   4.190
  748SOL     OW 3142   4.936   4.969   2.559
  748SOL    HW1 3143   4.942   5.061   2.519
  748SOL    HW2 3144   4.943   4.901   2.487
  749SOL     OW 3145   5.316   3.767   3.629
  749SOL    HW1 3146   5.396   3.716   3.596
  749SOL    HW2 3147   5.341   3.862   3.642
  750SOL     OW 3148   3.344   0.712   1.104
  750SOL    HW1 3149   3.368   0.661   1.022
  750SOL    HW2 3150   3.296   0.651   1.168
  751SOL     OW 3151   5.242   1.967   1.192
  751SOL    HW1 3152   5.216   1.977   1.288
  751SOL    HW2 3153   5.295   2.047   1.163
  752SOL     OW 3154   3.111   2.539   6.298
  752SOL    HW1 3155   3.046   2.537   6.375
  752SOL    HW2 3156   3.202   2.563   6.332
  753SOL     OW 3157   2.839   3.445   5.295
  753SOL    HW1 3158   2.769   3.517   5.301
  753SOL    HW2 3159   2.822   3.376   5.365
  754SOL     OW 3160   4.711   1.182   0.196
  754SOL    HW1 3161   4.647   1.139   0.260
  754SOL    HW2 3162   4.681   1.165   0.103
  755SOL     OW 3163   2.969   4.241   5.310
  755SOL    HW1 3164   2.903   4.211   5.378
  755SOL    HW2 3165   2.949   4.335   5.284
  756SOL     OW 3166   3.190   4.635   6.909
  756SOL    HW1 3167   3.244   4.632   6.994
  756SOL    HW2 3168   3.108   4.689   6.924
  757SOL     OW 3169   2.353   6.896   2.414
  757SOL    HW1 3170   2.355   6.904   2.315
  757SOL    HW2 3171   2.279   6.953   2.450
  758SOL     OW 3172   3.301   1.022   3.900
  758SOL    HW1 3173   3.283   1.117   3.872
  758SOL    HW2 3174   3.390   0.994   3.865
  759SOL     OW 3175   0.344   2.577   3.011
  759SOL    HW1 3176   0.431   2.597   3.056
  759SOL    HW2 3177   0.269   2.613   3.067
  760SOL     OW 3178   6.346   6.855   3.786
  760SOL    HW1 3179   6.311   6.837   3.879
  760SOL    HW2 3180   6.388   6.945   3.784
  761SOL     OW 3181   5.782   4.707   5.628
  761SOL    HW1 3182   5.771   4.619   5.676
  761SOL    HW2 3183   5.858   4.700   5.564
  762SOL     OW 3184   2.520   6.648   5.921
  762SOL    HW1 3185   2.481   6.732   5.959
  762SOL    HW2 3186   2.523   6.655   5.822
  763SOL     OW 3187   5.039   0.170   6.297
  763SOL    HW1 3188   5.067   0.265   6.286
  763SOL    HW2 3189   5.113   0.119   6.342
  764SOL     OW 3190   6.092   1.513   5.207
  764SOL    HW1 3191   6.112   1.568   5.125
  764SOL    HW2 3192   6.096   1.572   5.288
  765SOL     OW 3193   1.315   6.427   0.650
  765SOL    HW1 3194   1.319   6.476   0.563
  765SOL    HW2 3195   1.314   6.493   0.725
  766SOL     OW 3196   2.659   2.034   5.283
  766SOL    HW1 3197   2.660   1.951   5.338
  766SOL    HW2 3198   2.592   2.098   5.320
  767SOL     OW 3199   6.572   6.606   3.934
  767SOL    HW1 3200   6.519   6.600   3.849
  767SOL    HW2 3201   6.563   6.520   3.985
  768SOL     OW 3202   2.280   6.912   3.208
  768SOL    HW1 3203   2.260   6.975   3.133
  768SOL    HW2 3204   2.260   6.957   3.295
  769SOL     OW 3205   3.841   1.582   5.046
  769SOL    HW1 3206   3.835   1.612   4.950
  769SOL    HW2 3207   3.834   1.661   5.106
  770SOL     OW 3208   2.101   4.495   4.476
  770SOL    HW1 3209   2.005   4.500   4.446
  770SOL    HW2 3210   2.135   4.402   4.463
  771SOL     OW 3211   1.179   5.562   3.364
  771SOL    HW1 3212   1.211   5.621   3.290
  771SOL    HW2 3213   1.247   5.560   3.437
  772SOL     OW 3214   5.530   4.936   6.244
  772SOL    HW1 3215   5.475   4.906   6.322
  772SOL    HW2 3216   5.622   4.898   6.251
  773SOL     OW 3217   1.481   3.734   2.597
  773SOL    HW1 3218   1.452   3.781   2.680
  773SOL    HW2 3219   1.518   3.801   2.532
  774SOL     OW 3220   2.613   1.453   3.337
  774SOL    HW1 3221   2.613   1.503   3.250
  774SOL    HW2 3222   2.700   1.406   3.349
  775SOL     OW 3223   1.918   2.723   4.306
  775SOL    HW1 3224   1.873   2.664   4.372
  775SOL    HW2 3225   1.917   2.680   4.216
  776SOL     OW 3226   6.655   0.231   6.703
  776SOL    HW1 3227   6.587   0.294   6.666
  776SOL    HW2 3228   6.628   0.137   6.682
  777SOL     OW 3229   1.496   3.208   0.938
  777SOL    HW1 3230   1.437   3.179   1.013
  777SOL    HW2 3231   1.561   3.276   0.972
  778SOL     OW 3232   2.779   6.895   1.640
  778SOL    HW1 3233   2.824   6.806   1.627
  778SOL    HW2 3234   2.845   6.960   1.678
  779SOL     OW 3235   0.389   2.601   1.825
  779SOL    HW1 3236   0.315   2.637   1.768
  779SOL    HW2 3237   0.401   2.661   1.905
  780SOL     OW 3238   1.307   2.873   4.431
  780SOL    HW1 3239   1.251   2.851   4.352
  780SOL    HW2 3240   1.398   2.831   4.421
  781SOL     OW 3241   6.457   5.180   6.481
  781SOL    HW1 3242   6.444   5.166   6.579
  781SOL    HW2 3243   6.399   5.256   6.451
  782SOL     OW 3244   2.212   4.199   5.762
  782SOL    HW1 3245   2.227   4.149   5.676
  782SOL    HW2 3246   2.116   4.228   5.767
  783SOL     OW 3247   5.322   5.457   0.370
  783SOL    HW1 3248   5.247   5.518   0.345
  783SOL    HW2 3249   5.318   5.436   0.468
  784SOL     OW 3250   2.691   5.664   2.260
  784SOL    HW1 3251   2.623   5.638   2.191
  784SOL    HW2 3252   2.665   5.752   2.301
  785SOL     OW 3253   0.163   1.112   3.698
  785SOL    HW1 3254   0.111   1.061   3.767
  785SOL    HW2 3255   0.230   1.171   3.744
  786SOL     OW 3256   6.547   0.932   3.236
  786SOL    HW1 3257   6.521   1.027   3.221
  786SOL    HW2 3258   6.504   0.898   3.319
  787SOL     OW 3259   2.362   0.039   0.151
  787SOL    HW1 3260   2.433   0.091   0.199
  787SOL    HW2 3261   2.399   6.970   0.122
  788SOL     OW 3262   3.833   2.988   1.670
  788SOL    HW1 3263   3.917   2.985   1.725
  788SOL    HW2 3264   3.780   2.905   1.685
  789SOL     OW 3265   4.191   5.641   2.245
  789SOL    HW1 3266   4.267   5.647   2.309
  789SOL    HW2 3267   4.195   5.553   2.197
  790SOL     OW 3268   1.717   1.566   1.975
  790SOL    HW1 3269   1.628   1.601   2.007
  790SOL    HW2 3270   1.774   1.643   1.946
  791SOL     OW 3271   2.696   6.488   5.665
  791SOL    HW1 3272   2.714   6.389   5.669
  791SOL    HW2 3273   2.598   6.503   5.671
  792SOL     OW 3274   0.871   1.076   1.168
  792SOL    HW1 3275   0.799   1.040   1.108
  792SOL    HW2 3276   0.891   1.008   1.239
  793SOL     OW 3277   4.679   5.701   4.856
  793SOL    HW1 3278   4.604   5.703   4.790
  793SOL    HW2 3279   4.762   5.668   4.811
  794SOL     OW 3280   3.564   3.468   5.221
  794SOL    HW1 3281   3.624   3.475   5.301
  794SOL    HW2 3282   3.600   3.400   5.158
  795SOL     OW 3283   4.324   0.585   5.870
  795SOL    HW1 3284   4.251   0.649   5.851
  795SOL    HW2 3285   4.298   0.494   5.838
  796SOL     OW 3286   1.830   2.873   6.922
  796SOL    HW1 3287   1.810   2.881   6.825
  796SOL    HW2 3288   1.910   2.929   6.944
  797SOL     OW 3289   3.861   7.000   0.760
  797SOL    HW1 3290   3.943   0.039   0.755
  797SOL    HW2 3291   3.787   0.025   0.710
  798SOL     OW 3292   3.111   5.875   1.342
  798SOL    HW1 3293   3.201   5.917   1.354
  798SOL    HW2 3294   3.048   5.943   1.306
  799SOL     OW 3295   0.050   1.790   6.207
  799SOL    HW1 3296   6.985   1.843   6.221
  799SOL    HW2 3297   0.039   1.700   6.249
  800SOL     OW 3298   6.951   1.578   2.411
  800SOL    HW1 3299   6.874   1.607   2.467
  800SOL    HW2 3300   6.930   1.491   2.367
  801SOL     OW 3301   2.199   4.819   5.345
  801SOL    HW1 3302   2.236   4.726   5.347
  801SOL    HW2 3303   2.104   4.817   5.316
  802SOL     OW 3304   4.422   2.072   6.559
  802SOL    HW1 3305   4.373   2.116   6.484
  802SOL    HW2 3306   4.373   1.989   6.588
  803SOL     OW 3307   2.424   0.066   5.817
  803SOL    HW1 3308   2.488   0.111   5.754
  803SOL    HW2 3309   2.452   0.086   5.911
  804SOL     OW 3310   6.328   6.477   1.642
  804SOL    HW1 3311   6.257   6.538   1.609
  804SOL    HW2 3312   6.371   6.516   1.724
  805SOL     OW 3313   1.939   6.992   3.834
  805SOL    HW1 3314   1.972   6.995   3.740
  805SOL    HW2 3315   2.008   6.950   3.893
  806SOL     OW 3316   0.507   0.411   5.541
  806SOL    HW1 3317   0.420   0.427   5.588
  806SOL    HW2 3318   0.570   0.364   5.603
  807SOL     OW 3319   0.720   0.170   4.420
  807SOL    HW1 3320   0.673   0.085   4.442
  807SOL    HW2 3321   0.803   0.177   4.475
  808SOL     OW 3322   6.049   3.119   0.227
  808SOL    HW1 3323   6.074   3.077   0.314
  808SOL    HW2 3324   5.982   3.192   0.242
  809SOL     OW 3325   0.438   5.267   6.986
  809SOL    HW1 3326   0.396   5.332   6.922
  809SOL    HW2 3327   0.474   5.189   6.935
  810SOL     OW 3328   2.876   3.496   0.817
  810SOL    HW1 3329   2.908   3.584   0.851
  810SOL    HW2 3330   2.926   3.472   0.734
  811SOL     OW 3331   5.582   5.162   4.425
  811SOL    HW1 3332   5.646   5.237   4.407
  811SOL    HW2 3333   5.527   5.185   4.505
  812SOL     OW 3334   0.344   2.336   2.878
  812SOL    HW1 3335   0.346   2.421   2.931
  812SOL    HW2 3336   0.282   2.348   2.800
  813SOL     OW 3337   2.618   0.362   3.986
  813SOL    HW1 3338   2.590   0.400   4.075
  813SOL    HW2 3339   2.614   0.262   3.990
  814SOL     OW 3340   6.466   5.850   2.241
  814SOL    HW1 3341   6.467   5.815   2.335
  814SOL    HW2 3342   6.461   5.950   2.242
  815SOL     OW 3343   4.991   2.962   3.813
  815SOL    HW1 3344   5.015   2.900   3.888
  815SOL    HW2 3345   5.073   3.010   3.782
  816SOL     OW 3346   4.843   4.184   0.467
  816SOL    HW1 3347   4.751   4.146   0.455
  816SOL    HW2 3348   4.845   4.277   0.432
  817SOL     OW 3349   1.277   5.261   1.167
  817SOL    HW1 3350   1.268   5.173   1.122
  817SOL    HW2 3351   1.361   5.306   1.138
  818SOL     OW 3352   5.352   2.785   3.734
  818SOL    HW1 3353   5.415   2.761   3.660
  818SOL    HW2 3354   5.294   2.707   3.755
  819SOL     OW 3355   5.494   3.010   1.717
  819SOL    HW1 3356   5.471   3.105   1.698
  819SOL    HW2 3357   5.426   2.950   1.674
  820SOL     OW 3358   3.070   2.070   4.544
  820SOL    HW1 3359   3.119   2.072   4.632
  820SOL    HW2 3360   2.978   2.107   4.556
  821SOL     OW 3361   5.778   5.025   4.738
  821SOL    HW1 3362   5.806   4.959   4.808
  821SOL    HW2 3363   5.709   4.983   4.679
  822SOL     OW 3364   0.341   4.402   3.390
  822SOL    HW1 3365   0.349   4.483   3.448
  822SOL    HW2 3366   0.296   4.426   3.305
  823SOL     OW 3367   0.021   3.877   5.891
  823SOL    HW1 3368   0.095   3.844   5.950
  823SOL    HW2 3369   0.054   3.884   5.797
  824SOL     OW 3370   5.586   1.351   5.419
  824SOL    HW1 3371   5.685   1.336   5.422
  824SOL    HW2 3372   5.542   1.271   5.379
  825SOL     OW 3373   6.189   5.858   1.068
  825SOL    HW1 3374   6.175   5.836   0.971
  825SOL    HW2 3375   6.227   5.778   1.115
  826SOL     OW 3376   3.748   2.137   6.267
  826SOL    HW1 3377   3.775   2.140   6.171
  826SOL    HW2 3378   3.828   2.156   6.324
  827SOL     OW 3379   3.251   4.253   5.281
  827SOL    HW1 3380   3.167   4.210   5.248
  827SOL    HW2 3381   3.292   4.196   5.352
  828SOL     OW 3382   6.298   5.496   5.095
  828SOL    HW1 3383   6.202   5.487   5.123
  828SOL    HW2 3384   6.318   5.428   5.024
  829SOL     OW 3385   3.385   2.877   2.315
  829SOL    HW1 3386   3.379   2.836   2.407
  829SOL    HW2 3387   3.476   2.914   2.301
  830SOL     OW 3388   6.181   4.895   6.497
  830SOL    HW1 3389   6.103   4.956   6.508
  830SOL    HW2 3390   6.151   4.812   6.449
  831SOL     OW 3391   5.696   6.827   1.258
  831SOL    HW1 3392   5.609   6.831   1.209
  831SOL    HW2 3393   5.741   6.917   1.254
  832SOL     OW 3394   4.442   1.243   4.512
  832SOL    HW1 3395   4.430   1.292   4.426
  832SOL    HW2 3396   4.390   1.157   4.509
  833SOL     OW 3397   1.252   3.957   6.668
  833SOL    HW1 3398   1.295   3.881   6.620
  833SOL    HW2 3399   1.198   3.921   6.745
  834SOL     OW 3400   4.877   3.505   6.980
  834SOL    HW1 3401   4.971   3.473   6.973
  834SOL    HW2 3402   4.871   3.598   6.942
  835SOL     OW 3403   2.088   0.716   5.189
  835SOL    HW1 3404   2.140   0.640   5.151
  835SOL    HW2 3405   2.100   0.798   5.132
  836SOL     OW 3406   3.226   1.527   5.825
  836SOL    HW1 3407   3.186   1.611   5.861
  836SOL    HW2 3408   3.228   1.530   5.725
  837SOL     OW 3409   0.979   0.105   1.697
  837SOL    HW1 3410   1.017   0.110   1.605
  837SOL    HW2 3411   0.896   0.049   1.696
  838SOL     OW 3412   1.859   6.091   4.490
  838SOL    HW1 3413   1.869   6.109   4.392
  838SOL    HW2 3414   1.936   6.037   4.523
  839SOL     OW 3415   2.652   1.551   1.710
  839SOL    HW1 3416   2.597   1.612   1.767
  839SOL    HW2 3417   2.736   1.598   1.681
  840SOL     OW 3418   6.024   5.624   0.264
  840SOL    HW1 3419   5.939   5.630   0.210
  840SOL    HW2 3420   6.020   5.544   0.324
  841SOL     OW 3421   3.962   5.843   5.938
  841SOL    HW1 3422   3.977   5.917   5.873
  841SOL    HW2 3423   3.941   5.759   5.889
  842SOL     OW 3424   3.067   6.187   0.098
  842SOL    HW1 3425   3.123   6.197   0.180
  842SOL    HW2 3426   3.126   6.184   0.018
  843SOL     OW 3427   2.609   2.052   2.248
  843SOL    HW1 3428   2.523   2.005   2.229
  843SOL    HW2 3429   2.621   2.127   2.185
  844SOL     OW 3430   7.018   6.392   1.341
  844SOL    HW1 3431   0.034   6.335   1.415
  844SOL    HW2 3432   0.057   6.382   1.260
  845SOL     OW 3433   4.667   2.178   3.096
  845SOL    HW1 3434   4.670   2.243   3.020
  845SOL    HW2 3435   4.588   2.117   3.085
  846SOL     OW 3436   2.878   1.165   6.333
  846SOL    HW1 3437   2.947   1.106   6.373
  846SOL    HW2 3438   2.799   1.110   6.305
  847SOL     OW 3439   1.962   3.352   1.904
  847SOL    HW1 3440   2.054   3.384   1.927
  847SOL    HW2 3441   1.937   3.276   1.964
  848SOL     OW 3442   6.509   6.918   5.772
  848SOL    HW1 3443   6.458   6.833   5.762
  848SOL    HW2 3444   6.524   6.937   5.869
  849SOL     OW 3445   5.990   3.563   0.202
  849SOL    HW1 3446   5.939   3.479   0.222
  849SOL    HW2 3447   6.037   3.553   0.114
  850SOL     OW 3448   0.712   0.573   4.914
  850SOL    HW1 3449   0.736   0.486   4.957
  850SOL    HW2 3450   0.796   0.625   4.894
  851SOL     OW 3451   6.799   3.325   0.126
  851SOL    HW1 3452   6.706   3.358   0.144
  851SOL    HW2 3453   6.819   3.247   0.185
  852SOL     OW 3454   0.179   5.038   0.575
  852SOL    HW1 3455   0.095   5.091   0.565
  852SOL    HW2 3456   0.256   5.099   0.592
  853SOL     OW 3457   2.509   3.986   6.213
  853SOL    HW1 3458   2.553   3.986   6.302
  853SOL    HW2 3459   2.426   3.931   6.216
  854SOL     OW 3460   5.467   6.670   0.109
  854SOL    HW1 3461   5.510   6.596   0.056
  854SOL    HW2 3462   5.527   6.696   0.184
  855SOL     OW 3463   6.429   0.566   0.066
  855SOL    HW1 3464   6.466   0.478   0.096
  855SOL    HW2 3465   6.398   0.559   6.989
  856SOL     OW 3466   0.984   6.461   5.856
  856SOL    HW1 3467   0.887   6.443   5.875
  856SOL    HW2 3468   1.040   6.406   5.918
  857SOL     OW 3469   0.086   4.947   2.727
  857SOL    HW1 3470   0.043   5.036   2.716
  857SOL    HW2 3471   0.016   4.877   2.744
  858SOL     OW 3472   3.045   3.551   1.234
  858SOL    HW1 3473   3.139   3.519   1.243
  858SOL    HW2 3474   2.998   3.498   1.163
  859SOL     OW 3475   5.044   5.835   5.506
  859SOL    HW1 3476   4.990   5.919   5.509
  859SOL    HW2 3477   4.999   5.765   5.561
  860SOL     OW 3478   5.738   2.772   6.226
  860SOL    HW1 3479   5.675   2.846   6.252
  860SOL    HW2 3480   5.685   2.696   6.189
  861SOL     OW 3481   2.122   5.594   3.084
  861SOL    HW1 3482   2.040   5.650   3.078
  861SOL    HW2 3483   2.175   5.621   3.164
  862SOL     OW 3484   2.034   4.946   3.853
  862SOL    HW1 3485   2.061   5.042   3.846
  862SOL    HW2 3486   2.001   4.914   3.764
  863SOL     OW 3487   5.933   1.133   5.919
  863SOL    HW1 3488   6.015   1.144   5.863
  863SOL    HW2 3489   5.891   1.044   5.899
  864SOL     OW 3490   4.972   7.017   5.171
  864SOL    HW1 3491   4.961   0.097   5.156
  864SOL    HW2 3492   5.008   6.975   5.088
  865SOL     OW 3493   1.821   6.898   5.686
  865SOL    HW1 3494   1.907   6.875   5.640
  865SOL    HW2 3495   1.799   6.994   5.668
  866SOL     OW 3496   3.709   6.515   0.871
  866SOL    HW1 3497   3.663   6.451   0.811
  866SOL    HW2 3498   3.715   6.605   0.827
  867SOL     OW 3499   5.541   3.146   0.362
  867SOL    HW1 3500   5.531   3.243   0.383
  867SOL    HW2 3501   5.492   3.125   0.278
  868SOL     OW 3502   0.147   2.337   2.677
  868SOL    HW1 3503   0.185   2.245   2.680
  868SOL    HW2 3504   0.051   2.332   2.650
  869SOL     OW 3505   6.792   3.744   3.668
  869SOL    HW1 3506   6.843   3.794   3.599
  869SOL    HW2 3507   6.704   3.715   3.630
  870SOL     OW 3508   4.318   4.499   0.957
  870SOL    HW1 3509   4.367   4.585   0.974
  870SOL    HW2 3510   4.370   4.423   0.996
  871SOL     OW 3511   5.105   2.151   4.278
  871SOL    HW1 3512   5.161   2.073   4.304
  871SOL    HW2 3513   5.164   2.232   4.267
  872SOL     OW 3514   0.319   2.359   4.784
  872SOL    HW1 3515   0.280   2.443   4.824
  872SOL    HW2 3516   0.416   2.373   4.764
  873SOL     OW 3517   4.279   6.428   5.645
  873SOL    HW1 3518   4.294   6.364   5.720
  873SOL    HW2 3519   4.217   6.501   5.674
  874SOL     OW 3520   6.030   4.179   6.747
  874SOL    HW1 3521   6.030   4.264   6.800
  874SOL    HW2 3522   5.971   4.112   6.792
  875SOL     OW 3523   5.099   5.862   0.457
  875SOL    HW1 3524   5.053   5.878   0.544
  875SOL    HW2 3525   5.188   5.909   0.457
  876SOL     OW 3526   0.546   5.423   2.243
  876SOL    HW1 3527   0.459   5.387   2.210
  876SOL    HW2 3528   0.569   5.380   2.330
  877SOL     OW 3529   3.506   4.199   6.117
  877SOL    HW1 3530   3.589   4.159   6.157
  877SOL    HW2 3531   3.434   4.130   6.112
  878SOL     OW 3532   5.007   6.906   4.149
  878SOL    HW1 3533   5.055   6.880   4.066
  878SOL    HW2 3534   5.066   6.888   4.228
  879SOL     OW 3535   3.408   0.214   1.264
  879SOL    HW1 3536   3.365   0.294   1.305
  879SOL    HW2 3537   3.355   0.132   1.288
  880SOL     OW 3538   3.968   3.999   4.253
  880SOL    HW1 3539   4.013   3.924   4.302
  880SOL    HW2 3540   3.919   4.056   4.319
  881SOL     OW 3541   4.867   3.179   4.794
  881SOL    HW1 3542   4.869   3.278   4.807
  881SOL    HW2 3543   4.826   3.135   4.874
  882SOL     OW 3544   0.985   3.063   3.861
  882SOL    HW1 3545   1.042   2.981   3.853
  882SOL    HW2 3546   0.984   3.113   3.775
  883SOL     OW 3547   3.569   0.869   1.174
  883SOL    HW1 3548   3.642   0.807   1.204
  883SOL    HW2 3549   3.484   0.819   1.164
  884SOL     OW 3550   5.365   3.595   5.927
  884SOL    HW1 3551   5.292   3.527   5.919
  884SOL    HW2 3552   5.330   3.685   5.898
  885SOL     OW 3553   3.621   1.303   5.117
  885SOL    HW1 3554   3.581   1.218   5.153
  885SOL    HW2 3555   3.720   1.294   5.112
  886SOL     OW 3556   3.882   0.158   0.126
  886SOL    HW1 3557   3.848   0.225   0.192
  886SOL    HW2 3558   3.981   0.170   0.115
  887SOL     OW 3559   4.018   6.593   3.604
  887SOL    HW1 3560   4.077   6.568   3.528
  887SOL    HW2 3561   3.924   6.604   3.572
  888SOL     OW 3562   6.914   6.434   3.348
  888SOL    HW1 3563   6.948   6.342   3.367
  888SOL    HW2 3564   6.944   6.463   3.257
  889SOL     OW 3565   6.931   3.701   0.885
  889SOL    HW1 3566   6.998   3.669   0.818
  889SOL    HW2 3567   6.974   3.707   0.975
  890SOL     OW 3568   1.148   5.702   2.859
  890SOL    HW1 3569   1.230   5.705   2.918
  890SOL    HW2 3570   1.119   5.795   2.839
  891SOL     OW 3571   5.903   4.977   0.354
  891SOL    HW1 3572   5.930   4.962   0.449
  891SOL    HW2 3573   5.826   4.918   0.330
  892SOL     OW 3574   2.530   4.001   5.570
  892SOL    HW1 3575   2.435   4.023   5.547
  892SOL    HW2 3576   2.572   3.950   5.494
  893SOL     OW 3577   2.198   6.316   2.759
  893SOL    HW1 3578   2.243   6.229   2.741
  893SOL    HW2 3579   2.268   6.387   2.771
  894SOL     OW 3580   0.693   2.939   2.115
  894SOL    HW1 3581   0.684   2.846   2.080
  894SOL    HW2 3582   0.789   2.965   2.116
  895SOL     OW 3583   0.348   4.615   3.828
  895SOL    HW1 3584   0.344   4.713   3.809
  895SOL    HW2 3585   0.293   4.595   3.909
  896SOL     OW 3586   5.387   4.954   0.798
  896SOL    HW1 3587   5.381   5.013   0.879
  896SOL    HW2 3588   5.473   4.973   0.750
  897SOL     OW 3589   3.861   1.312   6.784
  897SOL    HW1 3590   3.828   1.399   6.821
  897SOL    HW2 3591   3.833   1.238   6.844
  898SOL     OW 3592   3.074   6.359   3.007
  898SOL    HW1 3593   3.024   6.273   3.017
  898SOL    HW2 3594   3.169   6.340   2.985
  899SOL     OW 3595   0.144   6.464   0.034
  899SOL    HW1 3596   0.102   6.395   6.994
  899SOL    HW2 3597   0.084   6.544   0.038
  900SOL     OW 3598   5.669   6.767   0.639
  900SOL    HW1 3599   5.619   6.716   0.708
  900SOL    HW2 3600   5.768   6.758   0.655
  901SOL     OW 3601   2.472   6.603   2.966
  901SOL    HW1 3602   2.566   6.574   2.982
  901SOL    HW2 3603   2.433   6.639   3.050
  902SOL     OW 3604   0.706   2.426   0.679
  902SOL    HW1 3605   0.770   2.349   0.686
  902SOL    HW2 3606   0.675   2.452   0.770
  903SOL     OW 3607   0.017   2.250   6.992
  903SOL    HW1 3608   0.031   2.152   7.006
  903SOL    HW2 3609   0.010   2.296   0.062
  904SOL     OW 3610   2.428   2.106   2.899
  904SOL    HW1 3611   2.348   2.100   2.840
  904SOL    HW2 3612   2.511   2.108   2.843
  905SOL     OW 3613   5.014   1.839   6.987
  905SOL    HW1 3614   4.919   1.861   6.963
  905SOL    HW2 3615   5.018   1.747   0.009
  906SOL     OW 3616   6.778   1.861   6.245
  906SOL    HW1 3617   6.811   1.949   6.278
  906SOL    HW2 3618   6.710   1.824   6.309
  907SOL     OW 3619   5.321   3.299   0.584
  907SOL    HW1 3620   5.411   3.291   0.627
  907SOL    HW2 3621   5.257   3.236   0.628
  908SOL     OW 3622   2.422   4.448   2.313
  908SOL    HW1 3623   2.472   4.501   2.244
  908SOL    HW2 3624   2.454   4.474   2.404
  909SOL     OW 3625   4.525   5.682   0.936
  909SOL    HW1 3626   4.585   5.757   0.965
  909SOL    HW2 3627   4.431   5.701   0.962
  910SOL     OW 3628   2.860   1.950   0.831
  910SOL    HW1 3629   2.789   1.888   0.798
  910SOL    HW2 3630   2.855   2.037   0.781
  911SOL     OW 3631   0.806   6.312   6.464
  911SOL    HW1 3632   0.722   6.305   6.517
  911SOL    HW2 3633   0.794   6.377   6.389
  912SOL     OW 3634   6.245   1.977   2.993
  912SOL    HW1 3635   6.308   1.902   3.009
  912SOL    HW2 3636   6.275   2.031   2.914
  913SOL     OW 3637   4.520   6.697   3.087
  913SOL    HW1 3638   4.461   6.618   3.106
  913SOL    HW2 3639   4.488   6.776   3.140
  914SOL     OW 3640   2.576   6.888   6.422
  914SOL    HW1 3641   2.507   6.917   6.489
  914SOL    HW2 3642   2.589   6.961   6.355
  915SOL     OW 3643   6.189   4.440   6.588
  915SOL    HW1 3644   6.153   4.534   6.592
  915SOL    HW2 3645   6.115   4.376   6.609
  916SOL     OW 3646   1.938   2.694   1.811
  916SOL    HW1 3647   1.917   2.789   1.790
  916SOL    HW2 3648   1.854   2.644   1.834
  917SOL     OW 3649   0.321   6.543   0.710
  917SOL    HW1 3650   0.389   6.522   0.639
  917SOL    HW2 3651   0.334   6.482   0.788
  918SOL     OW 3652   3.167   0.378   0.501
  918SOL    HW1 3653   3.229   0.349   0.428
  918SOL    HW2 3654   3.074   0.350   0.479
  919SOL     OW 3655   5.457   1.707   2.821
  919SOL    HW1 3656   5.405   1.652   2.756
  919SOL    HW2 3657   5.411   1.705   2.910
  920SOL     OW 3658   2.626   3.877   1.653
  920SOL    HW1 3659   2.586   3.846   1.566
  920SOL    HW2 3660   2.572   3.953   1.688
  921SOL     OW 3661   4.892   6.028   4.136
  921SOL    HW1 3662   4.963   6.003   4.202
  921SOL    HW2 3663   4.916   6.114   4.092
  922SOL     OW 3664   4.105   3.765   4.640
  922SOL    HW1 3665   4.009   3.777   4.662
  922SOL    HW2 3666   4.116   3.756   4.540
  923SOL     OW 3667   2.563   3.200   6.831
  923SOL    HW1 3668   2.471   3.203   6.792
  923SOL    HW2 3669   2.561   3.235   6.925
  924SOL     OW 3670   5.963   4.316   1.604
  924SOL    HW1 3671   5.913   4.396   1.575
  924SOL    HW2 3672   5.936   4.237   1.548
  925SOL     OW 3673   0.086   2.710   7.014
  925SOL    HW1 3674   0.129   2.655   6.942
  925SOL    HW2 3675   0.124   2.803   7.011
  926SOL     OW 3676   7.006   0.659   1.085
  926SOL    HW1 3677   7.004   0.612   1.173
  926SOL    HW2 3678   6.931   0.626   1.028
  927SOL     OW 3679   5.408   3.895   3.977
  927SOL    HW1 3680   5.317   3.853   3.989
  927SOL    HW2 3681   5.470   3.828   3.938
  928SOL     OW 3682   2.563   5.522   0.680
  928SOL    HW1 3683   2.593   5.614   0.657
  928SOL    HW2 3684   2.476   5.502   0.634
  929SOL     OW 3685   0.023   0.808   0.023
  929SOL    HW1 3686   0.015   0.893   0.075
  929SOL    HW2 3687   6.980   0.740   0.060
  930SOL     OW 3688   5.011   5.678   6.433
  930SOL    HW1 3689   4.919   5.703   6.401
  930SOL    HW2 3690   5.064   5.761   6.449
  931SOL     OW 3691   6.707   1.577   4.796
  931SOL    HW1 3692   6.650   1.514   4.849
  931SOL    HW2 3693   6.697   1.557   4.699
  932SOL     OW 3694   2.594   1.612   3.092
  932SOL    HW1 3695   2.523   1.655   3.148
  932SOL    HW2 3696   2.632   1.680   3.029
  933SOL     OW 3697   1.385   5.727   2.981
  933SOL    HW1 3698   1.429   5.781   2.909
  933SOL    HW2 3699   1.455   5.681   3.035
  934SOL     OW 3700   2.697   5.641   5.854
  934SOL    HW1 3701   2.729   5.727   5.894
  934SOL    HW2 3702   2.602   5.625   5.881
  935SOL     OW 3703   5.014   4.359   3.954
  935SOL    HW1 3704   4.925   4.341   3.911
  935SOL    HW2 3705   5.033   4.289   4.023
  936SOL     OW 3706   1.063   6.475   6.267
  936SOL    HW1 3707   1.071   6.573   6.286
  936SOL    HW2 3708   1.147   6.443   6.221
  937SOL     OW 3709   5.392   1.867   5.607
  937SOL    HW1 3710   5.464   1.802   5.630
  937SOL    HW2 3711   5.414   1.956   5.647
  938SOL     OW 3712   6.346   5.717   4.360
  938SOL    HW1 3713   6.289   5.673   4.429
  938SOL    HW2 3714   6.419   5.655   4.332
  939SOL     OW 3715   0.264   0.049   4.076
  939SOL    HW1 3716   0.343   7.007   4.083
  939SOL    HW2 3717   0.283   0.123   4.012
  940SOL     OW 3718   0.427   4.008   0.551
  940SOL    HW1 3719   0.433   4.017   0.451
  940SOL    HW2 3720   0.518   4.018   0.590
  941SOL     OW 3721   5.106   0.479   6.450
  941SOL    HW1 3722   5.110   0.397   6.508
  941SOL    HW2 3723   5.041   0.463   6.376
  942SOL     OW 3724   6.133   6.647   1.556
  942SOL    HW1 3725   6.108   6.688   1.643
  942SOL    HW2 3726   6.057   6.658   1.491
  943SOL     OW 3727   1.698   4.934   2.515
  943SOL    HW1 3728   1.681   4.838   2.535
  943SOL    HW2 3729   1.757   4.942   2.435
  944SOL     OW 3730   0.659   5.321   4.849
  944SOL    HW1 3731   0.608   5.407   4.845
  944SOL    HW2 3732   0.751   5.335   4.813
  945SOL     OW 3733   0.384   4.685   5.335
  945SOL    HW1 3734   0.324   4.620   5.382
  945SOL    HW2 3735   0.450   4.635   5.279
  946SOL     OW 3736   4.644   4.760   4.261
  946SOL    HW1 3737   4.574   4.713   4.206
  946SOL    HW2 3738   4.599   4.824   4.324
  947SOL     OW 3739   3.614   3.223   3.857
  947SOL    HW1 3740   3.639   3.301   3.800
  947SOL    HW2 3741   3.653   3.234   3.948
  948SOL     OW 3742   4.682   1.275   2.576
  948SOL    HW1 3743   4.703   1.239   2.667
  948SOL    HW2 3744   4.655   1.371   2.584
  949SOL     OW 3745   3.061   5.910   0.398
  949SOL    HW1 3746   3.028   5.927   0.305
  949SOL    HW2 3747   2.986   5.919   0.463
  950SOL     OW 3748   5.631   5.692   2.435
  950SOL    HW1 3749   5.544   5.649   2.459
  950SOL    HW2 3750   5.687   5.703   2.517
  951SOL     OW 3751   1.209   0.291   3.705
  951SOL    HW1 3752   1.234   0.282   3.802
  951SOL    HW2 3753   1.202   0.388   3.682
  952SOL     OW 3754   4.194   2.163   2.899
  952SOL    HW1 3755   4.225   2.207   2.814
  952SOL    HW2 3756   4.219   2.220   2.977
  953SOL     OW 3757   5.927   6.081   4.882
  953SOL    HW1 3758   6.024   6.100   4.873
  953SOL    HW2 3759   5.911   6.025   4.964
  954SOL     OW 3760   3.936   6.103   2.459
  954SOL    HW1 3761   3.863   6.123   2.526
  954SOL    HW2 3762   3.927   6.164   2.381
  955SOL     OW 3763   1.868   4.595   0.133
  955SOL    HW1 3764   1.825   4.655   0.065
  955SOL    HW2 3765   1.798   4.538   0.175
  956SOL     OW 3766   6.675   0.501   1.506
  956SOL    HW1 3767   6.717   0.508   1.597
  956SOL    HW2 3768   6.600   0.566   1.499
  957SOL     OW 3769   6.210   1.462   1.853
  957SOL    HW1 3770   6.211   1.374   1.902
  957SOL    HW2 3771   6.304   1.496   1.844
  958SOL     OW 3772   4.411   6.036   1.956
  958SOL    HW1 3773   4.348   5.975   2.005
  958SOL    HW2 3774   4.431   6.115   2.013
  959SOL     OW 3775   3.350   6.606   4.504
  959SOL    HW1 3776   3.424   6.658   4.460
  959SOL    HW2 3777   3.388   6.554   4.581
  960SOL     OW 3778   1.554   0.445   0.879
  960SOL    HW1 3779   1.497   0.404   0.951
  960SOL    HW2 3780   1.563   0.380   0.804
  961SOL     OW 3781   4.063   6.755   3.296
  961SOL    HW1 3782   4.097   6.775   3.204
  961SOL    HW2 3783   3.965   6.772   3.299
  962SOL     OW 3784   6.438   1.265   4.052
  962SOL    HW1 3785   6.501   1.335   4.087
  962SOL    HW2 3786   6.463   1.241   3.958
  963SOL     OW 3787   4.406   1.196   0.727
  963SOL    HW1 3788   4.447   1.248   0.652
  963SOL    HW2 3789   4.477   1.171   0.793
  964SOL     OW 3790   4.667   5.204   5.618
  964SOL    HW1 3791   4.632   5.184   5.710
  964SOL    HW2 3792   4.658   5.301   5.599
  965SOL     OW 3793   6.237   1.712   2.070
  965SOL    HW1 3794   6.148   1.724   2.027
  965SOL    HW2 3795   6.262   1.615   2.069
  966SOL     OW 3796   5.020   2.525   3.467
  966SOL    HW1 3797   5.052   2.463   3.539
  966SOL    HW2 3798   5.014   2.618   3.503
  967SOL     OW 3799   2.746   5.332   0.117
  967SOL    HW1 3800   2.824   5.391   0.098
  967SOL    HW2 3801   2.700   5.310   0.031
  968SOL     OW 3802   3.961   6.618   1.619
  968SOL    HW1 3803   3.969   6.639   1.521
  968SOL    HW2 3804   3.866   6.628   1.647
  969SOL     OW 3805   2.352   5.436   5.306
  969SOL    HW1 3806   2.344   5.443   5.207
  969SOL    HW2 3807   2.381   5.343   5.331
  970SOL     OW 3808   5.586   0.858   5.991
  970SOL    HW1 3809   5.517   0.788   5.975
  970SOL    HW2 3810   5.542   0.941   6.026
  971SOL     OW 3811   6.976   3.211   2.668
  971SOL    HW1 3812   6.930   3.124   2.649
  971SOL    HW2 3813   0.038   3.195   2.725
  972SOL     OW 3814   6.977   2.573   1.968
  972SOL    HW1 3815   6.905   2.509   1.939
  972SOL    HW2 3816   6.937   2.643   2.027
  973SOL     OW 3817   0.340   4.887   6.370
  973SOL    HW1 3818   0.306   4.830   6.445
  973SOL    HW2 3819   0.273   4.888   6.296
  974SOL     OW 3820   0.833   5.399   2.417
  974SOL    HW1 3821   0.747   5.352   2.437
  974SOL    HW2 3822   0.849   5.471   2.484
  975SOL     OW 3823   2.691   6.923   0.433
  975SOL    HW1 3824   2.592   6.937   0.442
  975SOL    HW2 3825   2.721   6.856   0.501
  976SOL     OW 3826   6.935   3.717   1.205
  976SOL    HW1 3827   6.911   3.813   1.218
  976SOL    HW2 3828   6.852   3.661   1.216
  977SOL     OW 3829   0.419   0.903   2.232
  977SOL    HW1 3830   0.500   0.961   2.246
  977SOL    HW2 3831   0.338   0.960   2.220
  978SOL     OW 3832   5.727   1.689   1.166
  978SOL    HW1 3833   5.643   1.639   1.187
  978SOL    HW2 3834   5.804   1.625   1.164
  979SOL     OW 3835   0.683   2.871   6.256
  979SOL    HW1 3836   0.593   2.900   6.225
  979SOL    HW2 3837   0.743   2.950   6.263
  980SOL     OW 3838   4.254   1.028   4.488
  980SOL    HW1 3839   4.177   0.980   4.528
  980SOL    HW2 3840   4.231   1.058   4.396
  981SOL     OW 3841   0.908   6.997   5.222
  981SOL    HW1 3842   0.938   0.057   5.167
  981SOL    HW2 3843   0.932   6.913   5.174
  982SOL     OW 3844   0.814   1.548   5.534
  982SOL    HW1 3845   0.737   1.508   5.583
  982SOL    HW2 3846   0.781   1.623   5.477
  983SOL     OW 3847   0.119   3.433   3.013
  983SOL    HW1 3848   0.132   3.513   2.954
  983SOL    HW2 3849   0.106   3.352   2.956
  984SOL     OW 3850   1.546   2.065   2.725
  984SOL    HW1 3851   1.470   2.128   2.710
  984SOL    HW2 3852   1.616   2.110   2.781
  985SOL     OW 3853   6.721   4.130   4.527
  985SOL    HW1 3854   6.654   4.057   4.514
  985SOL    HW2 3855   6.798   4.117   4.465
  986SOL     OW 3856   4.605   5.145   1.206
  986SOL    HW1 3857   4.696   5.177   1.181
  986SOL    HW2 3858   4.541   5.221   1.205
  987SOL     OW 3859   5.519   6.589   2.844
  987SOL    HW1 3860   5.609   6.566   2.880
  987SOL    HW2 3861   5.476   6.658   2.903
  988SOL     OW 3862   3.254   3.855   2.381
  988SOL    HW1 3863   3.161   3.819   2.386
  988SOL    HW2 3864   3.252   3.947   2.341
  989SOL     OW 3865   6.626   2.097   0.428
  989SOL    HW1 3866   6.640   2.186   0.471
  989SOL    HW2 3867   6.592   2.111   0.335
  990SOL     OW 3868   3.717   7.014   2.752
  990SOL    HW1 3869   3.739   6.986   2.846
  990SOL    HW2 3870   3.644   0.064   2.753
  991SOL     OW 3871   6.713   4.460   3.437
  991SOL    HW1 3872   6.754   4.520   3.369
  991SOL    HW2 3873   6.642   4.403   3.394
  992SOL     OW 3874   1.033   3.199   1.319
  992SOL    HW1 3875   0.944   3.166   1.289
  992SOL    HW2 3876   1.075   3.255   1.247
  993SOL     OW 3877   0.743   4.072   1.044
  993SOL    HW1 3878   0.835   4.050   1.011
  993SOL    HW2 3879   0.679   4.000   1.016
  994SOL     OW 3880   3.393   5.216   0.884
  994SOL    HW1 3881   3.421   5.311   0.896
  994SOL    HW2 3882   3.370   5.177   0.973
  995SOL     OW 3883   4.289   2.995   5.548
  995SOL    HW1 3884   4.387   2.989   5.529
  995SOL    HW2 3885   4.238   2.992   5.462
  996SOL     OW 3886   3.710   5.261   5.106
  996SOL    HW1 3887   3.652   5.180   5.098
  996SOL    HW2 3888   3.653   5.342   5.112
  997SOL     OW 3889   1.195   6.902   3.640
  997SOL    HW1 3890   1.272   6.917   3.577
  997SOL    HW2 3891   1.129   6.976   3.630
  998SOL     OW 3892   6.690   0.408   6.420
  998SOL    HW1 3893   6.776   0.444   6.457
  998SOL    HW2 3894   6.664   0.460   6.339
  999SOL     OW 3895   5.066   3.931   1.484
  999SOL    HW1 3896   5.022   3.949   1.572
  999SOL    HW2 3897   5.160   3.966   1.486
 1000SOL     OW 3898   4.120   1.197   1.730
 1000SOL    HW1 3899   4.035   1.180   1.780
 1000SOL    HW2 3900   4.123   1.292   1.700
 1001SOL     OW 3901   3.217   5.887   2.261
 1001SOL    HW1 3902   3.208   5.885   2.361
 1001SOL    HW2 3903   3.141   5.939   2.221
 1002SOL     OW 3904   5.543   2.095   1.472
 1002SOL    HW1 3905   5.604   2.092   1.393
 1002SOL    HW2 3906   5.466   2.155   1.452
 1003SOL     OW 3907   1.828   5.878   2.609
 1003SOL    HW1 3908   1.902   5.812   2.614
 1003SOL    HW2 3909   1.825   5.919   2.518
 1004SOL     OW 3910   6.424   1.001   2.627
 1004SOL    HW1 3911   6.511   1.030   2.587
 1004SOL    HW2 3912   6.357   0.987   2.554
 1005SOL     OW 3913   1.811   4.704   4.049
 1005SOL    HW1 3914   1.836   4.685   3.954
 1005SOL    HW2 3915   1.796   4.803   4.060
 1006SOL     OW 3916   2.031   3.705   0.155
 1006SOL    HW1 3917   2.095   3.739   0.223
 1006SOL    HW2 3918   2.013   3.776   0.087
 1007SOL     OW 3919   4.277   1.444   6.457
 1007SOL    HW1 3920   4.316   1.536   6.467
 1007SOL    HW2 3921   4.209   1.428   6.529
 1008SOL     OW 3922   0.184   3.766   5.023
 1008SOL    HW1 3923   0.166   3.670   4.998
 1008SOL    HW2 3924   0.259   3.769   5.089
 1009SOL     OW 3925   6.156   4.690   5.315
 1009SOL    HW1 3926   6.204   4.652   5.394
 1009SOL    HW2 3927   6.200   4.659   5.231
 1010SOL     OW 3928   2.857   2.350   1.418
 1010SOL    HW1 3929   2.831   2.446   1.413
 1010SOL    HW2 3930   2.787   2.294   1.374
 1011SOL     OW 3931   0.254   5.707   3.197
 1011SOL    HW1 3932   0.303   5.794   3.200
 1011SOL    HW2 3933   0.307   5.637   3.245
 1012SOL     OW 3934   6.808   6.923   2.564
 1012SOL    HW1 3935   6.888   6.982   2.577
 1012SOL    HW2 3936   6.833   6.829   2.587
 1013SOL     OW 3937   6.817   1.237   6.396
 1013SOL    HW1 3938   6.771   1.294   6.327
 1013SOL    HW2 3939   6.806   1.140   6.372
 1014SOL     OW 3940   0.864   3.919   4.812
 1014SOL    HW1 3941   0.950   3.885   4.850
 1014SOL    HW2 3942   0.874   4.015   4.786
 1015SOL     OW 3943   2.725   0.699   6.517
 1015SOL    HW1 3944   2.798   0.632   6.532
 1015SOL    HW2 3945   2.752   0.764   6.446
 1016SOL     OW 3946   4.600   4.830   1.207
 1016SOL    HW1 3947   4.586   4.925   1.235
 1016SOL    HW2 3948   4.697   4.807   1.212
 1017SOL     OW 3949   2.904   1.641   1.625
 1017SOL    HW1 3950   2.927   1.708   1.696
 1017SOL    HW2 3951   2.924   1.679   1.535
 1018SOL     OW 3952   7.012   4.508   3.361
 1018SOL    HW1 3953   0.029   4.449   3.435
 1018SOL    HW2 3954   0.003   4.604   3.388
 1019SOL     OW 3955   6.697   4.975   0.067
 1019SOL    HW1 3956   6.742   4.933   7.007
 1019SOL    HW2 3957   6.738   4.942   0.152
 1020SOL     OW 3958   6.299   0.849   1.127
 1020SOL    HW1 3959   6.370   0.912   1.096
 1020SOL    HW2 3960   6.232   0.899   1.182
 1021SOL     OW 3961   6.475   6.124   2.527
 1021SOL    HW1 3962   6.450   6.041   2.576
 1021SOL    HW2 3963   6.538   6.178   2.584
 1022SOL     OW 3964   2.430   5.660   5.991
 1022SOL    HW1 3965   2.394   5.733   5.934
 1022SOL    HW2 3966   2.394   5.670   6.084
 1023SOL     OW 3967   0.066   0.410   2.643
 1023SOL    HW1 3968   0.065   0.333   2.706
 1023SOL    HW2 3969   0.161   0.442   2.631
 1024SOL     OW 3970   0.731   1.685   4.212
 1024SOL    HW1 3971   0.635   1.675   4.237
 1024SOL    HW2 3972   0.746   1.777   4.175
 1025SOL     OW 3973   4.861   2.896   0.501
 1025SOL    HW1 3974   4.898   2.989   0.497
 1025SOL    HW2 3975   4.898   2.849   0.581
 1026SOL     OW 3976   2.867   2.703   1.726
 1026SOL    HW1 3977   2.903   2.619   1.768
 1026SOL    HW2 3978   2.941   2.753   1.682
 1027SOL     OW 3979   1.659   6.856   1.545
 1027SOL    HW1 3980   1.689   6.892   1.634
 1027SOL    HW2 3981   1.740   6.832   1.491
 1028SOL     OW 3982   1.577   6.731   3.109
 1028SOL    HW1 3983   1.673   6.701   3.113
 1028SOL    HW2 3984   1.548   6.762   3.199
 1029SOL     OW 3985   1.393   2.150   6.314
 1029SOL    HW1 3986   1.384   2.149   6.214
 1029SOL    HW2 3987   1.463   2.217   6.340
 1030SOL     OW 3988   3.486   3.011   1.627
 1030SOL    HW1 3989   3.479   2.913   1.609
 1030SOL    HW2 3990   3.496   3.027   1.725
 1031SOL     OW 3991   4.298   3.128   1.327
 1031SOL    HW1 3992   4.396   3.112   1.321
 1031SOL    HW2 3993   4.278   3.188   1.404
 1032SOL     OW 3994   2.304   1.264   5.107
 1032SOL    HW1 3995   2.292   1.340   5.171
 1032SOL    HW2 3996   2.383   1.210   5.134
 1033SOL     OW 3997   1.894   6.014   2.360
 1033SOL    HW1 3998   1.879   5.944   2.290
 1033SOL    HW2 3999   1.844   6.097   2.337
 1034SOL     OW 4000   1.705   6.512   4.431
 1034SOL    HW1 4001   1.731   6.550   4.519
 1034SOL    HW2 4002   1.782   6.517   4.367
 1035SOL     OW 4003   0.412   2.222   5.890
 1035SOL    HW1 4004   0.374   2.304   5.848
 1035SOL    HW2 4005   0.374   2.141   5.846
 1036SOL     OW 4006   4.157   0.927   1.417
 1036SOL    HW1 4007   4.145   1.025   1.399
 1036SOL    HW2 4008   4.109   0.903   1.502
 1037SOL     OW 4009   1.211   1.649   3.025
 1037SOL    HW1 4010   1.240   1.651   2.929
 1037SOL    HW2 4011   1.287   1.619   3.082
 1038SOL     OW 4012   1.512   1.105   6.390
 1038SOL    HW1 4013   1.494   1.070   6.298
 1038SOL    HW2 4014   1.450   1.181   6.409
 1039SOL     OW 4015   3.063   3.116   4.061
 1039SOL    HW1 4016   3.041   3.094   4.156
 1039SOL    HW2 4017   3.159   3.096   4.043
 1040SOL     OW 4018   5.115   0.992   2.836
 1040SOL    HW1 4019   5.146   1.083   2.864
 1040SOL    HW2 4020   5.154   0.969   2.747
 1041SOL     OW 4021   6.899   0.096   3.715
 1041SOL    HW1 4022   6.888   0.004   3.680
 1041SOL    HW2 4023   6.830   0.156   3.674
 1042SOL     OW 4024   4.713   4.938   3.002
 1042SOL    HW1 4025   4.622   4.929   2.961
 1042SOL    HW2 4026   4.773   4.987   2.938
 1043SOL     OW 4027   4.092   2.293   3.503
 1043SOL    HW1 4028   4.051   2.257   3.419
 1043SOL    HW2 4029   4.046   2.378   3.528
 1044SOL     OW 4030   6.128   5.486   1.702
 1044SOL    HW1 4031   6.212   5.446   1.664
 1044SOL    HW2 4032   6.152   5.562   1.762
 1045SOL     OW 4033   3.339   0.098   3.125
 1045SOL    HW1 4034   3.298   0.187   3.142
 1045SOL    HW2 4035   3.271   0.039   3.081
 1046SOL     OW 4036   2.342   1.179   0.874
 1046SOL    HW1 4037   2.411   1.247   0.897
 1046SOL    HW2 4038   2.383   1.088   0.875
 1047SOL     OW 4039   3.364   0.410   4.101
 1047SOL    HW1 4040   3.411   0.323   4.083
 1047SOL    HW2 4041   3.345   0.456   4.015
 1048SOL     OW 4042   3.126   5.174   2.657
 1048SOL    HW1 4043   3.169   5.085   2.640
 1048SOL    HW2 4044   3.184   5.246   2.621
 1049SOL     OW 4045   5.087   0.009   3.548
 1049SOL    HW1 4046   5.030   6.945   3.561
 1049SOL    HW2 4047   5.050   0.064   3.474
 1050SOL     OW 4048   3.821   5.542   2.801
 1050SOL    HW1 4049   3.883   5.570   2.875
 1050SOL    HW2 4050   3.795   5.622   2.748
 1051SOL     OW 4051   0.199   6.061   0.275
 1051SOL    HW1 4052   0.195   6.161   0.270
 1051SOL    HW2 4053   0.186   6.032   0.370
 1052SOL     OW 4054   4.987   1.039   5.126
 1052SOL    HW1 4055   5.011   1.135   5.141
 1052SOL    HW2 4056   5.003   0.987   5.210
 1053SOL     OW 4057   5.690   3.988   2.610
 1053SOL    HW1 4058   5.617   3.998   2.543
 1053SOL    HW2 4059   5.776   3.970   2.563
 1054SOL     OW 4060   3.078   3.192   1.065
 1054SOL    HW1 4061   3.038   3.100   1.073
 1054SOL    HW2 4062   3.004   3.260   1.061
 1055SOL     OW 4063   4.869   6.525   6.585
 1055SOL    HW1 4064   4.837   6.576   6.665
 1055SOL    HW2 4065   4.868   6.427   6.606
 1056SOL     OW 4066   0.748   4.067   0.670
 1056SOL    HW1 4067   0.810   4.145   0.661
 1056SOL    HW2 4068   0.762   4.023   0.758
 1057SOL     OW 4069   3.741   2.148   1.669
 1057SOL    HW1 4070   3.701   2.178   1.582
 1057SOL    HW2 4071   3.713   2.210   1.742
 1058SOL     OW 4072   4.559   2.594   3.294
 1058SOL    HW1 4073   4.641   2.571   3.242
 1058SOL    HW2 4074   4.576   2.676   3.349
 1059SOL     OW 4075   2.177   6.566   2.004
 1059SOL    HW1 4076   2.143   6.645   2.056
 1059SOL    HW2 4077   2.274   6.552   2.024
 1060SOL     OW 4078   0.296   5.012   4.181
 1060SOL    HW1 4079   0.291   4.954   4.262
 1060SOL    HW2 4080   0.341   5.098   4.204
 1061SOL     OW 4081   6.604   3.597   6.977
 1061SOL    HW1 4082   6.696   3.633   6.994
 1061SOL    HW2 4083   6.538   3.671   6.980
 1062SOL     OW 4084   4.105   6.143   5.324
 1062SOL    HW1 4085   4.056   6.187   5.400
 1062SOL    HW2 4086   4.048   6.144   5.242
 1063SOL     OW 4087   0.008   6.875   6.896
 1063SOL    HW1 4088   7.018   6.972   6.916
 1063SOL    HW2 4089   0.096   6.857   6.852
 1064SOL     OW 4090   0.308   4.415   1.700
 1064SOL    HW1 4091   0.265   4.326   1.717
 1064SOL    HW2 4092   0.406   4.409   1.718
 1065SOL     OW 4093   3.311   0.532   3.854
 1065SOL    HW1 4094   3.219   0.570   3.857
 1065SOL    HW2 4095   3.373   0.597   3.809
 1066SOL     OW 4096   4.494   6.904   2.141
 1066SOL    HW1 4097   4.584   6.893   2.101
 1066SOL    HW2 4098   4.426   6.920   2.069
 1067SOL     OW 4099   2.094   0.791   0.040
 1067SOL    HW1 4100   2.031   0.858   0.080
 1067SOL    HW2 4101   2.046   0.704   0.027
 1068SOL     OW 4102   5.795   3.896   0.971
 1068SOL    HW1 4103   5.807   3.841   1.053
 1068SOL    HW2 4104   5.884   3.918   0.932
 1069SOL     OW 4105   5.376   5.416   0.960
 1069SOL    HW1 4106   5.459   5.416   1.016
 1069SOL    HW2 4107   5.305   5.470   1.005
 1070SOL     OW 4108   2.432   6.863   2.113
 1070SOL    HW1 4109   2.484   6.881   2.030
 1070SOL    HW2 4110   2.475   6.789   2.164
 1071SOL     OW 4111   0.942   2.035   4.610
 1071SOL    HW1 4112   0.991   2.117   4.641
 1071SOL    HW2 4113   0.911   2.049   4.515
 1072SOL     OW 4114   2.168   0.760   1.836
 1072SOL    HW1 4115   2.122   0.720   1.916
 1072SOL    HW2 4116   2.122   0.846   1.811
 1073SOL     OW 4117   5.518   2.136   3.144
 1073SOL    HW1 4118   5.570   2.055   3.118
 1073SOL    HW2 4119   5.450   2.156   3.074
 1074SOL     OW 4120   2.566   4.976   1.708
 1074SOL    HW1 4121   2.489   4.938   1.656
 1074SOL    HW2 4122   2.530   5.030   1.784
 1075SOL     OW 4123   6.175   1.561   4.145
 1075SOL    HW1 4124   6.207   1.655   4.156
 1075SOL    HW2 4125   6.200   1.507   4.226
 1076SOL     OW 4126   1.532   3.095   5.968
 1076SOL    HW1 4127   1.587   3.013   5.984
 1076SOL    HW2 4128   1.496   3.093   5.875
 1077SOL     OW 4129   0.014   6.690   0.088
 1077SOL    HW1 4130   0.100   6.707   0.136
 1077SOL    HW2 4131   0.004   6.755   0.013
 1078SOL     OW 4132   6.426   0.501   3.084
 1078SOL    HW1 4133   6.487   0.447   3.141
 1078SOL    HW2 4134   6.436   0.472   2.988
 1079SOL     OW 4135   1.460   5.479   1.850
 1079SOL    HW1 4136   1.466   5.579   1.842
 1079SOL    HW2 4137   1.373   5.447   1.813
 1080SOL     OW 4138   2.308   5.781   4.922
 1080SOL    HW1 4139   2.297   5.850   4.851
 1080SOL    HW2 4140   2.397   5.736   4.912
 1081SOL     OW 4141   6.825   5.669   4.383
 1081SOL    HW1 4142   6.867   5.600   4.443
 1081SOL    HW2 4143   6.893   5.703   4.319
 1082SOL     OW 4144   6.159   1.954   5.800
 1082SOL    HW1 4145   6.196   2.044   5.820
 1082SOL    HW2 4146   6.117   1.954   5.709
 1083SOL     OW 4147   4.786   3.236   0.391
 1083SOL    HW1 4148   4.699   3.191   0.367
 1083SOL    HW2 4149   4.767   3.327   0.428
 1084SOL     OW 4150   6.803   6.810   6.680
 1084SOL    HW1 4151   6.896   6.823   6.715
 1084SOL    HW2 4152   6.741   6.794   6.756
 1085SOL     OW 4153   2.118   3.596   3.536
 1085SOL    HW1 4154   2.050   3.623   3.467
 1085SOL    HW2 4155   2.136   3.672   3.597
 1086SOL     OW 4156   6.372   5.452   6.363
 1086SOL    HW1 4157   6.411   5.443   6.271
 1086SOL    HW2 4158   6.390   5.543   6.399
 1087SOL     OW 4159   0.892   1.337   5.354
 1087SOL    HW1 4160   0.851   1.352   5.264
 1087SOL    HW2 4161   0.870   1.415   5.413
 1088SOL     OW 4162   0.257   5.170   3.277
 1088SOL    HW1 4163   0.171   5.159   3.325
 1088SOL    HW2 4164   0.333   5.156   3.340
 1089SOL     OW 4165   0.912   5.461   4.923
 1089SOL    HW1 4166   0.995   5.456   4.978
 1089SOL    HW2 4167   0.833   5.440   4.980
 1090SOL     OW 4168   5.061   2.116   3.026
 1090SOL    HW1 4169   5.092   2.168   3.105
 1090SOL    HW2 4170   5.007   2.175   2.966
 1091SOL     OW 4171   1.938   3.687   3.375
 1091SOL    HW1 4172   1.839   3.674   3.371
 1091SOL    HW2 4173   1.959   3.785   3.374
 1092SOL     OW 4174   0.454   5.294   0.586
 1092SOL    HW1 4175   0.506   5.372   0.620
 1092SOL    HW2 4176   0.383   5.326   0.523
 1093SOL     OW 4177   2.769   6.550   1.767
 1093SOL    HW1 4178   2.672   6.540   1.745
 1093SOL    HW2 4179   2.824   6.502   1.699
 1094SOL     OW 4180   0.501   6.948   2.568
 1094SOL    HW1 4181   0.596   6.936   2.598
 1094SOL    HW2 4182   0.492   6.917   2.473
 1095SOL     OW 4183   0.467   2.303   6.679
 1095SOL    HW1 4184   0.462   2.324   6.582
 1095SOL    HW2 4185   0.375   2.285   6.714
 1096SOL     OW 4186   3.133   4.385   1.146
 1096SOL    HW1 4187   3.056   4.385   1.083
 1096SOL    HW2 4188   3.212   4.427   1.103
 1097SOL     OW 4189   1.670   5.567   2.907
 1097SOL    HW1 4190   1.686   5.486   2.852
 1097SOL    HW2 4191   1.636   5.641   2.849
 1098SOL     OW 4192   5.953   4.242   6.313
 1098SOL    HW1 4193   5.971   4.200   6.224
 1098SOL    HW2 4194   5.976   4.177   6.386
 1099SOL     OW 4195   4.661   1.325   6.906
 1099SOL    HW1 4196   4.562   1.333   6.894
 1099SOL    HW2 4197   4.705   1.411   6.881
 1100SOL     OW 4198   3.835   0.715   3.891
 1100SOL    HW1 4199   3.890   0.798   3.889
 1100SOL    HW2 4200   3.751   0.732   3.942
 1101SOL     OW 4201   5.490   3.967   5.046
 1101SOL    HW1 4202   5.392   3.989   5.052
 1101SOL    HW2 4203   5.504   3.900   4.973
 1102SOL     OW 4204   2.653   1.214   4.547
 1102SOL    HW1 4205   2.700   1.264   4.474
 1102SOL    HW2 4206   2.577   1.162   4.507
 1103SOL     OW 4207   2.502   1.286   0.150
 1103SOL    HW1 4208   2.557   1.283   0.234
 1103SOL    HW2 4209   2.423   1.227   0.160
 1104SOL     OW 4210   1.543   4.222   3.399
 1104SOL    HW1 4211   1.593   4.293   3.448
 1104SOL    HW2 4212   1.588   4.134   3.413
 1105SOL     OW 4213   4.784   2.929   4.668
 1105SOL    HW1 4214   4.729   2.874   4.730
 1105SOL    HW2 4215   4.806   3.016   4.711
 1106SOL     OW 4216   0.479   1.111   0.849
 1106SOL    HW1 4217   0.426   1.039   0.806
 1106SOL    HW2 4218   0.471   1.195   0.795
 1107SOL     OW 4219   0.955   0.598   0.267
 1107SOL    HW1 4220   0.999   0.667   0.209
 1107SOL    HW2 4221   0.990   0.507   0.245
 1108SOL     OW 4222   4.017   6.242   4.865
 1108SOL    HW1 4223   4.090   6.180   4.836
 1108SOL    HW2 4224   3.937   6.228   4.806
 1109SOL     OW 4225   5.694   1.616   4.266
 1109SOL    HW1 4226   5.669   1.600   4.362
 1109SOL    HW2 4227   5.619   1.588   4.207
 1110SOL     OW 4228   3.463   0.449   3.492
 1110SOL    HW1 4229   3.467   0.411   3.584
 1110SOL    HW2 4230   3.517   0.533   3.488
 1111SOL     OW 4231   5.678   4.002   6.302
 1111SOL    HW1 4232   5.664   4.086   6.250
 1111SOL    HW2 4233   5.724   3.935   6.245
 1112SOL     OW 4234   6.705   0.567   3.318
 1112SOL    HW1 4235   6.644   0.578   3.397
 1112SOL    HW2 4236   6.797   0.595   3.343
 1113SOL     OW 4237   6.217   4.506   1.462
 1113SOL    HW1 4238   6.189   4.415   1.434
 1113SOL    HW2 4239   6.219   4.511   1.562
 1114SOL     OW 4240   3.452   2.526   6.009
 1114SOL    HW1 4241   3.502   2.451   6.053
 1114SOL    HW2 4242   3.354   2.508   6.016
 1115SOL     OW 4243   4.305   4.034   5.378
 1115SOL    HW1 4244   4.363   3.953   5.381
 1115SOL    HW2 4245   4.229   4.024   5.441
 1116SOL     OW 4246   5.443   0.288   6.831
 1116SOL    HW1 4247   5.440   0.324   6.924
 1116SOL    HW2 4248   5.398   0.198   6.829
 1117SOL     OW 4249   0.889   2.046   1.628
 1117SOL    HW1 4250   0.794   2.025   1.607
 1117SOL    HW2 4251   0.926   2.108   1.558
 1118SOL     OW 4252   2.360   5.073   6.970
 1118SOL    HW1 4253   2.270   5.068   7.013
 1118SOL    HW2 4254   2.354   5.037   6.877
 1119SOL     OW 4255   4.397   4.519   1.773
 1119SOL    HW1 4256   4.368   4.523   1.677
 1119SOL    HW2 4257   4.405   4.424   1.802
 1120SOL     OW 4258   6.042   6.061   1.207
 1120SOL    HW1 4259   6.092   6.147   1.210
 1120SOL    HW2 4260   6.103   5.988   1.176
 1121SOL     OW 4261   0.576   4.572   5.197
 1121SOL    HW1 4262   0.617   4.615   5.116
 1121SOL    HW2 4263   0.617   4.481   5.210
 1122SOL     OW 4264   6.395   3.048   2.003
 1122SOL    HW1 4265   6.460   2.979   1.971
 1122SOL    HW2 4266   6.365   3.026   2.095
 1123SOL     OW 4267   4.466   2.539   3.735
 1123SOL    HW1 4268   4.380   2.589   3.746
 1123SOL    HW2 4269   4.468   2.461   3.797
 1124SOL     OW 4270   0.934   3.510   5.895
 1124SOL    HW1 4271   0.883   3.546   5.817
 1124SOL    HW2 4272   1.030   3.536   5.886
 1125SOL     OW 4273   1.607   2.865   4.642
 1125SOL    HW1 4274   1.551   2.888   4.722
 1125SOL    HW2 4275   1.698   2.836   4.672
 1126SOL     OW 4276   4.800   6.042   5.365
 1126SOL    HW1 4277   4.819   5.962   5.309
 1126SOL    HW2 4278   4.832   6.125   5.319
 1127SOL     OW 4279   5.301   6.827   4.829
 1127SOL    HW1 4280   5.379   6.850   4.887
 1127SOL    HW2 4281   5.333   6.790   4.742
 1128SOL     OW 4282   5.857   1.854   5.063
 1128SOL    HW1 4283   5.820   1.857   5.155
 1128SOL    HW2 4284   5.809   1.784   5.010
 1129SOL     OW 4285   1.961   6.926   0.511
 1129SOL    HW1 4286   1.992   6.955   0.420
 1129SOL    HW2 4287   1.868   6.888   0.504
 1130SOL     OW 4288   1.589   5.293   1.688
 1130SOL    HW1 4289   1.529   5.371   1.707
 1130SOL    HW2 4290   1.533   5.211   1.675
 1131SOL     OW 4291   1.787   0.739   4.970
 1131SOL    HW1 4292   1.847   0.813   4.939
 1131SOL    HW2 4293   1.717   0.721   4.900
 1132SOL     OW 4294   4.387   0.245   2.709
 1132SOL    HW1 4295   4.420   0.311   2.642
 1132SOL    HW2 4296   4.287   0.247   2.713
 1133SOL     OW 4297   0.706   0.454   0.426
 1133SOL    HW1 4298   0.741   0.547   0.440
 1133SOL    HW2 4299   0.776   0.399   0.382
 1134SOL     OW 4300   5.582   0.249   2.008
 1134SOL    HW1 4301   5.609   0.304   2.087
 1134SOL    HW2 4302   5.488   0.270   1.983
 1135SOL     OW 4303   2.409   6.808   3.830
 1135SOL    HW1 4304   2.487   6.757   3.866
 1135SOL    HW2 4305   2.443   6.889   3.781
 1136SOL     OW 4306   3.524   5.106   2.924
 1136SOL    HW1 4307   3.494   5.019   2.886
 1136SOL    HW2 4308   3.516   5.102   3.024
 1137SOL     OW 4309   0.537   6.353   6.651
 1137SOL    HW1 4310   0.537   6.424   6.581
 1137SOL    HW2 4311   0.479   6.381   6.728
 1138SOL     OW 4312   1.416   2.448   4.735
 1138SOL    HW1 4313   1.368   2.384   4.795
 1138SOL    HW2 4314   1.407   2.541   4.771
 1139SOL     OW 4315   2.511   4.566   3.903
 1139SOL    HW1 4316   2.544   4.497   3.839
 1139SOL    HW2 4317   2.530   4.536   3.997
 1140SOL     OW 4318   2.450   0.292   2.709
 1140SOL    HW1 4319   2.432   0.196   2.730
 1140SOL    HW2 4320   2.444   0.307   2.611
 1141SOL     OW 4321   6.408   5.721   6.406
 1141SOL    HW1 4322   6.388   5.763   6.318
 1141SOL    HW2 4323   6.326   5.724   6.464
 1142SOL     OW 4324   2.662   0.072   3.513
 1142SOL    HW1 4325   2.616   0.087   3.425
 1142SOL    HW2 4326   2.729   0.144   3.529
 1143SOL     OW 4327   1.582   2.678   2.392
 1143SOL    HW1 4328   1.555   2.760   2.443
 1143SOL    HW2 4329   1.575   2.598   2.452
 1144SOL     OW 4330   5.465   4.604   2.331
 1144SOL    HW1 4331   5.464   4.540   2.255
 1144SOL    HW2 4332   5.559   4.631   2.351
 1145SOL     OW 4333   1.312   2.595   0.492
 1145SOL    HW1 4334   1.237   2.659   0.474
 1145SOL    HW2 4335   1.325   2.588   0.591
 1146SOL     OW 4336   0.634   2.041   1.574
 1146SOL    HW1 4337   0.568   2.013   1.643
 1146SOL    HW2 4338   0.619   2.136   1.549
 1147SOL     OW 4339   3.177   5.477   0.615
 1147SOL    HW1 4340   3.271   5.449   0.592
 1147SOL    HW2 4341   3.117   5.459   0.538
 1148SOL     OW 4342   3.912   6.005   1.436
 1148SOL    HW1 4343   3.862   6.074   1.384
 1148SOL    HW2 4344   3.932   6.041   1.527
 1149SOL     OW 4345   5.881   3.073   1.394
 1149SOL    HW1 4346   5.948   3.011   1.352
 1149SOL    HW2 4347   5.811   3.020   1.441
 1150SOL     OW 4348   0.709   4.003   0.118
 1150SOL    HW1 4349   0.757   4.050   0.192
 1150SOL    HW2 4350   0.672   3.917   0.151
 1151SOL     OW 4351   6.174   4.917   4.724
 1151SOL    HW1 4352   6.255   4.885   4.773
 1151SOL    HW2 4353   6.105   4.844   4.722
 1152SOL     OW 4354   4.581   6.296   6.612
 1152SOL    HW1 4355   4.533   6.255   6.690
 1152SOL    HW2 4356   4.514   6.342   6.552
 1153SOL     OW 4357   6.747   0.002   1.325
 1153SOL    HW1 4358   6.678   0.036   1.390
 1153SOL    HW2 4359   6.714   0.016   1.232
 1154SOL     OW 4360   0.753   4.415   1.036
 1154SOL    HW1 4361   0.730   4.335   1.091
 1154SOL    HW2 4362   0.754   4.390   0.939
 1155SOL     OW 4363   2.071   6.336   5.630
 1155SOL    HW1 4364   2.126   6.335   5.713
 1155SOL    HW2 4365   2.121   6.383   5.557
 1156SOL     OW 4366   4.416   1.718   4.972
 1156SOL    HW1 4367   4.394   1.725   4.874
 1156SOL    HW2 4368   4.374   1.636   5.009
 1157SOL     OW 4369   5.298   1.026   5.753
 1157SOL    HW1 4370   5.377   1.086   5.767
 1157SOL    HW2 4371   5.283   0.971   5.835
 1158SOL     OW 4372   6.402   6.085   4.342
 1158SOL    HW1 4373   6.320   6.126   4.303
 1158SOL    HW2 4374   6.435   6.141   4.418
 1159SOL     OW 4375   5.961   6.838   3.255
 1159SOL    HW1 4376   5.991   6.844   3.160
 1159SOL    HW2 4377   5.966   6.928   3.298
 1160SOL     OW 4378   4.009   5.413   1.800
 1160SOL    HW1 4379   4.062   5.334   1.832
 1160SOL    HW2 4380   3.936   5.381   1.740
 1161SOL     OW 4381   6.808   5.409   6.296
 1161SOL    HW1 4382   6.892   5.462   6.312
 1161SOL    HW2 4383   6.778   5.370   6.383
 1162SOL     OW 4384   2.489   2.751   5.737
 1162SOL    HW1 4385   2.566   2.723   5.679
 1162SOL    HW2 4386   2.523   2.770   5.829
 1163SOL     OW 4387   5.988   4.609   1.991
 1163SOL    HW1 4388   6.002   4.696   1.944
 1163SOL    HW2 4389   5.910   4.616   2.053
 1164SOL     OW 4390   5.363   2.577   5.122
 1164SOL    HW1 4391   5.438   2.578   5.056
 1164SOL    HW2 4392   5.291   2.639   5.092
 1165SOL     OW 4393   4.101   6.102   3.386
 1165SOL    HW1 4394   4.104   6.201   3.371
 1165SOL    HW2 4395   4.169   6.057   3.328
 1166SOL     OW 4396   2.306   5.427   6.850
 1166SOL    HW1 4397   2.239   5.378   6.906
 1166SOL    HW2 4398   2.310   5.386   6.759
 1167SOL     OW 4399   5.092   4.667   1.454
 1167SOL    HW1 4400   5.147   4.598   1.408
 1167SOL    HW2 4401   5.083   4.748   1.395
 1168SOL     OW 4402   6.294   2.536   1.753
 1168SOL    HW1 4403   6.260   2.506   1.842
 1168SOL    HW2 4404   6.326   2.457   1.701
 1169SOL     OW 4405   5.097   1.538   5.154
 1169SOL    HW1 4406   5.054   1.481   5.224
 1169SOL    HW2 4407   5.184   1.573   5.188
 1170SOL     OW 4408   5.110   0.123   3.117
 1170SOL    HW1 4409   5.056   0.118   3.032
 1170SOL    HW2 4410   5.170   0.203   3.113
 1171SOL     OW 4411   2.692   6.957   0.084
 1171SOL    HW1 4412   2.685   0.007   0.157
 1171SOL    HW2 4413   2.634   6.879   0.106
 1172SOL     OW 4414   5.075   4.049   0.967
 1172SOL    HW1 4415   5.036   4.113   0.900
 1172SOL    HW2 4416   5.056   4.081   1.059
 1173SOL     OW 4417   2.585   1.385   1.500
 1173SOL    HW1 4418   2.613   1.451   1.570
 1173SOL    HW2 4419   2.653   1.312   1.494
 1174SOL     OW 4420   3.580   3.999   2.049
 1174SOL    HW1 4421   3.662   3.964   2.095
 1174SOL    HW2 4422   3.501   3.986   2.109
 1175SOL     OW 4423   4.704   3.612   6.056
 1175SOL    HW1 4424   4.731   3.529   6.107
 1175SOL    HW2 4425   4.725   3.693   6.111
 1176SOL     OW 4426   5.301   3.708   6.579
 1176SOL    HW1 4427   5.382   3.751   6.541
 1176SOL    HW2 4428   5.244   3.777   6.624
 1177SOL     OW 4429   6.956   3.769   4.805
 1177SOL    HW1 4430   0.028   3.811   4.794
 1177SOL    HW2 4431   6.888   3.841   4.822
 1178SOL     OW 4432   2.527   3.476   0.531
 1178SOL    HW1 4433   2.560   3.400   0.586
 1178SOL    HW2 4434   2.432   3.497   0.557
 1179SOL     OW 4435   2.886   5.567   0.469
 1179SOL    HW1 4436   2.793   5.559   0.433
 1179SOL    HW2 4437   2.884   5.554   0.568
 1180SOL     OW 4438   2.904   5.924   3.250
 1180SOL    HW1 4439   2.896   5.983   3.330
 1180SOL    HW2 4440   2.817   5.875   3.236
 1181SOL     OW 4441   0.287   5.386   5.979
 1181SOL    HW1 4442   0.267   5.484   5.987
 1181SOL    HW2 4443   0.223   5.334   6.034
 1182SOL     OW 4444   4.016   5.117   3.536
 1182SOL    HW1 4445   4.017   5.198   3.594
 1182SOL    HW2 4446   4.096   5.118   3.476
 1183SOL     OW 4447   2.208   3.818   6.850
 1183SOL    HW1 4448   2.240   3.911   6.867
 1183SOL    HW2 4449   2.109   3.819   6.834
 1184SOL     OW 4450   0.175   1.093   4.856
 1184SOL    HW1 4451   0.116   1.166   4.893
 1184SOL    HW2 4452   0.128   1.047   4.781
 1185SOL     OW 4453   0.357   1.211   0.497
 1185SOL    HW1 4454   0.365   1.111   0.501
 1185SOL    HW2 4455   0.269   1.235   0.456
 1186SOL     OW 4456   5.704   6.391   5.480
 1186SOL    HW1 4457   5.641   6.314   5.470
 1186SOL    HW2 4458   5.708   6.443   5.395
 1187SOL     OW 4459   5.973   6.475   6.974
 1187SOL    HW1 4460   6.053   6.415   6.969
 1187SOL    HW2 4461   5.972   6.522   0.043
 1188SOL     OW 4462   3.730   5.908   5.381
 1188SOL    HW1 4463   3.686   5.825   5.416
 1188SOL    HW2 4464   3.689   5.988   5.424
 1189SOL     OW 4465   6.454   2.358   2.336
 1189SOL    HW1 4466   6.500   2.270   2.332
 1189SOL    HW2 4467   6.518   2.430   2.309
 1190SOL     OW 4468   2.777   5.661   4.081
 1190SOL    HW1 4469   2.809   5.670   4.175
 1190SOL    HW2 4470   2.679   5.676   4.077
 1191SOL     OW 4471   4.702   5.068   3.925
 1191SOL    HW1 4472   4.687   5.057   3.826
 1191SOL    HW2 4473   4.799   5.083   3.942
 1192SOL     OW 4474   3.942   5.555   3.065
 1192SOL    HW1 4475   3.876   5.496   3.111
 1192SOL    HW2 4476   4.023   5.566   3.123
 1193SOL     OW 4477   6.467   3.297   5.086
 1193SOL    HW1 4478   6.394   3.356   5.052
 1193SOL    HW2 4479   6.553   3.348   5.090
 1194SOL     OW 4480   5.555   0.111   1.761
 1194SOL    HW1 4481   5.535   0.133   1.665
 1194SOL    HW2 4482   5.591   0.192   1.807
 1195SOL     OW 4483   6.697   4.367   0.436
 1195SOL    HW1 4484   6.740   4.344   0.348
 1195SOL    HW2 4485   6.606   4.405   0.420
 1196SOL     OW 4486   0.033   5.807   3.024
 1196SOL    HW1 4487   0.077   5.869   2.959
 1196SOL    HW2 4488   0.089   5.799   3.106
 1197SOL     OW 4489   4.430   0.744   5.365
 1197SOL    HW1 4490   4.413   0.793   5.451
 1197SOL    HW2 4491   4.452   0.809   5.293
 1198SOL     OW 4492   1.151   2.803   2.303
 1198SOL    HW1 4493   1.157   2.703   2.297
 1198SOL    HW2 4494   1.175   2.843   2.215
 1199SOL     OW 4495   4.042   4.497   1.493
 1199SOL    HW1 4496   4.000   4.420   1.446
 1199SOL    HW2 4497   3.986   4.523   1.572
 1200SOL     OW 4498   3.116   3.411   4.157
 1200SOL    HW1 4499   3.058   3.456   4.224
 1200SOL    HW2 4500   3.085   3.316   4.144
 1201SOL     OW 4501   1.138   0.811   4.325
 1201SOL    HW1 4502   1.132   0.770   4.234
 1201SOL    HW2 4503   1.121   0.741   4.394
 1202SOL     OW 4504   0.563   5.656   5.859
 1202SOL    HW1 4505   0.535   5.669   5.954
 1202SOL    HW2 4506   0.652   5.700   5.844
 1203SOL     OW 4507   5.959   6.507   0.642
 1203SOL    HW1 4508   5.979   6.592   0.691
 1203SOL    HW2 4509   5.868   6.474   0.668
 1204SOL     OW 4510   3.292   6.090   1.514
 1204SOL    HW1 4511   3.221   6.159   1.525
 1204SOL    HW2 4512   3.367   6.127   1.460
 1205SOL     OW 4513   4.967   3.815   1.263
 1205SOL    HW1 4514   5.028   3.758   1.208
 1205SOL    HW2 4515   5.012   3.838   1.349
 1206SOL     OW 4516   2.902   2.666   5.361
 1206SOL    HW1 4517   2.960   2.741   5.329
 1206SOL    HW2 4518   2.862   2.691   5.449
 1207SOL     OW 4519   1.839   6.026   1.520
 1207SOL    HW1 4520   1.903   5.952   1.498
 1207SOL    HW2 4521   1.884   6.093   1.578
 1208SOL     OW 4522   3.263   3.556   0.937
 1208SOL    HW1 4523   3.291   3.502   1.017
 1208SOL    HW2 4524   3.281   3.653   0.955
 1209SOL     OW 4525   4.823   1.422   4.737
 1209SOL    HW1 4526   4.914   1.464   4.728
 1209SOL    HW2 4527   4.809   1.395   4.833
 1210SOL     OW 4528   2.917   0.579   3.710
 1210SOL    HW1 4529   2.942   0.501   3.768
 1210SOL    HW2 4530   2.964   0.571   3.622
 1211SOL     OW 4531   0.675   3.578   2.178
 1211SOL    HW1 4532   0.726   3.564   2.093
 1211SOL    HW2 4533   0.651   3.490   2.217
 1212SOL     OW 4534   6.247   0.291   6.705
 1212SOL    HW1 4535   6.333   0.338   6.684
 1212SOL    HW2 4536   6.260   0.228   6.781
 1213SOL     OW 4537   6.783   1.988   0.693
 1213SOL    HW1 4538   6.762   1.902   0.738
 1213SOL    HW2 4539   6.817   2.054   0.760
 1214SOL     OW 4540   0.573   2.502   6.870
 1214SOL    HW1 4541   0.515   2.528   6.793
 1214SOL    HW2 4542   0.628   2.423   6.845
 1215SOL     OW 4543   1.365   4.401   3.763
 1215SOL    HW1 4544   1.376   4.467   3.689
 1215SOL    HW2 4545   1.386   4.309   3.730
 1216SOL     OW 4546   5.054   0.920   1.136
 1216SOL    HW1 4547   5.140   0.896   1.090
 1216SOL    HW2 4548   4.978   0.879   1.087
 1217SOL     OW 4549   1.664   4.591   0.629
 1217SOL    HW1 4550   1.730   4.665   0.620
 1217SOL    HW2 4551   1.592   4.602   0.560
 1218SOL     OW 4552   2.211   4.106   4.238
 1218SOL    HW1 4553   2.206   4.045   4.159
 1218SOL    HW2 4554   2.129   4.096   4.294
 1219SOL     OW 4555   5.670   6.358   1.475
 1219SOL    HW1 4556   5.733   6.300   1.425
 1219SOL    HW2 4557   5.629   6.306   1.550
 1220SOL     OW 4558   1.042   5.057   3.375
 1220SOL    HW1 4559   1.032   5.154   3.353
 1220SOL    HW2 4560   1.003   5.040   3.466
 1221SOL     OW 4561   5.602   3.188   6.111
 1221SOL    HW1 4562   5.574   3.175   6.016
 1221SOL    HW2 4563   5.665   3.266   6.116
 1222SOL     OW 4564   6.160   0.055   6.490
 1222SOL    HW1 4565   6.152   0.107   6.575
 1222SOL    HW2 4566   6.105   6.990   6.496
 1223SOL     OW 4567   3.984   0.460   0.932
 1223SOL    HW1 4568   3.948   0.460   1.025
 1223SOL    HW2 4569   3.972   0.551   0.892
 1224SOL     OW 4570   2.875   5.998   0.174
 1224SOL    HW1 4571   2.786   6.027   0.208
 1224SOL    HW2 4572   2.924   6.077   0.137
 1225SOL     OW 4573   3.649   3.785   6.538
 1225SOL    HW1 4574   3.610   3.871   6.570
 1225SOL    HW2 4575   3.655   3.721   6.615
 1226SOL     OW 4576   2.566   5.321   0.891
 1226SOL    HW1 4577   2.580   5.390   0.821
 1226SOL    HW2 4578   2.532   5.364   0.975
 1227SOL     OW 4579   6.067   3.865   0.039
 1227SOL    HW1 4580   6.097   3.903   0.127
 1227SOL    HW2 4581   6.024   3.938   7.003
 1228SOL     OW 4582   4.580   3.004   0.009
 1228SOL    HW1 4583   4.619   3.095   7.010
 1228SOL    HW2 4584   4.483   3.014   0.032
 1229SOL     OW 4585   3.779   5.256   6.089
 1229SOL    HW1 4586   3.858   5.202   6.060
 1229SOL    HW2 4587   3.732   5.208   6.163
 1230SOL     OW 4588   4.919   0.381   3.465
 1230SOL    HW1 4589   4.941   0.432   3.549
 1230SOL    HW2 4590   5.001   0.333   3.433
 1231SOL     OW 4591   1.322   3.653   4.311
 1231SOL    HW1 4592   1.289   3.731   4.259
 1231SOL    HW2 4593   1.308   3.670   4.409
 1232SOL     OW 4594   0.766   2.363   6.285
 1232SOL    HW1 4595   0.737   2.344   6.191
 1232SOL    HW2 4596   0.789   2.460   6.293
 1233SOL     OW 4597   1.014   3.239   4.059
 1233SOL    HW1 4598   0.998   3.173   3.986
 1233SOL    HW2 4599   1.093   3.211   4.114
 1234SOL     OW 4600   6.159   4.283   4.725
 1234SOL    HW1 4601   6.095   4.217   4.685
 1234SOL    HW2 4602   6.238   4.235   4.762
 1235SOL     OW 4603   0.143   5.654   2.678
 1235SOL    HW1 4604   0.218   5.662   2.744
 1235SOL    HW2 4605   0.062   5.618   2.724
 1236SOL     OW 4606   5.144   1.317   0.410
 1236SOL    HW1 4607   5.187   1.318   0.319
 1236SOL    HW2 4608   5.163   1.403   0.457
 1237SOL     OW 4609   2.650   5.044   5.747
 1237SOL    HW1 4610   2.585   5.080   5.680
 1237SOL    HW2 4611   2.617   4.958   5.784
 1238SOL     OW 4612   2.204   0.726   0.584
 1238SOL    HW1 4613   2.131   0.671   0.545
 1238SOL    HW2 4614   2.270   0.750   0.513
 1239SOL     OW 4615   6.966   6.846   6.454
 1239SOL    HW1 4616   0.036   6.827   6.496
 1239SOL    HW2 4617   6.893   6.799   6.504
 1240SOL     OW 4618   5.493   5.707   1.876
 1240SOL    HW1 4619   5.530   5.649   1.804
 1240SOL    HW2 4620   5.410   5.665   1.914
 1241SOL     OW 4621   6.498   3.985   3.987
 1241SOL    HW1 4622   6.447   4.071   3.992
 1241SOL    HW2 4623   6.473   3.926   4.063
 1242SOL     OW 4624   0.765   3.640   1.690
 1242SOL    HW1 4625   0.684   3.690   1.720
 1242SOL    HW2 4626   0.836   3.704   1.661
 1243SOL     OW 4627   0.828   6.530   5.448
 1243SOL    HW1 4628   0.732   6.554   5.462
 1243SOL    HW2 4629   0.843   6.510   5.351
 1244SOL     OW 4630   6.821   6.654   3.813
 1244SOL    HW1 4631   6.741   6.674   3.870
 1244SOL    HW2 4632   6.793   6.598   3.735
 1245SOL     OW 4633   5.000   4.092   6.627
 1245SOL    HW1 4634   4.953   4.004   6.640
 1245SOL    HW2 4635   4.941   4.154   6.575
 1246SOL     OW 4636   1.822   6.218   1.775
 1246SOL    HW1 4637   1.829   6.265   1.687
 1246SOL    HW2 4638   1.839   6.283   1.849
 1247SOL     OW 4639   2.886   0.108   6.745
 1247SOL    HW1 4640   2.873   0.010   6.729
 1247SOL    HW2 4641   2.801   0.146   6.783
 1248SOL     OW 4642   2.329   6.868   4.661
 1248SOL    HW1 4643   2.239   6.877   4.618
 1248SOL    HW2 4644   2.377   6.788   4.624
 1249SOL     OW 4645   5.807   2.244   1.966
 1249SOL    HW1 4646   5.847   2.264   1.876
 1249SOL    HW2 4647   5.780   2.329   2.010
 1250SOL     OW 4648   6.728   4.643   4.451
 1250SOL    HW1 4649   6.791   4.635   4.373
 1250SOL    HW2 4650   6.780   4.656   4.535
 1251SOL     OW 4651   3.484   6.913   4.683
 1251SOL    HW1 4652   3.405   6.963   4.645
 1251SOL    HW2 4653   3.452   6.850   4.753
 1252SOL     OW 4654   3.813   3.814   5.880
 1252SOL    HW1 4655   3.742   3.827   5.949
 1252SOL    HW2 4656   3.866   3.731   5.902
 1253SOL     OW 4657   3.313   5.143   1.456
 1253SOL    HW1 4658   3.232   5.127   1.513
 1253SOL    HW2 4659   3.380   5.195   1.508
 1254SOL     OW 4660   6.644   3.130   2.493
 1254SOL    HW1 4661   6.711   3.083   2.551
 1254SOL    HW2 4662   6.665   3.113   2.397
 1255SOL     OW 4663   6.704   1.544   4.533
 1255SOL    HW1 4664   6.787   1.560   4.479
 1255SOL    HW2 4665   6.624   1.568   4.477
 1256SOL     OW 4666   0.143   6.970   3.088
 1256SOL    HW1 4667   0.057   6.921   3.099
 1256SOL    HW2 4668   0.198   6.960   3.172
 1257SOL     OW 4669   6.568   6.981   3.573
 1257SOL    HW1 4670   6.518   6.909   3.620
 1257SOL    HW2 4671   6.610   6.945   3.490
 1258SOL     OW 4672   1.352   5.044   3.766
 1258SOL    HW1 4673   1.267   4.999   3.795
 1258SOL    HW2 4674   1.364   5.030   3.668
 1259SOL     OW 4675   3.496   2.117   4.395
 1259SOL    HW1 4676   3.547   2.187   4.345
 1259SOL    HW2 4677   3.544   2.095   4.480
 1260SOL     OW 4678   1.242   1.503   6.825
 1260SOL    HW1 4679   1.316   1.442   6.797
 1260SOL    HW2 4680   1.280   1.595   6.841
 1261SOL     OW 4681   0.052   5.770   6.610
 1261SOL    HW1 4682   7.010   5.780   6.532
 1261SOL    HW2 4683   0.097   5.857   6.630
 1262SOL     OW 4684   5.245   5.201   1.247
 1262SOL    HW1 4685   5.159   5.243   1.275
 1262SOL    HW2 4686   5.303   5.189   1.327
 1263SOL     OW 4687   0.500   0.933   2.520
 1263SOL    HW1 4688   0.592   0.893   2.524
 1263SOL    HW2 4689   0.465   0.926   2.426
 1264SOL     OW 4690   0.442   4.053   6.333
 1264SOL    HW1 4691   0.389   4.105   6.265
 1264SOL    HW2 4692   0.459   4.111   6.413
 1265SOL     OW 4693   6.257   5.241   4.390
 1265SOL    HW1 4694   6.293   5.232   4.483
 1265SOL    HW2 4695   6.190   5.169   4.373
 1266SOL     OW 4696   0.807   0.754   4.236
 1266SOL    HW1 4697   0.778   0.695   4.161
 1266SOL    HW2 4698   0.877   0.817   4.204
 1267SOL     OW 4699   4.721   0.716   1.726
 1267SOL    HW1 4700   4.733   0.631   1.777
 1267SOL    HW2 4701   4.739   0.793   1.787
 1268SOL     OW 4702   2.995   2.832   6.321
 1268SOL    HW1 4703   3.025   2.743   6.355
 1268SOL    HW2 4704   2.978   2.825   6.222
 1269SOL     OW 4705   5.633   3.023   3.918
 1269SOL    HW1 4706   5.623   3.067   3.829
 1269SOL    HW2 4707   5.611   2.926   3.910
 1270SOL     OW 4708   2.167   4.533   2.306
 1270SOL    HW1 4709   2.098   4.480   2.354
 1270SOL    HW2 4710   2.258   4.496   2.326
 1271SOL     OW 4711   3.223   0.993   1.838
 1271SOL    HW1 4712   3.273   1.013   1.754
 1271SOL    HW2 4713   3.222   1.074   1.896
 1272SOL     OW 4714   6.443   4.597   6.578
 1272SOL    HW1 4715   6.373   4.525   6.581
 1272SOL    HW2 4716   6.401   4.685   6.597
 1273SOL     OW 4717   1.657   3.465   5.348
 1273SOL    HW1 4718   1.590   3.394   5.370
 1273SOL    HW2 4719   1.711   3.437   5.269
 1274SOL     OW 4720   0.068   4.623   1.247
 1274SOL    HW1 4721   0.160   4.596   1.273
 1274SOL    HW2 4722   0.026   4.550   1.192
 1275SOL     OW 4723   2.907   0.213   3.431
 1275SOL    HW1 4724   2.925   0.304   3.469
 1275SOL    HW2 4725   2.897   0.219   3.332
 1276SOL     OW 4726   5.329   4.993   4.298
 1276SOL    HW1 4727   5.390   5.019   4.373
 1276SOL    HW2 4728   5.317   4.893   4.298
 1277SOL     OW 4729   1.281   5.344   0.032
 1277SOL    HW1 4730   1.375   5.321   0.055
 1277SOL    HW2 4731   1.225   5.341   0.115
 1278SOL     OW 4732   1.414   7.017   4.160
 1278SOL    HW1 4733   1.490   6.961   4.192
 1278SOL    HW2 4734   1.401   7.002   4.062
 1279SOL     OW 4735   2.279   3.834   6.158
 1279SOL    HW1 4736   2.218   3.781   6.216
 1279SOL    HW2 4737   2.228   3.909   6.115
 1280SOL     OW 4738   3.936   0.420   3.542
 1280SOL    HW1 4739   3.922   0.401   3.640
 1280SOL    HW2 4740   3.852   0.458   3.503
 1281SOL     OW 4741   2.759   5.345   3.760
 1281SOL    HW1 4742   2.818   5.417   3.797
 1281SOL    HW2 4743   2.810   5.260   3.753
 1282SOL     OW 4744   7.014   2.679   0.246
 1282SOL    HW1 4745   6.923   2.640   0.255
 1282SOL    HW2 4746   0.014   2.700   0.150
 1283SOL     OW 4747   6.458   4.030   5.517
 1283SOL    HW1 4748   6.437   3.977   5.435
 1283SOL    HW2 4749   6.472   3.969   5.595
 1284SOL     OW 4750   3.889   0.560   1.177
 1284SOL    HW1 4751   3.791   0.560   1.197
 1284SOL    HW2 4752   3.940   0.586   1.259
 1285SOL     OW 4753   3.910   1.312   5.952
 1285SOL    HW1 4754   3.960   1.335   5.869
 1285SOL    HW2 4755   3.900   1.394   6.009
 1286SOL     OW 4756   4.855   2.510   0.817
 1286SOL    HW1 4757   4.935   2.482   0.870
 1286SOL    HW2 4758   4.810   2.586   0.863
 1287SOL     OW 4759   5.565   4.435   5.498
 1287SOL    HW1 4760   5.574   4.479   5.408
 1287SOL    HW2 4761   5.520   4.498   5.561
 1288SOL     OW 4762   4.597   4.772   5.534
 1288SOL    HW1 4763   4.555   4.863   5.529
 1288SOL    HW2 4764   4.626   4.744   5.443
 1289SOL     OW 4765   6.988   0.898   2.148
 1289SOL    HW1 4766   7.018   0.810   2.187
 1289SOL    HW2 4767   6.894   0.917   2.177
 1290SOL     OW 4768   1.066   0.126   1.431
 1290SOL    HW1 4769   1.028   0.065   1.362
 1290SOL    HW2 4770   1.159   0.151   1.407
 1291SOL     OW 4771   6.516   4.974   4.314
 1291SOL    HW1 4772   6.510   5.067   4.277
 1291SOL    HW2 4773   6.433   4.954   4.367
 1292SOL     OW 4774   0.712   5.638   2.156
 1292SOL    HW1 4775   0.681   5.551   2.195
 1292SOL    HW2 4776   0.737   5.624   2.060
 1293SOL     OW 4777   2.318   2.033   0.630
 1293SOL    HW1 4778   2.253   2.019   0.705
 1293SOL    HW2 4779   2.268   2.059   0.547
 1294SOL     OW 4780   1.492   4.313   6.402
 1294SOL    HW1 4781   1.500   4.396   6.457
 1294SOL    HW2 4782   1.544   4.324   6.318
 1295SOL     OW 4783   0.201   3.477   1.421
 1295SOL    HW1 4784   0.135   3.445   1.489
 1295SOL    HW2 4785   0.283   3.420   1.424
 1296SOL     OW 4786   4.749   0.385   5.311
 1296SOL    HW1 4787   4.770   0.339   5.225
 1296SOL    HW2 4788   4.790   0.336   5.387
 1297SOL     OW 4789   0.965   6.074   1.514
 1297SOL    HW1 4790   1.047   6.052   1.567
 1297SOL    HW2 4791   0.972   6.168   1.480
 1298SOL     OW 4792   5.026   6.527   3.404
 1298SOL    HW1 4793   5.108   6.471   3.396
 1298SOL    HW2 4794   4.955   6.475   3.453
 1299SOL     OW 4795   1.917   3.119   4.004
 1299SOL    HW1 4796   2.005   3.162   3.985
 1299SOL    HW2 4797   1.895   3.052   3.933
 1300SOL     OW 4798   2.069   3.465   1.539
 1300SOL    HW1 4799   2.034   3.507   1.456
 1300SOL    HW2 4800   2.139   3.397   1.516
 1301SOL     OW 4801   0.632   6.672   2.019
 1301SOL    HW1 4802   0.712   6.733   2.020
 1301SOL    HW2 4803   0.661   6.580   1.991
 1302SOL     OW 4804   5.430   0.616   5.065
 1302SOL    HW1 4805   5.365   0.557   5.113
 1302SOL    HW2 4806   5.390   0.648   4.979
 1303SOL     OW 4807   4.294   0.356   1.476
 1303SOL    HW1 4808   4.317   0.323   1.385
 1303SOL    HW2 4809   4.337   0.445   1.491
 1304SOL     OW 4810   1.855   1.108   1.534
 1304SOL    HW1 4811   1.860   1.188   1.474
 1304SOL    HW2 4812   1.765   1.065   1.526
 1305SOL     OW 4813   6.061   4.575   5.763
 1305SOL    HW1 4814   6.022   4.517   5.692
 1305SOL    HW2 4815   6.127   4.522   5.817
 1306SOL     OW 4816   1.133   5.580   4.500
 1306SOL    HW1 4817   1.074   5.552   4.425
 1306SOL    HW2 4818   1.196   5.651   4.469
 1307SOL     OW 4819   1.945   3.759   4.015
 1307SOL    HW1 4820   1.886   3.832   4.049
 1307SOL    HW2 4821   1.910   3.670   4.046
 1308SOL     OW 4822   6.755   0.051   6.204
 1308SOL    HW1 4823   6.788   0.111   6.131
 1308SOL    HW2 4824   6.696   6.999   6.164
 1309SOL     OW 4825   5.400   4.582   6.032
 1309SOL    HW1 4826   5.357   4.662   5.991
 1309SOL    HW2 4827   5.338   4.504   6.026
 1310SOL     OW 4828   0.389   4.322   3.797
 1310SOL    HW1 4829   0.334   4.343   3.717
 1310SOL    HW2 4830   0.396   4.403   3.855
 1311SOL     OW 4831   6.650   5.687   6.188
 1311SOL    HW1 4832   6.697   5.645   6.266
 1311SOL    HW2 4833   6.555   5.709   6.214
 1312SOL     OW 4834   1.791   0.269   0.048
 1312SOL    HW1 4835   1.779   0.200   0.119
 1312SOL    HW2 4836   1.889   0.281   0.029
 1313SOL     OW 4837   6.671   5.295   3.132
 1313SOL    HW1 4838   6.629   5.334   3.215
 1313SOL    HW2 4839   6.644   5.199   3.123
 1314SOL     OW 4840   3.663   1.583   4.463
 1314SOL    HW1 4841   3.580   1.576   4.408
 1314SOL    HW2 4842   3.645   1.640   4.543
 1315SOL     OW 4843   6.962   0.919   3.924
 1315SOL    HW1 4844   6.941   0.998   3.982
 1315SOL    HW2 4845   6.879   0.892   3.875
 1316SOL     OW 4846   3.572   0.011   5.121
 1316SOL    HW1 4847   3.661   0.056   5.133
 1316SOL    HW2 4848   3.501   0.081   5.113
 1317SOL     OW 4849   1.708   4.663   5.251
 1317SOL    HW1 4850   1.613   4.667   5.219
 1317SOL    HW2 4851   1.712   4.613   5.338
 1318SOL     OW 4852   1.358   2.637   6.902
 1318SOL    HW1 4853   1.323   2.544   6.892
 1318SOL    HW2 4854   1.458   2.634   6.905
 1319SOL     OW 4855   0.127   5.876   6.894
 1319SOL    HW1 4856   0.182   5.855   6.975
 1319SOL    HW2 4857   0.092   5.791   6.854
 1320SOL     OW 4858   2.781   2.985   6.770
 1320SOL    HW1 4859   2.828   2.979   6.682
 1320SOL    HW2 4860   2.685   3.008   6.755
 1321SOL     OW 4861   4.567   2.517   6.427
 1321SOL    HW1 4862   4.513   2.567   6.495
 1321SOL    HW2 4863   4.647   2.476   6.472
 1322SOL     OW 4864   3.837   1.114   3.976
 1322SOL    HW1 4865   3.799   1.074   3.892
 1322SOL    HW2 4866   3.910   1.055   4.010
 1323SOL     OW 4867   3.662   6.135   0.527
 1323SOL    HW1 4868   3.589   6.172   0.469
 1323SOL    HW2 4869   3.734   6.097   0.469
 1324SOL     OW 4870   0.791   3.730   0.629
 1324SOL    HW1 4871   0.787   3.800   0.558
 1324SOL    HW2 4872   0.777   3.773   0.719
 1325SOL     OW 4873   4.274   6.436   5.000
 1325SOL    HW1 4874   4.246   6.491   4.921
 1325SOL    HW2 4875   4.221   6.464   5.080
 1326SOL     OW 4876   4.945   4.170   5.341
 1326SOL    HW1 4877   4.998   4.239   5.389
 1326SOL    HW2 4878   5.007   4.101   5.302
 1327SOL     OW 4879   0.330   6.424   1.293
 1327SOL    HW1 4880   0.335   6.464   1.201
 1327SOL    HW2 4881   0.392   6.473   1.354
 1328SOL     OW 4882   1.867   2.953   6.630
 1328SOL    HW1 4883   1.848   3.002   6.544
 1328SOL    HW2 4884   1.865   2.854   6.613
 1329SOL     OW 4885   0.067   2.152   3.218
 1329SOL    HW1 4886   0.107   2.201   3.140
 1329SOL    HW2 4887   0.085   2.054   3.207
 1330SOL     OW 4888   0.469   2.212   0.817
 1330SOL    HW1 4889   0.371   2.198   0.802
 1330SOL    HW2 4890   0.520   2.146   0.762
 1331SOL     OW 4891   4.596   2.687   2.674
 1331SOL    HW1 4892   4.565   2.661   2.766
 1331SOL    HW2 4893   4.691   2.717   2.678
 1332SOL     OW 4894   2.358   6.424   0.415
 1332SOL    HW1 4895   2.450   6.461   0.428
 1332SOL    HW2 4896   2.290   6.490   0.448
 1333SOL     OW 4897   3.005   3.900   3.226
 1333SOL    HW1 4898   2.958   3.813   3.216
 1333SOL    HW2 4899   3.039   3.909   3.320
 1334SOL     OW 4900   6.123   1.963   3.576
 1334SOL    HW1 4901   6.204   1.997   3.528
 1334SOL    HW2 4902   6.110   2.015   3.660
 1335SOL     OW 4903   2.140   1.868   1.972
 1335SOL    HW1 4904   2.181   1.777   1.961
 1335SOL    HW2 4905   2.122   1.908   1.882
 1336SOL     OW 4906   3.775   1.843   5.560
 1336SOL    HW1 4907   3.685   1.859   5.520
 1336SOL    HW2 4908   3.824   1.775   5.506
 1337SOL     OW 4909   6.824   1.938   3.100
 1337SOL    HW1 4910   6.785   2.030   3.091
 1337SOL    HW2 4911   6.861   1.909   3.012
 1338SOL     OW 4912   0.013   4.361   4.185
 1338SOL    HW1 4913   0.023   4.280   4.128
 1338SOL    HW2 4914   0.004   4.335   4.281
 1339SOL     OW 4915   6.935   0.866   0.294
 1339SOL    HW1 4916   6.852   0.876   0.348
 1339SOL    HW2 4917   6.955   0.951   0.247
 1340SOL     OW 4918   5.283   1.600   2.631
 1340SOL    HW1 4919   5.213   1.624   2.564
 1340SOL    HW2 4920   5.370   1.583   2.584
 1341SOL     OW 4921   4.129   6.295   6.976
 1341SOL    HW1 4922   4.031   6.274   6.981
 1341SOL    HW2 4923   4.145   6.387   7.011
 1342SOL     OW 4924   3.227   5.158   6.432
 1342SOL    HW1 4925   3.151   5.114   6.480
 1342SOL    HW2 4926   3.313   5.134   6.476
 1343SOL     OW 4927   5.618   5.369   2.598
 1343SOL    HW1 4928   5.647   5.319   2.680
 1343SOL    HW2 4929   5.519   5.388   2.604
 1344SOL     OW 4930   0.237   6.352   4.330
 1344SOL    HW1 4931   0.299   6.429   4.314
 1344SOL    HW2 4932   0.191   6.329   4.244
 1345SOL     OW 4933   0.808   4.649   2.520
 1345SOL    HW1 4934   0.790   4.588   2.597
 1345SOL    HW2 4935   0.830   4.741   2.555
 1346SOL     OW 4936   1.790   5.203   6.340
 1346SOL    HW1 4937   1.763   5.300   6.339
 1346SOL    HW2 4938   1.736   5.153   6.273
 1347SOL     OW 4939   1.375   6.342   6.599
 1347SOL    HW1 4940   1.360   6.251   6.639
 1347SOL    HW2 4941   1.287   6.386   6.583
 1348SOL     OW 4942   0.079   6.594   5.354
 1348SOL    HW1 4943   0.012   6.615   5.282
 1348SOL    HW2 4944   0.079   6.667   5.422
 1349SOL     OW 4945   5.385   2.594   4.355
 1349SOL    HW1 4946   5.316   2.666   4.360
 1349SOL    HW2 4947   5.349   2.510   4.394
 1350SOL     OW 4948   4.295   5.016   6.313
 1350SOL    HW1 4949   4.321   4.945   6.248
 1350SOL    HW2 4950   4.363   5.088   6.313
 1351SOL     OW 4951   6.024   2.569   4.448
 1351SOL    HW1 4952   5.930   2.538   4.465
 1351SOL    HW2 4953   6.082   2.543   4.526
 1352SOL     OW 4954   6.794   6.493   3.603
 1352SOL    HW1 4955   6.826   6.509   3.510
 1352SOL    HW2 4956   6.721   6.424   3.602
 1353SOL     OW 4957   1.658   1.968   0.514
 1353SOL    HW1 4958   1.631   2.026   0.437
 1353SOL    HW2 4959   1.591   1.976   0.587
 1354SOL     OW 4960   0.220   3.828   2.039
 1354SOL    HW1 4961   0.263   3.907   1.997
 1354SOL    HW2 4962   0.211   3.842   2.138
 1355SOL     OW 4963   6.242   3.720   4.121
 1355SOL    HW1 4964   6.264   3.687   4.029
 1355SOL    HW2 4965   6.151   3.762   4.120
 1356SOL     OW 4966   3.433   3.040   1.895
 1356SOL    HW1 4967   3.517   3.036   1.948
 1356SOL    HW2 4968   3.388   2.951   1.896
 1357SOL     OW 4969   6.710   3.968   6.219
 1357SOL    HW1 4970   6.661   4.054   6.233
 1357SOL    HW2 4971   6.763   3.946   6.301
 1358SOL     OW 4972   5.987   6.539   0.219
 1358SOL    HW1 4973   5.909   6.583   0.265
 1358SOL    HW2 4974   5.986   6.441   0.241
 1359SOL     OW 4975   6.618   4.887   2.162
 1359SOL    HW1 4976   6.620   4.969   2.220
 1359SOL    HW2 4977   6.526   4.874   2.125
 1360SOL     OW 4978   3.139   3.408   0.071
 1360SOL    HW1 4979   3.078   3.351   0.017
 1360SOL    HW2 4980   3.094   3.431   0.157
 1361SOL     OW 4981   6.856   4.671   4.697
 1361SOL    HW1 4982   6.842   4.762   4.735
 1361SOL    HW2 4983   6.870   4.606   4.771
 1362SOL     OW 4984   3.845   4.021   2.952
 1362SOL    HW1 4985   3.876   3.932   2.917
 1362SOL    HW2 4986   3.924   4.074   2.982
 1363SOL     OW 4987   0.361   5.377   4.298
 1363SOL    HW1 4988   0.359   5.333   4.209
 1363SOL    HW2 4989   0.269   5.378   4.337
 1364SOL     OW 4990   4.440   4.145   0.035
 1364SOL    HW1 4991   4.526   4.143   0.085
 1364SOL    HW2 4992   4.368   4.182   0.094
 1365SOL     OW 4993   0.518   4.233   6.763
 1365SOL    HW1 4994   0.522   4.316   6.817
 1365SOL    HW2 4995   0.560   4.158   6.814
 1366SOL     OW 4996   1.568   6.315   5.807
 1366SOL    HW1 4997   1.577   6.218   5.785
 1366SOL    HW2 4998   1.650   6.347   5.854
 1367SOL     OW 4999   1.910   0.547   2.389
 1367SOL    HW1 5000   1.836   0.611   2.407
 1367SOL    HW2 5001   1.875   0.453   2.393
 1368SOL     OW 5002   5.384   6.783   5.162
 1368SOL    HW1 5003   5.392   6.881   5.143
 1368SOL    HW2 5004   5.456   6.733   5.114
 1369SOL     OW 5005   1.676   6.183   2.989
 1369SOL    HW1 5006   1.736   6.229   3.055
 1369SOL    HW2 5007   1.715   6.192   2.897
 1370SOL     OW 5008   3.533   0.769   1.733
 1370SOL    HW1 5009   3.458   0.721   1.779
 1370SOL    HW2 5010   3.549   0.727   1.644
 1371SOL     OW 5011   4.386   1.170   4.855
 1371SOL    HW1 5012   4.404   1.091   4.796
 1371SOL    HW2 5013   4.363   1.249   4.799
 1372SOL     OW 5014   1.843   2.754   1.236
 1372SOL    HW1 5015   1.874   2.662   1.212
 1372SOL    HW2 5016   1.862   2.772   1.332
 1373SOL     OW 5017   6.413   4.811   0.360
 1373SOL    HW1 5018   6.328   4.849   0.325
 1373SOL    HW2 5019   6.451   4.747   0.293
 1374SOL     OW 5020   4.613   2.364   0.856
 1374SOL    HW1 5021   4.688   2.413   0.812
 1374SOL    HW2 5022   4.648   2.282   0.902
 1375SOL     OW 5023   6.965   5.023   5.341
 1375SOL    HW1 5024   0.005   5.012   5.422
 1375SOL    HW2 5025   6.985   5.112   5.298
 1376SOL     OW 5026   4.656   2.619   3.978
 1376SOL    HW1 5027   4.568   2.580   4.004
 1376SOL    HW2 5028   4.646   2.671   3.893
 1377SOL     OW 5029   0.404   4.407   6.002
 1377SOL    HW1 5030   0.502   4.394   6.014
 1377SOL    HW2 5031   0.374   4.487   6.054
 1378SOL     OW 5032   0.976   2.447   5.949
 1378SOL    HW1 5033   0.998   2.350   5.940
 1378SOL    HW2 5034   0.886   2.456   5.993
 1379SOL     OW 5035   3.419   6.074   2.973
 1379SOL    HW1 5036   3.460   6.119   2.893
 1379SOL    HW2 5037   3.486   6.013   3.015
 1380SOL     OW 5038   6.754   7.002   2.241
 1380SOL    HW1 5039   6.772   6.987   2.338
 1380SOL    HW2 5040   6.657   0.004   2.227
 1381SOL     OW 5041   5.977   2.783   0.087
 1381SOL    HW1 5042   6.023   2.861   0.043
 1381SOL    HW2 5043   6.015   2.698   0.052
 1382SOL     OW 5044   6.250   5.392   5.942
 1382SOL    HW1 5045   6.326   5.364   5.885
 1382SOL    HW2 5046   6.231   5.321   6.010
 1383SOL     OW 5047   0.774   0.867   0.204
 1383SOL    HW1 5048   0.858   0.832   0.163
 1383SOL    HW2 5049   0.793   0.904   0.295
 1384SOL     OW 5050   3.123   1.580   3.504
 1384SOL    HW1 5051   3.103   1.550   3.411
 1384SOL    HW2 5052   3.070   1.526   3.569
 1385SOL     OW 5053   6.516   2.610   3.149
 1385SOL    HW1 5054   6.491   2.654   3.235
 1385SOL    HW2 5055   6.455   2.533   3.132
 1386SOL     OW 5056   2.171   3.146   4.643
 1386SOL    HW1 5057   2.075   3.121   4.652
 1386SOL    HW2 5058   2.223   3.066   4.613
 1387SOL     OW 5059   3.640   0.421   4.486
 1387SOL    HW1 5060   3.547   0.450   4.511
 1387SOL    HW2 5061   3.636   0.335   4.436
 1388SOL     OW 5062   6.652   0.476   4.229
 1388SOL    HW1 5063   6.617   0.385   4.251
 1388SOL    HW2 5064   6.752   0.474   4.227
 1389SOL     OW 5065   6.573   0.218   4.272
 1389SOL    HW1 5066   6.488   0.236   4.321
 1389SOL    HW2 5067   6.611   0.130   4.301
 1390SOL     OW 5068   4.321   1.739   1.121
 1390SOL    HW1 5069   4.310   1.837   1.131
 1390SOL    HW2 5070   4.405   1.719   1.071
 1391SOL     OW 5071   6.105   0.943   5.315
 1391SOL    HW1 5072   6.167   0.953   5.237
 1391SOL    HW2 5073   6.080   0.846   5.324
 1392SOL     OW 5074   4.328   5.974   6.248
 1392SOL    HW1 5075   4.391   5.899   6.233
 1392SOL    HW2 5076   4.294   5.971   6.342
 1393SOL     OW 5077   6.333   1.686   6.339
 1393SOL    HW1 5078   6.275   1.639   6.273
 1393SOL    HW2 5079   6.309   1.655   6.432
 1394SOL     OW 5080   4.431   6.466   3.611
 1394SOL    HW1 5081   4.351   6.405   3.614
 1394SOL    HW2 5082   4.403   6.556   3.579
 1395SOL     OW 5083   0.983   5.021   3.100
 1395SOL    HW1 5084   1.009   5.025   3.196
 1395SOL    HW2 5085   0.918   5.095   3.080
 1396SOL     OW 5086   1.920   1.221   4.627
 1396SOL    HW1 5087   1.956   1.296   4.571
 1396SOL    HW2 5088   1.825   1.241   4.652
 1397SOL     OW 5089   0.680   5.071   4.695
 1397SOL    HW1 5090   0.619   5.150   4.682
 1397SOL    HW2 5091   0.628   4.987   4.677
 1398SOL     OW 5092   1.456   1.269   0.664
 1398SOL    HW1 5093   1.432   1.197   0.729
 1398SOL    HW2 5094   1.551   1.258   0.635
 1399SOL     OW 5095   3.993   0.020   0.390
 1399SOL    HW1 5096   3.962   0.100   0.440
 1399SOL    HW2 5097   3.921   6.968   0.393
 1400SOL     OW 5098   6.906   0.542   4.617
 1400SOL    HW1 5099   6.905   0.520   4.519
 1400SOL    HW2 5100   6.891   0.640   4.629
 1401SOL     OW 5101   5.410   0.950   3.918
 1401SOL    HW1 5102   5.376   1.023   3.858
 1401SOL    HW2 5103   5.473   0.892   3.867
 1402SOL     OW 5104   5.579   3.970   1.334
 1402SOL    HW1 5105   5.531   3.891   1.372
 1402SOL    HW2 5106   5.520   4.016   1.267
 1403SOL     OW 5107   3.982   3.382   6.983
 1403SOL    HW1 5108   3.992   3.358   0.061
 1403SOL    HW2 5109   3.887   3.372   6.954
 1404SOL     OW 5110   4.483   6.986   0.909
 1404SOL    HW1 5111   4.533   0.020   0.978
 1404SOL    HW2 5112   4.546   6.924   0.862
 1405SOL     OW 5113   2.199   3.369   0.947
 1405SOL    HW1 5114   2.193   3.401   1.041
 1405SOL    HW2 5115   2.233   3.443   0.889
 1406SOL     OW 5116   2.323   3.381   1.452
 1406SOL    HW1 5117   2.316   3.387   1.552
 1406SOL    HW2 5118   2.355   3.290   1.426
 1407SOL     OW 5119   0.822   2.934   1.636
 1407SOL    HW1 5120   0.737   2.883   1.622
 1407SOL    HW2 5121   0.803   3.018   1.685
 1408SOL     OW 5122   5.571   5.889   5.996
 1408SOL    HW1 5123   5.670   5.870   5.993
 1408SOL    HW2 5124   5.542   5.898   6.091
 1409SOL     OW 5125   6.911   0.899   6.005
 1409SOL    HW1 5126   6.908   0.924   5.908
 1409SOL    HW2 5127   6.824   0.858   6.032
 1410SOL     OW 5128   3.155   2.832   5.939
 1410SOL    HW1 5129   3.140   2.843   5.841
 1410SOL    HW2 5130   3.068   2.832   5.987
 1411SOL     OW 5131   3.948   5.774   0.148
 1411SOL    HW1 5132   3.976   5.789   0.243
 1411SOL    HW2 5133   3.849   5.758   0.144
 1412SOL     OW 5134   1.346   2.626   0.790
 1412SOL    HW1 5135   1.321   2.566   0.867
 1412SOL    HW2 5136   1.445   2.633   0.784
 1413SOL     OW 5137   1.878   1.533   5.164
 1413SOL    HW1 5138   1.912   1.439   5.160
 1413SOL    HW2 5139   1.868   1.561   5.260
 1414SOL     OW 5140   0.594   3.157   2.509
 1414SOL    HW1 5141   0.632   3.217   2.580
 1414SOL    HW2 5142   0.614   3.062   2.532
 1415SOL     OW 5143   2.614   2.154   4.416
 1415SOL    HW1 5144   2.543   2.144   4.486
 1415SOL    HW2 5145   2.704   2.136   4.457
 1416SOL     OW 5146   3.998   6.976   5.479
 1416SOL    HW1 5147   3.938   6.925   5.417
 1416SOL    HW2 5148   4.013   6.923   5.562
 1417SOL     OW 5149   3.228   2.985   6.396
 1417SOL    HW1 5150   3.291   2.967   6.321
 1417SOL    HW2 5151   3.154   2.918   6.394
 1418SOL     OW 5152   4.027   3.336   0.221
 1418SOL    HW1 5153   4.039   3.250   0.272
 1418SOL    HW2 5154   3.954   3.389   0.263
 1419SOL     OW 5155   1.876   5.101   3.455
 1419SOL    HW1 5156   1.808   5.075   3.387
 1419SOL    HW2 5157   1.909   5.193   3.436
 1420SOL     OW 5158   3.801   5.224   2.880
 1420SOL    HW1 5159   3.713   5.216   2.832
 1420SOL    HW2 5160   3.786   5.267   2.969
 1421SOL     OW 5161   0.972   5.260   5.452
 1421SOL    HW1 5162   0.974   5.184   5.517
 1421SOL    HW2 5163   1.061   5.304   5.449
 1422SOL     OW 5164   2.921   3.865   5.993
 1422SOL    HW1 5165   2.959   3.812   5.917
 1422SOL    HW2 5166   2.919   3.962   5.969
 1423SOL     OW 5167   4.451   0.904   4.672
 1423SOL    HW1 5168   4.373   0.924   4.612
 1423SOL    HW2 5169   4.422   0.838   4.742
 1424SOL     OW 5170   5.729   3.229   6.496
 1424SOL    HW1 5171   5.736   3.262   6.402
 1424SOL    HW2 5172   5.673   3.293   6.549
 1425SOL     OW 5173   3.866   6.416   4.346
 1425SOL    HW1 5174   3.916   6.435   4.261
 1425SOL    HW2 5175   3.773   6.386   4.324
 1426SOL     OW 5176   2.166   1.750   6.888
 1426SOL    HW1 5177   2.116   1.664   6.897
 1426SOL    HW2 5178   2.236   1.756   6.960
 1427SOL     OW 5179   1.320   1.097   3.009
 1427SOL    HW1 5180   1.363   1.131   3.093
 1427SOL    HW2 5181   1.222   1.116   3.013
 1428SOL     OW 5182   6.647   3.280   2.908
 1428SOL    HW1 5183   6.663   3.361   2.963
 1428SOL    HW2 5184   6.728   3.222   2.910
 1429SOL     OW 5185   6.213   1.477   0.780
 1429SOL    HW1 5186   6.116   1.484   0.754
 1429SOL    HW2 5187   6.219   1.460   0.878
 1430SOL     OW 5188   2.111   3.298   3.048
 1430SOL    HW1 5189   2.084   3.345   3.131
 1430SOL    HW2 5190   2.193   3.243   3.066
 1431SOL     OW 5191   2.551   1.377   6.337
 1431SOL    HW1 5192   2.650   1.376   6.354
 1431SOL    HW2 5193   2.511   1.290   6.367
 1432SOL     OW 5194   2.597   1.120   1.092
 1432SOL    HW1 5195   2.639   1.057   1.158
 1432SOL    HW2 5196   2.533   1.070   1.034
 1433SOL     OW 5197   3.113   0.280   4.419
 1433SOL    HW1 5198   3.092   0.186   4.447
 1433SOL    HW2 5199   3.036   0.318   4.368
 1434SOL     OW 5200   0.191   2.968   6.901
 1434SOL    HW1 5201   0.282   2.935   6.878
 1434SOL    HW2 5202   0.189   3.068   6.894
 1435SOL     OW 5203   0.665   0.285   4.177
 1435SOL    HW1 5204   0.680   0.275   4.078
 1435SOL    HW2 5205   0.741   0.244   4.226
 1436SOL     OW 5206   5.913   2.022   0.681
 1436SOL    HW1 5207   5.893   2.084   0.605
 1436SOL    HW2 5208   5.845   1.949   0.682
 1437SOL     OW 5209   4.161   1.591   6.084
 1437SOL    HW1 5210   4.169   1.506   6.136
 1437SOL    HW2 5211   4.074   1.634   6.104
 1438SOL     OW 5212   2.337   1.036   2.028
 1438SOL    HW1 5213   2.404   0.999   1.964
 1438SOL    HW2 5214   2.384   1.075   2.107
 1439SOL     OW 5215   6.568   5.470   6.698
 1439SOL    HW1 5216   6.574   5.492   6.796
 1439SOL    HW2 5217   6.474   5.479   6.667
 1440SOL     OW 5218   3.688   2.885   3.276
 1440SOL    HW1 5219   3.744   2.802   3.270
 1440SOL    HW2 5220   3.747   2.965   3.262
 1441SOL     OW 5221   0.237   2.966   4.676
 1441SOL    HW1 5222   0.159   2.925   4.723
 1441SOL    HW2 5223   0.222   2.962   4.577
 1442SOL     OW 5224   4.877   4.419   0.341
 1442SOL    HW1 5225   4.976   4.416   0.324
 1442SOL    HW2 5226   4.835   4.490   0.285
 1443SOL     OW 5227   0.792   1.450   3.370
 1443SOL    HW1 5228   0.762   1.544   3.388
 1443SOL    HW2 5229   0.715   1.398   3.331
 1444SOL     OW 5230   4.341   0.537   3.333
 1444SOL    HW1 5231   4.399   0.577   3.404
 1444SOL    HW2 5232   4.246   0.561   3.350
 1445SOL     OW 5233   0.086   2.333   1.561
 1445SOL    HW1 5234   0.060   2.274   1.638
 1445SOL    HW2 5235   0.047   2.424   1.574
 1446SOL     OW 5236   4.563   2.116   1.376
 1446SOL    HW1 5237   4.584   2.064   1.459
 1446SOL    HW2 5238   4.511   2.198   1.400
 1447SOL     OW 5239   6.287   1.330   5.230
 1447SOL    HW1 5240   6.202   1.380   5.214
 1447SOL    HW2 5241   6.363   1.394   5.233
 1448SOL     OW 5242   5.383   1.225   6.679
 1448SOL    HW1 5243   5.435   1.291   6.733
 1448SOL    HW2 5244   5.330   1.273   6.609
 1449SOL     OW 5245   4.740   6.438   0.813
 1449SOL    HW1 5246   4.742   6.408   0.717
 1449SOL    HW2 5247   4.827   6.416   0.857
 1450SOL     OW 5248   5.661   3.084   2.845
 1450SOL    HW1 5249   5.714   3.091   2.761
 1450SOL    HW2 5250   5.724   3.073   2.923
 1451SOL     OW 5251   2.081   6.701   2.917
 1451SOL    HW1 5252   2.025   6.783   2.923
 1451SOL    HW2 5253   2.172   6.724   2.882
 1452SOL     OW 5254   5.343   0.647   4.806
 1452SOL    HW1 5255   5.398   0.578   4.759
 1452SOL    HW2 5256   5.324   0.723   4.744
 1453SOL     OW 5257   5.139   4.152   4.876
 1453SOL    HW1 5258   5.196   4.097   4.814
 1453SOL    HW2 5259   5.177   4.244   4.883
 1454SOL     OW 5260   5.021   2.874   1.742
 1454SOL    HW1 5261   4.973   2.842   1.825
 1454SOL    HW2 5262   4.980   2.830   1.662
 1455SOL     OW 5263   1.049   0.764   1.832
 1455SOL    HW1 5264   1.036   0.713   1.747
 1455SOL    HW2 5265   1.060   0.861   1.811
 1456SOL     OW 5266   6.792   0.187   4.541
 1456SOL    HW1 5267   6.764   0.275   4.579
 1456SOL    HW2 5268   6.882   0.197   4.497
 1457SOL     OW 5269   1.958   0.830   4.088
 1457SOL    HW1 5270   1.889   0.766   4.122
 1457SOL    HW2 5271   2.046   0.783   4.083
 1458SOL     OW 5272   5.119   6.763   6.016
 1458SOL    HW1 5273   5.069   6.836   5.970
 1458SOL    HW2 5274   5.093   6.759   6.112
 1459SOL     OW 5275   2.833   5.910   6.855
 1459SOL    HW1 5276   2.847   5.921   6.953
 1459SOL    HW2 5277   2.797   5.818   6.837
 1460SOL     OW 5278   1.259   6.381   0.139
 1460SOL    HW1 5279   1.332   6.325   0.100
 1460SOL    HW2 5280   1.234   6.346   0.230
 1461SOL     OW 5281   5.887   4.348   2.856
 1461SOL    HW1 5282   5.812   4.354   2.790
 1461SOL    HW2 5283   5.916   4.253   2.865
 1462SOL     OW 5284   6.232   0.715   0.820
 1462SOL    HW1 5285   6.258   0.781   0.891
 1462SOL    HW2 5286   6.135   0.694   0.829
 1463SOL     OW 5287   1.223   0.518   4.754
 1463SOL    HW1 5288   1.247   0.542   4.660
 1463SOL    HW2 5289   1.139   0.464   4.754
 1464SOL     OW 5290   0.038   6.457   0.462
 1464SOL    HW1 5291   0.108   6.509   0.511
 1464SOL    HW2 5292   0.083   6.397   0.396
 1465SOL     OW 5293   0.168   0.613   4.474
 1465SOL    HW1 5294   0.213   0.625   4.563
 1465SOL    HW2 5295   0.237   0.603   4.403
 1466SOL     OW 5296   6.245   5.562   2.717
 1466SOL    HW1 5297   6.238   5.477   2.663
 1466SOL    HW2 5298   6.241   5.641   2.655
 1467SOL     OW 5299   0.977   1.117   3.403
 1467SOL    HW1 5300   1.009   1.035   3.354
 1467SOL    HW2 5301   0.885   1.100   3.439
 1468SOL     OW 5302   5.433   5.778   3.652
 1468SOL    HW1 5303   5.355   5.753   3.709
 1468SOL    HW2 5304   5.411   5.859   3.598
 1469SOL     OW 5305   0.853   0.322   2.442
 1469SOL    HW1 5306   0.903   0.237   2.455
 1469SOL    HW2 5307   0.912   0.400   2.464
 1470SOL     OW 5308   1.202   0.720   3.060
 1470SOL    HW1 5309   1.240   0.664   3.133
 1470SOL    HW2 5310   1.276   0.767   3.011
 1471SOL     OW 5311   0.084   0.325   0.367
 1471SOL    HW1 5312   7.007   0.353   0.361
 1471SOL    HW2 5313   0.144   0.403   0.348
 1472SOL     OW 5314   4.899   0.453   5.880
 1472SOL    HW1 5315   4.982   0.447   5.936
 1472SOL    HW2 5316   4.924   0.462   5.783
 1473SOL     OW 5317   6.370   5.254   2.903
 1473SOL    HW1 5318   6.313   5.246   2.821
 1473SOL    HW2 5319   6.438   5.326   2.889
 1474SOL     OW 5320   6.084   5.465   4.257
 1474SOL    HW1 5321   6.022   5.541   4.234
 1474SOL    HW2 5322   6.153   5.496   4.322
 1475SOL     OW 5323   6.696   0.741   2.712
 1475SOL    HW1 5324   6.743   0.653   2.705
 1475SOL    HW2 5325   6.597   0.728   2.701
 1476SOL     OW 5326   1.485   1.671   2.156
 1476SOL    HW1 5327   1.423   1.723   2.097
 1476SOL    HW2 5328   1.555   1.732   2.192
 1477SOL     OW 5329   3.186   6.838   5.373
 1477SOL    HW1 5330   3.129   6.806   5.448
 1477SOL    HW2 5331   3.150   6.802   5.287
 1478SOL     OW 5332   6.359   5.057   1.309
 1478SOL    HW1 5333   6.276   5.075   1.257
 1478SOL    HW2 5334   6.340   4.989   1.381
 1479SOL     OW 5335   1.834   4.347   0.599
 1479SOL    HW1 5336   1.899   4.385   0.534
 1479SOL    HW2 5337   1.778   4.421   0.637
 1480SOL     OW 5338   2.100   1.180   0.144
 1480SOL    HW1 5339   2.110   1.185   0.045
 1480SOL    HW2 5340   2.014   1.136   0.167
 1481SOL     OW 5341   5.890   1.828   5.918
 1481SOL    HW1 5342   5.971   1.883   5.896
 1481SOL    HW2 5343   5.915   1.731   5.920
 1482SOL     OW 5344   5.584   0.675   0.007
 1482SOL    HW1 5345   5.499   0.667   6.973
 1482SOL    HW2 5346   5.570   0.739   0.083
 1483SOL     OW 5347   6.559   2.802   0.421
 1483SOL    HW1 5348   6.532   2.896   0.398
 1483SOL    HW2 5349   6.628   2.770   0.356
 1484SOL     OW 5350   6.807   4.837   2.508
 1484SOL    HW1 5351   6.775   4.780   2.433
 1484SOL    HW2 5352   6.830   4.780   2.586
 1485SOL     OW 5353   5.262   3.043   3.770
 1485SOL    HW1 5354   5.286   2.947   3.753
 1485SOL    HW2 5355   5.343   3.100   3.757
 1486SOL     OW 5356   4.898   2.600   2.974
 1486SOL    HW1 5357   4.871   2.585   3.069
 1486SOL    HW2 5358   4.876   2.694   2.947
 1487SOL     OW 5359   5.817   1.703   5.524
 1487SOL    HW1 5360   5.859   1.780   5.572
 1487SOL    HW2 5361   5.786   1.732   5.434
 1488SOL     OW 5362   4.854   1.089   3.459
 1488SOL    HW1 5363   4.781   1.046   3.406
 1488SOL    HW2 5364   4.829   1.183   3.481
 1489SOL     OW 5365   3.872   5.201   4.618
 1489SOL    HW1 5366   3.891   5.298   4.603
 1489SOL    HW2 5367   3.920   5.146   4.550
 1490SOL     OW 5368   1.105   1.824   0.516
 1490SOL    HW1 5369   1.157   1.753   0.467
 1490SOL    HW2 5370   1.109   1.909   0.464
 1491SOL     OW 5371   0.238   3.408   3.767
 1491SOL    HW1 5372   0.188   3.495   3.774
 1491SOL    HW2 5373   0.177   3.333   3.791
 1492SOL     OW 5374   5.115   2.168   1.648
 1492SOL    HW1 5375   5.105   2.267   1.635
 1492SOL    HW2 5376   5.073   2.142   1.735
 1493SOL     OW 5377   4.671   0.523   5.022
 1493SOL    HW1 5378   4.638   0.510   4.928
 1493SOL    HW2 5379   4.593   0.540   5.083
 1494SOL     OW 5380   4.021   2.438   5.898
 1494SOL    HW1 5381   4.059   2.352   5.932
 1494SOL    HW2 5382   3.930   2.452   5.936
 1495SOL     OW 5383   0.814   2.980   3.011
 1495SOL    HW1 5384   0.756   2.982   2.930
 1495SOL    HW2 5385   0.899   3.030   2.993
 1496SOL     OW 5386   6.548   0.522   2.136
 1496SOL    HW1 5387   6.580   0.606   2.092
 1496SOL    HW2 5388   6.475   0.482   2.082
 1497SOL     OW 5389   6.750   5.277   4.117
 1497SOL    HW1 5390   6.658   5.278   4.156
 1497SOL    HW2 5391   6.801   5.199   4.155
 1498SOL     OW 5392   2.444   4.415   6.487
 1498SOL    HW1 5393   2.535   4.407   6.529
 1498SOL    HW2 5394   2.453   4.460   6.398
 1499SOL     OW 5395   1.034   3.492   5.093
 1499SOL    HW1 5396   1.010   3.589   5.087
 1499SOL    HW2 5397   0.992   3.443   5.016
 1500SOL     OW 5398   5.290   0.132   0.116
 1500SOL    HW1 5399   5.314   0.095   0.026
 1500SOL    HW2 5400   5.320   0.227   0.122
 1501SOL     OW 5401   4.381   0.276   6.752
 1501SOL    HW1 5402   4.301   0.333   6.766
 1501SOL    HW2 5403   4.359   0.181   6.775
 1502SOL     OW 5404   5.980   6.282   0.318
 1502SOL    HW1 5405   5.899   6.224   0.321
 1502SOL    HW2 5406   6.023   6.284   0.408
 1503SOL     OW 5407   2.607   2.765   6.852
 1503SOL    HW1 5408   2.608   2.706   6.932
 1503SOL    HW2 5409   2.665   2.845   6.870
 1504SOL     OW 5410   3.453   6.856   5.345
 1504SOL    HW1 5411   3.354   6.857   5.350
 1504SOL    HW2 5412   3.482   6.829   5.253
 1505SOL     OW 5413   5.778   6.932   5.238
 1505SOL    HW1 5414   5.874   6.914   5.218
 1505SOL    HW2 5415   5.720   6.870   5.186
 1506SOL     OW 5416   0.940   5.625   3.724
 1506SOL    HW1 5417   0.889   5.686   3.784
 1506SOL    HW2 5418   0.910   5.531   3.738
 1507SOL     OW 5419   1.799   1.508   5.627
 1507SOL    HW1 5420   1.778   1.416   5.662
 1507SOL    HW2 5421   1.782   1.575   5.699
 1508SOL     OW 5422   4.241   6.872   0.770
 1508SOL    HW1 5423   4.302   6.950   0.784
 1508SOL    HW2 5424   4.207   6.873   0.676
 1509SOL     OW 5425   4.417   3.111   6.628
 1509SOL    HW1 5426   4.503   3.134   6.675
 1509SOL    HW2 5427   4.371   3.038   6.677
 1510SOL     OW 5428   0.234   2.292   4.534
 1510SOL    HW1 5429   0.275   2.323   4.620
 1510SOL    HW2 5430   0.203   2.371   4.481
 1511SOL     OW 5431   2.701   1.576   6.930
 1511SOL    HW1 5432   2.698   1.556   6.832
 1511SOL    HW2 5433   2.610   1.600   6.962
 1512SOL     OW 5434   6.920   0.524   1.674
 1512SOL    HW1 5435   6.909   0.541   1.772
 1512SOL    HW2 5436   7.006   0.475   1.658
 1513SOL     OW 5437   3.501   0.072   4.199
 1513SOL    HW1 5438   3.522   6.993   4.191
 1513SOL    HW2 5439   3.461   0.105   4.114
 1514SOL     OW 5440   5.590   2.039   5.169
 1514SOL    HW1 5441   5.497   2.055   5.204
 1514SOL    HW2 5442   5.585   2.002   5.077
 1515SOL     OW 5443   0.165   4.254   5.453
 1515SOL    HW1 5444   0.075   4.213   5.473
 1515SOL    HW2 5445   0.160   4.352   5.469
 1516SOL     OW 5446   0.691   1.452   0.709
 1516SOL    HW1 5447   0.597   1.453   0.676
 1516SOL    HW2 5448   0.711   1.537   0.757
 1517SOL     OW 5449   4.567   6.184   3.383
 1517SOL    HW1 5450   4.649   6.178   3.440
 1517SOL    HW2 5451   4.489   6.213   3.439
 1518SOL     OW 5452   6.584   4.336   0.149
 1518SOL    HW1 5453   6.546   4.273   0.081
 1518SOL    HW2 5454   6.513   4.361   0.215
 1519SOL     OW 5455   6.337   4.666   1.095
 1519SOL    HW1 5456   6.342   4.566   1.093
 1519SOL    HW2 5457   6.301   4.695   1.184
 1520SOL     OW 5458   2.019   3.395   2.573
 1520SOL    HW1 5459   1.970   3.326   2.520
 1520SOL    HW2 5460   2.038   3.475   2.516
 1521SOL     OW 5461   1.515   3.366   0.234
 1521SOL    HW1 5462   1.565   3.358   0.148
 1521SOL    HW2 5463   1.523   3.281   0.286
 1522SOL     OW 5464   6.380   1.904   6.201
 1522SOL    HW1 5465   6.363   1.821   6.253
 1522SOL    HW2 5466   6.423   1.880   6.113
 1523SOL     OW 5467   6.103   2.373   1.305
 1523SOL    HW1 5468   6.167   2.309   1.348
 1523SOL    HW2 5469   6.155   2.449   1.264
 1524SOL     OW 5470   0.181   1.484   1.184
 1524SOL    HW1 5471   0.184   1.385   1.177
 1524SOL    HW2 5472   0.239   1.514   1.259
 1525SOL     OW 5473   3.660   1.906   5.920
 1525SOL    HW1 5474   3.747   1.888   5.874
 1525SOL    HW2 5475   3.585   1.896   5.854
 1526SOL     OW 5476   0.382   1.882   1.387
 1526SOL    HW1 5477   0.360   1.893   1.290
 1526SOL    HW2 5478   0.474   1.917   1.404
 1527SOL     OW 5479   3.407   1.682   4.872
 1527SOL    HW1 5480   3.328   1.682   4.811
 1527SOL    HW2 5481   3.409   1.767   4.924
 1528SOL     OW 5482   4.396   6.454   3.169
 1528SOL    HW1 5483   4.384   6.381   3.101
 1528SOL    HW2 5484   4.480   6.439   3.221
 1529SOL     OW 5485   3.996   0.628   6.128
 1529SOL    HW1 5486   3.966   0.568   6.203
 1529SOL    HW2 5487   4.096   0.637   6.131
 1530SOL     OW 5488   2.726   6.414   2.010
 1530SOL    HW1 5489   2.749   6.443   1.917
 1530SOL    HW2 5490   2.722   6.314   2.013
 1531SOL     OW 5491   6.958   0.261   4.024
 1531SOL    HW1 5492   7.013   0.184   4.056
 1531SOL    HW2 5493   7.009   0.346   4.036
 1532SOL     OW 5494   3.322   2.290   5.409
 1532SOL    HW1 5495   3.304   2.348   5.330
 1532SOL    HW2 5496   3.313   2.344   5.493
 1533SOL     OW 5497   6.106   3.616   6.970
 1533SOL    HW1 5498   6.025   3.585   6.920
 1533SOL    HW2 5499   6.086   3.703   7.015
 1534SOL     OW 5500   0.868   5.811   0.612
 1534SOL    HW1 5501   0.856   5.891   0.554
 1534SOL    HW2 5502   0.950   5.761   0.584
 1535SOL     OW 5503   5.345   4.716   4.293
 1535SOL    HW1 5504   5.372   4.689   4.385
 1535SOL    HW2 5505   5.381   4.650   4.227
 1536SOL     OW 5506   2.097   5.960   4.498
 1536SOL    HW1 5507   2.131   5.986   4.408
 1536SOL    HW2 5508   2.079   5.861   4.500
 1537SOL     OW 5509   2.484   5.865   4.232
 1537SOL    HW1 5510   2.412   5.866   4.162
 1537SOL    HW2 5511   2.488   5.774   4.274
 1538SOL     OW 5512   2.528   4.587   6.872
 1538SOL    HW1 5513   2.590   4.530   6.926
 1538SOL    HW2 5514   2.476   4.647   6.932
 1539SOL     OW 5515   3.461   4.474   1.694
 1539SOL    HW1 5516   3.458   4.388   1.745
 1539SOL    HW2 5517   3.510   4.543   1.747
 1540SOL     OW 5518   0.845   0.308   4.806
 1540SOL    HW1 5519   0.783   0.239   4.843
 1540SOL    HW2 5520   0.888   0.273   4.723
 1541SOL     OW 5521   4.082   2.867   1.329
 1541SOL    HW1 5522   4.070   2.793   1.263
 1541SOL    HW2 5523   4.166   2.852   1.381
 1542SOL     OW 5524   0.301   5.959   1.517
 1542SOL    HW1 5525   0.286   6.036   1.455
 1542SOL    HW2 5526   0.398   5.954   1.543
 1543SOL     OW 5527   3.149   3.618   3.757
 1543SOL    HW1 5528   3.206   3.667   3.692
 1543SOL    HW2 5529   3.086   3.682   3.802
 1544SOL     OW 5530   3.220   4.142   2.509
 1544SOL    HW1 5531   3.140   4.099   2.550
 1544SOL    HW2 5532   3.298   4.134   2.572
 1545SOL     OW 5533   6.065   0.845   4.934
 1545SOL    HW1 5534   6.047   0.759   4.886
 1545SOL    HW2 5535   6.048   0.832   5.032
 1546SOL     OW 5536   6.189   6.704   6.212
 1546SOL    HW1 5537   6.192   6.604   6.212
 1546SOL    HW2 5538   6.280   6.740   6.235
 1547SOL     OW 5539   2.788   4.822   3.134
 1547SOL    HW1 5540   2.788   4.723   3.120
 1547SOL    HW2 5541   2.734   4.845   3.215
 1548SOL     OW 5542   4.356   4.629   5.346
 1548SOL    HW1 5543   4.407   4.597   5.425
 1548SOL    HW2 5544   4.293   4.558   5.315
 1549SOL     OW 5545   6.641   2.552   1.617
 1549SOL    HW1 5546   6.627   2.470   1.671
 1549SOL    HW2 5547   6.671   2.627   1.676
 1550SOL     OW 5548   2.013   6.219   5.109
 1550SOL    HW1 5549   1.934   6.235   5.168
 1550SOL    HW2 5550   2.040   6.123   5.114
 1551SOL     OW 5551   1.557   3.082   1.418
 1551SOL    HW1 5552   1.539   2.987   1.444
 1551SOL    HW2 5553   1.581   3.134   1.500
 1552SOL     OW 5554   1.416   0.384   1.099
 1552SOL    HW1 5555   1.328   0.431   1.091
 1552SOL    HW2 5556   1.475   0.436   1.162
 1553SOL     OW 5557   6.299   2.023   6.953
 1553SOL    HW1 5558   6.380   2.024   6.894
 1553SOL    HW2 5559   6.279   1.929   6.979
 1554SOL     OW 5560   4.611   2.264   2.824
 1554SOL    HW1 5561   4.617   2.167   2.848
 1554SOL    HW2 5562   4.576   2.273   2.731
 1555SOL     OW 5563   4.470   1.482   4.746
 1555SOL    HW1 5564   4.536   1.406   4.747
 1555SOL    HW2 5565   4.471   1.527   4.835
 1556SOL     OW 5566   3.430   0.177   0.806
 1556SOL    HW1 5567   3.357   0.112   0.828
 1556SOL    HW2 5568   3.453   0.230   0.888
 1557SOL     OW 5569   1.698   2.081   1.092
 1557SOL    HW1 5570   1.764   2.129   1.150
 1557SOL    HW2 5571   1.642   2.020   1.148
 1558SOL     OW 5572   6.353   3.310   5.344
 1558SOL    HW1 5573   6.346   3.312   5.244
 1558SOL    HW2 5574   6.321   3.222   5.378
 1559SOL     OW 5575   1.144   4.292   2.195
 1559SOL    HW1 5576   1.180   4.367   2.140
 1559SOL    HW2 5577   1.075   4.242   2.143
 1560SOL     OW 5578   4.105   1.176   0.791
 1560SOL    HW1 5579   4.191   1.177   0.741
 1560SOL    HW2 5580   4.092   1.087   0.834
 1561SOL     OW 5581   5.262   6.385   2.171
 1561SOL    HW1 5582   5.297   6.469   2.212
 1561SOL    HW2 5583   5.194   6.343   2.232
 1562SOL     OW 5584   3.097   0.026   2.042
 1562SOL    HW1 5585   3.024   0.082   2.080
 1562SOL    HW2 5586   3.083   6.949   2.066
 1563SOL     OW 5587   3.208   2.107   4.779
 1563SOL    HW1 5588   3.306   2.122   4.793
 1563SOL    HW2 5589   3.157   2.147   4.855
 1564SOL     OW 5590   0.950   1.630   2.296
 1564SOL    HW1 5591   1.022   1.696   2.320
 1564SOL    HW2 5592   0.948   1.617   2.197
 1565SOL     OW 5593   3.487   6.433   4.101
 1565SOL    HW1 5594   3.569   6.489   4.111
 1565SOL    HW2 5595   3.408   6.492   4.088
 1566SOL     OW 5596   4.902   4.439   3.427
 1566SOL    HW1 5597   4.808   4.461   3.451
 1566SOL    HW2 5598   4.931   4.358   3.478
 1567SOL     OW 5599   5.856   5.727   5.597
 1567SOL    HW1 5600   5.941   5.696   5.640
 1567SOL    HW2 5601   5.778   5.679   5.638
 1568SOL     OW 5602   2.209   6.440   3.288
 1568SOL    HW1 5603   2.281   6.386   3.244
 1568SOL    HW2 5604   2.178   6.391   3.371
 1569SOL     OW 5605   3.050   0.226   2.736
 1569SOL    HW1 5606   3.061   0.185   2.646
 1569SOL    HW2 5607   3.099   0.170   2.804
 1570SOL     OW 5608   3.371   0.100   0.142
 1570SOL    HW1 5609   3.328   0.021   0.185
 1570SOL    HW2 5610   3.412   0.073   0.055
 1571SOL     OW 5611   1.303   2.666   3.739
 1571SOL    HW1 5612   1.304   2.692   3.836
 1571SOL    HW2 5613   1.323   2.568   3.731
 1572SOL     OW 5614   1.772   4.736   1.632
 1572SOL    HW1 5615   1.740   4.646   1.661
 1572SOL    HW2 5616   1.712   4.807   1.670
 1573SOL     OW 5617   4.356   5.020   1.286
 1573SOL    HW1 5618   4.429   5.043   1.222
 1573SOL    HW2 5619   4.367   5.073   1.369
 1574SOL     OW 5620   6.057   3.858   1.637
 1574SOL    HW1 5621   5.958   3.847   1.647
 1574SOL    HW2 5622   6.079   3.954   1.622
 1575SOL     OW 5623   1.420   1.332   1.227
 1575SOL    HW1 5624   1.451   1.380   1.309
 1575SOL    HW2 5625   1.376   1.397   1.166
 1576SOL     OW 5626   0.312   6.015   2.078
 1576SOL    HW1 5627   0.371   6.000   1.998
 1576SOL    HW2 5628   0.282   5.927   2.114
 1577SOL     OW 5629   3.433   0.081   6.601
 1577SOL    HW1 5630   3.398   0.050   6.513
 1577SOL    HW2 5631   3.386   0.165   6.629
 1578SOL     OW 5632   4.193   0.782   0.374
 1578SOL    HW1 5633   4.263   0.853   0.381
 1578SOL    HW2 5634   4.225   0.711   0.311
 1579SOL     OW 5635   1.715   2.553   1.880
 1579SOL    HW1 5636   1.682   2.494   1.954
 1579SOL    HW2 5637   1.638   2.606   1.844
 1580SOL     OW 5638   3.079   4.001   2.719
 1580SOL    HW1 5639   3.131   4.037   2.797
 1580SOL    HW2 5640   3.022   3.925   2.750
 1581SOL     OW 5641   0.325   4.134   6.087
 1581SOL    HW1 5642   0.400   4.071   6.065
 1581SOL    HW2 5643   0.342   4.222   6.044
 1582SOL     OW 5644   4.776   6.555   5.648
 1582SOL    HW1 5645   4.711   6.595   5.583
 1582SOL    HW2 5646   4.743   6.465   5.675
 1583SOL     OW 5647   1.001   5.743   4.892
 1583SOL    HW1 5648   0.908   5.719   4.865
 1583SOL    HW2 5649   1.066   5.693   4.835
 1584SOL     OW 5650   0.708   5.786   6.572
 1584SOL    HW1 5651   0.609   5.788   6.579
 1584SOL    HW2 5652   0.736   5.793   6.476
 1585SOL     OW 5653   4.012   0.558   3.192
 1585SOL    HW1 5654   4.039   0.566   3.288
 1585SOL    HW2 5655   4.094   0.558   3.134
 1586SOL     OW 5656   2.861   5.690   4.336
 1586SOL    HW1 5657   2.920   5.659   4.411
 1586SOL    HW2 5658   2.766   5.693   4.367
 1587SOL     OW 5659   1.299   6.217   5.816
 1587SOL    HW1 5660   1.327   6.131   5.773
 1587SOL    HW2 5661   1.373   6.284   5.806
 1588SOL     OW 5662   5.366   0.481   2.192
 1588SOL    HW1 5663   5.306   0.542   2.244
 1588SOL    HW2 5664   5.459   0.488   2.227
 1589SOL     OW 5665   6.773   4.108   2.611
 1589SOL    HW1 5666   6.846   4.174   2.626
 1589SOL    HW2 5667   6.711   4.108   2.690
 1590SOL     OW 5668   5.790   2.237   3.502
 1590SOL    HW1 5669   5.771   2.216   3.598
 1590SOL    HW2 5670   5.889   2.236   3.487
 1591SOL     OW 5671   0.064   5.905   1.631
 1591SOL    HW1 5672   0.162   5.901   1.608
 1591SOL    HW2 5673   0.010   5.911   1.548
 1592SOL     OW 5674   1.498   4.005   0.018
 1592SOL    HW1 5675   1.441   3.926   0.042
 1592SOL    HW2 5676   1.558   4.027   0.095
 1593SOL     OW 5677   1.153   0.120   6.502
 1593SOL    HW1 5678   1.158   0.218   6.522
 1593SOL    HW2 5679   1.061   0.096   6.470
 1594SOL     OW 5680   0.050   0.809   2.472
 1594SOL    HW1 5681   7.005   0.856   2.534
 1594SOL    HW2 5682   0.019   0.715   2.458
 1595SOL     OW 5683   1.351   4.229   6.997
 1595SOL    HW1 5684   1.415   4.301   6.971
 1595SOL    HW2 5685   1.402   4.151   0.016
 1596SOL     OW 5686   6.028   4.282   2.520
 1596SOL    HW1 5687   6.025   4.183   2.509
 1596SOL    HW2 5688   6.089   4.306   2.596
 1597SOL     OW 5689   2.967   5.328   1.225
 1597SOL    HW1 5690   2.969   5.334   1.325
 1597SOL    HW2 5691   3.047   5.276   1.193
 1598SOL     OW 5692   2.059   5.586   7.001
 1598SOL    HW1 5693   2.134   5.650   7.018
 1598SOL    HW2 5694   1.980   5.635   6.965
 1599SOL     OW 5695   3.723   5.302   3.971
 1599SOL    HW1 5696   3.805   5.272   4.020
 1599SOL    HW2 5697   3.656   5.337   4.037
 1600SOL     OW 5698   3.504   0.484   2.906
 1600SOL    HW1 5699   3.468   0.544   2.835
 1600SOL    HW2 5700   3.601   0.503   2.920
 1601SOL     OW 5701   6.278   6.784   4.044
 1601SOL    HW1 5702   6.357   6.743   4.091
 1601SOL    HW2 5703   6.243   6.859   4.099
 1602SOL     OW 5704   4.483   5.453   4.056
 1602SOL    HW1 5705   4.420   5.407   3.993
 1602SOL    HW2 5706   4.444   5.541   4.083
 1603SOL     OW 5707   2.935   5.847   4.616
 1603SOL    HW1 5708   3.028   5.882   4.624
 1603SOL    HW2 5709   2.936   5.747   4.614
 1604SOL     OW 5710   3.998   4.728   2.068
 1604SOL    HW1 5711   4.055   4.707   1.988
 1604SOL    HW2 5712   3.987   4.646   2.124
 1605SOL     OW 5713   5.204   5.412   1.626
 1605SOL    HW1 5714   5.214   5.405   1.725
 1605SOL    HW2 5715   5.274   5.474   1.590
 1606SOL     OW 5716   4.370   6.105   3.788
 1606SOL    HW1 5717   4.271   6.116   3.797
 1606SOL    HW2 5718   4.410   6.090   3.878
 1607SOL     OW 5719   4.211   6.773   2.422
 1607SOL    HW1 5720   4.224   6.723   2.508
 1607SOL    HW2 5721   4.283   6.843   2.413
 1608SOL     OW 5722   6.995   1.366   2.933
 1608SOL    HW1 5723   0.025   1.380   2.846
 1608SOL    HW2 5724   7.015   1.442   2.995
 1609SOL     OW 5725   3.359   5.981   0.720
 1609SOL    HW1 5726   3.403   5.904   0.765
 1609SOL    HW2 5727   3.353   5.964   0.622
 1610SOL     OW 5728   3.845   6.288   0.016
 1610SOL    HW1 5729   3.804   6.366   6.986
 1610SOL    HW2 5730   3.820   6.292   0.112
 1611SOL     OW 5731   1.369   4.034   1.412
 1611SOL    HW1 5732   1.410   4.118   1.449
 1611SOL    HW2 5733   1.438   3.962   1.410
 1612SOL     OW 5734   2.849   5.444   1.001
 1612SOL    HW1 5735   2.881   5.537   0.989
 1612SOL    HW2 5736   2.897   5.401   1.077
 1613SOL     OW 5737   0.637   6.004   2.682
 1613SOL    HW1 5738   0.571   6.054   2.739
 1613SOL    HW2 5739   0.603   5.999   2.588
 1614SOL     OW 5740   5.794   2.356   6.566
 1614SOL    HW1 5741   5.790   2.439   6.621
 1614SOL    HW2 5742   5.798   2.380   6.469
 1615SOL     OW 5743   0.256   5.295   6.704
 1615SOL    HW1 5744   0.250   5.206   6.750
 1615SOL    HW2 5745   0.303   5.284   6.617
 1616SOL     OW 5746   3.648   0.877   5.237
 1616SOL    HW1 5747   3.656   0.902   5.333
 1616SOL    HW2 5748   3.738   0.886   5.193
 1617SOL     OW 5749   4.950   6.784   3.855
 1617SOL    HW1 5750   4.929   6.761   3.759
 1617SOL    HW2 5751   5.049   6.791   3.867
 1618SOL     OW 5752   1.796   6.124   2.741
 1618SOL    HW1 5753   1.820   6.027   2.731
 1618SOL    HW2 5754   1.857   6.179   2.684
 1619SOL     OW 5755   0.812   5.165   6.744
 1619SOL    HW1 5756   0.786   5.152   6.840
 1619SOL    HW2 5757   0.792   5.082   6.692
 1620SOL     OW 5758   3.105   5.232   0.722
 1620SOL    HW1 5759   3.113   5.325   0.687
 1620SOL    HW2 5760   3.186   5.180   0.695
 1621SOL     OW 5761   5.764   6.203   1.209
 1621SOL    HW1 5762   5.796   6.176   1.119
 1621SOL    HW2 5763   5.843   6.224   1.268
 1622SOL     OW 5764   0.777   4.295   5.549
 1622SOL    HW1 5765   0.701   4.298   5.614
 1622SOL    HW2 5766   0.778   4.206   5.503
 1623SOL     OW 5767   1.067   2.554   4.866
 1623SOL    HW1 5768   0.979   2.542   4.913
 1623SOL    HW2 5769   1.051   2.594   4.776
 1624SOL     OW 5770   3.368   0.887   0.369
 1624SOL    HW1 5771   3.332   0.963   0.316
 1624SOL    HW2 5772   3.328   0.887   0.460
 1625SOL     OW 5773   2.214   5.130   0.207
 1625SOL    HW1 5774   2.235   5.052   0.265
 1625SOL    HW2 5775   2.299   5.174   0.178
 1626SOL     OW 5776   3.235   1.744   2.144
 1626SOL    HW1 5777   3.257   1.831   2.099
 1626SOL    HW2 5778   3.157   1.757   2.204
 1627SOL     OW 5779   5.130   2.491   4.554
 1627SOL    HW1 5780   5.110   2.589   4.557
 1627SOL    HW2 5781   5.061   2.441   4.606
 1628SOL     OW 5782   5.031   5.814   6.783
 1628SOL    HW1 5783   5.110   5.837   6.726
 1628SOL    HW2 5784   5.042   5.723   6.821
 1629SOL     OW 5785   3.110   2.138   3.352
 1629SOL    HW1 5786   3.014   2.163   3.344
 1629SOL    HW2 5787   3.123   2.044   3.321
 1630SOL     OW 5788   0.255   4.166   6.731
 1630SOL    HW1 5789   0.352   4.181   6.751
 1630SOL    HW2 5790   0.201   4.186   6.813
 1631SOL     OW 5791   0.053   3.477   1.208
 1631SOL    HW1 5792   0.029   3.572   1.191
 1631SOL    HW2 5793   0.108   3.470   1.291
 1632SOL     OW 5794   5.323   4.713   2.527
 1632SOL    HW1 5795   5.363   4.659   2.452
 1632SOL    HW2 5796   5.328   4.810   2.503
 1633SOL     OW 5797   4.830   3.958   3.992
 1633SOL    HW1 5798   4.923   3.934   4.023
 1633SOL    HW2 5799   4.784   4.010   4.063
 1634SOL     OW 5800   3.935   0.596   4.631
 1634SOL    HW1 5801   3.955   0.520   4.569
 1634SOL    HW2 5802   3.836   0.612   4.633
 1635SOL     OW 5803   3.818   4.825   5.753
 1635SOL    HW1 5804   3.864   4.827   5.843
 1635SOL    HW2 5805   3.860   4.755   5.696
 1636SOL     OW 5806   4.084   6.140   1.208
 1636SOL    HW1 5807   4.012   6.196   1.249
 1636SOL    HW2 5808   4.080   6.048   1.246
 1637SOL     OW 5809   6.907   6.990   3.326
 1637SOL    HW1 5810   6.918   6.902   3.278
 1637SOL    HW2 5811   6.937   6.980   3.421
 1638SOL     OW 5812   6.860   3.265   1.526
 1638SOL    HW1 5813   6.872   3.166   1.524
 1638SOL    HW2 5814   6.860   3.301   1.432
 1639SOL     OW 5815   6.558   4.217   1.528
 1639SOL    HW1 5816   6.536   4.279   1.604
 1639SOL    HW2 5817   6.648   4.178   1.542
 1640SOL     OW 5818   5.868   0.031   1.207
 1640SOL    HW1 5819   5.806   0.067   1.137
 1640SOL    HW2 5820   5.962   0.049   1.180
 1641SOL     OW 5821   7.012   2.442   3.809
 1641SOL    HW1 5822   6.920   2.417   3.840
 1641SOL    HW2 5823   0.054   2.451   3.888
 1642SOL     OW 5824   6.512   2.447   6.506
 1642SOL    HW1 5825   6.489   2.481   6.597
 1642SOL    HW2 5826   6.428   2.425   6.456
 1643SOL     OW 5827   3.243   5.011   3.958
 1643SOL    HW1 5828   3.186   5.090   3.936
 1643SOL    HW2 5829   3.204   4.963   4.037
 1644SOL     OW 5830   5.920   2.722   0.635
 1644SOL    HW1 5831   6.016   2.728   0.661
 1644SOL    HW2 5832   5.911   2.741   0.537
 1645SOL     OW 5833   2.963   0.469   5.985
 1645SOL    HW1 5834   2.897   0.403   6.022
 1645SOL    HW2 5835   3.032   0.421   5.931
 1646SOL     OW 5836   1.914   5.453   6.732
 1646SOL    HW1 5837   1.866   5.526   6.782
 1646SOL    HW2 5838   2.004   5.487   6.702
 1647SOL     OW 5839   6.018   3.052   3.905
 1647SOL    HW1 5840   6.103   3.000   3.895
 1647SOL    HW2 5841   5.942   2.989   3.921
 1648SOL     OW 5842   4.834   5.901   0.346
 1648SOL    HW1 5843   4.921   5.856   0.366
 1648SOL    HW2 5844   4.849   5.977   0.283
 1649SOL     OW 5845   3.175   0.203   3.639
 1649SOL    HW1 5846   3.150   0.114   3.600
 1649SOL    HW2 5847   3.245   0.246   3.582
 1650SOL     OW 5848   1.655   4.977   6.222
 1650SOL    HW1 5849   1.691   4.907   6.161
 1650SOL    HW2 5850   1.570   4.944   6.264
 1651SOL     OW 5851   0.705   2.772   3.607
 1651SOL    HW1 5852   0.784   2.714   3.588
 1651SOL    HW2 5853   0.646   2.728   3.675
 1652SOL     OW 5854   1.216   2.701   1.762
 1652SOL    HW1 5855   1.152   2.626   1.774
 1652SOL    HW2 5856   1.195   2.749   1.677
 1653SOL     OW 5857   0.283   5.425   2.476
 1653SOL    HW1 5858   0.365   5.421   2.534
 1653SOL    HW2 5859   0.214   5.481   2.520
 1654SOL     OW 5860   0.876   2.637   1.197
 1654SOL    HW1 5861   0.832   2.675   1.116
 1654SOL    HW2 5862   0.876   2.705   1.270
 1655SOL     OW 5863   6.890   1.613   4.351
 1655SOL    HW1 5864   6.883   1.713   4.350
 1655SOL    HW2 5865   6.922   1.581   4.263
 1656SOL     OW 5866   2.259   5.582   4.409
 1656SOL    HW1 5867   2.303   5.496   4.432
 1656SOL    HW2 5868   2.220   5.623   4.491
 1657SOL     OW 5869   6.924   0.939   4.839
 1657SOL    HW1 5870   6.928   0.901   4.931
 1657SOL    HW2 5871   6.828   0.947   4.811
 1658SOL     OW 5872   6.810   6.741   0.241
 1658SOL    HW1 5873   6.787   6.665   0.302
 1658SOL    HW2 5874   6.896   6.721   0.193
 1659SOL     OW 5875   4.238   6.838   6.686
 1659SOL    HW1 5876   4.228   6.904   6.612
 1659SOL    HW2 5877   4.247   6.746   6.648
 1660SOL     OW 5878   1.484   6.498   1.987
 1660SOL    HW1 5879   1.534   6.414   2.010
 1660SOL    HW2 5880   1.440   6.533   2.070
 1661SOL     OW 5881   2.565   4.601   2.116
 1661SOL    HW1 5882   2.541   4.698   2.108
 1661SOL    HW2 5883   2.653   4.585   2.070
 1662SOL     OW 5884   6.873   1.523   5.225
 1662SOL    HW1 5885   6.822   1.454   5.275
 1662SOL    HW2 5886   6.847   1.520   5.128
 1663SOL     OW 5887   4.867   5.054   2.055
 1663SOL    HW1 5888   4.840   4.989   1.984
 1663SOL    HW2 5889   4.856   5.147   2.021
 1664SOL     OW 5890   1.214   0.626   5.017
 1664SOL    HW1 5891   1.251   0.556   5.079
 1664SOL    HW2 5892   1.225   0.595   4.922
 1665SOL     OW 5893   1.389   3.370   1.618
 1665SOL    HW1 5894   1.289   3.360   1.620
 1665SOL    HW2 5895   1.431   3.281   1.603
 1666SOL     OW 5896   5.508   6.811   6.233
 1666SOL    HW1 5897   5.578   6.754   6.191
 1666SOL    HW2 5898   5.447   6.755   6.289
 1667SOL     OW 5899   6.983   6.820   1.113
 1667SOL    HW1 5900   0.061   6.830   1.088
 1667SOL    HW2 5901   6.975   6.815   1.212
 1668SOL     OW 5902   5.238   5.057   3.580
 1668SOL    HW1 5903   5.241   4.964   3.617
 1668SOL    HW2 5904   5.152   5.100   3.608
 1669SOL     OW 5905   0.056   4.206   5.719
 1669SOL    HW1 5906   6.978   4.203   5.692
 1669SOL    HW2 5907   0.086   4.301   5.723
 1670SOL     OW 5908   1.261   4.933   5.856
 1670SOL    HW1 5909   1.290   4.865   5.923
 1670SOL    HW2 5910   1.269   5.024   5.895
 1671SOL     OW 5911   4.743   2.014   2.660
 1671SOL    HW1 5912   4.654   1.976   2.635
 1671SOL    HW2 5913   4.767   2.088   2.597
 1672SOL     OW 5914   1.037   3.546   0.246
 1672SOL    HW1 5915   1.107   3.475   0.250
 1672SOL    HW2 5916   0.957   3.511   0.198
 1673SOL     OW 5917   2.102   1.975   4.500
 1673SOL    HW1 5918   2.153   1.948   4.581
 1673SOL    HW2 5919   2.054   2.061   4.518
 1674SOL     OW 5920   6.016   3.037   2.286
 1674SOL    HW1 5921   6.112   3.065   2.275
 1674SOL    HW2 5922   5.989   2.982   2.207
 1675SOL     OW 5923   4.889   0.836   1.373
 1675SOL    HW1 5924   4.798   0.855   1.411
 1675SOL    HW2 5925   4.900   0.885   1.286
 1676SOL     OW 5926   2.297   2.453   2.719
 1676SOL    HW1 5927   2.203   2.482   2.737
 1676SOL    HW2 5928   2.297   2.361   2.681
 1677SOL     OW 5929   3.769   4.018   3.269
 1677SOL    HW1 5930   3.780   4.058   3.178
 1677SOL    HW2 5931   3.717   3.933   3.263
 1678SOL     OW 5932   0.752   6.447   1.135
 1678SOL    HW1 5933   0.832   6.404   1.094
 1678SOL    HW2 5934   0.684   6.376   1.156
 1679SOL     OW 5935   1.890   1.077   5.330
 1679SOL    HW1 5936   1.966   1.095   5.268
 1679SOL    HW2 5937   1.862   0.981   5.321
 1680SOL     OW 5938   5.385   3.176   4.387
 1680SOL    HW1 5939   5.303   3.192   4.442
 1680SOL    HW2 5940   5.423   3.087   4.409
 1681SOL     OW 5941   1.568   5.662   4.746
 1681SOL    HW1 5942   1.634   5.727   4.709
 1681SOL    HW2 5943   1.594   5.569   4.719
 1682SOL     OW 5944   3.073   0.503   6.287
 1682SOL    HW1 5945   3.128   0.460   6.216
 1682SOL    HW2 5946   3.040   0.592   6.255
 1683SOL     OW 5947   5.684   5.177   2.802
 1683SOL    HW1 5948   5.766   5.128   2.832
 1683SOL    HW2 5949   5.621   5.112   2.759
 1684SOL     OW 5950   1.265   4.436   1.857
 1684SOL    HW1 5951   1.185   4.484   1.892
 1684SOL    HW2 5952   1.242   4.393   1.770
 1685SOL     OW 5953   1.552   1.716   5.910
 1685SOL    HW1 5954   1.517   1.623   5.911
 1685SOL    HW2 5955   1.645   1.716   5.873
 1686SOL     OW 5956   4.801   6.113   3.517
 1686SOL    HW1 5957   4.761   6.096   3.608
 1686SOL    HW2 5958   4.846   6.029   3.485
 1687SOL     OW 5959   0.355   4.055   2.011
 1687SOL    HW1 5960   0.388   4.143   1.975
 1687SOL    HW2 5961   0.404   4.033   2.095
 1688SOL     OW 5962   2.029   2.148   3.666
 1688SOL    HW1 5963   2.051   2.059   3.626
 1688SOL    HW2 5964   1.931   2.163   3.662
 1689SOL     OW 5965   6.484   1.310   2.364
 1689SOL    HW1 5966   6.500   1.266   2.275
 1689SOL    HW2 5967   6.486   1.410   2.352
 1690SOL     OW 5968   1.191   3.621   4.053
 1690SOL    HW1 5969   1.098   3.592   4.074
 1690SOL    HW2 5970   1.200   3.719   4.070
 1691SOL     OW 5971   4.903   3.691   4.376
 1691SOL    HW1 5972   4.988   3.640   4.362
 1691SOL    HW2 5973   4.864   3.716   4.287
 1692SOL     OW 5974   5.370   5.597   1.501
 1692SOL    HW1 5975   5.304   5.663   1.465
 1692SOL    HW2 5976   5.406   5.542   1.425
 1693SOL     OW 5977   6.998   1.970   4.717
 1693SOL    HW1 5978   6.930   2.023   4.666
 1693SOL    HW2 5979   6.973   1.873   4.715
 1694SOL     OW 5980   5.998   1.282   4.657
 1694SOL    HW1 5981   6.030   1.206   4.714
 1694SOL    HW2 5982   5.928   1.248   4.593
 1695SOL     OW 5983   3.952   0.502   6.619
 1695SOL    HW1 5984   3.949   0.595   6.583
 1695SOL    HW2 5985   3.859   0.472   6.640
 1696SOL     OW 5986   3.965   5.579   0.501
 1696SOL    HW1 5987   3.985   5.481   0.498
 1696SOL    HW2 5988   3.973   5.612   0.595
 1697SOL     OW 5989   6.289   2.357   0.771
 1697SOL    HW1 5990   6.344   2.274   0.760
 1697SOL    HW2 5991   6.212   2.338   0.833
 1698SOL     OW 5992   3.648   0.982   1.439
 1698SOL    HW1 5993   3.742   1.007   1.463
 1698SOL    HW2 5994   3.637   0.983   1.340
 1699SOL     OW 5995   2.544   1.679   6.219
 1699SOL    HW1 5996   2.554   1.583   6.246
 1699SOL    HW2 5997   2.598   1.696   6.136
 1700SOL     OW 5998   5.970   3.282   3.782
 1700SOL    HW1 5999   5.971   3.183   3.788
 1700SOL    HW2 6000   6.029   3.321   3.852
 1701SOL     OW 6001   6.377   5.227   4.639
 1701SOL    HW1 6002   6.333   5.280   4.712
 1701SOL    HW2 6003   6.417   5.144   4.678
 1702SOL     OW 6004   1.726   0.921   6.435
 1702SOL    HW1 6005   1.818   0.959   6.425
 1702SOL    HW2 6006   1.658   0.992   6.418
 1703SOL     OW 6007   3.549   1.794   6.140
 1703SOL    HW1 6008   3.590   1.855   6.071
 1703SOL    HW2 6009   3.602   1.710   6.145
 1704SOL     OW 6010   1.958   1.051   0.496
 1704SOL    HW1 6011   2.016   1.035   0.576
 1704SOL    HW2 6012   1.981   1.139   0.455
 1705SOL     OW 6013   4.045   1.640   1.811
 1705SOL    HW1 6014   4.041   1.703   1.733
 1705SOL    HW2 6015   3.955   1.634   1.854
 1706SOL     OW 6016   4.080   1.619   1.078
 1706SOL    HW1 6017   4.102   1.531   1.036
 1706SOL    HW2 6018   4.166   1.666   1.101
 1707SOL     OW 6019   4.854   1.840   3.036
 1707SOL    HW1 6020   4.914   1.856   2.958
 1707SOL    HW2 6021   4.843   1.925   3.087
 1708SOL     OW 6022   3.513   5.584   1.813
 1708SOL    HW1 6023   3.415   5.570   1.824
 1708SOL    HW2 6024   3.563   5.513   1.863
 1709SOL     OW 6025   4.891   6.027   0.597
 1709SOL    HW1 6026   4.845   6.006   0.510
 1709SOL    HW2 6027   4.823   6.051   0.666
 1710SOL     OW 6028   4.193   5.495   3.406
 1710SOL    HW1 6029   4.114   5.436   3.386
 1710SOL    HW2 6030   4.276   5.440   3.409
 1711SOL     OW 6031   2.864   5.666   5.545
 1711SOL    HW1 6032   2.904   5.590   5.596
 1711SOL    HW2 6033   2.826   5.733   5.609
 1712SOL     OW 6034   0.438   2.574   5.217
 1712SOL    HW1 6035   0.515   2.510   5.214
 1712SOL    HW2 6036   0.446   2.640   5.143
 1713SOL     OW 6037   3.970   0.912   2.906
 1713SOL    HW1 6038   3.940   0.982   2.841
 1713SOL    HW2 6039   4.004   0.957   2.989
 1714SOL     OW 6040   3.254   2.151   6.610
 1714SOL    HW1 6041   3.271   2.206   6.692
 1714SOL    HW2 6042   3.325   2.081   6.602
 1715SOL     OW 6043   1.561   6.026   2.173
 1715SOL    HW1 6044   1.631   5.960   2.145
 1715SOL    HW2 6045   1.510   6.057   2.093
 1716SOL     OW 6046   4.466   0.330   3.911
 1716SOL    HW1 6047   4.489   0.396   3.983
 1716SOL    HW2 6048   4.493   0.238   3.940
 1717SOL     OW 6049   3.921   6.171   5.098
 1717SOL    HW1 6050   3.911   6.080   5.058
 1717SOL    HW2 6051   3.977   6.228   5.039
 1718SOL     OW 6052   2.301   2.190   2.625
 1718SOL    HW1 6053   2.234   2.120   2.649
 1718SOL    HW2 6054   2.381   2.147   2.583
 1719SOL     OW 6055   1.531   4.734   1.398
 1719SOL    HW1 6056   1.595   4.663   1.368
 1719SOL    HW2 6057   1.477   4.701   1.475
 1720SOL     OW 6058   0.287   2.821   6.045
 1720SOL    HW1 6059   0.269   2.741   6.103
 1720SOL    HW2 6060   0.347   2.884   6.094
 1721SOL     OW 6061   1.306   0.411   2.248
 1721SOL    HW1 6062   1.274   0.438   2.157
 1721SOL    HW2 6063   1.401   0.379   2.241
 1722SOL     OW 6064   3.493   2.081   2.820
 1722SOL    HW1 6065   3.394   2.090   2.828
 1722SOL    HW2 6066   3.516   2.048   2.728
 1723SOL     OW 6067   4.675   2.205   0.112
 1723SOL    HW1 6068   4.639   2.297   0.123
 1723SOL    HW2 6069   4.742   2.203   0.038
 1724SOL     OW 6070   6.482   2.306   1.661
 1724SOL    HW1 6071   6.518   2.300   1.568
 1724SOL    HW2 6072   6.518   2.230   1.715
 1725SOL     OW 6073   1.979   4.824   6.632
 1725SOL    HW1 6074   1.962   4.729   6.606
 1725SOL    HW2 6075   1.912   4.853   6.699
 1726SOL     OW 6076   6.011   4.356   3.778
 1726SOL    HW1 6077   6.104   4.390   3.790
 1726SOL    HW2 6078   6.008   4.294   3.699
 1727SOL     OW 6079   3.464   3.554   3.607
 1727SOL    HW1 6080   3.436   3.459   3.622
 1727SOL    HW2 6081   3.563   3.563   3.620
 1728SOL     OW 6082   5.027   4.387   5.542
 1728SOL    HW1 6083   5.115   4.348   5.568
 1728SOL    HW2 6084   4.956   4.351   5.602
 1729SOL     OW 6085   1.710   3.686   1.629
 1729SOL    HW1 6086   1.801   3.679   1.588
 1729SOL    HW2 6087   1.714   3.744   1.710
 1730SOL     OW 6088   2.002   5.899   5.062
 1730SOL    HW1 6089   1.911   5.871   5.032
 1730SOL    HW2 6090   2.063   5.820   5.066
 1731SOL     OW 6091   5.163   4.948   3.937
 1731SOL    HW1 6092   5.118   4.980   3.854
 1731SOL    HW2 6093   5.099   4.891   3.990
 1732SOL     OW 6094   2.076   4.116   6.390
 1732SOL    HW1 6095   2.157   4.144   6.338
 1732SOL    HW2 6096   2.038   4.033   6.350
 1733SOL     OW 6097   2.915   3.910   0.174
 1733SOL    HW1 6098   2.855   3.832   0.189
 1733SOL    HW2 6099   3.004   3.878   0.141
 1734SOL     OW 6100   6.570   3.093   1.501
 1734SOL    HW1 6101   6.665   3.078   1.475
 1734SOL    HW2 6102   6.511   3.026   1.457
 1735SOL     OW 6103   4.607   5.406   0.083
 1735SOL    HW1 6104   4.512   5.385   0.106
 1735SOL    HW2 6105   4.611   5.449   7.012
 1736SOL     OW 6106   4.355   3.875   1.166
 1736SOL    HW1 6107   4.321   3.969   1.163
 1736SOL    HW2 6108   4.280   3.813   1.188
 1737SOL     OW 6109   5.071   0.668   4.266
 1737SOL    HW1 6110   5.124   0.686   4.349
 1737SOL    HW2 6111   5.064   0.751   4.211
 1738SOL     OW 6112   1.885   4.038   4.234
 1738SOL    HW1 6113   1.801   3.993   4.263
 1738SOL    HW2 6114   1.960   4.013   4.296
 1739SOL     OW 6115   5.543   0.482   3.401
 1739SOL    HW1 6116   5.558   0.393   3.358
 1739SOL    HW2 6117   5.617   0.544   3.375
 1740SOL     OW 6118   6.982   2.090   5.017
 1740SOL    HW1 6119   0.033   2.136   4.961
 1740SOL    HW2 6120   6.985   1.991   5.000
 1741SOL     OW 6121   1.387   1.957   4.587
 1741SOL    HW1 6122   1.417   1.958   4.492
 1741SOL    HW2 6123   1.456   2.000   4.645
 1742SOL     OW 6124   6.340   0.119   6.043
 1742SOL    HW1 6125   6.325   0.162   6.132
 1742SOL    HW2 6126   6.417   0.163   5.997
 1743SOL     OW 6127   1.016   1.326   3.241
 1743SOL    HW1 6128   0.956   1.404   3.260
 1743SOL    HW2 6129   0.997   1.253   3.306
 1744SOL     OW 6130   5.077   2.259   3.641
 1744SOL    HW1 6131   5.003   2.259   3.708
 1744SOL    HW2 6132   5.060   2.187   3.573
 1745SOL     OW 6133   6.057   6.312   0.920
 1745SOL    HW1 6134   5.976   6.263   0.887
 1745SOL    HW2 6135   6.085   6.274   1.008
 1746SOL     OW 6136   1.548   3.676   3.633
 1746SOL    HW1 6137   1.635   3.637   3.666
 1746SOL    HW2 6138   1.482   3.602   3.620
 1747SOL     OW 6139   3.717   1.658   1.516
 1747SOL    HW1 6140   3.691   1.747   1.554
 1747SOL    HW2 6141   3.639   1.621   1.464
 1748SOL     OW 6142   6.353   1.506   4.495
 1748SOL    HW1 6143   6.285   1.461   4.438
 1748SOL    HW2 6144   6.424   1.440   4.521
 1749SOL     OW 6145   2.740   5.787   1.109
 1749SOL    HW1 6146   2.831   5.746   1.102
 1749SOL    HW2 6147   2.743   5.881   1.076
 1750SOL     OW 6148   4.307   0.994   5.241
 1750SOL    HW1 6149   4.407   0.998   5.242
 1750SOL    HW2 6150   4.271   1.026   5.328
 1751SOL     OW 6151   6.394   2.267   5.301
 1751SOL    HW1 6152   6.484   2.310   5.301
 1751SOL    HW2 6153   6.357   2.266   5.209
 1752SOL     OW 6154   6.589   1.411   0.960
 1752SOL    HW1 6155   6.566   1.496   0.912
 1752SOL    HW2 6156   6.515   1.387   1.022
 1753SOL     OW 6157   6.918   1.558   1.578
 1753SOL    HW1 6158   6.895   1.647   1.538
 1753SOL    HW2 6159   6.958   1.499   1.508
 1754SOL     OW 6160   3.215   5.875   5.955
 1754SOL    HW1 6161   3.229   5.820   5.872
 1754SOL    HW2 6162   3.209   5.815   6.034
 1755SOL     OW 6163   6.554   6.962   4.938
 1755SOL    HW1 6164   6.487   6.908   4.887
 1755SOL    HW2 6165   6.575   6.916   5.025
 1756SOL     OW 6166   5.556   0.452   5.861
 1756SOL    HW1 6167   5.500   0.373   5.888
 1756SOL    HW2 6168   5.624   0.471   5.932
 1757SOL     OW 6169   2.565   5.186   3.987
 1757SOL    HW1 6170   2.548   5.137   3.901
 1757SOL    HW2 6171   2.657   5.226   3.985
 1758SOL     OW 6172   2.163   6.872   5.202
 1758SOL    HW1 6173   2.235   6.824   5.254
 1758SOL    HW2 6174   2.201   6.903   5.115
 1759SOL     OW 6175   1.085   5.946   6.467
 1759SOL    HW1 6176   1.176   5.962   6.429
 1759SOL    HW2 6177   1.069   6.008   6.544
 1760SOL     OW 6178   6.117   0.596   4.716
 1760SOL    HW1 6179   6.036   0.600   4.657
 1760SOL    HW2 6180   6.195   0.634   4.667
 1761SOL     OW 6181   0.010   1.706   1.147
 1761SOL    HW1 6182   0.041   1.739   1.057
 1761SOL    HW2 6183   0.068   1.630   1.176
 1762SOL     OW 6184   0.957   1.632   5.204
 1762SOL    HW1 6185   1.011   1.710   5.237
 1762SOL    HW2 6186   1.018   1.566   5.160
 1763SOL     OW 6187   1.360   3.631   4.928
 1763SOL    HW1 6188   1.354   3.731   4.932
 1763SOL    HW2 6189   1.300   3.597   4.855
 1764SOL     OW 6190   1.538   4.055   1.767
 1764SOL    HW1 6191   1.456   4.076   1.714
 1764SOL    HW2 6192   1.553   4.126   1.836
 1765SOL     OW 6193   4.969   3.099   1.913
 1765SOL    HW1 6194   4.884   3.084   1.963
 1765SOL    HW2 6195   5.007   3.011   1.884
 1766SOL     OW 6196   4.433   4.849   3.892
 1766SOL    HW1 6197   4.527   4.876   3.909
 1766SOL    HW2 6198   4.431   4.780   3.819
 1767SOL     OW 6199   6.886   5.768   2.376
 1767SOL    HW1 6200   6.983   5.753   2.395
 1767SOL    HW2 6201   6.841   5.805   2.457
 1768SOL     OW 6202   4.613   5.992   1.801
 1768SOL    HW1 6203   4.531   6.019   1.851
 1768SOL    HW2 6204   4.691   5.988   1.864
 1769SOL     OW 6205   6.043   0.703   6.637
 1769SOL    HW1 6206   5.961   0.658   6.674
 1769SOL    HW2 6207   6.090   0.640   6.574
 1770SOL     OW 6208   1.465   4.778   5.600
 1770SOL    HW1 6209   1.399   4.710   5.633
 1770SOL    HW2 6210   1.419   4.866   5.587
 1771SOL     OW 6211   0.951   4.090   0.007
 1771SOL    HW1 6212   1.010   4.011   7.008
 1771SOL    HW2 6213   0.857   4.059   0.019
 1772SOL     OW 6214   2.821   4.804   3.854
 1772SOL    HW1 6215   2.870   4.777   3.937
 1772SOL    HW2 6216   2.846   4.898   3.830
 1773SOL     OW 6217   1.325   0.276   4.759
 1773SOL    HW1 6218   1.418   0.249   4.786
 1773SOL    HW2 6219   1.316   0.375   4.767
 1774SOL     OW 6220   5.960   6.415   1.820
 1774SOL    HW1 6221   5.997   6.332   1.778
 1774SOL    HW2 6222   5.917   6.472   1.750
 1775SOL     OW 6223   1.570   5.319   6.748
 1775SOL    HW1 6224   1.547   5.249   6.680
 1775SOL    HW2 6225   1.610   5.399   6.703
 1776SOL     OW 6226   4.288   1.111   5.510
 1776SOL    HW1 6227   4.226   1.146   5.580
 1776SOL    HW2 6228   4.345   1.038   5.549
 1777SOL     OW 6229   4.295   6.293   6.318
 1777SOL    HW1 6230   4.297   6.213   6.378
 1777SOL    HW2 6231   4.350   6.366   6.358
 1778SOL     OW 6232   5.492   1.187   3.844
 1778SOL    HW1 6233   5.552   1.231   3.911
 1778SOL    HW2 6234   5.527   1.206   3.752
 1779SOL     OW 6235   5.605   0.115   4.457
 1779SOL    HW1 6236   5.531   0.173   4.490
 1779SOL    HW2 6237   5.569   0.025   4.433
 1780SOL     OW 6238   1.367   5.020   4.944
 1780SOL    HW1 6239   1.383   5.112   4.980
 1780SOL    HW2 6240   1.347   5.025   4.846
 1781SOL     OW 6241   4.263   0.072   4.015
 1781SOL    HW1 6242   4.332   0.004   4.040
 1781SOL    HW2 6243   4.266   0.148   4.081
 1782SOL     OW 6244   1.832   1.887   2.512
 1782SOL    HW1 6245   1.834   1.806   2.454
 1782SOL    HW2 6246   1.874   1.964   2.464
 1783SOL     OW 6247   2.113   3.859   5.717
 1783SOL    HW1 6248   2.132   3.802   5.637
 1783SOL    HW2 6249   2.200   3.893   5.755
 1784SOL     OW 6250   2.435   0.475   0.943
 1784SOL    HW1 6251   2.356   0.437   0.991
 1784SOL    HW2 6252   2.413   0.566   0.909
 1785SOL     OW 6253   0.636   6.982   4.643
 1785SOL    HW1 6254   0.572   6.984   4.719
 1785SOL    HW2 6255   0.730   6.986   4.678
 1786SOL     OW 6256   1.959   5.310   0.829
 1786SOL    HW1 6257   1.955   5.361   0.915
 1786SOL    HW2 6258   1.906   5.226   0.838
 1787SOL     OW 6259   1.963   2.913   5.622
 1787SOL    HW1 6260   2.023   2.917   5.702
 1787SOL    HW2 6261   2.002   2.969   5.549
 1788SOL     OW 6262   4.897   4.225   0.798
 1788SOL    HW1 6263   4.826   4.201   0.864
 1788SOL    HW2 6264   4.890   4.165   0.719
 1789SOL     OW 6265   6.903   3.615   1.750
 1789SOL    HW1 6266   6.897   3.642   1.846
 1789SOL    HW2 6267   6.816   3.633   1.704
 1790SOL     OW 6268   2.864   1.876   4.227
 1790SOL    HW1 6269   2.789   1.864   4.291
 1790SOL    HW2 6270   2.888   1.973   4.220
 1791SOL     OW 6271   6.298   0.534   3.804
 1791SOL    HW1 6272   6.216   0.529   3.862
 1791SOL    HW2 6273   6.277   0.493   3.715
 1792SOL     OW 6274   6.877   2.187   5.247
 1792SOL    HW1 6275   6.820   2.111   5.279
 1792SOL    HW2 6276   6.932   2.157   5.169
 1793SOL     OW 6277   0.423   1.162   5.108
 1793SOL    HW1 6278   0.374   1.081   5.141
 1793SOL    HW2 6279   0.522   1.147   5.118
 1794SOL     OW 6280   6.909   0.591   6.127
 1794SOL    HW1 6281   6.916   0.602   6.226
 1794SOL    HW2 6282   6.992   0.624   6.084
 1795SOL     OW 6283   6.024   4.580   0.178
 1795SOL    HW1 6284   6.119   4.560   0.154
 1795SOL    HW2 6285   6.015   4.587   0.277
 1796SOL     OW 6286   1.314   6.956   5.024
 1796SOL    HW1 6287   1.290   7.015   4.947
 1796SOL    HW2 6288   1.409   6.927   5.016
 1797SOL     OW 6289   2.189   6.221   4.859
 1797SOL    HW1 6290   2.237   6.297   4.815
 1797SOL    HW2 6291   2.146   6.252   4.943
 1798SOL     OW 6292   3.374   3.577   4.778
 1798SOL    HW1 6293   3.334   3.494   4.817
 1798SOL    HW2 6294   3.306   3.623   4.721
 1799SOL     OW 6295   3.167   0.553   0.021
 1799SOL    HW1 6296   3.155   0.628   0.087
 1799SOL    HW2 6297   3.264   0.533   0.012
 1800SOL     OW 6298   5.043   3.904   4.201
 1800SOL    HW1 6299   5.129   3.946   4.229
 1800SOL    HW2 6300   5.061   3.813   4.163
 1801SOL     OW 6301   1.127   1.341   2.005
 1801SOL    HW1 6302   1.225   1.359   2.011
 1801SOL    HW2 6303   1.099   1.345   1.909
 1802SOL     OW 6304   6.081   4.796   3.648
 1802SOL    HW1 6305   6.018   4.746   3.707
 1802SOL    HW2 6306   6.097   4.887   3.687
 1803SOL     OW 6307   0.440   6.140   2.845
 1803SOL    HW1 6308   0.464   6.194   2.925
 1803SOL    HW2 6309   0.371   6.187   2.791
 1804SOL     OW 6310   3.106   3.822   6.217
 1804SOL    HW1 6311   3.187   3.765   6.202
 1804SOL    HW2 6312   3.034   3.793   6.155
 1805SOL     OW 6313   0.433   6.583   6.492
 1805SOL    HW1 6314   0.363   6.572   6.563
 1805SOL    HW2 6315   0.502   6.648   6.524
 1806SOL     OW 6316   0.061   2.597   2.287
 1806SOL    HW1 6317   0.106   2.515   2.252
 1806SOL    HW2 6318   0.100   2.620   2.376
 1807SOL     OW 6319   6.327   4.085   1.445
 1807SOL    HW1 6320   6.402   4.141   1.477
 1807SOL    HW2 6321   6.280   4.131   1.369
 1808SOL     OW 6322   5.335   2.492   5.677
 1808SOL    HW1 6323   5.412   2.442   5.715
 1808SOL    HW2 6324   5.283   2.432   5.615
 1809SOL     OW 6325   3.741   2.112   5.094
 1809SOL    HW1 6326   3.825   2.142   5.140
 1809SOL    HW2 6327   3.748   2.131   4.997
 1810SOL     OW 6328   0.593   7.003   4.056
 1810SOL    HW1 6329   0.664   7.012   4.126
 1810SOL    HW2 6330   0.592   6.909   4.022
 1811SOL     OW 6331   3.544   5.220   2.449
 1811SOL    HW1 6332   3.536   5.127   2.485
 1811SOL    HW2 6333   3.617   5.268   2.497
 1812SOL     OW 6334   4.420   0.466   6.485
 1812SOL    HW1 6335   4.500   0.406   6.484
 1812SOL    HW2 6336   4.344   0.420   6.531
 1813SOL     OW 6337   4.403   4.944   2.968
 1813SOL    HW1 6338   4.447   4.873   2.914
 1813SOL    HW2 6339   4.351   5.004   2.908
 1814SOL     OW 6340   0.771   6.528   0.437
 1814SOL    HW1 6341   0.829   6.596   0.393
 1814SOL    HW2 6342   0.791   6.525   0.535
 1815SOL     OW 6343   5.708   5.997   2.221
 1815SOL    HW1 6344   5.780   6.066   2.221
 1815SOL    HW2 6345   5.686   5.971   2.315
 1816SOL     OW 6346   4.147   5.805   5.592
 1816SOL    HW1 6347   4.199   5.810   5.507
 1816SOL    HW2 6348   4.199   5.755   5.661
 1817SOL     OW 6349   2.263   1.500   3.369
 1817SOL    HW1 6350   2.347   1.506   3.316
 1817SOL    HW2 6351   2.193   1.557   3.326
 1818SOL     OW 6352   2.255   6.518   0.116
 1818SOL    HW1 6353   2.241   6.521   0.215
 1818SOL    HW2 6354   2.230   6.428   0.082
 1819SOL     OW 6355   1.548   4.984   3.054
 1819SOL    HW1 6356   1.533   5.078   3.024
 1819SOL    HW2 6357   1.594   4.985   3.143
 1820SOL     OW 6358   4.236   0.118   3.569
 1820SOL    HW1 6359   4.189   0.180   3.506
 1820SOL    HW2 6360   4.237   0.026   3.531
 1821SOL     OW 6361   4.181   1.205   2.010
 1821SOL    HW1 6362   4.151   1.111   2.028
 1821SOL    HW2 6363   4.197   1.216   1.911
 1822SOL     OW 6364   0.550   3.156   2.064
 1822SOL    HW1 6365   0.514   3.125   1.975
 1822SOL    HW2 6366   0.607   3.084   2.104
 1823SOL     OW 6367   3.687   6.832   2.235
 1823SOL    HW1 6368   3.760   6.892   2.201
 1823SOL    HW2 6369   3.682   6.839   2.334
 1824SOL     OW 6370   4.454   3.816   0.924
 1824SOL    HW1 6371   4.445   3.853   1.016
 1824SOL    HW2 6372   4.462   3.892   0.858
 1825SOL     OW 6373   1.739   2.248   5.491
 1825SOL    HW1 6374   1.808   2.213   5.428
 1825SOL    HW2 6375   1.688   2.172   5.531
 1826SOL     OW 6376   3.291   2.074   2.186
 1826SOL    HW1 6377   3.313   2.003   2.253
 1826SOL    HW2 6378   3.369   2.086   2.124
 1827SOL     OW 6379   5.869   4.698   6.970
 1827SOL    HW1 6380   5.775   4.729   6.982
 1827SOL    HW2 6381   5.904   4.662   0.038
 1828SOL     OW 6382   1.221   3.513   5.919
 1828SOL    HW1 6383   1.242   3.505   6.017
 1828SOL    HW2 6384   1.287   3.573   5.875
 1829SOL     OW 6385   3.587   0.777   3.994
 1829SOL    HW1 6386   3.569   0.859   4.049
 1829SOL    HW2 6387   3.586   0.697   4.054
 1830SOL     OW 6388   6.014   6.918   4.571
 1830SOL    HW1 6389   5.961   6.936   4.488
 1830SOL    HW2 6390   6.013   6.998   4.630
 1831SOL     OW 6391   5.086   5.384   2.779
 1831SOL    HW1 6392   5.062   5.291   2.809
 1831SOL    HW2 6393   5.057   5.449   2.849
 1832SOL     OW 6394   2.473   3.610   0.860
 1832SOL    HW1 6395   2.522   3.532   0.900
 1832SOL    HW2 6396   2.414   3.578   0.786
 1833SOL     OW 6397   4.707   0.158   1.644
 1833SOL    HW1 6398   4.667   0.115   1.563
 1833SOL    HW2 6399   4.709   0.092   1.719
 1834SOL     OW 6400   2.110   2.513   0.150
 1834SOL    HW1 6401   2.014   2.530   0.173
 1834SOL    HW2 6402   2.132   2.417   0.167
 1835SOL     OW 6403   6.917   5.101   1.614
 1835SOL    HW1 6404   6.913   5.140   1.706
 1835SOL    HW2 6405   6.871   5.012   1.614
 1836SOL     OW 6406   5.449   1.841   1.437
 1836SOL    HW1 6407   5.383   1.849   1.362
 1836SOL    HW2 6408   5.464   1.931   1.478
 1837SOL     OW 6409   2.779   1.211   6.068
 1837SOL    HW1 6410   2.820   1.269   5.998
 1837SOL    HW2 6411   2.795   1.251   6.158
 1838SOL     OW 6412   5.946   1.418   0.699
 1838SOL    HW1 6413   5.919   1.328   0.733
 1838SOL    HW2 6414   5.971   1.411   0.602
 1839SOL     OW 6415   5.576   1.806   0.050
 1839SOL    HW1 6416   5.517   1.725   0.049
 1839SOL    HW2 6417   5.641   1.801   6.993
 1840SOL     OW 6418   4.315   0.071   2.950
 1840SOL    HW1 6419   4.272   0.118   2.873
 1840SOL    HW2 6420   4.328   6.993   2.929
 1841SOL     OW 6421   2.120   0.737   2.359
 1841SOL    HW1 6422   2.174   0.724   2.276
 1841SOL    HW2 6423   2.047   0.670   2.363
 1842SOL     OW 6424   1.607   4.897   0.396
 1842SOL    HW1 6425   1.544   4.955   0.343
 1842SOL    HW2 6426   1.636   4.820   0.339
 1843SOL     OW 6427   3.415   1.273   4.756
 1843SOL    HW1 6428   3.500   1.283   4.704
 1843SOL    HW2 6429   3.417   1.334   4.835
 1844SOL     OW 6430   4.552   1.869   7.000
 1844SOL    HW1 6431   4.496   1.803   6.949
 1844SOL    HW2 6432   4.543   1.850   0.079
 1845SOL     OW 6433   2.472   1.225   3.255
 1845SOL    HW1 6434   2.382   1.248   3.217
 1845SOL    HW2 6435   2.524   1.309   3.268
 1846SOL     OW 6436   4.630   1.144   2.890
 1846SOL    HW1 6437   4.704   1.085   2.857
 1846SOL    HW2 6438   4.667   1.234   2.912
 1847SOL     OW 6439   2.099   0.289   4.671
 1847SOL    HW1 6440   2.125   0.309   4.576
 1847SOL    HW2 6441   2.180   0.256   4.720
 1848SOL     OW 6442   2.112   5.734   4.254
 1848SOL    HW1 6443   2.082   5.664   4.189
 1848SOL    HW2 6444   2.174   5.693   4.321
 1849SOL     OW 6445   4.548   2.576   2.423
 1849SOL    HW1 6446   4.571   2.654   2.364
 1849SOL    HW2 6447   4.541   2.607   2.517
 1850SOL     OW 6448   5.259   2.348   1.933
 1850SOL    HW1 6449   5.163   2.376   1.937
 1850SOL    HW2 6450   5.281   2.289   2.011
 1851SOL     OW 6451   6.989   3.099   5.695
 1851SOL    HW1 6452   6.998   3.026   5.628
 1851SOL    HW2 6453   0.001   3.067   5.785
 1852SOL     OW 6454   1.594   4.924   1.727
 1852SOL    HW1 6455   1.607   4.980   1.808
 1852SOL    HW2 6456   1.528   4.968   1.666
 1853SOL     OW 6457   0.710   3.152   4.694
 1853SOL    HW1 6458   0.748   3.157   4.786
 1853SOL    HW2 6459   0.622   3.199   4.691
 1854SOL     OW 6460   0.315   5.950   3.331
 1854SOL    HW1 6461   0.401   5.937   3.380
 1854SOL    HW2 6462   0.300   6.047   3.312
 1855SOL     OW 6463   4.949   3.427   4.929
 1855SOL    HW1 6464   4.883   3.481   4.981
 1855SOL    HW2 6465   4.992   3.360   4.989
 1856SOL     OW 6466   3.911   3.679   7.010
 1856SOL    HW1 6467   3.979   3.608   6.994
 1856SOL    HW2 6468   3.913   3.706   0.088
 1857SOL     OW 6469   4.994   0.770   0.280
 1857SOL    HW1 6470   5.084   0.730   0.261
 1857SOL    HW2 6471   4.993   0.866   0.252
 1858SOL     OW 6472   4.456   2.487   4.305
 1858SOL    HW1 6473   4.497   2.576   4.288
 1858SOL    HW2 6474   4.515   2.433   4.365
 1859SOL     OW 6475   6.002   2.405   4.921
 1859SOL    HW1 6476   5.952   2.333   4.873
 1859SOL    HW2 6477   5.988   2.492   4.874
 1860SOL     OW 6478   1.390   1.531   4.950
 1860SOL    HW1 6479   1.329   1.456   4.924
 1860SOL    HW2 6480   1.418   1.581   4.869
 1861SOL     OW 6481   6.754   0.784   3.145
 1861SOL    HW1 6482   6.752   0.704   3.205
 1861SOL    HW2 6483   6.689   0.852   3.179
 1862SOL     OW 6484   2.042   6.416   6.832
 1862SOL    HW1 6485   2.026   6.318   6.823
 1862SOL    HW2 6486   2.139   6.436   6.821
 1863SOL     OW 6487   0.263   3.165   1.464
 1863SOL    HW1 6488   0.291   3.235   1.530
 1863SOL    HW2 6489   0.271   3.075   1.506
 1864SOL     OW 6490   3.326   6.317   3.032
 1864SOL    HW1 6491   3.349   6.224   3.002
 1864SOL    HW2 6492   3.410   6.368   3.050
 1865SOL     OW 6493   5.126   1.191   0.007
 1865SOL    HW1 6494   5.194   1.251   0.049
 1865SOL    HW2 6495   5.170   1.128   6.963
 1866SOL     OW 6496   0.755   4.503   3.968
 1866SOL    HW1 6497   0.785   4.581   3.912
 1866SOL    HW2 6498   0.764   4.419   3.915
 1867SOL     OW 6499   2.385   2.136   1.221
 1867SOL    HW1 6500   2.438   2.188   1.288
 1867SOL    HW2 6501   2.311   2.193   1.186
 1868SOL     OW 6502   5.695   4.289   5.684
 1868SOL    HW1 6503   5.635   4.348   5.631
 1868SOL    HW2 6504   5.757   4.345   5.739
 1869SOL     OW 6505   4.702   2.230   4.188
 1869SOL    HW1 6506   4.775   2.168   4.158
 1869SOL    HW2 6507   4.614   2.186   4.171
 1870SOL     OW 6508   1.612   4.346   4.011
 1870SOL    HW1 6509   1.683   4.345   4.082
 1870SOL    HW2 6510   1.598   4.440   3.979
 1871SOL     OW 6511   0.849   6.290   0.305
 1871SOL    HW1 6512   0.821   6.358   0.373
 1871SOL    HW2 6513   0.949   6.279   0.309
 1872SOL     OW 6514   2.855   2.177   0.656
 1872SOL    HW1 6515   2.776   2.238   0.664
 1872SOL    HW2 6516   2.895   2.186   0.564
 1873SOL     OW 6517   6.333   1.008   7.016
 1873SOL    HW1 6518   6.267   0.989   6.944
 1873SOL    HW2 6519   6.284   1.033   0.082
 1874SOL     OW 6520   1.261   6.090   6.816
 1874SOL    HW1 6521   1.183   6.080   6.755
 1874SOL    HW2 6522   1.306   6.001   6.827
 1875SOL     OW 6523   6.238   5.412   0.015
 1875SOL    HW1 6524   6.249   5.500   6.986
 1875SOL    HW2 6525   6.175   5.354   6.982
 1876SOL     OW 6526   5.752   6.536   6.432
 1876SOL    HW1 6527   5.826   6.590   6.392
 1876SOL    HW2 6528   5.738   6.453   6.379
 1877SOL     OW 6529   0.309   1.291   2.334
 1877SOL    HW1 6530   0.257   1.210   2.306
 1877SOL    HW2 6531   0.395   1.264   2.376
 1878SOL     OW 6532   0.282   4.679   3.471
 1878SOL    HW1 6533   0.184   4.685   3.485
 1878SOL    HW2 6534   0.311   4.749   3.405
 1879SOL     OW 6535   3.550   5.473   5.190
 1879SOL    HW1 6536   3.622   5.527   5.146
 1879SOL    HW2 6537   3.466   5.526   5.194
 1880SOL     OW 6538   0.078   2.184   3.490
 1880SOL    HW1 6539   0.021   2.127   3.548
 1880SOL    HW2 6540   0.116   2.129   3.416
 1881SOL     OW 6541   0.677   2.177   4.022
 1881SOL    HW1 6542   0.742   2.233   4.074
 1881SOL    HW2 6543   0.675   2.085   4.060
 1882SOL     OW 6544   1.168   5.864   0.025
 1882SOL    HW1 6545   1.176   5.771   7.009
 1882SOL    HW2 6546   1.248   5.886   0.081
 1883SOL     OW 6547   1.482   3.467   2.710
 1883SOL    HW1 6548   1.507   3.552   2.664
 1883SOL    HW2 6549   1.386   3.469   2.735
 1884SOL     OW 6550   2.820   0.580   0.641
 1884SOL    HW1 6551   2.847   0.489   0.671
 1884SOL    HW2 6552   2.817   0.584   0.541
 1885SOL     OW 6553   0.156   2.849   0.618
 1885SOL    HW1 6554   0.105   2.891   0.542
 1885SOL    HW2 6555   0.254   2.862   0.602
 1886SOL     OW 6556   2.023   2.170   6.990
 1886SOL    HW1 6557   2.056   2.213   6.905
 1886SOL    HW2 6558   2.007   2.073   6.973
 1887SOL     OW 6559   1.212   5.776   5.673
 1887SOL    HW1 6560   1.227   5.678   5.664
 1887SOL    HW2 6561   1.115   5.793   5.692
 1888SOL     OW 6562   2.153   1.985   6.445
 1888SOL    HW1 6563   2.235   1.937   6.415
 1888SOL    HW2 6564   2.157   1.998   6.544
 1889SOL     OW 6565   4.190   2.830   0.243
 1889SOL    HW1 6566   4.139   2.844   0.327
 1889SOL    HW2 6567   4.282   2.797   0.264
 1890SOL     OW 6568   0.395   5.822   6.519
 1890SOL    HW1 6569   0.387   5.759   6.442
 1890SOL    HW2 6570   0.377   5.773   6.605
 1891SOL     OW 6571   5.535   3.561   5.248
 1891SOL    HW1 6572   5.438   3.541   5.258
 1891SOL    HW2 6573   5.547   3.656   5.220
 1892SOL     OW 6574   3.684   5.127   1.682
 1892SOL    HW1 6575   3.588   5.147   1.698
 1892SOL    HW2 6576   3.701   5.030   1.701
 1893SOL     OW 6577   3.809   2.135   3.792
 1893SOL    HW1 6578   3.799   2.101   3.698
 1893SOL    HW2 6579   3.852   2.225   3.791
 1894SOL     OW 6580   4.575   3.985   1.332
 1894SOL    HW1 6581   4.637   3.906   1.340
 1894SOL    HW2 6582   4.495   3.959   1.278
 1895SOL     OW 6583   6.182   0.921   3.009
 1895SOL    HW1 6584   6.242   0.846   2.982
 1895SOL    HW2 6585   6.184   0.992   2.939
 1896SOL     OW 6586   6.191   1.631   4.690
 1896SOL    HW1 6587   6.108   1.622   4.634
 1896SOL    HW2 6588   6.271   1.608   4.635
 1897SOL     OW 6589   5.609   4.759   2.867
 1897SOL    HW1 6590   5.682   4.820   2.899
 1897SOL    HW2 6591   5.525   4.812   2.855
 1898SOL     OW 6592   5.159   5.699   1.370
 1898SOL    HW1 6593   5.064   5.705   1.402
 1898SOL    HW2 6594   5.189   5.790   1.341
 1899SOL     OW 6595   0.092   3.035   3.082
 1899SOL    HW1 6596   0.046   3.013   3.168
 1899SOL    HW2 6597   0.181   2.992   3.080
 1900SOL     OW 6598   1.410   5.965   6.151
 1900SOL    HW1 6599   1.506   5.937   6.143
 1900SOL    HW2 6600   1.361   5.940   6.068
 1901SOL     OW 6601   1.577   0.250   6.899
 1901SOL    HW1 6602   1.567   0.163   6.849
 1901SOL    HW2 6603   1.651   0.242   6.966
 1902SOL     OW 6604   0.763   3.073   4.181
 1902SOL    HW1 6605   0.805   3.068   4.272
 1902SOL    HW2 6606   0.808   3.145   4.127
 1903SOL     OW 6607   6.321   4.031   2.989
 1903SOL    HW1 6608   6.231   4.012   3.027
 1903SOL    HW2 6609   6.374   3.947   2.985
 1904SOL     OW 6610   6.743   0.672   3.990
 1904SOL    HW1 6611   6.694   0.603   4.043
 1904SOL    HW2 6612   6.796   0.628   3.917
 1905SOL     OW 6613   0.408   2.522   4.266
 1905SOL    HW1 6614   0.483   2.473   4.312
 1905SOL    HW2 6615   0.417   2.511   4.167
 1906SOL     OW 6616   2.181   6.613   6.206
 1906SOL    HW1 6617   2.255   6.657   6.257
 1906SOL    HW2 6618   2.170   6.519   6.239
 1907SOL     OW 6619   3.248   6.467   3.422
 1907SOL    HW1 6620   3.345   6.443   3.423
 1907SOL    HW2 6621   3.220   6.495   3.513
 1908SOL     OW 6622   4.111   1.662   5.803
 1908SOL    HW1 6623   4.080   1.585   5.747
 1908SOL    HW2 6624   4.158   1.627   5.884
 1909SOL     OW 6625   1.964   4.541   4.860
 1909SOL    HW1 6626   2.024   4.496   4.794
 1909SOL    HW2 6627   1.953   4.484   4.941
 1910SOL     OW 6628   5.000   2.202   6.262
 1910SOL    HW1 6629   4.941   2.149   6.202
 1910SOL    HW2 6630   5.023   2.288   6.218
 1911SOL     OW 6631   6.596   2.416   5.406
 1911SOL    HW1 6632   6.642   2.380   5.487
 1911SOL    HW2 6633   6.625   2.511   5.392
 1912SOL     OW 6634   2.937   6.720   2.415
 1912SOL    HW1 6635   3.031   6.692   2.397
 1912SOL    HW2 6636   2.927   6.817   2.393
 1913SOL     OW 6637   1.489   5.760   5.037
 1913SOL    HW1 6638   1.437   5.803   5.110
 1913SOL    HW2 6639   1.425   5.716   4.973
 1914SOL     OW 6640   2.817   2.604   6.024
 1914SOL    HW1 6641   2.809   2.529   6.089
 1914SOL    HW2 6642   2.771   2.580   5.938
 1915SOL     OW 6643   4.388   0.661   6.113
 1915SOL    HW1 6644   4.395   0.761   6.108
 1915SOL    HW2 6645   4.370   0.624   6.022
 1916SOL     OW 6646   3.217   5.660   2.118
 1916SOL    HW1 6647   3.235   5.749   2.158
 1916SOL    HW2 6648   3.127   5.628   2.147
 1917SOL     OW 6649   2.964   3.782   4.522
 1917SOL    HW1 6650   2.935   3.744   4.610
 1917SOL    HW2 6651   3.007   3.871   4.537
 1918SOL     OW 6652   5.908   5.960   5.742
 1918SOL    HW1 6653   5.884   6.051   5.707
 1918SOL    HW2 6654   5.867   5.891   5.682
 1919SOL     OW 6655   0.622   6.166   2.249
 1919SOL    HW1 6656   0.589   6.117   2.330
 1919SOL    HW2 6657   0.553   6.233   2.220
 1920SOL     OW 6658   0.266   5.804   3.752
 1920SOL    HW1 6659   0.237   5.722   3.802
 1920SOL    HW2 6660   0.366   5.812   3.756
 1921SOL     OW 6661   1.558   5.744   6.437
 1921SOL    HW1 6662   1.560   5.844   6.427
 1921SOL    HW2 6663   1.535   5.703   6.349
 1922SOL     OW 6664   3.716   3.514   1.476
 1922SOL    HW1 6665   3.701   3.453   1.398
 1922SOL    HW2 6666   3.682   3.470   1.559
 1923SOL     OW 6667   2.311   1.047   1.130
 1923SOL    HW1 6668   2.257   1.086   1.204
 1923SOL    HW2 6669   2.283   1.087   1.043
 1924SOL     OW 6670   6.821   4.371   2.215
 1924SOL    HW1 6671   6.915   4.339   2.227
 1924SOL    HW2 6672   6.776   4.374   2.304
 1925SOL     OW 6673   3.246   3.818   1.745
 1925SOL    HW1 6674   3.323   3.804   1.807
 1925SOL    HW2 6675   3.175   3.872   1.792
 1926SOL     OW 6676   1.648   0.111   4.519
 1926SOL    HW1 6677   1.672   0.115   4.422
 1926SOL    HW2 6678   1.623   0.018   4.544
 1927SOL     OW 6679   4.231   3.658   6.846
 1927SOL    HW1 6680   4.328   3.663   6.820
 1927SOL    HW2 6681   4.202   3.562   6.848
 1928SOL     OW 6682   6.425   3.658   5.767
 1928SOL    HW1 6683   6.343   3.673   5.822
 1928SOL    HW2 6684   6.400   3.643   5.672
 1929SOL     OW 6685   1.102   6.144   1.211
 1929SOL    HW1 6686   1.145   6.114   1.126
 1929SOL    HW2 6687   1.062   6.064   1.257
 1930SOL     OW 6688   6.318   4.487   6.316
 1930SOL    HW1 6689   6.376   4.526   6.387
 1930SOL    HW2 6690   6.246   4.432   6.358
 1931SOL     OW 6691   0.589   3.457   3.406
 1931SOL    HW1 6692   0.622   3.398   3.333
 1931SOL    HW2 6693   0.553   3.401   3.481
 1932SOL     OW 6694   4.947   3.984   1.745
 1932SOL    HW1 6695   4.938   3.901   1.799
 1932SOL    HW2 6696   4.857   4.026   1.733
 1933SOL     OW 6697   2.685   4.243   0.699
 1933SOL    HW1 6698   2.774   4.220   0.661
 1933SOL    HW2 6699   2.652   4.168   0.757
 1934SOL     OW 6700   0.963   6.906   5.908
 1934SOL    HW1 6701   1.025   6.828   5.900
 1934SOL    HW2 6702   1.017   6.989   5.925
 1935SOL     OW 6703   2.205   6.739   4.171
 1935SOL    HW1 6704   2.269   6.815   4.176
 1935SOL    HW2 6705   2.118   6.764   4.214
 1936SOL     OW 6706   5.387   6.143   4.927
 1936SOL    HW1 6707   5.308   6.202   4.943
 1936SOL    HW2 6708   5.399   6.129   4.829
 1937SOL     OW 6709   4.213   6.488   1.687
 1937SOL    HW1 6710   4.237   6.464   1.781
 1937SOL    HW2 6711   4.136   6.551   1.687
 1938SOL     OW 6712   3.900   1.273   3.407
 1938SOL    HW1 6713   3.955   1.345   3.362
 1938SOL    HW2 6714   3.959   1.195   3.429
 1939SOL     OW 6715   1.852   1.272   4.161
 1939SOL    HW1 6716   1.771   1.262   4.104
 1939SOL    HW2 6717   1.830   1.329   4.241
 1940SOL     OW 6718   6.198   5.365   6.676
 1940SOL    HW1 6719   6.173   5.296   6.743
 1940SOL    HW2 6720   6.191   5.456   6.718
 1941SOL     OW 6721   6.220   3.886   2.567
 1941SOL    HW1 6722   6.223   3.875   2.468
 1941SOL    HW2 6723   6.294   3.947   2.596
 1942SOL     OW 6724   6.090   5.826   2.197
 1942SOL    HW1 6725   6.042   5.780   2.273
 1942SOL    HW2 6726   6.096   5.924   2.217
 1943SOL     OW 6727   2.906   5.060   2.865
 1943SOL    HW1 6728   2.831   5.004   2.900
 1943SOL    HW2 6729   2.965   5.005   2.807
 1944SOL     OW 6730   5.612   1.627   6.578
 1944SOL    HW1 6731   5.549   1.601   6.505
 1944SOL    HW2 6732   5.614   1.727   6.585
 1945SOL     OW 6733   4.371   5.481   3.035
 1945SOL    HW1 6734   4.321   5.543   3.096
 1945SOL    HW2 6735   4.460   5.459   3.076
 1946SOL     OW 6736   1.479   6.711   0.527
 1946SOL    HW1 6737   1.437   6.646   0.463
 1946SOL    HW2 6738   1.412   6.738   0.596
 1947SOL     OW 6739   5.396   6.722   4.622
 1947SOL    HW1 6740   5.496   6.712   4.618
 1947SOL    HW2 6741   5.353   6.642   4.580
 1948SOL     OW 6742   0.131   5.327   4.437
 1948SOL    HW1 6743   0.050   5.350   4.383
 1948SOL    HW2 6744   0.143   5.228   4.440
 1949SOL     OW 6745   4.640   4.691   5.832
 1949SOL    HW1 6746   4.730   4.659   5.802
 1949SOL    HW2 6747   4.595   4.738   5.756
 1950SOL     OW 6748   3.972   3.705   6.414
 1950SOL    HW1 6749   3.949   3.773   6.484
 1950SOL    HW2 6750   3.974   3.614   6.456
 1951SOL     OW 6751   5.382   1.979   0.112
 1951SOL    HW1 6752   5.320   2.035   0.056
 1951SOL    HW2 6753   5.450   1.935   0.053
 1952SOL     OW 6754   3.887   1.739   1.222
 1952SOL    HW1 6755   3.911   1.730   1.319
 1952SOL    HW2 6756   3.969   1.725   1.166
 1953SOL     OW 6757   6.933   1.961   6.912
 1953SOL    HW1 6758   6.944   1.942   6.815
 1953SOL    HW2 6759   6.874   2.041   6.924
 1954SOL     OW 6760   5.012   1.888   3.499
 1954SOL    HW1 6761   5.005   1.983   3.469
 1954SOL    HW2 6762   4.928   1.862   3.548
 1955SOL     OW 6763   1.257   6.981   2.320
 1955SOL    HW1 6764   1.171   6.939   2.290
 1955SOL    HW2 6765   1.293   0.019   2.246
 1956SOL     OW 6766   5.090   5.883   3.067
 1956SOL    HW1 6767   5.129   5.842   2.985
 1956SOL    HW2 6768   4.995   5.909   3.050
 1957SOL     OW 6769   0.234   5.826   4.728
 1957SOL    HW1 6770   0.147   5.793   4.691
 1957SOL    HW2 6771   0.243   5.924   4.711
 1958SOL     OW 6772   5.438   3.370   5.033
 1958SOL    HW1 6773   5.428   3.374   5.132
 1958SOL    HW2 6774   5.522   3.417   5.006
 1959SOL     OW 6775   1.290   2.720   5.908
 1959SOL    HW1 6776   1.267   2.631   5.947
 1959SOL    HW2 6777   1.280   2.718   5.809
 1960SOL     OW 6778   6.401   5.177   0.640
 1960SOL    HW1 6779   6.474   5.114   0.612
 1960SOL    HW2 6780   6.321   5.163   0.582
 1961SOL     OW 6781   5.941   5.083   4.111
 1961SOL    HW1 6782   5.907   5.159   4.166
 1961SOL    HW2 6783   6.041   5.081   4.114
 1962SOL     OW 6784   1.365   6.160   3.545
 1962SOL    HW1 6785   1.392   6.201   3.633
 1962SOL    HW2 6786   1.447   6.141   3.491
 1963SOL     OW 6787   0.541   0.747   2.059
 1963SOL    HW1 6788   0.619   0.788   2.012
 1963SOL    HW2 6789   0.495   0.816   2.114
 1964SOL     OW 6790   4.627   2.800   1.732
 1964SOL    HW1 6791   4.571   2.735   1.782
 1964SOL    HW2 6792   4.619   2.891   1.773
 1965SOL     OW 6793   0.061   3.188   2.018
 1965SOL    HW1 6794   6.998   3.219   2.068
 1965SOL    HW2 6795   0.141   3.195   2.077
 1966SOL     OW 6796   0.381   5.220   4.686
 1966SOL    HW1 6797   0.352   5.131   4.720
 1966SOL    HW2 6798   0.330   5.292   4.732
 1967SOL     OW 6799   5.247   2.722   5.790
 1967SOL    HW1 6800   5.293   2.653   5.734
 1967SOL    HW2 6801   5.167   2.680   5.834
 1968SOL     OW 6802   2.569   5.246   6.915
 1968SOL    HW1 6803   2.577   5.280   6.822
 1968SOL    HW2 6804   2.483   5.195   6.925
 1969SOL     OW 6805   0.196   2.685   1.633
 1969SOL    HW1 6806   0.103   2.649   1.631
 1969SOL    HW2 6807   0.195   2.778   1.669
 1970SOL     OW 6808   1.648   0.548   6.001
 1970SOL    HW1 6809   1.596   0.625   6.037
 1970SOL    HW2 6810   1.728   0.582   5.951
 1971SOL     OW 6811   0.148   0.149   6.388
 1971SOL    HW1 6812   0.177   0.105   6.303
 1971SOL    HW2 6813   0.053   0.125   6.407
 1972SOL     OW 6814   0.492   3.660   3.732
 1972SOL    HW1 6815   0.570   3.638   3.791
 1972SOL    HW2 6816   0.453   3.575   3.696
 1973SOL     OW 6817   3.672   2.786   1.815
 1973SOL    HW1 6818   3.658   2.861   1.880
 1973SOL    HW2 6819   3.585   2.765   1.769
 1974SOL     OW 6820   5.781   6.336   4.313
 1974SOL    HW1 6821   5.876   6.342   4.345
 1974SOL    HW2 6822   5.760   6.416   4.256
 1975SOL     OW 6823   2.220   0.374   4.451
 1975SOL    HW1 6824   2.293   0.314   4.421
 1975SOL    HW2 6825   2.259   0.459   4.488
 1976SOL     OW 6826   0.286   6.089   0.588
 1976SOL    HW1 6827   0.339   6.005   0.600
 1976SOL    HW2 6828   0.203   6.084   0.643
 1977SOL     OW 6829   0.753   2.946   3.933
 1977SOL    HW1 6830   0.750   2.968   4.030
 1977SOL    HW2 6831   0.838   2.982   3.894
 1978SOL     OW 6832   0.941   1.524   4.226
 1978SOL    HW1 6833   0.855   1.575   4.218
 1978SOL    HW2 6834   0.987   1.522   4.137
 1979SOL     OW 6835   0.021   4.643   4.977
 1979SOL    HW1 6836   0.119   4.654   4.995
 1979SOL    HW2 6837   6.987   4.682   5.053
 1980SOL     OW 6838   3.122   0.304   0.764
 1980SOL    HW1 6839   3.149   0.209   0.781
 1980SOL    HW2 6840   3.165   0.335   0.679
 1981SOL     OW 6841   5.122   2.273   2.763
 1981SOL    HW1 6842   5.185   2.348   2.783
 1981SOL    HW2 6843   5.035   2.290   2.808
 1982SOL     OW 6844   6.031   5.335   5.008
 1982SOL    HW1 6845   6.036   5.359   4.911
 1982SOL    HW2 6846   6.074   5.245   5.022
 1983SOL     OW 6847   1.854   2.170   3.093
 1983SOL    HW1 6848   1.932   2.110   3.107
 1983SOL    HW2 6849   1.784   2.149   3.161
 1984SOL     OW 6850   4.379   1.686   6.208
 1984SOL    HW1 6851   4.302   1.648   6.158
 1984SOL    HW2 6852   4.366   1.672   6.306
 1985SOL     OW 6853   0.749   1.066   2.036
 1985SOL    HW1 6854   0.837   1.094   2.076
 1985SOL    HW2 6855   0.765   0.996   1.966
 1986SOL     OW 6856   1.022   1.812   6.649
 1986SOL    HW1 6857   0.987   1.787   6.740
 1986SOL    HW2 6858   1.022   1.732   6.590
 1987SOL     OW 6859   2.905   3.051   1.731
 1987SOL    HW1 6860   2.971   3.039   1.806
 1987SOL    HW2 6861   2.911   2.973   1.669
 1988SOL     OW 6862   5.027   4.379   6.932
 1988SOL    HW1 6863   5.074   4.369   6.844
 1988SOL    HW2 6864   4.999   4.289   6.965
 1989SOL     OW 6865   2.450   0.343   4.826
 1989SOL    HW1 6866   2.479   0.422   4.771
 1989SOL    HW2 6867   2.424   0.268   4.765
 1990SOL     OW 6868   2.687   0.792   1.524
 1990SOL    HW1 6869   2.656   0.722   1.458
 1990SOL    HW2 6870   2.648   0.772   1.614
 1991SOL     OW 6871   3.862   5.544   5.718
 1991SOL    HW1 6872   3.834   5.489   5.639
 1991SOL    HW2 6873   3.960   5.563   5.712
 1992SOL     OW 6874   2.842   0.126   5.132
 1992SOL    HW1 6875   2.880   0.187   5.201
 1992SOL    HW2 6876   2.899   0.044   5.124
 1993SOL     OW 6877   3.810   3.689   5.600
 1993SOL    HW1 6878   3.866   3.739   5.533
 1993SOL    HW2 6879   3.813   3.736   5.688
 1994SOL     OW 6880   0.467   2.194   2.273
 1994SOL    HW1 6881   0.556   2.175   2.231
 1994SOL    HW2 6882   0.474   2.276   2.330
 1995SOL     OW 6883   6.307   2.108   2.167
 1995SOL    HW1 6884   6.399   2.116   2.206
 1995SOL    HW2 6885   6.305   2.034   2.101
 1996SOL     OW 6886   3.619   2.915   1.113
 1996SOL    HW1 6887   3.672   2.961   1.042
 1996SOL    HW2 6888   3.669   2.835   1.145
 1997SOL     OW 6889   5.731   1.403   4.983
 1997SOL    HW1 6890   5.773   1.477   4.931
 1997SOL    HW2 6891   5.802   1.354   5.034
 1998SOL     OW 6892   3.063   3.868   6.483
 1998SOL    HW1 6893   3.084   3.838   6.390
 1998SOL    HW2 6894   3.140   3.849   6.543
 1999SOL     OW 6895   2.313   0.230   2.238
 1999SOL    HW1 6896   2.296   0.140   2.198
 1999SOL    HW2 6897   2.226   0.274   2.258
 2000SOL     OW 6898   4.160   1.372   4.836
 2000SOL    HW1 6899   4.151   1.273   4.843
 2000SOL    HW2 6900   4.117   1.403   4.751
 2001SOL     OW 6901   3.425   2.109   1.754
 2001SOL    HW1 6902   3.493   2.157   1.809
 2001SOL    HW2 6903   3.333   2.134   1.786
 2002SOL     OW 6904   1.700   6.273   6.132
 2002SOL    HW1 6905   1.625   6.206   6.126
 2002SOL    HW2 6906   1.706   6.323   6.046
 2003SOL     OW 6907   5.119   0.136   3.838
 2003SOL    HW1 6908   5.213   0.145   3.805
 2003SOL    HW2 6909   5.061   0.101   3.764
 2004SOL     OW 6910   4.644   1.016   4.516
 2004SOL    HW1 6911   4.634   1.112   4.490
 2004SOL    HW2 6912   4.571   0.992   4.580
 2005SOL     OW 6913   1.652   5.533   6.616
 2005SOL    HW1 6914   1.586   5.579   6.556
 2005SOL    HW2 6915   1.744   5.545   6.580
 2006SOL     OW 6916   4.790   4.299   3.783
 2006SOL    HW1 6917   4.785   4.202   3.759
 2006SOL    HW2 6918   4.723   4.350   3.729
 2007SOL     OW 6919   5.047   5.058   6.848
 2007SOL    HW1 6920   5.047   5.148   6.892
 2007SOL    HW2 6921   5.081   4.989   6.912
 2008SOL     OW 6922   0.095   5.938   3.911
 2008SOL    HW1 6923   0.153   5.901   3.839
 2008SOL    HW2 6924   7.018   5.919   3.890
 2009SOL     OW 6925   5.933   0.382   1.875
 2009SOL    HW1 6926   5.953   0.302   1.932
 2009SOL    HW2 6927   6.019   0.418   1.837
 2010SOL     OW 6928   1.565   0.897   1.053
 2010SOL    HW1 6929   1.530   0.936   1.138
 2010SOL    HW2 6930   1.665   0.892   1.057
 2011SOL     OW 6931   6.960   2.591   5.342
 2011SOL    HW1 6932   0.010   2.653   5.382
 2011SOL    HW2 6933   6.869   2.617   5.376
 2012SOL     OW 6934   1.029   3.808   1.839
 2012SOL    HW1 6935   1.031   3.908   1.839
 2012SOL    HW2 6936   0.992   3.775   1.752
 2013SOL     OW 6937   5.128   1.870   2.900
 2013SOL    HW1 6938   5.124   1.949   2.962
 2013SOL    HW2 6939   5.105   1.899   2.807
 2014SOL     OW 6940   1.158   5.883   3.328
 2014SOL    HW1 6941   1.129   5.941   3.253
 2014SOL    HW2 6942   1.252   5.906   3.354
 2015SOL     OW 6943   3.329   1.289   0.056
 2015SOL    HW1 6944   3.296   1.379   0.025
 2015SOL    HW2 6945   3.323   1.224   6.999
 2016SOL     OW 6946   1.091   4.985   4.432
 2016SOL    HW1 6947   1.190   4.999   4.437
 2016SOL    HW2 6948   1.045   5.054   4.488
 2017SOL     OW 6949   3.262   6.581   3.779
 2017SOL    HW1 6950   3.221   6.493   3.805
 2017SOL    HW2 6951   3.194   6.653   3.790
 2018SOL     OW 6952   0.060   5.594   5.475
 2018SOL    HW1 6953   0.096   5.506   5.445
 2018SOL    HW2 6954   0.065   5.660   5.400
 2019SOL     OW 6955   5.465   2.780   1.032
 2019SOL    HW1 6956   5.471   2.817   0.940
 2019SOL    HW2 6957   5.487   2.851   1.099
 2020SOL     OW 6958   1.728   5.034   5.216
 2020SOL    HW1 6959   1.796   4.973   5.175
 2020SOL    HW2 6960   1.698   5.101   5.148
 2021SOL     OW 6961   1.847   0.560   2.729
 2021SOL    HW1 6962   1.933   0.608   2.708
 2021SOL    HW2 6963   1.810   0.596   2.815
 2022SOL     OW 6964   1.834   3.714   2.034
 2022SOL    HW1 6965   1.775   3.663   1.973
 2022SOL    HW2 6966   1.816   3.686   2.129
 2023SOL     OW 6967   0.048   1.272   6.835
 2023SOL    HW1 6968   0.046   1.372   6.833
 2023SOL    HW2 6969   0.108   1.241   6.909
 2024SOL     OW 6970   6.848   0.970   2.970
 2024SOL    HW1 6971   6.753   0.997   2.954
 2024SOL    HW2 6972   6.852   0.911   3.051
 2025SOL     OW 6973   1.482   2.000   1.648
 2025SOL    HW1 6974   1.448   2.053   1.570
 2025SOL    HW2 6975   1.565   1.951   1.621
 2026SOL     OW 6976   2.180   2.071   6.159
 2026SOL    HW1 6977   2.280   2.069   6.161
 2026SOL    HW2 6978   2.144   2.060   6.252
 2027SOL     OW 6979   0.447   1.075   1.843
 2027SOL    HW1 6980   0.543   1.101   1.832
 2027SOL    HW2 6981   0.428   0.992   1.791
 2028SOL     OW 6982   3.660   1.441   0.725
 2028SOL    HW1 6983   3.711   1.359   0.698
 2028SOL    HW2 6984   3.675   1.458   0.822
 2029SOL     OW 6985   0.672   0.549   6.715
 2029SOL    HW1 6986   0.634   0.632   6.673
 2029SOL    HW2 6987   0.670   0.559   6.814
 2030SOL     OW 6988   2.181   2.209   3.894
 2030SOL    HW1 6989   2.146   2.176   3.806
 2030SOL    HW2 6990   2.170   2.308   3.898
 2031SOL     OW 6991   5.402   5.977   2.015
 2031SOL    HW1 6992   5.340   5.985   2.093
 2031SOL    HW2 6993   5.358   6.012   1.932
 2032SOL     OW 6994   5.185   6.521   0.798
 2032SOL    HW1 6995   5.123   6.447   0.772
 2032SOL    HW2 6996   5.183   6.533   0.897
 2033SOL     OW 6997   4.354   4.472   5.850
 2033SOL    HW1 6998   4.418   4.515   5.913
 2033SOL    HW2 6999   4.396   4.459   5.761
 2034SOL     OW 7000   2.216   6.372   3.564
 2034SOL    HW1 7001   2.237   6.281   3.599
 2034SOL    HW2 7002   2.300   6.426   3.559
 2035SOL     OW 7003   6.499   1.779   2.381
 2035SOL    HW1 7004   6.551   1.863   2.397
 2035SOL    HW2 7005   6.405   1.801   2.356
 2036SOL     OW 7006   0.248   5.781   1.335
 2036SOL    HW1 7007   0.261   5.686   1.364
 2036SOL    HW2 7008   0.275   5.842   1.409
 2037SOL     OW 7009   6.832   2.477   5.688
 2037SOL    HW1 7010   6.755   2.412   5.689
 2037SOL    HW2 7011   6.893   2.455   5.612
 2038SOL     OW 7012   1.077   1.567   6.151
 2038SOL    HW1 7013   0.992   1.514   6.145
 2038SOL    HW2 7014   1.062   1.650   6.203
 2039SOL     OW 7015   0.278   6.211   3.767
 2039SOL    HW1 7016   0.287   6.309   3.780
 2039SOL    HW2 7017   0.306   6.163   3.851
 2040SOL     OW 7018   3.818   2.968   4.319
 2040SOL    HW1 7019   3.726   2.951   4.284
 2040SOL    HW2 7020   3.877   2.889   4.300
 2041SOL     OW 7021   6.080   5.768   6.149
 2041SOL    HW1 7022   6.170   5.803   6.123
 2041SOL    HW2 7023   6.087   5.672   6.173
 2042SOL     OW 7024   5.631   5.008   0.672
 2042SOL    HW1 7025   5.604   5.042   0.582
 2042SOL    HW2 7026   5.723   5.041   0.694
 2043SOL     OW 7027   6.234   5.473   2.214
 2043SOL    HW1 7028   6.325   5.506   2.187
 2043SOL    HW2 7029   6.164   5.531   2.173
 2044SOL     OW 7030   5.315   0.497   1.604
 2044SOL    HW1 7031   5.334   0.402   1.581
 2044SOL    HW2 7032   5.270   0.502   1.693
 2045SOL     OW 7033   1.699   4.548   5.489
 2045SOL    HW1 7034   1.666   4.511   5.575
 2045SOL    HW2 7035   1.703   4.476   5.420
 2046SOL     OW 7036   6.622   0.788   4.709
 2046SOL    HW1 7037   6.523   0.800   4.720
 2046SOL    HW2 7038   6.671   0.846   4.774
 2047SOL     OW 7039   4.701   2.114   0.905
 2047SOL    HW1 7040   4.618   2.116   0.960
 2047SOL    HW2 7041   4.724   2.019   0.883
 2048SOL     OW 7042   3.412   6.523   0.158
 2048SOL    HW1 7043   3.338   6.519   0.091
 2048SOL    HW2 7044   3.483   6.585   0.125
 2049SOL     OW 7045   4.752   2.454   6.600
 2049SOL    HW1 7046   4.745   2.452   6.700
 2049SOL    HW2 7047   4.834   2.406   6.571
 2050SOL     OW 7048   6.175   2.833   3.779
 2050SOL    HW1 7049   6.180   2.735   3.765
 2050SOL    HW2 7050   6.219   2.881   3.703
 2051SOL     OW 7051   0.048   4.940   6.571
 2051SOL    HW1 7052   6.988   4.889   6.536
 2051SOL    HW2 7053   0.022   5.036   6.583
 2052SOL     OW 7054   0.311   3.516   6.864
 2052SOL    HW1 7055   0.264   3.526   6.777
 2052SOL    HW2 7056   0.408   3.496   6.847
 2053SOL     OW 7057   5.931   0.419   0.536
 2053SOL    HW1 7058   6.017   0.403   0.488
 2053SOL    HW2 7059   5.876   0.336   0.536
 2054SOL     OW 7060   5.521   2.879   1.275
 2054SOL    HW1 7061   5.601   2.876   1.334
 2054SOL    HW2 7062   5.452   2.939   1.315
 2055SOL     OW 7063   5.483   3.194   3.014
 2055SOL    HW1 7064   5.496   3.120   3.080
 2055SOL    HW2 7065   5.546   3.181   2.937
 2056SOL     OW 7066   1.954   1.774   2.747
 2056SOL    HW1 7067   1.925   1.843   2.680
 2056SOL    HW2 7068   1.983   1.691   2.698
 2057SOL     OW 7069   5.347   2.275   3.731
 2057SOL    HW1 7070   5.403   2.227   3.663
 2057SOL    HW2 7071   5.251   2.273   3.703
 2058SOL     OW 7072   1.164   1.941   3.010
 2058SOL    HW1 7073   1.094   1.963   2.942
 2058SOL    HW2 7074   1.184   1.843   3.008
 2059SOL     OW 7075   2.377   6.673   6.743
 2059SOL    HW1 7076   2.423   6.754   6.706
 2059SOL    HW2 7077   2.345   6.693   6.836
 2060SOL     OW 7078   6.883   4.447   1.134
 2060SOL    HW1 7079   6.919   4.425   1.044
 2060SOL    HW2 7080   6.799   4.396   1.151
 2061SOL     OW 7081   0.194   1.383   2.579
 2061SOL    HW1 7082   0.245   1.352   2.499
 2061SOL    HW2 7083   0.187   1.483   2.577
 2062SOL     OW 7084   5.401   0.068   3.377
 2062SOL    HW1 7085   5.313   0.104   3.405
 2062SOL    HW2 7086   5.391   0.018   3.291
 2063SOL     OW 7087   0.837   1.006   6.802
 2063SOL    HW1 7088   0.749   1.051   6.783
 2063SOL    HW2 7089   0.901   1.025   6.727
 2064SOL     OW 7090   0.624   2.106   5.705
 2064SOL    HW1 7091   0.567   2.118   5.625
 2064SOL    HW2 7092   0.569   2.118   5.788
 2065SOL     OW 7093   5.822   3.530   1.865
 2065SOL    HW1 7094   5.813   3.434   1.890
 2065SOL    HW2 7095   5.759   3.585   1.920
 2066SOL     OW 7096   0.924   5.609   4.296
 2066SOL    HW1 7097   0.910   5.703   4.327
 2066SOL    HW2 7098   0.835   5.563   4.289
 2067SOL     OW 7099   6.912   6.536   0.701
 2067SOL    HW1 7100   6.877   6.462   0.758
 2067SOL    HW2 7101   6.943   6.500   0.613
 2068SOL     OW 7102   1.748   1.198   5.549
 2068SOL    HW1 7103   1.807   1.160   5.477
 2068SOL    HW2 7104   1.676   1.253   5.507
 2069SOL     OW 7105   0.585   2.693   2.882
 2069SOL    HW1 7106   0.606   2.640   2.964
 2069SOL    HW2 7107   0.671   2.714   2.834
 2070SOL     OW 7108   1.866   0.246   2.083
 2070SOL    HW1 7109   1.780   0.274   2.127
 2070SOL    HW2 7110   1.942   0.291   2.129
 2071SOL     OW 7111   0.655   6.701   4.627
 2071SOL    HW1 7112   0.647   6.800   4.634
 2071SOL    HW2 7113   0.743   6.671   4.665
 2072SOL     OW 7114   4.370   5.717   1.624
 2072SOL    HW1 7115   4.366   5.792   1.691
 2072SOL    HW2 7116   4.377   5.756   1.532
 2073SOL     OW 7117   4.024   6.652   4.503
 2073SOL    HW1 7118   3.935   6.611   4.485
 2073SOL    HW2 7119   4.088   6.581   4.532
 2074SOL     OW 7120   0.641   2.029   6.492
 2074SOL    HW1 7121   0.603   1.947   6.534
 2074SOL    HW2 7122   0.690   2.082   6.561
 2075SOL     OW 7123   4.894   3.029   1.415
 2075SOL    HW1 7124   4.889   2.973   1.497
 2075SOL    HW2 7125   4.988   3.032   1.381
 2076SOL     OW 7126   5.379   6.209   0.046
 2076SOL    HW1 7127   5.314   6.272   0.089
 2076SOL    HW2 7128   5.329   6.144   7.008
 2077SOL     OW 7129   5.273   2.652   2.119
 2077SOL    HW1 7130   5.314   2.619   2.204
 2077SOL    HW2 7131   5.180   2.616   2.110
 2078SOL     OW 7132   2.284   5.813   6.260
 2078SOL    HW1 7133   2.297   5.912   6.264
 2078SOL    HW2 7134   2.197   5.792   6.215
 2079SOL     OW 7135   5.486   1.369   3.502
 2079SOL    HW1 7136   5.439   1.281   3.498
 2079SOL    HW2 7137   5.427   1.437   3.545
 2080SOL     OW 7138   2.507   1.179   4.860
 2080SOL    HW1 7139   2.552   1.179   4.949
 2080SOL    HW2 7140   2.475   1.271   4.838
 2081SOL     OW 7141   1.313   5.886   5.176
 2081SOL    HW1 7142   1.333   5.974   5.219
 2081SOL    HW2 7143   1.216   5.866   5.184
 2082SOL     OW 7144   5.642   0.693   2.141
 2082SOL    HW1 7145   5.739   0.670   2.132
 2082SOL    HW2 7146   5.603   0.709   2.050
 2083SOL     OW 7147   3.904   4.177   6.468
 2083SOL    HW1 7148   3.879   4.134   6.555
 2083SOL    HW2 7149   4.000   4.159   6.448
 2084SOL     OW 7150   6.895   3.208   3.899
 2084SOL    HW1 7151   6.973   3.171   3.848
 2084SOL    HW2 7152   6.874   3.300   3.864
 2085SOL     OW 7153   5.075   0.809   7.006
 2085SOL    HW1 7154   5.070   0.884   0.053
 2085SOL    HW2 7155   5.047   0.842   6.915
 2086SOL     OW 7156   2.791   5.699   6.170
 2086SOL    HW1 7157   2.759   5.757   6.095
 2086SOL    HW2 7158   2.790   5.603   6.141
 2087SOL     OW 7159   4.809   6.581   1.463
 2087SOL    HW1 7160   4.872   6.525   1.408
 2087SOL    HW2 7161   4.822   6.560   1.559
 2088SOL     OW 7162   3.443   5.601   0.495
 2088SOL    HW1 7163   3.507   5.677   0.507
 2088SOL    HW2 7164   3.354   5.636   0.467
 2089SOL     OW 7165   4.010   1.578   0.205
 2089SOL    HW1 7166   3.912   1.564   0.190
 2089SOL    HW2 7167   4.035   1.541   0.294
 2090SOL     OW 7168   4.088   3.226   4.588
 2090SOL    HW1 7169   4.101   3.230   4.687
 2090SOL    HW2 7170   4.108   3.316   4.549
 2091SOL     OW 7171   0.481   6.651   6.893
 2091SOL    HW1 7172   0.441   6.561   6.880
 2091SOL    HW2 7173   0.511   6.661   6.989
 2092SOL     OW 7174   5.032   5.525   0.670
 2092SOL    HW1 7175   4.940   5.564   0.656
 2092SOL    HW2 7176   5.098   5.600   0.676
 2093SOL     OW 7177   1.683   1.899   1.511
 2093SOL    HW1 7178   1.677   1.805   1.544
 2093SOL    HW2 7179   1.643   1.905   1.420
 2094SOL     OW 7180   6.113   1.153   1.654
 2094SOL    HW1 7181   6.189   1.107   1.609
 2094SOL    HW2 7182   6.094   1.239   1.607
 2095SOL     OW 7183   6.199   0.249   3.789
 2095SOL    HW1 7184   6.150   0.248   3.876
 2095SOL    HW2 7185   6.296   0.267   3.806
 2096SOL     OW 7186   4.909   3.793   2.786
 2096SOL    HW1 7187   4.959   3.812   2.870
 2096SOL    HW2 7188   4.925   3.867   2.720
 2097SOL     OW 7189   1.243   2.876   6.368
 2097SOL    HW1 7190   1.200   2.888   6.279
 2097SOL    HW2 7191   1.275   2.782   6.378
 2098SOL     OW 7192   3.570   5.762   3.728
 2098SOL    HW1 7193   3.475   5.730   3.733
 2098SOL    HW2 7194   3.576   5.841   3.667
 2099SOL     OW 7195   2.524   1.935   4.793
 2099SOL    HW1 7196   2.529   1.966   4.888
 2099SOL    HW2 7197   2.538   2.012   4.732
 2100SOL     OW 7198   3.731   4.094   6.232
 2100SOL    HW1 7199   3.801   4.088   6.304
 2100SOL    HW2 7200   3.699   4.002   6.209
 2101SOL     OW 7201   1.395   6.566   2.263
 2101SOL    HW1 7202   1.298   6.590   2.257
 2101SOL    HW2 7203   1.405   6.470   2.290
 2102SOL     OW 7204   0.736   5.104   2.067
 2102SOL    HW1 7205   0.792   5.024   2.086
 2102SOL    HW2 7206   0.639   5.080   2.078
 2103SOL     OW 7207   3.072   3.609   6.919
 2103SOL    HW1 7208   3.110   3.566   7.000
 2103SOL    HW2 7209   3.114   3.699   6.906
 2104SOL     OW 7210   1.483   3.622   0.164
 2104SOL    HW1 7211   1.509   3.534   0.203
 2104SOL    HW2 7212   1.512   3.626   0.068
 2105SOL     OW 7213   5.548   5.337   3.689
 2105SOL    HW1 7214   5.518   5.242   3.682
 2105SOL    HW2 7215   5.648   5.341   3.688
 2106SOL     OW 7216   3.986   4.911   0.316
 2106SOL    HW1 7217   3.900   4.860   0.326
 2106SOL    HW2 7218   3.975   5.004   0.352
 2107SOL     OW 7219   4.627   2.860   5.599
 2107SOL    HW1 7220   4.576   2.797   5.657
 2107SOL    HW2 7221   4.648   2.943   5.651
 2108SOL     OW 7222   6.430   6.560   5.923
 2108SOL    HW1 7223   6.480   6.572   6.009
 2108SOL    HW2 7224   6.341   6.518   5.942
 2109SOL     OW 7225   5.307   6.570   3.615
 2109SOL    HW1 7226   5.282   6.665   3.602
 2109SOL    HW2 7227   5.406   6.559   3.604
 2110SOL     OW 7228   3.222   3.688   5.974
 2110SOL    HW1 7229   3.142   3.628   5.977
 2110SOL    HW2 7230   3.212   3.756   5.902
 2111SOL     OW 7231   0.388   1.796   6.514
 2111SOL    HW1 7232   0.463   1.763   6.571
 2111SOL    HW2 7233   0.319   1.725   6.505
 2112SOL     OW 7234   4.599   1.780   1.150
 2112SOL    HW1 7235   4.692   1.791   1.115
 2112SOL    HW2 7236   4.580   1.852   1.216
 2113SOL     OW 7237   1.294   0.245   4.229
 2113SOL    HW1 7238   1.316   0.149   4.241
 2113SOL    HW2 7239   1.271   0.286   4.318
 2114SOL     OW 7240   1.613   2.709   0.790
 2114SOL    HW1 7241   1.706   2.723   0.825
 2114SOL    HW2 7242   1.587   2.786   0.733
 2115SOL     OW 7243   1.934   4.418   2.801
 2115SOL    HW1 7244   1.925   4.320   2.788
 2115SOL    HW2 7245   2.019   4.450   2.760
 2116SOL     OW 7246   0.209   4.450   3.169
 2116SOL    HW1 7247   0.178   4.459   3.074
 2116SOL    HW2 7248   0.129   4.454   3.230
 2117SOL     OW 7249   6.785   4.859   1.597
 2117SOL    HW1 7250   6.813   4.830   1.505
 2117SOL    HW2 7251   6.710   4.801   1.628
 2118SOL     OW 7252   0.121   3.452   2.673
 2118SOL    HW1 7253   0.079   3.365   2.648
 2118SOL    HW2 7254   0.219   3.439   2.686
 2119SOL     OW 7255   2.150   5.522   0.760
 2119SOL    HW1 7256   2.092   5.441   0.753
 2119SOL    HW2 7257   2.196   5.523   0.848
 2120SOL     OW 7258   6.814   5.508   3.690
 2120SOL    HW1 7259   6.869   5.590   3.674
 2120SOL    HW2 7260   6.717   5.533   3.695
 2121SOL     OW 7261   1.343   4.349   5.870
 2121SOL    HW1 7262   1.312   4.285   5.799
 2121SOL    HW2 7263   1.343   4.442   5.833
 2122SOL     OW 7264   6.313   4.128   5.107
 2122SOL    HW1 7265   6.238   4.062   5.115
 2122SOL    HW2 7266   6.286   4.214   5.151
 2123SOL     OW 7267   0.516   4.321   2.858
 2123SOL    HW1 7268   0.548   4.253   2.792
 2123SOL    HW2 7269   0.422   4.349   2.835
 2124SOL     OW 7270   2.294   1.167   1.579
 2124SOL    HW1 7271   2.318   1.261   1.553
 2124SOL    HW2 7272   2.252   1.120   1.501
 2125SOL     OW 7273   1.286   0.170   0.503
 2125SOL    HW1 7274   1.285   0.269   0.517
 2125SOL    HW2 7275   1.294   0.150   0.405
 2126SOL     OW 7276   2.969   0.634   1.230
 2126SOL    HW1 7277   2.932   0.719   1.193
 2126SOL    HW2 7278   3.024   0.588   1.161
 2127SOL     OW 7279   6.250   3.471   4.770
 2127SOL    HW1 7280   6.261   3.374   4.796
 2127SOL    HW2 7281   6.214   3.477   4.677
 2128SOL     OW 7282   0.141   4.008   4.436
 2128SOL    HW1 7283   0.183   3.925   4.399
 2128SOL    HW2 7284   0.095   3.986   4.522
 2129SOL     OW 7285   4.533   2.856   5.329
 2129SOL    HW1 7286   4.441   2.816   5.324
 2129SOL    HW2 7287   4.564   2.858   5.424
 2130SOL     OW 7288   4.908   6.842   2.827
 2130SOL    HW1 7289   4.830   6.780   2.821
 2130SOL    HW2 7290   4.973   6.820   2.754
 2131SOL     OW 7291   6.971   0.915   1.205
 2131SOL    HW1 7292   6.949   0.987   1.140
 2131SOL    HW2 7293   7.004   0.834   1.155
 2132SOL     OW 7294   4.373   2.465   1.183
 2132SOL    HW1 7295   4.440   2.538   1.199
 2132SOL    HW2 7296   4.324   2.446   1.268
 2133SOL     OW 7297   3.152   2.843   5.672
 2133SOL    HW1 7298   3.151   2.933   5.630
 2133SOL    HW2 7299   3.072   2.791   5.642
 2134SOL     OW 7300   0.260   2.271   0.654
 2134SOL    HW1 7301   0.320   2.236   0.581
 2134SOL    HW2 7302   0.273   2.370   0.663
 2135SOL     OW 7303   0.667   4.160   4.166
 2135SOL    HW1 7304   0.744   4.110   4.205
 2135SOL    HW2 7305   0.614   4.203   4.239
 2136SOL     OW 7306   2.544   4.883   2.262
 2136SOL    HW1 7307   2.514   4.948   2.192
 2136SOL    HW2 7308   2.637   4.852   2.241
 2137SOL     OW 7309   2.754   5.184   5.076
 2137SOL    HW1 7310   2.845   5.220   5.097
 2137SOL    HW2 7311   2.751   5.086   5.097
 2138SOL     OW 7312   5.990   0.737   2.793
 2138SOL    HW1 7313   5.908   0.795   2.802
 2138SOL    HW2 7314   5.983   0.660   2.857
 2139SOL     OW 7315   3.732   0.591   4.885
 2139SOL    HW1 7316   3.731   0.495   4.911
 2139SOL    HW2 7317   3.739   0.599   4.785
 2140SOL     OW 7318   3.081   6.704   4.294
 2140SOL    HW1 7319   3.143   6.688   4.218
 2140SOL    HW2 7320   3.106   6.644   4.371
 2141SOL     OW 7321   6.316   3.633   1.834
 2141SOL    HW1 7322   6.365   3.649   1.920
 2141SOL    HW2 7323   6.226   3.594   1.854
 2142SOL     OW 7324   0.754   1.714   3.831
 2142SOL    HW1 7325   0.849   1.707   3.798
 2142SOL    HW2 7326   0.734   1.637   3.891
 2143SOL     OW 7327   2.240   5.219   1.061
 2143SOL    HW1 7328   2.205   5.232   1.154
 2143SOL    HW2 7329   2.222   5.126   1.031
 2144SOL     OW 7330   0.398   5.105   4.411
 2144SOL    HW1 7331   0.467   5.167   4.372
 2144SOL    HW2 7332   0.398   5.113   4.511
 2145SOL     OW 7333   3.965   6.462   4.072
 2145SOL    HW1 7334   3.995   6.368   4.054
 2145SOL    HW2 7335   3.928   6.502   3.988
 2146SOL     OW 7336   1.871   2.268   1.226
 2146SOL    HW1 7337   1.789   2.310   1.264
 2146SOL    HW2 7338   1.922   2.223   1.300
 2147SOL     OW 7339   6.289   1.583   6.604
 2147SOL    HW1 7340   6.196   1.584   6.640
 2147SOL    HW2 7341   6.346   1.646   6.657
 2148SOL     OW 7342   6.571   3.135   6.365
 2148SOL    HW1 7343   6.562   3.100   6.458
 2148SOL    HW2 7344   6.483   3.127   6.317
 2149SOL     OW 7345   1.658   1.400   1.103
 2149SOL    HW1 7346   1.580   1.351   1.141
 2149SOL    HW2 7347   1.691   1.352   1.022
 2150SOL     OW 7348   2.504   2.220   1.674
 2150SOL    HW1 7349   2.407   2.224   1.697
 2150SOL    HW2 7350   2.554   2.288   1.727
 2151SOL     OW 7351   1.034   6.128   6.656
 2151SOL    HW1 7352   0.967   6.141   6.729
 2151SOL    HW2 7353   1.069   6.217   6.627
 2152SOL     OW 7354   3.798   4.891   2.330
 2152SOL    HW1 7355   3.829   4.922   2.240
 2152SOL    HW2 7356   3.705   4.857   2.323
 2153SOL     OW 7357   4.920   1.693   2.234
 2153SOL    HW1 7358   4.894   1.784   2.268
 2153SOL    HW2 7359   4.858   1.624   2.273
 2154SOL     OW 7360   2.546   6.889   4.404
 2154SOL    HW1 7361   2.626   6.830   4.399
 2154SOL    HW2 7362   2.557   6.955   4.478
 2155SOL     OW 7363   4.199   6.810   1.062
 2155SOL    HW1 7364   4.101   6.797   1.081
 2155SOL    HW2 7365   4.212   6.822   0.963
 2156SOL     OW 7366   6.708   0.384   4.719
 2156SOL    HW1 7367   6.712   0.353   4.814
 2156SOL    HW2 7368   6.795   0.427   4.694
 2157SOL     OW 7369   4.757   5.827   3.911
 2157SOL    HW1 7370   4.750   5.862   4.004
 2157SOL    HW2 7371   4.694   5.878   3.852
 2158SOL     OW 7372   3.864   6.032   0.388
 2158SOL    HW1 7373   3.920   6.114   0.371
 2158SOL    HW2 7374   3.917   5.950   0.365
 2159SOL     OW 7375   1.650   1.036   5.036
 2159SOL    HW1 7376   1.624   0.955   5.088
 2159SOL    HW2 7377   1.739   1.022   4.994
 2160SOL     OW 7378   5.351   4.810   6.423
 2160SOL    HW1 7379   5.312   4.719   6.408
 2160SOL    HW2 7380   5.309   4.852   6.503
 2161SOL     OW 7381   6.673   4.092   1.910
 2161SOL    HW1 7382   6.679   4.028   1.833
 2161SOL    HW2 7383   6.715   4.179   1.885
 2162SOL     OW 7384   2.821   0.225   2.906
 2162SOL    HW1 7385   2.778   0.149   2.857
 2162SOL    HW2 7386   2.903   0.254   2.857
 2163SOL     OW 7387   1.221   4.011   0.475
 2163SOL    HW1 7388   1.315   3.993   0.504
 2163SOL    HW2 7389   1.192   3.941   0.410
 2164SOL     OW 7390   2.073   2.378   6.781
 2164SOL    HW1 7391   2.093   2.468   6.819
 2164SOL    HW2 7392   2.157   2.324   6.777
 2165SOL     OW 7393   0.686   1.908   4.046
 2165SOL    HW1 7394   0.699   1.879   3.951
 2165SOL    HW2 7395   0.602   1.868   4.083
 2166SOL     OW 7396   0.653   3.887   4.475
 2166SOL    HW1 7397   0.619   3.793   4.479
 2166SOL    HW2 7398   0.602   3.944   4.540
 2167SOL     OW 7399   0.521   2.744   3.823
 2167SOL    HW1 7400   0.574   2.829   3.820
 2167SOL    HW2 7401   0.546   2.692   3.905
 2168SOL     OW 7402   0.849   1.780   2.634
 2168SOL    HW1 7403   0.875   1.844   2.707
 2168SOL    HW2 7404   0.884   1.813   2.546
 2169SOL     OW 7405   0.081   0.354   1.065
 2169SOL    HW1 7406   0.122   0.378   0.977
 2169SOL    HW2 7407   0.038   0.264   1.058
 2170SOL     OW 7408   7.002   4.206   4.660
 2170SOL    HW1 7409   0.034   4.224   4.745
 2170SOL    HW2 7410   6.904   4.218   4.676
 2171SOL     OW 7411   0.394   5.573   1.427
 2171SOL    HW1 7412   0.489   5.603   1.419
 2171SOL    HW2 7413   0.375   5.546   1.521
 2172SOL     OW 7414   2.043   1.996   5.763
 2172SOL    HW1 7415   2.014   2.050   5.684
 2172SOL    HW2 7416   2.004   2.035   5.846
 2173SOL     OW 7417   4.808   0.164   5.825
 2173SOL    HW1 7418   4.810   0.258   5.862
 2173SOL    HW2 7419   4.721   0.149   5.777
 2174SOL     OW 7420   6.890   6.683   5.011
 2174SOL    HW1 7421   6.934   6.734   5.085
 2174SOL    HW2 7422   6.959   6.634   4.958
 2175SOL     OW 7423   1.927   2.594   5.091
 2175SOL    HW1 7424   1.843   2.539   5.096
 2175SOL    HW2 7425   1.943   2.622   4.996
 2176SOL     OW 7426   5.510   1.559   1.243
 2176SOL    HW1 7427   5.422   1.606   1.243
 2176SOL    HW2 7428   5.497   1.463   1.266
 2177SOL     OW 7429   6.500   0.876   2.091
 2177SOL    HW1 7430   6.529   0.804   2.028
 2177SOL    HW2 7431   6.484   0.960   2.041
 2178SOL     OW 7432   0.988   1.173   2.165
 2178SOL    HW1 7433   1.063   1.113   2.193
 2178SOL    HW2 7434   1.025   1.253   2.117
 2179SOL     OW 7435   1.750   3.332   6.309
 2179SOL    HW1 7436   1.703   3.411   6.270
 2179SOL    HW2 7437   1.830   3.310   6.253
 2180SOL     OW 7438   1.325   3.093   2.087
 2180SOL    HW1 7439   1.299   3.134   2.174
 2180SOL    HW2 7440   1.278   3.005   2.075
 2181SOL     OW 7441   4.488   5.142   4.074
 2181SOL    HW1 7442   4.569   5.120   4.019
 2181SOL    HW2 7443   4.511   5.214   4.139
 2182SOL     OW 7444   0.803   4.764   3.858
 2182SOL    HW1 7445   0.852   4.751   3.772
 2182SOL    HW2 7446   0.865   4.800   3.928
 2183SOL     OW 7447   2.371   3.590   0.310
 2183SOL    HW1 7448   2.451   3.555   0.360
 2183SOL    HW2 7449   2.390   3.587   0.212
 2184SOL     OW 7450   4.489   6.985   6.443
 2184SOL    HW1 7451   4.524   7.003   6.351
 2184SOL    HW2 7452   4.391   7.001   6.445
 2185SOL     OW 7453   1.322   1.073   6.633
 2185SOL    HW1 7454   1.408   1.022   6.627
 2185SOL    HW2 7455   1.246   1.011   6.615
 2186SOL     OW 7456   6.285   6.109   6.171
 2186SOL    HW1 7457   6.217   6.116   6.244
 2186SOL    HW2 7458   6.240   6.084   6.086
 2187SOL     OW 7459   0.055   6.338   2.518
 2187SOL    HW1 7460   0.005   6.420   2.490
 2187SOL    HW2 7461   0.091   6.292   2.437
 2188SOL     OW 7462   2.014   5.245   5.599
 2188SOL    HW1 7463   2.044   5.327   5.550
 2188SOL    HW2 7464   1.915   5.236   5.590
 2189SOL     OW 7465   1.563   0.354   2.193
 2189SOL    HW1 7466   1.536   0.339   2.098
 2189SOL    HW2 7467   1.632   0.426   2.198
 2190SOL     OW 7468   6.624   3.601   1.725
 2190SOL    HW1 7469   6.562   3.548   1.782
 2190SOL    HW2 7470   6.588   3.694   1.715
 2191SOL     OW 7471   2.803   1.097   5.678
 2191SOL    HW1 7472   2.874   1.162   5.653
 2191SOL    HW2 7473   2.813   1.014   5.623
 2192SOL     OW 7474   4.968   0.453   2.614
 2192SOL    HW1 7475   5.067   0.464   2.607
 2192SOL    HW2 7476   4.945   0.420   2.706
 2193SOL     OW 7477   6.841   0.184   5.965
 2193SOL    HW1 7478   6.863   0.275   5.931
 2193SOL    HW2 7479   6.909   0.118   5.932
 2194SOL     OW 7480   0.994   4.030   6.097
 2194SOL    HW1 7481   0.992   4.100   6.168
 2194SOL    HW2 7482   1.040   3.948   6.133
 2195SOL     OW 7483   0.054   6.247   5.216
 2195SOL    HW1 7484   0.049   6.319   5.286
 2195SOL    HW2 7485   6.991   6.251   5.159
 2196SOL     OW 7486   3.121   6.375   4.921
 2196SOL    HW1 7487   3.091   6.470   4.926
 2196SOL    HW2 7488   3.220   6.370   4.929
 2197SOL     OW 7489   2.860   3.650   6.515
 2197SOL    HW1 7490   2.766   3.679   6.500
 2197SOL    HW2 7491   2.919   3.731   6.522
 2198SOL     OW 7492   6.313   6.862   1.155
 2198SOL    HW1 7493   6.326   6.775   1.106
 2198SOL    HW2 7494   6.251   6.848   1.232
 2199SOL     OW 7495   5.409   0.309   4.506
 2199SOL    HW1 7496   5.454   0.360   4.579
 2199SOL    HW2 7497   5.313   0.296   4.529
 2200SOL     OW 7498   2.325   1.352   3.929
 2200SOL    HW1 7499   2.402   1.292   3.945
 2200SOL    HW2 7500   2.333   1.433   3.987
 2201SOL     OW 7501   6.499   2.795   2.920
 2201SOL    HW1 7502   6.454   2.793   2.831
 2201SOL    HW2 7503   6.483   2.708   2.967
 2202SOL     OW 7504   3.359   5.437   2.092
 2202SOL    HW1 7505   3.315   5.524   2.115
 2202SOL    HW2 7506   3.335   5.411   1.998
 2203SOL     OW 7507   2.753   3.257   1.229
 2203SOL    HW1 7508   2.695   3.213   1.161
 2203SOL    HW2 7509   2.696   3.295   1.302
 2204SOL     OW 7510   4.224   2.619   0.977
 2204SOL    HW1 7511   4.271   2.587   1.059
 2204SOL    HW2 7512   4.134   2.654   1.001
 2205SOL     OW 7513   1.220   6.960   0.192
 2205SOL    HW1 7514   1.279   0.020   0.206
 2205SOL    HW2 7515   1.239   6.919   0.103
 2206SOL     OW 7516   2.328   4.431   6.164
 2206SOL    HW1 7517   2.412   4.472   6.199
 2206SOL    HW2 7518   2.257   4.501   6.157
 2207SOL     OW 7519   3.298   4.676   0.147
 2207SOL    HW1 7520   3.396   4.682   0.162
 2207SOL    HW2 7521   3.253   4.651   0.233
 2208SOL     OW 7522   0.579   5.195   2.979
 2208SOL    HW1 7523   0.585   5.202   2.880
 2208SOL    HW2 7524   0.670   5.212   3.019
 2209SOL     OW 7525   2.667   6.352   4.692
 2209SOL    HW1 7526   2.740   6.298   4.733
 2209SOL    HW2 7527   2.707   6.419   4.629
 2210SOL     OW 7528   6.601   5.375   3.385
 2210SOL    HW1 7529   6.561   5.357   3.475
 2210SOL    HW2 7530   6.631   5.470   3.381
 2211SOL     OW 7531   6.309   0.565   0.588
 2211SOL    HW1 7532   6.325   0.472   0.621
 2211SOL    HW2 7533   6.274   0.621   0.663
 2212SOL     OW 7534   1.444   5.610   6.847
 2212SOL    HW1 7535   1.499   5.600   6.930
 2212SOL    HW2 7536   1.464   5.535   6.785
 2213SOL     OW 7537   4.235   2.632   5.642
 2213SOL    HW1 7538   4.228   2.688   5.559
 2213SOL    HW2 7539   4.177   2.671   5.713
 2214SOL     OW 7540   3.178   3.444   4.952
 2214SOL    HW1 7541   3.085   3.426   4.984
 2214SOL    HW2 7542   3.197   3.388   4.872
 2215SOL     OW 7543   6.040   1.304   6.419
 2215SOL    HW1 7544   5.996   1.219   6.448
 2215SOL    HW2 7545   6.139   1.289   6.412
 2216SOL     OW 7546   6.981   0.410   5.773
 2216SOL    HW1 7547   0.014   0.339   5.726
 2216SOL    HW2 7548   0.023   0.487   5.794
 2217SOL     OW 7549   4.619   0.167   3.012
 2217SOL    HW1 7550   4.635   0.243   3.075
 2217SOL    HW2 7551   4.534   0.120   3.037
 2218SOL     OW 7552   6.821   4.839   6.861
 2218SOL    HW1 7553   6.912   4.797   6.857
 2218SOL    HW2 7554   6.753   4.773   6.831
 2219SOL     OW 7555   6.439   2.207   1.229
 2219SOL    HW1 7556   6.478   2.256   1.152
 2219SOL    HW2 7557   6.340   2.218   1.230
 2220SOL     OW 7558   1.638   5.549   5.373
 2220SOL    HW1 7559   1.591   5.612   5.434
 2220SOL    HW2 7560   1.734   5.577   5.364
 2221SOL     OW 7561   6.482   1.517   5.191
 2221SOL    HW1 7562   6.540   1.579   5.242
 2221SOL    HW2 7563   6.402   1.567   5.157
 2222SOL     OW 7564   5.978   0.148   0.816
 2222SOL    HW1 7565   6.056   0.091   0.843
 2222SOL    HW2 7566   6.002   0.244   0.828
 2223SOL     OW 7567   5.858   1.116   6.493
 2223SOL    HW1 7568   5.816   1.197   6.532
 2223SOL    HW2 7569   5.789   1.064   6.442
 2224SOL     OW 7570   6.170   3.431   1.320
 2224SOL    HW1 7571   6.229   3.474   1.388
 2224SOL    HW2 7572   6.127   3.502   1.264
 2225SOL     OW 7573   6.650   6.885   3.305
 2225SOL    HW1 7574   6.663   6.786   3.306
 2225SOL    HW2 7575   6.739   6.931   3.299
 2226SOL     OW 7576   3.462   5.469   0.928
 2226SOL    HW1 7577   3.403   5.549   0.915
 2226SOL    HW2 7578   3.556   5.493   0.906
 2227SOL     OW 7579   4.852   2.588   1.350
 2227SOL    HW1 7580   4.820   2.656   1.283
 2227SOL    HW2 7581   4.919   2.528   1.307
 2228SOL     OW 7582   3.597   5.008   0.369
 2228SOL    HW1 7583   3.559   4.941   0.432
 2228SOL    HW2 7584   3.523   5.048   0.314
 2229SOL     OW 7585   3.943   3.203   5.184
 2229SOL    HW1 7586   3.873   3.275   5.191
 2229SOL    HW2 7587   3.976   3.197   5.090
 2230SOL     OW 7588   5.478   6.852   0.873
 2230SOL    HW1 7589   5.455   6.792   0.950
 2230SOL    HW2 7590   5.394   6.876   0.824
 2231SOL     OW 7591   0.236   0.551   0.315
 2231SOL    HW1 7592   0.199   0.637   0.352
 2231SOL    HW2 7593   0.243   0.559   0.215
 2232SOL     OW 7594   1.189   1.357   4.815
 2232SOL    HW1 7595   1.236   1.269   4.826
 2232SOL    HW2 7596   1.182   1.379   4.718
 2233SOL     OW 7597   2.452   2.953   0.700
 2233SOL    HW1 7598   2.424   2.882   0.765
 2233SOL    HW2 7599   2.463   3.040   0.749
 2234SOL     OW 7600   3.416   1.494   0.664
 2234SOL    HW1 7601   3.508   1.481   0.702
 2234SOL    HW2 7602   3.385   1.408   0.623
 2235SOL     OW 7603   2.536   7.018   1.567
 2235SOL    HW1 7604   2.626   6.977   1.582
 2235SOL    HW2 7605   2.510   0.053   1.648
 2236SOL     OW 7606   1.619   3.553   6.260
 2236SOL    HW1 7607   1.663   3.626   6.313
 2236SOL    HW2 7608   1.544   3.592   6.207
 2237SOL     OW 7609   5.925   4.445   4.414
 2237SOL    HW1 7610   5.926   4.513   4.340
 2237SOL    HW2 7611   6.007   4.455   4.469
 2238SOL     OW 7612   4.307   5.352   2.492
 2238SOL    HW1 7613   4.339   5.378   2.583
 2238SOL    HW2 7614   4.349   5.265   2.465
 2239SOL     OW 7615   4.851   6.194   3.930
 2239SOL    HW1 7616   4.774   6.129   3.934
 2239SOL    HW2 7617   4.823   6.282   3.969
 2240SOL     OW 7618   3.611   5.407   2.715
 2240SOL    HW1 7619   3.700   5.433   2.751
 2240SOL    HW2 7620   3.548   5.391   2.791
 2241SOL     OW 7621   6.842   6.473   2.164
 2241SOL    HW1 7622   6.874   6.564   2.189
 2241SOL    HW2 7623   6.800   6.429   2.243
 2242SOL     OW 7624   4.999   3.377   2.675
 2242SOL    HW1 7625   4.973   3.463   2.630
 2242SOL    HW2 7626   4.987   3.301   2.611
 2243SOL     OW 7627   2.025   6.898   0.030
 2243SOL    HW1 7628   2.109   6.914   6.995
 2243SOL    HW2 7629   2.011   6.799   0.040
 2244SOL     OW 7630   3.049   6.927   1.782
 2244SOL    HW1 7631   3.048   6.998   1.853
 2244SOL    HW2 7632   3.015   6.841   1.821
 2245SOL     OW 7633   0.570   1.516   1.246
 2245SOL    HW1 7634   0.490   1.505   1.305
 2245SOL    HW2 7635   0.606   1.425   1.223
 2246SOL     OW 7636   2.786   0.603   4.459
 2246SOL    HW1 7637   2.752   0.689   4.421
 2246SOL    HW2 7638   2.780   0.531   4.390
 2247SOL     OW 7639   3.031   3.126   3.187
 2247SOL    HW1 7640   3.018   3.192   3.261
 2247SOL    HW2 7641   3.081   3.046   3.223
 2248SOL     OW 7642   6.423   3.890   4.711
 2248SOL    HW1 7643   6.452   3.925   4.622
 2248SOL    HW2 7644   6.332   3.850   4.702
 2249SOL     OW 7645   5.458   6.403   3.849
 2249SOL    HW1 7646   5.538   6.355   3.812
 2249SOL    HW2 7647   5.392   6.420   3.775
 2250SOL     OW 7648   3.232   3.973   5.242
 2250SOL    HW1 7649   3.282   3.955   5.327
 2250SOL    HW2 7650   3.281   3.934   5.165
 2251SOL     OW 7651   5.452   0.092   6.317
 2251SOL    HW1 7652   5.369   0.041   6.293
 2251SOL    HW2 7653   5.433   0.153   6.394
 2252SOL     OW 7654   4.845   1.679   3.272
 2252SOL    HW1 7655   4.885   1.706   3.184
 2252SOL    HW2 7656   4.912   1.696   3.345
 2253SOL     OW 7657   0.149   3.317   7.005
 2253SOL    HW1 7658   0.201   3.388   6.958
 2253SOL    HW2 7659   0.077   3.283   6.945
 2254SOL     OW 7660   3.415   2.921   4.392
 2254SOL    HW1 7661   3.340   2.870   4.435
 2254SOL    HW2 7662   3.380   3.008   4.357
 2255SOL     OW 7663   3.724   3.508   6.093
 2255SOL    HW1 7664   3.702   3.570   6.168
 2255SOL    HW2 7665   3.817   3.525   6.060
 2256SOL     OW 7666   5.146   6.796   2.163
 2256SOL    HW1 7667   5.078   6.737   2.120
 2256SOL    HW2 7668   5.181   6.752   2.245
 2257SOL     OW 7669   0.490   1.653   4.365
 2257SOL    HW1 7670   0.419   1.583   4.355
 2257SOL    HW2 7671   0.563   1.618   4.424
 2258SOL     OW 7672   1.315   5.699   4.784
 2258SOL    HW1 7673   1.405   5.682   4.744
 2258SOL    HW2 7674   1.264   5.763   4.725
 2259SOL     OW 7675   5.627   2.727   5.293
 2259SOL    HW1 7676   5.630   2.710   5.392
 2259SOL    HW2 7677   5.619   2.639   5.245
 2260SOL     OW 7678   0.325   3.810   1.089
 2260SOL    HW1 7679   0.261   3.748   1.045
 2260SOL    HW2 7680   0.274   3.885   1.132
 2261SOL     OW 7681   6.373   5.270   0.888
 2261SOL    HW1 7682   6.385   5.195   0.954
 2261SOL    HW2 7683   6.374   5.232   0.796
 2262SOL     OW 7684   6.209   0.214   2.963
 2262SOL    HW1 7685   6.204   0.212   2.863
 2262SOL    HW2 7686   6.305   0.209   2.991
 2263SOL     OW 7687   2.548   5.872   0.039
 2263SOL    HW1 7688   2.553   5.850   6.960
 2263SOL    HW2 7689   2.560   5.789   0.094
 2264SOL     OW 7690   3.233   6.065   6.139
 2264SOL    HW1 7691   3.150   6.061   6.195
 2264SOL    HW2 7692   3.226   5.999   6.065
 2265SOL     OW 7693   2.222   0.853   4.396
 2265SOL    HW1 7694   2.267   0.830   4.310
 2265SOL    HW2 7695   2.146   0.790   4.412
 2266SOL     OW 7696   5.253   1.418   6.464
 2266SOL    HW1 7697   5.176   1.422   6.400
 2266SOL    HW2 7698   5.331   1.374   6.420
 2267SOL     OW 7699   5.154   3.224   5.094
 2267SOL    HW1 7700   5.214   3.291   5.138
 2267SOL    HW2 7701   5.063   3.229   5.137
 2268SOL     OW 7702   5.862   4.328   5.959
 2268SOL    HW1 7703   5.936   4.269   5.928
 2268SOL    HW2 7704   5.806   4.279   6.026
 2269SOL     OW 7705   0.790   4.050   5.451
 2269SOL    HW1 7706   0.702   4.012   5.424
 2269SOL    HW2 7707   0.859   4.028   5.383
 2270SOL     OW 7708   4.196   2.623   6.007
 2270SOL    HW1 7709   4.151   2.544   5.967
 2270SOL    HW2 7710   4.170   2.706   5.958
 2271SOL     OW 7711   5.990   4.644   6.728
 2271SOL    HW1 7712   5.946   4.660   6.816
 2271SOL    HW2 7713   5.921   4.636   6.656
 2272SOL     OW 7714   5.632   1.432   0.000
 2272SOL    HW1 7715   5.590   1.460   6.932
 2272SOL    HW2 7716   5.726   1.464   0.004
 2273SOL     OW 7717   1.494   1.442   2.320
 2273SOL    HW1 7718   1.484   1.522   2.260
 2273SOL    HW2 7719   1.579   1.450   2.372
 2274SOL     OW 7720   0.619   1.406   6.128
 2274SOL    HW1 7721   0.713   1.373   6.116
 2274SOL    HW2 7722   0.615   1.504   6.111
 2275SOL     OW 7723   6.239   0.175   3.438
 2275SOL    HW1 7724   6.144   0.184   3.408
 2275SOL    HW2 7725   6.265   0.079   3.437
 2276SOL     OW 7726   2.326   5.648   1.740
 2276SOL    HW1 7727   2.342   5.631   1.643
 2276SOL    HW2 7728   2.400   5.606   1.793
 2277SOL     OW 7729   3.534   3.979   4.296
 2277SOL    HW1 7730   3.481   4.058   4.326
 2277SOL    HW2 7731   3.499   3.896   4.340
 2278SOL     OW 7732   5.972   3.128   4.179
 2278SOL    HW1 7733   5.915   3.048   4.199
 2278SOL    HW2 7734   6.002   3.124   4.083
 2279SOL     OW 7735   5.943   0.146   5.033
 2279SOL    HW1 7736   5.851   0.115   5.012
 2279SOL    HW2 7737   5.939   0.230   5.088
 2280SOL     OW 7738   6.625   0.015   4.442
 2280SOL    HW1 7739   6.690   0.080   4.481
 2280SOL    HW2 7740   6.544   0.009   4.500
 2281SOL     OW 7741   3.388   0.526   1.846
 2281SOL    HW1 7742   3.456   0.461   1.814
 2281SOL    HW2 7743   3.305   0.519   1.790
 2282SOL     OW 7744   5.475   6.697   5.432
 2282SOL    HW1 7745   5.438   6.740   5.350
 2282SOL    HW2 7746   5.554   6.641   5.409
 2283SOL     OW 7747   1.689   6.968   1.893
 2283SOL    HW1 7748   1.747   0.027   1.868
 2283SOL    HW2 7749   1.704   6.945   1.989
 2284SOL     OW 7750   1.174   3.098   6.543
 2284SOL    HW1 7751   1.245   3.036   6.510
 2284SOL    HW2 7752   1.216   3.174   6.593
 2285SOL     OW 7753   1.086   2.748   0.485
 2285SOL    HW1 7754   1.090   2.802   0.570
 2285SOL    HW2 7755   1.009   2.685   0.489
 2286SOL     OW 7756   5.691   0.085   3.374
 2286SOL    HW1 7757   5.682   0.171   3.325
 2286SOL    HW2 7758   5.606   0.065   3.422
 2287SOL     OW 7759   2.240   0.392   3.908
 2287SOL    HW1 7760   2.186   0.373   3.989
 2287SOL    HW2 7761   2.273   0.487   3.911
 2288SOL     OW 7762   6.061   5.050   3.775
 2288SOL    HW1 7763   6.109   5.129   3.736
 2288SOL    HW2 7764   5.972   5.079   3.810
 2289SOL     OW 7765   6.995   5.241   0.782
 2289SOL    HW1 7766   6.946   5.195   0.856
 2289SOL    HW2 7767   6.973   5.197   0.695
 2290SOL     OW 7768   0.785   3.725   1.062
 2290SOL    HW1 7769   0.709   3.765   1.009
 2290SOL    HW2 7770   0.758   3.634   1.095
 2291SOL     OW 7771   2.167   2.376   5.784
 2291SOL    HW1 7772   2.130   2.415   5.869
 2291SOL    HW2 7773   2.238   2.436   5.747
 2292SOL     OW 7774   1.082   1.946   4.203
 2292SOL    HW1 7775   1.106   1.849   4.213
 2292SOL    HW2 7776   1.020   1.972   4.277
 2293SOL     OW 7777   5.008   6.842   1.136
 2293SOL    HW1 7778   5.062   6.896   1.200
 2293SOL    HW2 7779   4.940   6.900   1.092
 2294SOL     OW 7780   3.251   0.675   0.267
 2294SOL    HW1 7781   3.284   0.584   0.289
 2294SOL    HW2 7782   3.324   0.742   0.282
 2295SOL     OW 7783   0.266   1.880   2.835
 2295SOL    HW1 7784   0.331   1.808   2.810
 2295SOL    HW2 7785   0.305   1.937   2.908
 2296SOL     OW 7786   3.720   5.732   0.498
 2296SOL    HW1 7787   3.714   5.803   0.428
 2296SOL    HW2 7788   3.804   5.680   0.486
 2297SOL     OW 7789   3.624   4.227   4.964
 2297SOL    HW1 7790   3.598   4.243   5.059
 2297SOL    HW2 7791   3.697   4.290   4.938
 2298SOL     OW 7792   4.100   3.038   1.797
 2298SOL    HW1 7793   4.174   2.973   1.818
 2298SOL    HW2 7794   4.131   3.101   1.725
 2299SOL     OW 7795   5.105   6.598   6.449
 2299SOL    HW1 7796   5.021   6.629   6.494
 2299SOL    HW2 7797   5.119   6.501   6.467
 2300SOL     OW 7798   2.616   4.584   1.800
 2300SOL    HW1 7799   2.686   4.603   1.869
 2300SOL    HW2 7800   2.645   4.623   1.712
 2301SOL     OW 7801   3.150   2.973   3.561
 2301SOL    HW1 7802   3.084   2.899   3.549
 2301SOL    HW2 7803   3.189   2.998   3.472
 2302SOL     OW 7804   3.722   6.691   1.754
 2302SOL    HW1 7805   3.747   6.682   1.851
 2302SOL    HW2 7806   3.740   6.785   1.724
 2303SOL     OW 7807   1.704   3.429   6.610
 2303SOL    HW1 7808   1.798   3.460   6.621
 2303SOL    HW2 7809   1.689   3.397   6.517
 2304SOL     OW 7810   3.410   0.153   3.455
 2304SOL    HW1 7811   3.435   0.249   3.452
 2304SOL    HW2 7812   3.419   0.113   3.364
 2305SOL     OW 7813   2.951   6.550   2.831
 2305SOL    HW1 7814   2.910   6.506   2.751
 2305SOL    HW2 7815   2.991   6.480   2.890
 2306SOL     OW 7816   2.318   5.105   1.773
 2306SOL    HW1 7817   2.337   5.165   1.695
 2306SOL    HW2 7818   2.277   5.021   1.740
 2307SOL     OW 7819   1.644   3.571   2.221
 2307SOL    HW1 7820   1.613   3.658   2.184
 2307SOL    HW2 7821   1.730   3.584   2.270
 2308SOL     OW 7822   1.544   6.752   0.253
 2308SOL    HW1 7823   1.583   6.674   0.300
 2308SOL    HW2 7824   1.452   6.729   0.219
 2309SOL     OW 7825   3.236   6.516   6.941
 2309SOL    HW1 7826   3.274   6.431   6.905
 2309SOL    HW2 7827   3.179   6.560   6.872
 2310SOL     OW 7828   5.589   6.611   1.609
 2310SOL    HW1 7829   5.610   6.696   1.562
 2310SOL    HW2 7830   5.618   6.533   1.553
 2311SOL     OW 7831   2.393   6.210   2.482
 2311SOL    HW1 7832   2.445   6.227   2.399
 2311SOL    HW2 7833   2.455   6.182   2.555
 2312SOL     OW 7834   3.650   6.262   4.241
 2312SOL    HW1 7835   3.654   6.162   4.233
 2312SOL    HW2 7836   3.596   6.299   4.166
 2313SOL     OW 7837   5.202   5.636   1.969
 2313SOL    HW1 7838   5.169   5.692   1.893
 2313SOL    HW2 7839   5.177   5.541   1.954
 2314SOL     OW 7840   5.862   0.861   4.543
 2314SOL    HW1 7841   5.880   0.763   4.536
 2314SOL    HW2 7842   5.935   0.912   4.497
 2315SOL     OW 7843   5.094   3.620   5.271
 2315SOL    HW1 7844   5.040   3.665   5.200
 2315SOL    HW2 7845   5.136   3.688   5.330
 2316SOL     OW 7846   3.249   0.045   4.591
 2316SOL    HW1 7847   3.292   0.125   4.550
 2316SOL    HW2 7848   3.174   0.014   4.533
 2317SOL     OW 7849   6.234   6.170   3.245
 2317SOL    HW1 7850   6.150   6.221   3.230
 2317SOL    HW2 7851   6.305   6.232   3.280
 2318SOL     OW 7852   2.160   3.192   4.176
 2318SOL    HW1 7853   2.126   3.104   4.208
 2318SOL    HW2 7854   2.199   3.181   4.085
 2319SOL     OW 7855   3.022   5.291   4.740
 2319SOL    HW1 7856   3.036   5.295   4.641
 2319SOL    HW2 7857   3.107   5.315   4.787
 2320SOL     OW 7858   1.451   2.699   5.119
 2320SOL    HW1 7859   1.428   2.698   5.021
 2320SOL    HW2 7860   1.466   2.605   5.150
 2321SOL     OW 7861   1.337   5.336   0.537
 2321SOL    HW1 7862   1.374   5.289   0.457
 2321SOL    HW2 7863   1.404   5.332   0.612
 2322SOL     OW 7864   1.771   4.651   2.865
 2322SOL    HW1 7865   1.686   4.648   2.917
 2322SOL    HW2 7866   1.797   4.559   2.837
 2323SOL     OW 7867   3.125   4.778   1.662
 2323SOL    HW1 7868   3.222   4.789   1.683
 2323SOL    HW2 7869   3.102   4.681   1.661
 2324SOL     OW 7870   6.602   5.834   0.654
 2324SOL    HW1 7871   6.662   5.888   0.713
 2324SOL    HW2 7872   6.543   5.777   0.711
 2325SOL     OW 7873   0.751   4.514   1.387
 2325SOL    HW1 7874   0.772   4.444   1.319
 2325SOL    HW2 7875   0.784   4.485   1.477
 2326SOL     OW 7876   2.081   6.158   0.009
 2326SOL    HW1 7877   2.037   6.130   6.942
 2326SOL    HW2 7878   2.010   6.179   0.076
 2327SOL     OW 7879   7.000   2.033   3.739
 2327SOL    HW1 7880   6.936   1.960   3.716
 2327SOL    HW2 7881   6.976   2.073   3.827
 2328SOL     OW 7882   1.784   1.252   2.731
 2328SOL    HW1 7883   1.687   1.260   2.708
 2328SOL    HW2 7884   1.797   1.183   2.802
 2329SOL     OW 7885   1.422   4.139   4.852
 2329SOL    HW1 7886   1.392   4.235   4.851
 2329SOL    HW2 7887   1.518   4.135   4.879
 2330SOL     OW 7888   0.550   3.061   1.496
 2330SOL    HW1 7889   0.563   3.129   1.569
 2330SOL    HW2 7890   0.523   3.108   1.412
 2331SOL     OW 7891   3.955   5.230   6.889
 2331SOL    HW1 7892   3.962   5.213   6.987
 2331SOL    HW2 7893   3.918   5.321   6.873
 2332SOL     OW 7894   6.470   0.731   5.185
 2332SOL    HW1 7895   6.497   0.804   5.122
 2332SOL    HW2 7896   6.426   0.658   5.132
 2333SOL     OW 7897   0.005   3.983   2.922
 2333SOL    HW1 7898   0.103   3.977   2.945
 2333SOL    HW2 7899   7.008   3.945   2.831
 2334SOL     OW 7900   1.864   0.652   6.590
 2334SOL    HW1 7901   1.812   0.657   6.675
 2334SOL    HW2 7902   1.877   0.744   6.552
 2335SOL     OW 7903   6.410   1.084   4.323
 2335SOL    HW1 7904   6.502   1.052   4.302
 2335SOL    HW2 7905   6.347   1.057   4.251
 2336SOL     OW 7906   3.795   1.336   4.451
 2336SOL    HW1 7907   3.736   1.417   4.453
 2336SOL    HW2 7908   3.829   1.322   4.358
 2337SOL     OW 7909   4.078   0.235   1.639
 2337SOL    HW1 7910   4.086   0.307   1.709
 2337SOL    HW2 7911   4.143   0.254   1.565
 2338SOL     OW 7912   0.773   2.939   5.128
 2338SOL    HW1 7913   0.745   2.885   5.050
 2338SOL    HW2 7914   0.778   2.881   5.209
 2339SOL     OW 7915   2.952   3.453   3.671
 2339SOL    HW1 7916   3.034   3.508   3.690
 2339SOL    HW2 7917   2.939   3.387   3.745
 2340SOL     OW 7918   6.503   4.255   6.017
 2340SOL    HW1 7919   6.406   4.268   5.998
 2340SOL    HW2 7920   6.515   4.226   6.112
 2341SOL     OW 7921   3.084   4.809   2.025
 2341SOL    HW1 7922   3.127   4.719   2.036
 2341SOL    HW2 7923   3.023   4.806   1.945
 2342SOL     OW 7924   0.692   6.706   5.850
 2342SOL    HW1 7925   0.738   6.741   5.932
 2342SOL    HW2 7926   0.711   6.767   5.773
 2343SOL     OW 7927   1.917   5.448   2.977
 2343SOL    HW1 7928   1.829   5.493   2.992
 2343SOL    HW2 7929   1.989   5.500   3.022
 2344SOL     OW 7930   0.854   5.931   6.824
 2344SOL    HW1 7931   0.783   5.885   6.770
 2344SOL    HW2 7932   0.840   6.030   6.822
 2345SOL     OW 7933   3.326   5.595   5.231
 2345SOL    HW1 7934   3.242   5.576   5.282
 2345SOL    HW2 7935   3.305   5.650   5.151
 2346SOL     OW 7936   3.911   3.853   5.326
 2346SOL    HW1 7937   3.874   3.944   5.308
 2346SOL    HW2 7938   3.953   3.817   5.243
 2347SOL     OW 7939   3.412   2.118   1.446
 2347SOL    HW1 7940   3.471   2.194   1.420
 2347SOL    HW2 7941   3.409   2.109   1.545
 2348SOL     OW 7942   2.444   6.892   4.150
 2348SOL    HW1 7943   2.512   6.862   4.083
 2348SOL    HW2 7944   2.483   6.888   4.242
 2349SOL     OW 7945   0.667   4.764   5.877
 2349SOL    HW1 7946   0.686   4.862   5.875
 2349SOL    HW2 7947   0.572   4.747   5.849
 2350SOL     OW 7948   6.305   0.217   6.294
 2350SOL    HW1 7949   6.402   0.203   6.315
 2350SOL    HW2 7950   6.249   0.170   6.362
 2351SOL     OW 7951   2.637   5.343   4.387
 2351SOL    HW1 7952   2.542   5.360   4.412
 2351SOL    HW2 7953   2.645   5.253   4.343
 2352SOL     OW 7954   0.550   4.563   2.742
 2352SOL    HW1 7955   0.538   4.524   2.650
 2352SOL    HW2 7956   0.537   4.492   2.811
 2353SOL     OW 7957   3.090   5.141   5.276
 2353SOL    HW1 7958   3.178   5.170   5.313
 2353SOL    HW2 7959   3.090   5.042   5.264
 2354SOL     OW 7960   2.766   1.628   5.983
 2354SOL    HW1 7961   2.717   1.645   5.897
 2354SOL    HW2 7962   2.815   1.711   6.010
 2355SOL     OW 7963   2.290   5.913   0.239
 2355SOL    HW1 7964   2.323   5.995   0.192
 2355SOL    HW2 7965   2.249   5.939   0.326
 2356SOL     OW 7966   1.257   3.421   6.453
 2356SOL    HW1 7967   1.316   3.355   6.501
 2356SOL    HW2 7968   1.179   3.373   6.413
 2357SOL     OW 7969   4.889   0.085   2.908
 2357SOL    HW1 7970   4.881   7.007   2.882
 2357SOL    HW2 7971   4.806   0.114   2.956
 2358SOL     OW 7972   3.612   5.137   4.700
 2358SOL    HW1 7973   3.694   5.161   4.648
 2358SOL    HW2 7974   3.539   5.202   4.679
 2359SOL     OW 7975   6.388   0.572   5.427
 2359SOL    HW1 7976   6.417   0.627   5.349
 2359SOL    HW2 7977   6.442   0.597   5.508
 2360SOL     OW 7978   5.185   4.078   0.261
 2360SOL    HW1 7979   5.268   4.040   0.301
 2360SOL    HW2 7980   5.105   4.047   0.312
 2361SOL     OW 7981   2.628   0.945   5.273
 2361SOL    HW1 7982   2.673   0.953   5.362
 2361SOL    HW2 7983   2.549   0.884   5.280
 2362SOL     OW 7984   2.499   6.397   4.051
 2362SOL    HW1 7985   2.410   6.440   4.066
 2362SOL    HW2 7986   2.530   6.353   4.136
 2363SOL     OW 7987   4.619   2.379   4.986
 2363SOL    HW1 7988   4.623   2.292   5.036
 2363SOL    HW2 7989   4.594   2.453   5.048
 2364SOL     OW 7990   0.936   2.294   2.976
 2364SOL    HW1 7991   0.882   2.212   2.956
 2364SOL    HW2 7992   0.897   2.373   2.928
 2365SOL     OW 7993   6.215   2.508   6.667
 2365SOL    HW1 7994   6.306   2.526   6.706
 2365SOL    HW2 7995   6.171   2.434   6.718
 2366SOL     OW 7996   2.255   4.968   6.505
 2366SOL    HW1 7997   2.245   4.873   6.474
 2366SOL    HW2 7998   2.263   5.028   6.426
 2367SOL     OW 7999   2.331   3.825   0.495
 2367SOL    HW1 8000   2.421   3.850   0.531
 2367SOL    HW2 8001   2.336   3.733   0.456
 2368SOL     OW 8002   4.065   0.700   4.302
 2368SOL    HW1 8003   4.016   0.642   4.237
 2368SOL    HW2 8004   4.163   0.677   4.301
 2369SOL     OW 8005   1.302   1.355   5.700
 2369SOL    HW1 8006   1.271   1.334   5.608
 2369SOL    HW2 8007   1.354   1.441   5.699
 2370SOL     OW 8008   4.718   3.431   0.171
 2370SOL    HW1 8009   4.782   3.469   0.104
 2370SOL    HW2 8010   4.763   3.357   0.221
 2371SOL     OW 8011   0.013   0.100   2.262
 2371SOL    HW1 8012   0.008   0.055   2.173
 2371SOL    HW2 8013   0.034   0.197   2.250
 2372SOL     OW 8014   0.102   2.760   2.815
 2372SOL    HW1 8015   0.152   2.681   2.850
 2372SOL    HW2 8016   0.022   2.729   2.763
 2373SOL     OW 8017   0.245   1.974   6.774
 2373SOL    HW1 8018   0.217   2.067   6.751
 2373SOL    HW2 8019   0.307   1.940   6.703
 2374SOL     OW 8020   5.794   1.552   3.351
 2374SOL    HW1 8021   5.796   1.630   3.288
 2374SOL    HW2 8022   5.885   1.537   3.389
 2375SOL     OW 8023   2.968   6.622   4.900
 2375SOL    HW1 8024   2.876   6.640   4.935
 2375SOL    HW2 8025   2.974   6.652   4.805
 2376SOL     OW 8026   6.912   2.461   4.754
 2376SOL    HW1 8027   6.986   2.522   4.783
 2376SOL    HW2 8028   6.870   2.419   4.835
 2377SOL     OW 8029   3.459   4.012   3.101
 2377SOL    HW1 8030   3.461   4.046   3.195
 2377SOL    HW2 8031   3.373   3.965   3.084
 2378SOL     OW 8032   5.194   1.539   0.549
 2378SOL    HW1 8033   5.116   1.576   0.598
 2378SOL    HW2 8034   5.251   1.485   0.612
 2379SOL     OW 8035   5.761   2.125   6.949
 2379SOL    HW1 8036   5.682   2.186   6.959
 2379SOL    HW2 8037   5.732   2.040   6.904
 2380SOL     OW 8038   1.216   1.231   7.005
 2380SOL    HW1 8039   1.125   1.191   7.005
 2380SOL    HW2 8040   1.210   1.328   6.981
 2381SOL     OW 8041   2.015   4.209   4.741
 2381SOL    HW1 8042   1.989   4.121   4.781
 2381SOL    HW2 8043   2.111   4.228   4.762
 2382SOL     OW 8044   2.345   4.287   3.800
 2382SOL    HW1 8045   2.423   4.350   3.789
 2382SOL    HW2 8046   2.305   4.299   3.891
 2383SOL     OW 8047   5.091   6.788   1.598
 2383SOL    HW1 8048   5.000   6.820   1.623
 2383SOL    HW2 8049   5.148   6.782   1.681
 2384SOL     OW 8050   5.634   0.631   2.818
 2384SOL    HW1 8051   5.683   0.715   2.841
 2384SOL    HW2 8052   5.541   0.636   2.853
 2385SOL     OW 8053   1.187   6.832   0.913
 2385SOL    HW1 8054   1.095   6.856   0.883
 2385SOL    HW2 8055   1.220   6.901   0.978
 2386SOL     OW 8056   5.995   5.818   4.290
 2386SOL    HW1 8057   5.920   5.760   4.260
 2386SOL    HW2 8058   6.038   5.861   4.211
 2387SOL     OW 8059   1.738   2.160   3.620
 2387SOL    HW1 8060   1.710   2.232   3.555
 2387SOL    HW2 8061   1.681   2.080   3.607
 2388SOL     OW 8062   0.715   2.786   4.505
 2388SOL    HW1 8063   0.791   2.851   4.509
 2388SOL    HW2 8064   0.638   2.821   4.558
 2389SOL     OW 8065   5.030   3.811   3.006
 2389SOL    HW1 8066   4.957   3.818   3.074
 2389SOL    HW2 8067   5.106   3.759   3.044
 2390SOL     OW 8068   3.854   3.074   2.981
 2390SOL    HW1 8069   3.783   3.008   2.960
 2390SOL    HW2 8070   3.879   3.068   3.077
 2391SOL     OW 8071   5.281   4.115   5.994
 2391SOL    HW1 8072   5.297   4.080   6.086
 2391SOL    HW2 8073   5.367   4.116   5.943
 2392SOL     OW 8074   4.572   6.633   4.946
 2392SOL    HW1 8075   4.539   6.609   4.855
 2392SOL    HW2 8076   4.612   6.552   4.989
 2393SOL     OW 8077   5.568   3.547   6.086
 2393SOL    HW1 8078   5.546   3.531   6.183
 2393SOL    HW2 8079   5.484   3.570   6.037
 2394SOL     OW 8080   1.461   3.228   4.640
 2394SOL    HW1 8081   1.436   3.274   4.554
 2394SOL    HW2 8082   1.559   3.240   4.656
 2395SOL     OW 8083   5.624   2.510   6.227
 2395SOL    HW1 8084   5.540   2.526   6.278
 2395SOL    HW2 8085   5.604   2.462   6.142
 2396SOL     OW 8086   3.495   4.677   1.268
 2396SOL    HW1 8087   3.438   4.615   1.323
 2396SOL    HW2 8088   3.532   4.749   1.327
 2397SOL     OW 8089   0.058   4.151   6.189
 2397SOL    HW1 8090   0.017   4.241   6.204
 2397SOL    HW2 8091   0.152   4.162   6.158
 2398SOL     OW 8092   2.820   3.051   0.063
 2398SOL    HW1 8093   2.856   2.980   0.123
 2398SOL    HW2 8094   2.720   3.044   0.058
 2399SOL     OW 8095   4.583   1.727   1.998
 2399SOL    HW1 8096   4.497   1.678   2.010
 2399SOL    HW2 8097   4.658   1.661   1.994
 2400SOL     OW 8098   3.140   3.890   0.660
 2400SOL    HW1 8099   3.220   3.938   0.622
 2400SOL    HW2 8100   3.056   3.932   0.625
 2401SOL     OW 8101   4.369   5.966   5.917
 2401SOL    HW1 8102   4.440   5.897   5.928
 2401SOL    HW2 8103   4.316   5.973   6.001
 2402SOL     OW 8104   6.686   1.134   3.621
 2402SOL    HW1 8105   6.762   1.147   3.557
 2402SOL    HW2 8106   6.690   1.041   3.659
 2403SOL     OW 8107   2.106   2.615   6.905
 2403SOL    HW1 8108   2.190   2.665   6.885
 2403SOL    HW2 8109   2.111   2.578   6.998
 2404SOL     OW 8110   3.467   0.937   0.706
 2404SOL    HW1 8111   3.531   0.945   0.630
 2404SOL    HW2 8112   3.498   0.866   0.769
 2405SOL     OW 8113   3.831   3.368   2.711
 2405SOL    HW1 8114   3.797   3.428   2.785
 2405SOL    HW2 8115   3.816   3.413   2.623
 2406SOL     OW 8116   2.686   6.612   2.480
 2406SOL    HW1 8117   2.657   6.595   2.386
 2406SOL    HW2 8118   2.778   6.651   2.480
 2407SOL     OW 8119   5.551   1.657   2.281
 2407SOL    HW1 8120   5.547   1.579   2.344
 2407SOL    HW2 8121   5.458   1.687   2.260
 2408SOL     OW 8122   3.761   4.888   3.193
 2408SOL    HW1 8123   3.801   4.912   3.105
 2408SOL    HW2 8124   3.829   4.842   3.250
 2409SOL     OW 8125   1.730   4.524   1.979
 2409SOL    HW1 8126   1.730   4.513   1.880
 2409SOL    HW2 8127   1.638   4.546   2.011
 2410SOL     OW 8128   3.869   3.037   5.895
 2410SOL    HW1 8129   3.830   2.994   5.813
 2410SOL    HW2 8130   3.817   3.119   5.918
 2411SOL     OW 8131   3.958   5.298   4.997
 2411SOL    HW1 8132   3.990   5.228   4.932
 2411SOL    HW2 8133   3.872   5.268   5.038
 2412SOL     OW 8134   4.879   5.146   1.128
 2412SOL    HW1 8135   4.949   5.108   1.069
 2412SOL    HW2 8136   4.915   5.156   1.221
 2413SOL     OW 8137   6.116   2.325   1.000
 2413SOL    HW1 8138   6.100   2.248   1.063
 2413SOL    HW2 8139   6.031   2.347   0.953
 2414SOL     OW 8140   4.959   4.532   2.713
 2414SOL    HW1 8141   5.023   4.456   2.708
 2414SOL    HW2 8142   4.949   4.561   2.808
 2415SOL     OW 8143   6.814   0.481   2.711
 2415SOL    HW1 8144   6.771   0.404   2.758
 2415SOL    HW2 8145   6.893   0.450   2.660
 2416SOL     OW 8146   4.264   2.060   5.766
 2416SOL    HW1 8147   4.268   1.985   5.700
 2416SOL    HW2 8148   4.173   2.100   5.766
 2417SOL     OW 8149   3.416   2.992   5.799
 2417SOL    HW1 8150   3.346   3.063   5.795
 2417SOL    HW2 8151   3.378   2.905   5.767
 2418SOL     OW 8152   3.009   3.403   4.543
 2418SOL    HW1 8153   2.974   3.451   4.462
 2418SOL    HW2 8154   2.961   3.435   4.624
 2419SOL     OW 8155   7.014   0.134   4.919
 2419SOL    HW1 8156   6.933   0.123   4.862
 2419SOL    HW2 8157   0.066   0.070   4.888
 2420SOL     OW 8158   2.715   1.381   2.483
 2420SOL    HW1 8159   2.719   1.294   2.433
 2420SOL    HW2 8160   2.620   1.400   2.509
 2421SOL     OW 8161   2.801   1.760   4.528
 2421SOL    HW1 8162   2.897   1.755   4.503
 2421SOL    HW2 8163   2.792   1.798   4.621
 2422SOL     OW 8164   5.802   1.540   0.888
 2422SOL    HW1 8165   5.846   1.510   0.804
 2422SOL    HW2 8166   5.769   1.460   0.938
 2423SOL     OW 8167   1.399   5.997   2.627
 2423SOL    HW1 8168   1.305   6.030   2.641
 2423SOL    HW2 8169   1.462   6.074   2.639
 2424SOL     OW 8170   6.218   0.258   5.711
 2424SOL    HW1 8171   6.133   0.206   5.710
 2424SOL    HW2 8172   6.258   0.254   5.803
 2425SOL     OW 8173   5.592   0.755   3.810
 2425SOL    HW1 8174   5.538   0.693   3.754
 2425SOL    HW2 8175   5.568   0.742   3.906
 2426SOL     OW 8176   0.990   6.375   5.067
 2426SOL    HW1 8177   1.067   6.434   5.042
 2426SOL    HW2 8178   1.025   6.283   5.088
 2427SOL     OW 8179   5.862   6.205   5.611
 2427SOL    HW1 8180   5.949   6.222   5.563
 2427SOL    HW2 8181   5.791   6.265   5.573
 2428SOL     OW 8182   6.206   0.354   2.384
 2428SOL    HW1 8183   6.157   0.393   2.462
 2428SOL    HW2 8184   6.158   0.377   2.299
 2429SOL     OW 8185   5.197   5.668   3.518
 2429SOL    HW1 8186   5.157   5.756   3.493
 2429SOL    HW2 8187   5.131   5.616   3.572
 2430SOL     OW 8188   5.866   1.307   1.391
 2430SOL    HW1 8189   5.871   1.207   1.395
 2430SOL    HW2 8190   5.897   1.346   1.477
 2431SOL     OW 8191   4.154   0.885   2.423
 2431SOL    HW1 8192   4.236   0.857   2.473
 2431SOL    HW2 8193   4.142   0.827   2.342
 2432SOL     OW 8194   3.278   6.331   2.606
 2432SOL    HW1 8195   3.252   6.428   2.618
 2432SOL    HW2 8196   3.195   6.276   2.601
 2433SOL     OW 8197   3.428   1.161   0.926
 2433SOL    HW1 8198   3.400   1.090   0.990
 2433SOL    HW2 8199   3.430   1.123   0.833
 2434SOL     OW 8200   3.683   1.272   5.589
 2434SOL    HW1 8201   3.627   1.306   5.665
 2434SOL    HW2 8202   3.653   1.314   5.504
 2435SOL     OW 8203   4.641   4.556   6.280
 2435SOL    HW1 8204   4.739   4.572   6.270
 2435SOL    HW2 8205   4.607   4.603   6.362
 2436SOL     OW 8206   1.137   5.428   0.692
 2436SOL    HW1 8207   1.211   5.404   0.629
 2436SOL    HW2 8208   1.076   5.349   0.704
 2437SOL     OW 8209   5.141   6.339   6.573
 2437SOL    HW1 8210   5.074   6.296   6.633
 2437SOL    HW2 8211   5.169   6.274   6.503
 2438SOL     OW 8212   3.320   1.107   6.858
 2438SOL    HW1 8213   3.396   1.059   6.901
 2438SOL    HW2 8214   3.246   1.042   6.840
 2439SOL     OW 8215   1.567   4.545   6.536
 2439SOL    HW1 8216   1.589   4.636   6.570
 2439SOL    HW2 8217   1.490   4.508   6.588
 2440SOL     OW 8218   4.736   6.247   5.634
 2440SOL    HW1 8219   4.642   6.221   5.657
 2440SOL    HW2 8220   4.764   6.198   5.551
 2441SOL     OW 8221   0.863   1.024   0.409
 2441SOL    HW1 8222   0.803   1.090   0.453
 2441SOL    HW2 8223   0.934   0.995   0.473
 2442SOL     OW 8224   0.850   3.103   6.188
 2442SOL    HW1 8225   0.872   3.135   6.096
 2442SOL    HW2 8226   0.934   3.097   6.242
 2443SOL     OW 8227   3.840   5.538   5.994
 2443SOL    HW1 8228   3.839   5.539   5.894
 2443SOL    HW2 8229   3.838   5.443   6.027
 2444SOL     OW 8230   3.064   4.250   6.428
 2444SOL    HW1 8231   3.006   4.169   6.427
 2444SOL    HW2 8232   3.081   4.281   6.335
 2445SOL     OW 8233   7.016   1.379   1.405
 2445SOL    HW1 8234   0.016   1.286   1.434
 2445SOL    HW2 8235   0.060   1.405   1.332
 2446SOL     OW 8236   6.271   4.464   3.849
 2446SOL    HW1 8237   6.244   4.538   3.912
 2446SOL    HW2 8238   6.297   4.504   3.761
 2447SOL     OW 8239   2.125   2.583   0.490
 2447SOL    HW1 8240   2.211   2.633   0.477
 2447SOL    HW2 8241   2.080   2.573   0.402
 2448SOL     OW 8242   0.127   0.922   4.634
 2448SOL    HW1 8243   0.032   0.891   4.641
 2448SOL    HW2 8244   0.188   0.842   4.634
 2449SOL     OW 8245   0.027   4.702   6.877
 2449SOL    HW1 8246   0.020   4.608   6.843
 2449SOL    HW2 8247   0.104   4.710   6.940
 2450SOL     OW 8248   2.573   4.711   2.812
 2450SOL    HW1 8249   2.560   4.669   2.722
 2450SOL    HW2 8250   2.671   4.727   2.827
 2451SOL     OW 8251   1.730   0.833   3.838
 2451SOL    HW1 8252   1.764   0.891   3.764
 2451SOL    HW2 8253   1.807   0.807   3.897
 2452SOL     OW 8254   2.131   3.759   2.745
 2452SOL    HW1 8255   2.138   3.662   2.771
 2452SOL    HW2 8256   2.168   3.771   2.653
 2453SOL     OW 8257   6.244   4.918   1.564
 2453SOL    HW1 8258   6.304   4.911   1.644
 2453SOL    HW2 8259   6.149   4.902   1.592
 2454SOL     OW 8260   3.258   0.790   1.438
 2454SOL    HW1 8261   3.181   0.742   1.480
 2454SOL    HW2 8262   3.240   0.888   1.436
 2455SOL     OW 8263   5.200   6.303   0.403
 2455SOL    HW1 8264   5.146   6.342   0.329
 2455SOL    HW2 8265   5.258   6.375   0.444
 2456SOL     OW 8266   5.341   6.422   1.916
 2456SOL    HW1 8267   5.381   6.513   1.917
 2456SOL    HW2 8268   5.315   6.396   2.009
 2457SOL     OW 8269   5.179   6.753   0.475
 2457SOL    HW1 8270   5.265   6.802   0.458
 2457SOL    HW2 8271   5.144   6.777   0.566
 2458SOL     OW 8272   2.498   6.040   3.306
 2458SOL    HW1 8273   2.427   6.039   3.235
 2458SOL    HW2 8274   2.570   5.975   3.282
 2459SOL     OW 8275   2.002   6.772   0.734
 2459SOL    HW1 8276   1.913   6.771   0.780
 2459SOL    HW2 8277   1.995   6.825   0.649
 2460SOL     OW 8278   2.147   0.176   1.681
 2460SOL    HW1 8279   2.147   0.132   1.771
 2460SOL    HW2 8280   2.076   0.135   1.624
 2461SOL     OW 8281   5.482   0.834   1.974
 2461SOL    HW1 8282   5.478   0.899   2.049
 2461SOL    HW2 8283   5.404   0.772   1.978
 2462SOL     OW 8284   2.687   5.397   0.368
 2462SOL    HW1 8285   2.597   5.439   0.357
 2462SOL    HW2 8286   2.719   5.364   0.279
 2463SOL     OW 8287   6.775   2.078   4.252
 2463SOL    HW1 8288   6.817   2.005   4.307
 2463SOL    HW2 8289   6.680   2.091   4.281
 2464SOL     OW 8290   0.652   4.866   1.222
 2464SOL    HW1 8291   0.573   4.921   1.196
 2464SOL    HW2 8292   0.622   4.792   1.283
 2465SOL     OW 8293   0.068   5.998   1.897
 2465SOL    HW1 8294   0.152   5.947   1.916
 2465SOL    HW2 8295   0.048   5.995   1.799
 2466SOL     OW 8296   4.293   1.408   2.462
 2466SOL    HW1 8297   4.275   1.464   2.543
 2466SOL    HW2 8298   4.345   1.462   2.396
 2467SOL     OW 8299   6.075   1.551   5.761
 2467SOL    HW1 8300   6.102   1.455   5.747
 2467SOL    HW2 8301   6.001   1.555   5.828
 2468SOL     OW 8302   6.704   6.263   2.347
 2468SOL    HW1 8303   6.760   6.184   2.372
 2468SOL    HW2 8304   6.618   6.232   2.307
 2469SOL     OW 8305   3.219   3.932   5.823
 2469SOL    HW1 8306   3.152   3.947   5.751
 2469SOL    HW2 8307   3.311   3.948   5.787
 2470SOL     OW 8308   2.991   4.008   5.640
 2470SOL    HW1 8309   2.919   4.058   5.688
 2470SOL    HW2 8310   3.056   4.073   5.600
 2471SOL     OW 8311   0.556   5.967   1.593
 2471SOL    HW1 8312   0.584   6.060   1.570
 2471SOL    HW2 8313   0.621   5.902   1.554
 2472SOL     OW 8314   5.728   2.091   4.277
 2472SOL    HW1 8315   5.679   2.068   4.361
 2472SOL    HW2 8316   5.766   2.009   4.236
 2473SOL     OW 8317   1.377   5.064   4.418
 2473SOL    HW1 8318   1.368   5.154   4.375
 2473SOL    HW2 8319   1.473   5.044   4.436
 2474SOL     OW 8320   6.991   5.205   5.791
 2474SOL    HW1 8321   6.933   5.277   5.753
 2474SOL    HW2 8322   6.959   5.182   5.883
 2475SOL     OW 8323   4.151   2.456   0.754
 2475SOL    HW1 8324   4.227   2.407   0.712
 2475SOL    HW2 8325   4.180   2.492   0.843
 2476SOL     OW 8326   1.039   2.089   3.714
 2476SOL    HW1 8327   0.997   2.031   3.644
 2476SOL    HW2 8328   0.978   2.097   3.792
 2477SOL     OW 8329   5.955   6.336   1.375
 2477SOL    HW1 8330   5.998   6.318   1.463
 2477SOL    HW2 8331   5.927   6.432   1.369
 2478SOL     OW 8332   5.977   6.716   2.729
 2478SOL    HW1 8333   6.008   6.625   2.699
 2478SOL    HW2 8334   6.039   6.785   2.693
 2479SOL     OW 8335   0.350   2.516   1.474
 2479SOL    HW1 8336   0.358   2.614   1.460
 2479SOL    HW2 8337   0.281   2.498   1.544
 2480SOL     OW 8338   0.083   3.165   0.727
 2480SOL    HW1 8339   0.094   3.078   0.774
 2480SOL    HW2 8340   7.004   3.182   0.711
 2481SOL     OW 8341   4.016   5.774   1.087
 2481SOL    HW1 8342   3.981   5.727   1.168
 2481SOL    HW2 8343   3.947   5.838   1.054
 2482SOL     OW 8344   4.792   3.527   5.612
 2482SOL    HW1 8345   4.784   3.558   5.518
 2482SOL    HW2 8346   4.706   3.544   5.660
 2483SOL     OW 8347   1.428   1.054   0.827
 2483SOL    HW1 8348   1.518   1.059   0.785
 2483SOL    HW2 8349   1.424   0.976   0.890
 2484SOL     OW 8350   2.147   0.323   0.895
 2484SOL    HW1 8351   2.143   0.224   0.897
 2484SOL    HW2 8352   2.164   0.354   0.801
 2485SOL     OW 8353   6.883   5.462   2.332
 2485SOL    HW1 8354   6.862   5.456   2.430
 2485SOL    HW2 8355   6.837   5.541   2.293
 2486SOL     OW 8356   2.064   5.895   3.884
 2486SOL    HW1 8357   2.163   5.885   3.892
 2486SOL    HW2 8358   2.025   5.810   3.850
 2487SOL     OW 8359   3.953   6.606   0.170
 2487SOL    HW1 8360   3.874   6.556   0.135
 2487SOL    HW2 8361   4.030   6.595   0.108
 2488SOL     OW 8362   2.738   4.093   1.215
 2488SOL    HW1 8363   2.811   4.088   1.282
 2488SOL    HW2 8364   2.719   4.002   1.178
 2489SOL     OW 8365   1.885   5.680   5.270
 2489SOL    HW1 8366   1.983   5.690   5.288
 2489SOL    HW2 8367   1.868   5.691   5.173
 2490SOL     OW 8368   6.784   4.766   0.271
 2490SOL    HW1 8369   6.733   4.702   0.214
 2490SOL    HW2 8370   6.857   4.808   0.218
 2491SOL     OW 8371   3.248   5.678   2.720
 2491SOL    HW1 8372   3.237   5.624   2.803
 2491SOL    HW2 8373   3.343   5.674   2.690
 2492SOL     OW 8374   4.741   3.310   6.133
 2492SOL    HW1 8375   4.679   3.257   6.074
 2492SOL    HW2 8376   4.743   3.270   6.224
 2493SOL     OW 8377   5.334   1.034   2.629
 2493SOL    HW1 8378   5.326   1.131   2.610
 2493SOL    HW2 8379   5.382   1.021   2.716
 2494SOL     OW 8380   4.809   2.802   2.422
 2494SOL    HW1 8381   4.846   2.887   2.386
 2494SOL    HW2 8382   4.828   2.796   2.520
 2495SOL     OW 8383   4.784   1.352   5.009
 2495SOL    HW1 8384   4.759   1.444   5.041
 2495SOL    HW2 8385   4.803   1.293   5.087
 2496SOL     OW 8386   0.657   5.384   0.158
 2496SOL    HW1 8387   0.652   5.448   0.081
 2496SOL    HW2 8388   0.618   5.427   0.239
 2497SOL     OW 8389   6.726   1.625   0.555
 2497SOL    HW1 8390   6.786   1.579   0.621
 2497SOL    HW2 8391   6.756   1.603   0.462
 2498SOL     OW 8392   2.195   3.094   3.386
 2498SOL    HW1 8393   2.095   3.099   3.387
 2498SOL    HW2 8394   2.224   2.999   3.404
 2499SOL     OW 8395   5.413   0.839   4.324
 2499SOL    HW1 8396   5.335   0.892   4.289
 2499SOL    HW2 8397   5.399   0.742   4.302
 2500SOL     OW 8398   5.043   2.978   6.299
 2500SOL    HW1 8399   5.056   3.018   6.390
 2500SOL    HW2 8400   4.946   2.956   6.286
 2501SOL     OW 8401   5.992   4.407   6.886
 2501SOL    HW1 8402   5.954   4.436   6.974
 2501SOL    HW2 8403   5.947   4.457   6.812
 2502SOL     OW 8404   2.391   6.663   3.239
 2502SOL    HW1 8405   2.329   6.742   3.235
 2502SOL    HW2 8406   2.338   6.580   3.259
 2503SOL     OW 8407   4.271   5.325   5.966
 2503SOL    HW1 8408   4.193   5.263   5.954
 2503SOL    HW2 8409   4.275   5.357   6.060
 2504SOL     OW 8410   1.634   4.507   4.788
 2504SOL    HW1 8411   1.616   4.529   4.883
 2504SOL    HW2 8412   1.561   4.542   4.730
 2505SOL     OW 8413   3.688   5.533   4.327
 2505SOL    HW1 8414   3.644   5.545   4.417
 2505SOL    HW2 8415   3.724   5.440   4.319
 2506SOL     OW 8416   6.318   3.096   6.275
 2506SOL    HW1 8417   6.281   3.184   6.304
 2506SOL    HW2 8418   6.353   3.103   6.182
 2507SOL     OW 8419   6.250   5.534   0.752
 2507SOL    HW1 8420   6.329   5.572   0.799
 2507SOL    HW2 8421   6.268   5.531   0.653
 2508SOL     OW 8422   2.724   1.852   2.392
 2508SOL    HW1 8423   2.686   1.931   2.344
 2508SOL    HW2 8424   2.739   1.874   2.488
 2509SOL     OW 8425   5.638   2.696   2.936
 2509SOL    HW1 8426   5.595   2.685   3.026
 2509SOL    HW2 8427   5.649   2.607   2.894
 2510SOL     OW 8428   3.082   4.769   0.348
 2510SOL    HW1 8429   3.150   4.817   0.403
 2510SOL    HW2 8430   3.080   4.809   0.256
 2511SOL     OW 8431   1.312   0.864   4.931
 2511SOL    HW1 8432   1.261   0.782   4.958
 2511SOL    HW2 8433   1.253   0.944   4.940
 2512SOL     OW 8434   4.874   4.045   4.941
 2512SOL    HW1 8435   4.963   4.082   4.918
 2512SOL    HW2 8436   4.873   3.946   4.925
 2513SOL     OW 8437   1.165   2.363   6.352
 2513SOL    HW1 8438   1.104   2.316   6.288
 2513SOL    HW2 8439   1.123   2.450   6.380
 2514SOL     OW 8440   0.680   1.234   4.271
 2514SOL    HW1 8441   0.582   1.237   4.289
 2514SOL    HW2 8442   0.709   1.320   4.228
 2515SOL     OW 8443   1.442   5.952   0.154
 2515SOL    HW1 8444   1.539   5.927   0.145
 2515SOL    HW2 8445   1.427   6.040   0.111
 2516SOL     OW 8446   5.976   6.314   3.300
 2516SOL    HW1 8447   5.964   6.413   3.292
 2516SOL    HW2 8448   6.011   6.293   3.391
 2517SOL     OW 8449   2.467   4.836   0.119
 2517SOL    HW1 8450   2.489   4.739   0.120
 2517SOL    HW2 8451   2.461   4.870   0.213
 2518SOL     OW 8452   2.146   2.793   6.579
 2518SOL    HW1 8453   2.122   2.890   6.590
 2518SOL    HW2 8454   2.235   2.776   6.620
 2519SOL     OW 8455   5.046   4.796   4.696
 2519SOL    HW1 8456   5.056   4.781   4.597
 2519SOL    HW2 8457   4.957   4.762   4.726
 2520SOL     OW 8458   2.539   3.435   1.130
 2520SOL    HW1 8459   2.540   3.347   1.082
 2520SOL    HW2 8460   2.553   3.420   1.228
 2521SOL     OW 8461   6.937   0.149   5.610
 2521SOL    HW1 8462   6.839   0.138   5.594
 2521SOL    HW2 8463   6.967   0.082   5.678
 2522SOL     OW 8464   1.243   3.238   4.224
 2522SOL    HW1 8465   1.312   3.192   4.279
 2522SOL    HW2 8466   1.287   3.294   4.154
 2523SOL     OW 8467   6.849   3.565   0.509
 2523SOL    HW1 8468   6.928   3.517   0.472
 2523SOL    HW2 8469   6.792   3.598   0.434
 2524SOL     OW 8470   1.362   6.640   4.154
 2524SOL    HW1 8471   1.406   6.609   4.069
 2524SOL    HW2 8472   1.263   6.643   4.142
 2525SOL     OW 8473   1.456   4.346   4.389
 2525SOL    HW1 8474   1.396   4.337   4.310
 2525SOL    HW2 8475   1.474   4.255   4.427
 2526SOL     OW 8476   0.257   2.069   4.402
 2526SOL    HW1 8477   0.253   2.149   4.462
 2526SOL    HW2 8478   0.185   2.076   4.333
 2527SOL     OW 8479   5.644   6.651   4.550
 2527SOL    HW1 8480   5.697   6.659   4.465
 2527SOL    HW2 8481   5.650   6.557   4.584
 2528SOL     OW 8482   5.831   5.314   0.470
 2528SOL    HW1 8483   5.837   5.262   0.385
 2528SOL    HW2 8484   5.919   5.359   0.487
 2529SOL     OW 8485   5.063   5.861   4.722
 2529SOL    HW1 8486   5.011   5.784   4.684
 2529SOL    HW2 8487   5.075   5.847   4.820
 2530SOL     OW 8488   1.130   6.723   3.227
 2530SOL    HW1 8489   1.108   6.803   3.281
 2530SOL    HW2 8490   1.070   6.647   3.253
 2531SOL     OW 8491   4.884   0.592   5.365
 2531SOL    HW1 8492   4.824   0.661   5.407
 2531SOL    HW2 8493   4.831   0.510   5.344
 2532SOL     OW 8494   1.206   5.175   6.819
 2532SOL    HW1 8495   1.242   5.246   6.880
 2532SOL    HW2 8496   1.266   5.164   6.741
 2533SOL     OW 8497   5.268   0.141   5.347
 2533SOL    HW1 8498   5.367   0.134   5.344
 2533SOL    HW2 8499   5.242   0.226   5.394
 2534SOL     OW 8500   2.030   0.297   3.701
 2534SOL    HW1 8501   2.044   0.222   3.766
 2534SOL    HW2 8502   2.118   0.329   3.668
 2535SOL     OW 8503   1.301   1.182   3.535
 2535SOL    HW1 8504   1.396   1.213   3.539
 2535SOL    HW2 8505   1.297   1.085   3.559
 2536SOL     OW 8506   6.002   1.560   4.498
 2536SOL    HW1 8507   5.917   1.560   4.446
 2536SOL    HW2 8508   6.048   1.472   4.487
 2537SOL     OW 8509   4.976   5.726   1.071
 2537SOL    HW1 8510   4.928   5.771   0.996
 2537SOL    HW2 8511   4.997   5.792   1.143
 2538SOL     OW 8512   1.941   4.793   4.764
 2538SOL    HW1 8513   1.930   4.713   4.823
 2538SOL    HW2 8514   2.033   4.792   4.723
 2539SOL     OW 8515   4.467   0.075   5.035
 2539SOL    HW1 8516   4.518   0.045   5.115
 2539SOL    HW2 8517   4.383   0.121   5.064
 2540SOL     OW 8518   5.114   1.486   1.980
 2540SOL    HW1 8519   5.116   1.443   1.889
 2540SOL    HW2 8520   5.062   1.427   2.042
 2541SOL     OW 8521   1.199   6.805   5.560
 2541SOL    HW1 8522   1.179   6.756   5.645
 2541SOL    HW2 8523   1.134   6.881   5.550
 2542SOL     OW 8524   3.541   1.798   4.138
 2542SOL    HW1 8525   3.497   1.714   4.105
 2542SOL    HW2 8526   3.472   1.869   4.150
 2543SOL     OW 8527   1.166   0.852   2.752
 2543SOL    HW1 8528   1.096   0.797   2.797
 2543SOL    HW2 8529   1.249   0.853   2.808
 2544SOL     OW 8530   6.924   5.380   1.048
 2544SOL    HW1 8531   6.982   5.371   1.129
 2544SOL    HW2 8532   6.949   5.463   0.998
 2545SOL     OW 8533   1.354   1.496   1.717
 2545SOL    HW1 8534   1.356   1.504   1.816
 2545SOL    HW2 8535   1.341   1.587   1.677
 2546SOL     OW 8536   6.324   4.133   1.908
 2546SOL    HW1 8537   6.405   4.192   1.906
 2546SOL    HW2 8538   6.278   4.137   1.820
 2547SOL     OW 8539   5.448   4.635   0.307
 2547SOL    HW1 8540   5.405   4.612   0.219
 2547SOL    HW2 8541   5.432   4.562   0.373
 2548SOL     OW 8542   0.426   0.299   5.117
 2548SOL    HW1 8543   0.359   0.288   5.191
 2548SOL    HW2 8544   0.418   0.222   5.053
 2549SOL     OW 8545   1.658   2.177   1.825
 2549SOL    HW1 8546   1.676   2.217   1.735
 2549SOL    HW2 8547   1.656   2.078   1.817
 2550SOL     OW 8548   4.883   0.208   6.770
 2550SOL    HW1 8549   4.893   0.173   6.677
 2550SOL    HW2 8550   4.850   0.302   6.767
 2551SOL     OW 8551   3.094   5.678   6.844
 2551SOL    HW1 8552   3.091   5.668   6.745
 2551SOL    HW2 8553   3.066   5.592   6.887
 2552SOL     OW 8554   1.961   5.177   0.147
 2552SOL    HW1 8555   2.033   5.155   0.213
 2552SOL    HW2 8556   2.001   5.219   0.066
 2553SOL     OW 8557   3.480   2.367   6.519
 2553SOL    HW1 8558   3.573   2.362   6.555
 2553SOL    HW2 8559   3.439   2.276   6.520
 2554SOL     OW 8560   1.884   5.784   1.129
 2554SOL    HW1 8561   1.895   5.712   1.197
 2554SOL    HW2 8562   1.819   5.852   1.162
 2555SOL     OW 8563   6.105   6.551   5.737
 2555SOL    HW1 8564   6.008   6.547   5.714
 2555SOL    HW2 8565   6.130   6.471   5.792
 2556SOL     OW 8566   3.299   6.558   1.594
 2556SOL    HW1 8567   3.322   6.630   1.528
 2556SOL    HW2 8568   3.374   6.547   1.659
 2557SOL     OW 8569   3.499   0.657   0.416
 2557SOL    HW1 8570   3.450   0.577   0.452
 2557SOL    HW2 8571   3.441   0.738   0.423
 2558SOL     OW 8572   5.793   4.638   6.528
 2558SOL    HW1 8573   5.786   4.545   6.491
 2558SOL    HW2 8574   5.705   4.663   6.570
 2559SOL     OW 8575   0.492   3.887   3.160
 2559SOL    HW1 8576   0.563   3.846   3.218
 2559SOL    HW2 8577   0.524   3.891   3.066
 2560SOL     OW 8578   4.771   2.960   3.497
 2560SOL    HW1 8579   4.793   2.961   3.400
 2560SOL    HW2 8580   4.691   2.903   3.513
 2561SOL     OW 8581   3.106   0.803   4.198
 2561SOL    HW1 8582   3.141   0.817   4.105
 2561SOL    HW2 8583   3.135   0.713   4.230
 2562SOL     OW 8584   3.740   6.177   3.137
 2562SOL    HW1 8585   3.756   6.230   3.220
 2562SOL    HW2 8586   3.684   6.097   3.159
 2563SOL     OW 8587   2.860   1.248   6.750
 2563SOL    HW1 8588   2.942   1.211   6.793
 2563SOL    HW2 8589   2.779   1.218   6.800
 2564SOL     OW 8590   1.728   0.664   0.550
 2564SOL    HW1 8591   1.785   0.591   0.588
 2564SOL    HW2 8592   1.744   0.671   0.452
 2565SOL     OW 8593   0.760   1.604   6.268
 2565SOL    HW1 8594   0.825   1.646   6.332
 2565SOL    HW2 8595   0.702   1.540   6.318
 2566SOL     OW 8596   2.990   0.963   1.674
 2566SOL    HW1 8597   3.018   0.906   1.596
 2566SOL    HW2 8598   3.069   0.980   1.732
 2567SOL     OW 8599   1.182   0.397   0.222
 2567SOL    HW1 8600   1.218   0.486   0.194
 2567SOL    HW2 8601   1.247   0.325   0.196
 2568SOL     OW 8602   2.702   6.153   1.292
 2568SOL    HW1 8603   2.651   6.135   1.208
 2568SOL    HW2 8604   2.670   6.239   1.332
 2569SOL     OW 8605   1.847   0.981   1.085
 2569SOL    HW1 8606   1.880   1.075   1.088
 2569SOL    HW2 8607   1.895   0.931   1.013
 2570SOL     OW 8608   5.460   6.132   6.468
 2570SOL    HW1 8609   5.362   6.115   6.457
 2570SOL    HW2 8610   5.474   6.210   6.529
 2571SOL     OW 8611   3.770   2.918   3.943
 2571SOL    HW1 8612   3.690   2.934   4.001
 2571SOL    HW2 8613   3.845   2.977   3.973
 2572SOL     OW 8614   2.526   5.232   1.584
 2572SOL    HW1 8615   2.574   5.145   1.593
 2572SOL    HW2 8616   2.592   5.307   1.589
 2573SOL     OW 8617   6.934   2.331   4.295
 2573SOL    HW1 8618   6.944   2.259   4.227
 2573SOL    HW2 8619   0.003   2.378   4.308
 2574SOL     OW 8620   6.584   3.254   1.167
 2574SOL    HW1 8621   6.562   3.291   1.077
 2574SOL    HW2 8622   6.516   3.286   1.234
 2575SOL     OW 8623   5.285   4.153   0.645
 2575SOL    HW1 8624   5.215   4.222   0.626
 2575SOL    HW2 8625   5.326   4.123   0.559
 2576SOL     OW 8626   2.293   0.033   3.460
 2576SOL    HW1 8627   2.382   7.007   3.453
 2576SOL    HW2 8628   2.298   0.107   3.526
 2577SOL     OW 8629   3.588   0.103   3.219
 2577SOL    HW1 8630   3.494   0.106   3.184
 2577SOL    HW2 8631   3.651   0.097   3.142
 2578SOL     OW 8632   4.592   2.536   4.621
 2578SOL    HW1 8633   4.674   2.496   4.581
 2578SOL    HW2 8634   4.534   2.464   4.658
 2579SOL     OW 8635   0.381   2.097   6.992
 2579SOL    HW1 8636   0.331   2.055   6.916
 2579SOL    HW2 8637   0.463   2.044   7.011
 2580SOL     OW 8638   1.739   2.039   6.169
 2580SOL    HW1 8639   1.674   1.964   6.177
 2580SOL    HW2 8640   1.709   2.116   6.225
 2581SOL     OW 8641   5.340   5.609   2.193
 2581SOL    HW1 8642   5.423   5.658   2.169
 2581SOL    HW2 8643   5.266   5.634   2.130
 2582SOL     OW 8644   1.214   5.369   2.317
 2582SOL    HW1 8645   1.143   5.301   2.333
 2582SOL    HW2 8646   1.178   5.441   2.256
 2583SOL     OW 8647   0.549   0.254   1.037
 2583SOL    HW1 8648   0.587   0.301   0.957
 2583SOL    HW2 8649   0.566   0.156   1.029
 2584SOL     OW 8650   3.149   6.005   1.065
 2584SOL    HW1 8651   3.142   5.964   0.974
 2584SOL    HW2 8652   3.060   6.043   1.091
 2585SOL     OW 8653   3.156   6.654   0.875
 2585SOL    HW1 8654   3.075   6.695   0.916
 2585SOL    HW2 8655   3.152   6.554   0.886
 2586SOL     OW 8656   5.871   1.521   4.783
 2586SOL    HW1 8657   5.951   1.577   4.760
 2586SOL    HW2 8658   5.886   1.427   4.753
 2587SOL     OW 8659   6.266   6.968   4.476
 2587SOL    HW1 8660   6.338   6.999   4.538
 2587SOL    HW2 8661   6.194   6.922   4.528
 2588SOL     OW 8662   5.510   1.032   1.323
 2588SOL    HW1 8663   5.461   1.054   1.408
 2588SOL    HW2 8664   5.456   0.966   1.270
 2589SOL     OW 8665   6.736   0.482   5.649
 2589SOL    HW1 8666   6.774   0.481   5.557
 2589SOL    HW2 8667   6.805   0.452   5.715
 2590SOL     OW 8668   3.951   6.854   2.468
 2590SOL    HW1 8669   4.044   6.826   2.446
 2590SOL    HW2 8670   3.891   6.773   2.469
 2591SOL     OW 8671   5.117   6.449   1.215
 2591SOL    HW1 8672   5.063   6.365   1.209
 2591SOL    HW2 8673   5.171   6.449   1.299
 2592SOL     OW 8674   3.213   5.187   1.203
 2592SOL    HW1 8675   3.231   5.171   1.300
 2592SOL    HW2 8676   3.187   5.102   1.159
 2593SOL     OW 8677   3.604   6.590   2.800
 2593SOL    HW1 8678   3.634   6.544   2.883
 2593SOL    HW2 8679   3.662   6.563   2.723
 2594SOL     OW 8680   0.114   0.831   6.773
 2594SOL    HW1 8681   0.131   0.746   6.723
 2594SOL    HW2 8682   0.084   0.808   6.866
 2595SOL     OW 8683   6.811   3.548   4.901
 2595SOL    HW1 8684   6.839   3.642   4.879
 2595SOL    HW2 8685   6.764   3.508   4.823
 2596SOL     OW 8686   3.939   2.099   1.914
 2596SOL    HW1 8687   3.987   2.137   1.835
 2596SOL    HW2 8688   3.849   2.143   1.922
 2597SOL     OW 8689   2.593   3.195   0.983
 2597SOL    HW1 8690   2.502   3.153   0.990
 2597SOL    HW2 8691   2.662   3.130   1.015
 2598SOL     OW 8692   6.753   2.698   4.311
 2598SOL    HW1 8693   6.696   2.755   4.252
 2598SOL    HW2 8694   6.707   2.610   4.328
 2599SOL     OW 8695   3.897   6.152   5.974
 2599SOL    HW1 8696   3.818   6.098   5.942
 2599SOL    HW2 8697   3.974   6.091   5.990
 2600SOL     OW 8698   5.397   4.100   3.689
 2600SOL    HW1 8699   5.453   4.037   3.743
 2600SOL    HW2 8700   5.301   4.070   3.691
 2601SOL     OW 8701   3.377   2.691   5.594
 2601SOL    HW1 8702   3.287   2.726   5.619
 2601SOL    HW2 8703   3.382   2.679   5.495
 2602SOL     OW 8704   6.977   5.080   4.763
 2602SOL    HW1 8705   6.956   5.163   4.815
 2602SOL    HW2 8706   6.908   5.010   4.782
 2603SOL     OW 8707   2.432   2.499   1.745
 2603SOL    HW1 8708   2.503   2.432   1.771
 2603SOL    HW2 8709   2.473   2.570   1.688
 2604SOL     OW 8710   5.132   0.457   0.997
 2604SOL    HW1 8711   5.119   0.464   1.096
 2604SOL    HW2 8712   5.054   0.410   0.956
 2605SOL     OW 8713   4.252   4.614   3.445
 2605SOL    HW1 8714   4.191   4.633   3.368
 2605SOL    HW2 8715   4.217   4.659   3.528
 2606SOL     OW 8716   6.716   4.284   0.944
 2606SOL    HW1 8717   6.767   4.292   0.858
 2606SOL    HW2 8718   6.624   4.250   0.924
 2607SOL     OW 8719   1.561   1.268   3.841
 2607SOL    HW1 8720   1.649   1.311   3.860
 2607SOL    HW2 8721   1.535   1.283   3.746
 2608SOL     OW 8722   5.135   0.460   1.808
 2608SOL    HW1 8723   5.064   0.392   1.791
 2608SOL    HW2 8724   5.094   0.551   1.810
 2609SOL     OW 8725   0.565   2.752   2.343
 2609SOL    HW1 8726   0.512   2.834   2.322
 2609SOL    HW2 8727   0.502   2.676   2.359
 2610SOL     OW 8728   6.927   5.459   4.763
 2610SOL    HW1 8729   6.838   5.417   4.779
 2610SOL    HW2 8730   6.918   5.559   4.762
 2611SOL     OW 8731   5.075   6.763   0.723
 2611SOL    HW1 8732   5.006   6.793   0.789
 2611SOL    HW2 8733   5.108   6.673   0.749
 2612SOL     OW 8734   5.775   6.666   4.321
 2612SOL    HW1 8735   5.724   6.743   4.283
 2612SOL    HW2 8736   5.809   6.609   4.247
 2613SOL     OW 8737   3.354   6.599   2.093
 2613SOL    HW1 8738   3.320   6.515   2.134
 2613SOL    HW2 8739   3.298   6.623   2.013
 2614SOL     OW 8740   6.468   0.015   5.444
 2614SOL    HW1 8741   6.540   0.039   5.510
 2614SOL    HW2 8742   6.396   6.983   5.490
 2615SOL     OW 8743   5.440   5.665   4.094
 2615SOL    HW1 8744   5.448   5.593   4.026
 2615SOL    HW2 8745   5.361   5.723   4.072
 2616SOL     OW 8746   4.098   3.477   3.610
 2616SOL    HW1 8747   4.095   3.577   3.618
 2616SOL    HW2 8748   4.049   3.436   3.687
 2617SOL     OW 8749   3.375   4.836   1.063
 2617SOL    HW1 8750   3.452   4.801   1.117
 2617SOL    HW2 8751   3.302   4.866   1.125
 2618SOL     OW 8752   0.351   6.717   2.620
 2618SOL    HW1 8753   0.412   6.796   2.615
 2618SOL    HW2 8754   0.402   6.637   2.651
 2619SOL     OW 8755   4.389   2.054   2.287
 2619SOL    HW1 8756   4.358   1.961   2.311
 2619SOL    HW2 8757   4.471   2.048   2.230
 2620SOL     OW 8758   1.538   5.600   3.170
 2620SOL    HW1 8759   1.550   5.528   3.239
 2620SOL    HW2 8760   1.617   5.601   3.108
 2621SOL     OW 8761   0.661   5.497   3.535
 2621SOL    HW1 8762   0.668   5.397   3.545
 2621SOL    HW2 8763   0.740   5.531   3.485
 2622SOL     OW 8764   2.005   3.261   6.165
 2622SOL    HW1 8765   2.075   3.279   6.234
 2622SOL    HW2 8766   2.049   3.241   6.077
 2623SOL     OW 8767   3.600   1.011   4.114
 2623SOL    HW1 8768   3.621   1.047   4.205
 2623SOL    HW2 8769   3.646   1.067   4.045
 2624SOL     OW 8770   6.153   3.181   2.956
 2624SOL    HW1 8771   6.235   3.126   2.939
 2624SOL    HW2 8772   6.130   3.233   2.873
 2625SOL     OW 8773   1.810   3.157   5.774
 2625SOL    HW1 8774   1.888   3.181   5.717
 2625SOL    HW2 8775   1.741   3.112   5.718
 2626SOL     OW 8776   1.221   6.490   3.857
 2626SOL    HW1 8777   1.307   6.537   3.877
 2626SOL    HW2 8778   1.150   6.557   3.838
 2627SOL     OW 8779   0.404   1.240   4.840
 2627SOL    HW1 8780   0.408   1.215   4.937
 2627SOL    HW2 8781   0.340   1.179   4.793
 2628SOL     OW 8782   3.687   6.333   6.440
 2628SOL    HW1 8783   3.603   6.291   6.405
 2628SOL    HW2 8784   3.761   6.320   6.374
 2629SOL     OW 8785   3.838   3.809   1.733
 2629SOL    HW1 8786   3.792   3.893   1.764
 2629SOL    HW2 8787   3.836   3.741   1.807
 2630SOL     OW 8788   3.754   2.089   2.246
 2630SOL    HW1 8789   3.844   2.048   2.230
 2630SOL    HW2 8790   3.738   2.161   2.178
 2631SOL     OW 8791   5.547   6.799   4.236
 2631SOL    HW1 8792   5.508   6.709   4.255
 2631SOL    HW2 8793   5.516   6.831   4.146
 2632SOL     OW 8794   2.947   2.523   0.073
 2632SOL    HW1 8795   2.893   2.605   0.055
 2632SOL    HW2 8796   2.902   2.468   0.144
 2633SOL     OW 8797   5.770   2.570   6.697
 2633SOL    HW1 8798   5.788   2.669   6.697
 2633SOL    HW2 8799   5.685   2.552   6.745
 2634SOL     OW 8800   1.866   4.180   2.068
 2634SOL    HW1 8801   1.880   4.138   1.978
 2634SOL    HW2 8802   1.939   4.150   2.130
 2635SOL     OW 8803   5.375   6.579   4.329
 2635SOL    HW1 8804   5.402   6.526   4.410
 2635SOL    HW2 8805   5.375   6.519   4.249
 2636SOL     OW 8806   5.838   0.382   6.611
 2636SOL    HW1 8807   5.919   0.369   6.554
 2636SOL    HW2 8808   5.850   0.336   6.699
 2637SOL     OW 8809   6.080   0.969   3.473
 2637SOL    HW1 8810   5.992   1.009   3.498
 2637SOL    HW2 8811   6.094   0.884   3.524
 2638SOL     OW 8812   5.906   0.118   1.461
 2638SOL    HW1 8813   5.831   0.177   1.490
 2638SOL    HW2 8814   5.876   0.062   1.384
 2639SOL     OW 8815   6.074   6.826   2.271
 2639SOL    HW1 8816   6.031   6.737   2.257
 2639SOL    HW2 8817   6.151   6.816   2.335
 2640SOL     OW 8818   0.087   6.520   4.916
 2640SOL    HW1 8819   0.079   6.424   4.941
 2640SOL    HW2 8820   0.081   6.530   4.816
 2641SOL     OW 8821   5.687   3.715   0.414
 2641SOL    HW1 8822   5.654   3.783   0.479
 2641SOL    HW2 8823   5.767   3.668   0.452
 2642SOL     OW 8824   5.734   0.832   4.197
 2642SOL    HW1 8825   5.818   0.877   4.229
 2642SOL    HW2 8826   5.667   0.902   4.171
 2643SOL     OW 8827   6.645   5.689   2.878
 2643SOL    HW1 8828   6.702   5.771   2.870
 2643SOL    HW2 8829   6.548   5.715   2.877
 2644SOL     OW 8830   1.303   4.577   5.678
 2644SOL    HW1 8831   1.328   4.517   5.603
 2644SOL    HW2 8832   1.226   4.635   5.650
 2645SOL     OW 8833   4.903   6.791   5.356
 2645SOL    HW1 8834   4.929   6.858   5.285
 2645SOL    HW2 8835   4.985   6.753   5.398
 2646SOL     OW 8836   6.117   0.414   6.271
 2646SOL    HW1 8837   6.185   0.346   6.243
 2646SOL    HW2 8838   6.139   0.446   6.363
 2647SOL     OW 8839   4.827   0.968   0.932
 2647SOL    HW1 8840   4.778   1.048   0.965
 2647SOL    HW2 8841   4.926   0.985   0.936
 2648SOL     OW 8842   6.515   6.887   2.930
 2648SOL    HW1 8843   6.500   6.985   2.918
 2648SOL    HW2 8844   6.450   6.851   2.997
 2649SOL     OW 8845   3.676   1.575   6.239
 2649SOL    HW1 8846   3.630   1.506   6.183
 2649SOL    HW2 8847   3.665   1.552   6.335
 2650SOL     OW 8848   0.519   5.096   3.713
 2650SOL    HW1 8849   0.618   5.080   3.703
 2650SOL    HW2 8850   0.504   5.181   3.764
 2651SOL     OW 8851   0.888   1.576   1.173
 2651SOL    HW1 8852   0.837   1.576   1.259
 2651SOL    HW2 8853   0.934   1.488   1.162
 2652SOL     OW 8854   3.562   2.920   3.505
 2652SOL    HW1 8855   3.477   2.867   3.501
 2652SOL    HW2 8856   3.617   2.901   3.423
 2653SOL     OW 8857   5.431   6.968   6.012
 2653SOL    HW1 8858   5.438   6.919   6.099
 2653SOL    HW2 8859   5.381   6.912   5.946
 2654SOL     OW 8860   5.271   2.950   6.148
 2654SOL    HW1 8861   5.254   2.973   6.052
 2654SOL    HW2 8862   5.185   2.954   6.198
 2655SOL     OW 8863   3.982   5.648   4.288
 2655SOL    HW1 8864   3.902   5.605   4.329
 2655SOL    HW2 8865   4.063   5.628   4.343
 2656SOL     OW 8866   5.458   5.078   3.759
 2656SOL    HW1 8867   5.437   5.057   3.854
 2656SOL    HW2 8868   5.375   5.067   3.703
 2657SOL     OW 8869   2.374   3.889   6.508
 2657SOL    HW1 8870   2.308   3.823   6.542
 2657SOL    HW2 8871   2.354   3.980   6.545
 2658SOL     OW 8872   6.371   4.886   6.270
 2658SOL    HW1 8873   6.316   4.916   6.349
 2658SOL    HW2 8874   6.310   4.866   6.193
 2659SOL     OW 8875   6.683   2.492   4.573
 2659SOL    HW1 8876   6.673   2.474   4.475
 2659SOL    HW2 8877   6.774   2.466   4.603
 2660SOL     OW 8878   6.847   2.215   1.737
 2660SOL    HW1 8879   6.822   2.138   1.679
 2660SOL    HW2 8880   6.935   2.197   1.781
 2661SOL     OW 8881   2.876   6.050   1.080
 2661SOL    HW1 8882   2.839   6.097   1.000
 2661SOL    HW2 8883   2.846   6.098   1.163
 2662SOL     OW 8884   4.112   6.853   4.260
 2662SOL    HW1 8885   4.040   6.796   4.300
 2662SOL    HW2 8886   4.092   6.868   4.163
 2663SOL     OW 8887   2.217   4.532   1.355
 2663SOL    HW1 8888   2.289   4.557   1.418
 2663SOL    HW2 8889   2.135   4.585   1.374
 2664SOL     OW 8890   3.241   3.913   3.423
 2664SOL    HW1 8891   3.266   3.944   3.331
 2664SOL    HW2 8892   3.233   3.814   3.424
 2665SOL     OW 8893   3.456   1.506   4.289
 2665SOL    HW1 8894   3.457   1.423   4.345
 2665SOL    HW2 8895   3.362   1.527   4.262
 2666SOL     OW 8896   5.057   5.008   0.918
 2666SOL    HW1 8897   4.998   4.994   0.838
 2666SOL    HW2 8898   5.147   4.969   0.900
 2667SOL     OW 8899   1.097   6.112   5.163
 2667SOL    HW1 8900   1.160   6.132   5.088
 2667SOL    HW2 8901   1.085   6.013   5.170
 2668SOL     OW 8902   6.900   3.467   4.329
 2668SOL    HW1 8903   6.881   3.395   4.262
 2668SOL    HW2 8904   6.994   3.499   4.318
 2669SOL     OW 8905   3.712   5.005   4.913
 2669SOL    HW1 8906   3.800   5.013   4.867
 2669SOL    HW2 8907   3.641   5.051   4.859
 2670SOL     OW 8908   6.832   1.203   7.009
 2670SOL    HW1 8909   6.874   1.235   6.924
 2670SOL    HW2 8910   6.747   1.155   6.988
 2671SOL     OW 8911   2.245   3.539   6.761
 2671SOL    HW1 8912   2.257   3.639   6.767
 2671SOL    HW2 8913   2.247   3.512   6.665
 2672SOL     OW 8914   1.176   5.564   6.930
 2672SOL    HW1 8915   1.191   5.482   6.985
 2672SOL    HW2 8916   1.265   5.601   6.901
 2673SOL     OW 8917   4.807   3.158   3.841
 2673SOL    HW1 8918   4.821   3.205   3.928
 2673SOL    HW2 8919   4.863   3.075   3.838
 2674SOL     OW 8920   1.820   4.540   4.544
 2674SOL    HW1 8921   1.860   4.585   4.464
 2674SOL    HW2 8922   1.851   4.587   4.627
 2675SOL     OW 8923   1.000   4.421   6.028
 2675SOL    HW1 8924   0.943   4.361   5.972
 2675SOL    HW2 8925   1.031   4.371   6.109
 2676SOL     OW 8926   4.888   1.968   2.347
 2676SOL    HW1 8927   4.835   1.961   2.432
 2676SOL    HW2 8928   4.964   2.031   2.361
 2677SOL     OW 8929   2.315   4.875   1.593
 2677SOL    HW1 8930   2.334   4.777   1.588
 2677SOL    HW2 8931   2.276   4.906   1.506
 2678SOL     OW 8932   0.955   5.007   0.072
 2678SOL    HW1 8933   0.893   5.085   0.070
 2678SOL    HW2 8934   0.910   4.930   0.118
 2679SOL     OW 8935   4.116   4.792   0.850
 2679SOL    HW1 8936   4.083   4.856   0.780
 2679SOL    HW2 8937   4.171   4.721   0.806
 2680SOL     OW 8938   2.186   1.389   0.733
 2680SOL    HW1 8939   2.203   1.294   0.756
 2680SOL    HW2 8940   2.150   1.437   0.813
 2681SOL     OW 8941   1.467   4.066   4.187
 2681SOL    HW1 8942   1.534   4.005   4.145
 2681SOL    HW2 8943   1.506   4.108   4.269
 2682SOL     OW 8944   5.641   2.897   2.192
 2682SOL    HW1 8945   5.716   2.878   2.129
 2682SOL    HW2 8946   5.554   2.878   2.147
 2683SOL     OW 8947   0.921   4.862   1.347
 2683SOL    HW1 8948   0.857   4.881   1.273
 2683SOL    HW2 8949   0.871   4.855   1.434
 2684SOL     OW 8950   4.049   5.997   2.153
 2684SOL    HW1 8951   4.073   5.958   2.065
 2684SOL    HW2 8952   3.991   6.078   2.140
 2685SOL     OW 8953   6.283   0.077   4.243
 2685SOL    HW1 8954   6.278   0.023   4.326
 2685SOL    HW2 8955   6.276   0.017   4.163
 2686SOL     OW 8956   1.587   2.489   4.300
 2686SOL    HW1 8957   1.623   2.472   4.208
 2686SOL    HW2 8958   1.512   2.425   4.319
 2687SOL     OW 8959   4.034   4.905   2.485
 2687SOL    HW1 8960   3.954   4.880   2.431
 2687SOL    HW2 8961   4.032   5.003   2.504
 2688SOL     OW 8962   4.042   5.326   5.623
 2688SOL    HW1 8963   4.026   5.279   5.536
 2688SOL    HW2 8964   4.065   5.259   5.693
 2689SOL     OW 8965   1.314   1.650   3.810
 2689SOL    HW1 8966   1.307   1.565   3.757
 2689SOL    HW2 8967   1.259   1.721   3.766
 2690SOL     OW 8968   3.924   3.199   3.609
 2690SOL    HW1 8969   3.892   3.106   3.623
 2690SOL    HW2 8970   3.989   3.201   3.532
 2691SOL     OW 8971   1.854   5.948   2.075
 2691SOL    HW1 8972   1.867   6.030   2.019
 2691SOL    HW2 8973   1.820   5.873   2.017
 2692SOL     OW 8974   6.132   5.711   3.697
 2692SOL    HW1 8975   6.035   5.713   3.671
 2692SOL    HW2 8976   6.184   5.665   3.625
 2693SOL     OW 8977   2.320   4.870   2.886
 2693SOL    HW1 8978   2.297   4.947   2.826
 2693SOL    HW2 8979   2.383   4.809   2.838
 2694SOL     OW 8980   3.279   0.386   3.042
 2694SOL    HW1 8981   3.213   0.461   3.034
 2694SOL    HW2 8982   3.357   0.404   2.983
 2695SOL     OW 8983   5.098   2.146   2.417
 2695SOL    HW1 8984   5.184   2.148   2.468
 2695SOL    HW2 8985   5.087   2.233   2.367
 2696SOL     OW 8986   3.945   3.225   5.538
 2696SOL    HW1 8987   4.025   3.207   5.481
 2696SOL    HW2 8988   3.866   3.240   5.479
 2697SOL     OW 8989   4.298   1.792   4.059
 2697SOL    HW1 8990   4.303   1.853   3.980
 2697SOL    HW2 8991   4.216   1.813   4.112
 2698SOL     OW 8992   1.137   5.040   0.543
 2698SOL    HW1 8993   1.191   5.072   0.621
 2698SOL    HW2 8994   1.045   5.017   0.573
 2699SOL     OW 8995   3.434   5.634   0.183
 2699SOL    HW1 8996   3.353   5.579   0.205
 2699SOL    HW2 8997   3.515   5.594   0.227
 2700SOL     OW 8998   2.146   3.498   2.834
 2700SOL    HW1 8999   2.151   3.420   2.896
 2700SOL    HW2 9000   2.120   3.466   2.742
 2701SOL     OW 9001   4.209   0.499   6.762
 2701SOL    HW1 9002   4.153   0.556   6.822
 2701SOL    HW2 9003   4.154   0.469   6.684
 2702SOL     OW 9004   6.506   1.906   3.235
 2702SOL    HW1 9005   6.435   1.859   3.182
 2702SOL    HW2 9006   6.588   1.915   3.179
 2703SOL     OW 9007   2.979   1.064   2.889
 2703SOL    HW1 9008   2.928   1.059   2.975
 2703SOL    HW2 9009   2.972   1.157   2.852
 2704SOL     OW 9010   2.119   5.619   1.916
 2704SOL    HW1 9011   2.188   5.633   1.846
 2704SOL    HW2 9012   2.114   5.522   1.940
 2705SOL     OW 9013   6.914   5.073   4.219
 2705SOL    HW1 9014   6.886   4.981   4.191
 2705SOL    HW2 9015   6.970   5.067   4.302
 2706SOL     OW 9016   6.711   1.536   2.026
 2706SOL    HW1 9017   6.727   1.630   1.995
 2706SOL    HW2 9018   6.784   1.477   1.993
 2707SOL     OW 9019   2.266   0.210   6.975
 2707SOL    HW1 9020   2.298   0.296   7.015
 2707SOL    HW2 9021   2.299   0.133   0.011
 2708SOL     OW 9022   2.689   2.395   1.814
 2708SOL    HW1 9023   2.788   2.391   1.811
 2708SOL    HW2 9024   2.661   2.462   1.884
 2709SOL     OW 9025   4.771   6.351   1.181
 2709SOL    HW1 9026   4.796   6.445   1.158
 2709SOL    HW2 9027   4.853   6.294   1.182
 2710SOL     OW 9028   6.792   3.729   2.769
 2710SOL    HW1 9029   6.773   3.735   2.867
 2710SOL    HW2 9030   6.826   3.637   2.747
 2711SOL     OW 9031   1.615   0.061   2.499
 2711SOL    HW1 9032   1.576   0.136   2.446
 2711SOL    HW2 9033   1.553   7.000   2.494
 2712SOL     OW 9034   2.922   4.559   0.270
 2712SOL    HW1 9035   2.992   4.626   0.297
 2712SOL    HW2 9036   2.855   4.549   0.344
 2713SOL     OW 9037   2.092   2.650   4.791
 2713SOL    HW1 9038   2.165   2.709   4.825
 2713SOL    HW2 9039   2.131   2.574   4.738
 2714SOL     OW 9040   5.261   1.541   6.712
 2714SOL    HW1 9041   5.272   1.548   6.613
 2714SOL    HW2 9042   5.211   1.620   6.747
 2715SOL     OW 9043   5.760   0.500   0.095
 2715SOL    HW1 9044   5.743   0.493   0.193
 2715SOL    HW2 9045   5.701   0.570   0.055
 2716SOL     OW 9046   0.000   5.670   1.297
 2716SOL    HW1 9047   0.005   5.571   1.286
 2716SOL    HW2 9048   0.092   5.707   1.313
 2717SOL     OW 9049   0.864   5.665   1.893
 2717SOL    HW1 9050   0.779   5.675   1.842
 2717SOL    HW2 9051   0.897   5.755   1.920
 2718SOL     OW 9052   2.205   3.854   4.064
 2718SOL    HW1 9053   2.245   3.813   4.146
 2718SOL    HW2 9054   2.124   3.801   4.037
 2719SOL     OW 9055   4.313   4.857   2.041
 2719SOL    HW1 9056   4.386   4.795   2.069
 2719SOL    HW2 9057   4.278   4.906   2.121
 2720SOL     OW 9058   1.857   5.598   3.458
 2720SOL    HW1 9059   1.812   5.678   3.417
 2720SOL    HW2 9060   1.789   5.526   3.472
 2721SOL     OW 9061   2.801   0.337   4.962
 2721SOL    HW1 9062   2.720   0.367   5.012
 2721SOL    HW2 9063   2.832   0.249   4.999
 2722SOL     OW 9064   6.742   5.621   3.403
 2722SOL    HW1 9065   6.796   5.653   3.481
 2722SOL    HW2 9066   6.766   5.674   3.322
 2723SOL     OW 9067   2.311   0.897   5.771
 2723SOL    HW1 9068   2.235   0.961   5.766
 2723SOL    HW2 9069   2.392   0.937   5.728
 2724SOL     OW 9070   3.194   5.670   6.122
 2724SOL    HW1 9071   3.172   5.602   6.053
 2724SOL    HW2 9072   3.245   5.627   6.197
 2725SOL     OW 9073   5.362   4.740   3.069
 2725SOL    HW1 9074   5.391   4.805   2.999
 2725SOL    HW2 9075   5.415   4.756   3.153
 2726SOL     OW 9076   5.118   4.625   1.776
 2726SOL    HW1 9077   5.055   4.661   1.707
 2726SOL    HW2 9078   5.073   4.620   1.865
 2727SOL     OW 9079   0.572   4.902   3.100
 2727SOL    HW1 9080   0.558   4.985   3.047
 2727SOL    HW2 9081   0.601   4.828   3.040
 2728SOL     OW 9082   3.029   0.148   4.775
 2728SOL    HW1 9083   3.017   0.239   4.815
 2728SOL    HW2 9084   3.117   0.111   4.805
 2729SOL     OW 9085   6.400   5.887   2.646
 2729SOL    HW1 9086   6.409   5.846   2.737
 2729SOL    HW2 9087   6.397   5.814   2.577
 2730SOL     OW 9088   2.184   7.002   0.757
 2730SOL    HW1 9089   2.199   7.017   0.855
 2730SOL    HW2 9090   2.131   6.919   0.744
 2731SOL     OW 9091   2.869   3.592   1.448
 2731SOL    HW1 9092   2.923   3.582   1.364
 2731SOL    HW2 9093   2.776   3.617   1.425
 2732SOL     OW 9094   6.126   3.023   2.594
 2732SOL    HW1 9095   6.138   2.934   2.552
 2732SOL    HW2 9096   6.216   3.068   2.603
 2733SOL     OW 9097   1.140   6.686   5.835
 2733SOL    HW1 9098   1.075   6.610   5.836
 2733SOL    HW2 9099   1.219   6.663   5.893
 2734SOL     OW 9100   1.928   5.719   3.711
 2734SOL    HW1 9101   1.905   5.665   3.630
 2734SOL    HW2 9102   1.973   5.803   3.683
 2735SOL     OW 9103   0.877   4.077   2.819
 2735SOL    HW1 9104   0.821   4.104   2.897
 2735SOL    HW2 9105   0.962   4.130   2.820
 2736SOL     OW 9106   4.925   0.517   4.998
 2736SOL    HW1 9107   4.827   0.502   5.012
 2736SOL    HW2 9108   4.946   0.614   5.006
 2737SOL     OW 9109   3.266   3.396   6.294
 2737SOL    HW1 9110   3.341   3.381   6.229
 2737SOL    HW2 9111   3.193   3.330   6.275
 2738SOL     OW 9112   4.972   5.671   4.121
 2738SOL    HW1 9113   5.047   5.612   4.092
 2738SOL    HW2 9114   4.885   5.628   4.097
 2739SOL     OW 9115   5.710   4.413   0.578
 2739SOL    HW1 9116   5.688   4.511   0.580
 2739SOL    HW2 9117   5.718   4.378   0.671
 2740SOL     OW 9118   5.806   1.752   2.518
 2740SOL    HW1 9119   5.884   1.689   2.520
 2740SOL    HW2 9120   5.794   1.787   2.426
 2741SOL     OW 9121   0.048   1.706   5.813
 2741SOL    HW1 9122   0.075   1.769   5.741
 2741SOL    HW2 9123   0.048   1.612   5.778
 2742SOL     OW 9124   1.132   5.470   6.305
 2742SOL    HW1 9125   1.176   5.552   6.269
 2742SOL    HW2 9126   1.127   5.400   6.233
 2743SOL     OW 9127   5.901   5.930   1.461
 2743SOL    HW1 9128   5.954   5.929   1.376
 2743SOL    HW2 9129   5.804   5.936   1.439
 2744SOL     OW 9130   4.029   2.285   6.641
 2744SOL    HW1 9131   4.085   2.368   6.640
 2744SOL    HW2 9132   4.061   2.224   6.713
 2745SOL     OW 9133   1.688   6.072   0.808
 2745SOL    HW1 9134   1.633   6.010   0.866
 2745SOL    HW2 9135   1.762   6.020   0.766
 2746SOL     OW 9136   1.883   2.901   5.016
 2746SOL    HW1 9137   1.884   2.831   5.088
 2746SOL    HW2 9138   1.967   2.955   5.021
 2747SOL     OW 9139   5.768   5.126   5.133
 2747SOL    HW1 9140   5.807   5.180   5.058
 2747SOL    HW2 9141   5.710   5.185   5.189
 2748SOL     OW 9142   3.582   1.366   3.660
 2748SOL    HW1 9143   3.620   1.419   3.584
 2748SOL    HW2 9144   3.623   1.397   3.746
 2749SOL     OW 9145   5.505   4.561   4.115
 2749SOL    HW1 9146   5.562   4.534   4.037
 2749SOL    HW2 9147   5.427   4.499   4.122
 2750SOL     OW 9148   0.247   5.445   1.699
 2750SOL    HW1 9149   0.318   5.482   1.759
 2750SOL    HW2 9150   0.182   5.517   1.675
 2751SOL     OW 9151   1.792   6.708   0.923
 2751SOL    HW1 9152   1.722   6.779   0.928
 2751SOL    HW2 9153   1.749   6.620   0.903
 2752SOL     OW 9154   4.682   6.366   5.145
 2752SOL    HW1 9155   4.767   6.332   5.186
 2752SOL    HW2 9156   4.632   6.290   5.105
 2753SOL     OW 9157   3.392   5.566   6.347
 2753SOL    HW1 9158   3.430   5.657   6.335
 2753SOL    HW2 9159   3.448   5.514   6.412
 2754SOL     OW 9160   0.358   0.252   3.914
 2754SOL    HW1 9161   0.457   0.255   3.925
 2754SOL    HW2 9162   0.324   0.343   3.889
 2755SOL     OW 9163   2.794   6.544   3.269
 2755SOL    HW1 9164   2.882   6.502   3.249
 2755SOL    HW2 9165   2.742   6.554   3.184
 2756SOL     OW 9166   5.984   3.942   4.474
 2756SOL    HW1 9167   5.953   3.871   4.411
 2756SOL    HW2 9168   5.983   4.030   4.429
 2757SOL     OW 9169   3.606   2.320   6.856
 2757SOL    HW1 9170   3.523   2.330   6.910
 2757SOL    HW2 9171   3.634   2.224   6.854
 2758SOL     OW 9172   5.372   5.412   3.499
 2758SOL    HW1 9173   5.436   5.394   3.574
 2758SOL    HW2 9174   5.331   5.503   3.511
 2759SOL     OW 9175   3.568   4.468   5.587
 2759SOL    HW1 9176   3.500   4.532   5.623
 2759SOL    HW2 9177   3.608   4.417   5.663
 2760SOL     OW 9178   6.017   5.780   2.708
 2760SOL    HW1 9179   6.076   5.756   2.785
 2760SOL    HW2 9180   5.922   5.779   2.737
 2761SOL     OW 9181   1.575   3.999   3.076
 2761SOL    HW1 9182   1.608   4.090   3.099
 2761SOL    HW2 9183   1.555   3.949   3.160
 2762SOL     OW 9184   1.129   2.044   6.819
 2762SOL    HW1 9185   1.077   1.982   6.760
 2762SOL    HW2 9186   1.226   2.029   6.805
 2763SOL     OW 9187   4.662   1.680   6.201
 2763SOL    HW1 9188   4.696   1.710   6.111
 2763SOL    HW2 9189   4.563   1.668   6.197
 2764SOL     OW 9190   1.163   4.696   2.991
 2764SOL    HW1 9191   1.114   4.651   3.065
 2764SOL    HW2 9192   1.223   4.630   2.946
 2765SOL     OW 9193   6.342   6.859   6.957
 2765SOL    HW1 9194   6.263   6.858   0.001
 2765SOL    HW2 9195   6.338   6.941   6.899
 2766SOL     OW 9196   4.356   1.344   0.117
 2766SOL    HW1 9197   4.439   1.398   0.105
 2766SOL    HW2 9198   4.327   1.346   0.212
 2767SOL     OW 9199   5.866   5.873   6.005
 2767SOL    HW1 9200   5.872   5.873   5.906
 2767SOL    HW2 9201   5.956   5.855   6.044
 2768SOL     OW 9202   3.590   6.895   1.115
 2768SOL    HW1 9203   3.527   6.905   1.038
 2768SOL    HW2 9204   3.669   6.840   1.086
 2769SOL     OW 9205   1.813   4.078   5.784
 2769SOL    HW1 9206   1.860   4.166   5.776
 2769SOL    HW2 9207   1.786   4.046   5.693
 2770SOL     OW 9208   3.333   6.674   6.165
 2770SOL    HW1 9209   3.347   6.627   6.252
 2770SOL    HW2 9210   3.239   6.710   6.161
 2771SOL     OW 9211   5.765   6.893   3.976
 2771SOL    HW1 9212   5.745   6.801   3.943
 2771SOL    HW2 9213   5.844   6.891   4.037
 2772SOL     OW 9214   3.763   0.487   2.504
 2772SOL    HW1 9215   3.771   0.409   2.567
 2772SOL    HW2 9216   3.807   0.567   2.544
 2773SOL     OW 9217   0.478   3.294   4.662
 2773SOL    HW1 9218   0.393   3.264   4.706
 2773SOL    HW2 9219   0.460   3.313   4.566
 2774SOL     OW 9220   5.149   2.265   3.231
 2774SOL    HW1 9221   5.246   2.261   3.254
 2774SOL    HW2 9222   5.127   2.356   3.195
 2775SOL     OW 9223   0.046   4.080   4.100
 2775SOL    HW1 9224   0.067   4.081   4.003
 2775SOL    HW2 9225   0.130   4.085   4.153
 2776SOL     OW 9226   4.749   4.970   6.803
 2776SOL    HW1 9227   4.845   4.989   6.780
 2776SOL    HW2 9228   4.703   4.932   6.723
 2777SOL     OW 9229   2.674   2.178   5.833
 2777SOL    HW1 9230   2.721   2.170   5.920
 2777SOL    HW2 9231   2.576   2.163   5.846
 2778SOL     OW 9232   2.706   5.771   6.433
 2778SOL    HW1 9233   2.709   5.688   6.489
 2778SOL    HW2 9234   2.724   5.747   6.338
 2779SOL     OW 9235   5.678   6.495   2.069
 2779SOL    HW1 9236   5.627   6.554   2.006
 2779SOL    HW2 9237   5.653   6.400   2.052
 2780SOL     OW 9238   0.399   1.269   6.085
 2780SOL    HW1 9239   0.429   1.184   6.043
 2780SOL    HW2 9240   0.477   1.317   6.124
 2781SOL     OW 9241   6.730   0.976   2.211
 2781SOL    HW1 9242   6.732   1.035   2.292
 2781SOL    HW2 9243   6.639   0.935   2.202
 2782SOL     OW 9244   4.399   0.927   6.152
 2782SOL    HW1 9245   4.388   1.002   6.087
 2782SOL    HW2 9246   4.326   0.930   6.221
 2783SOL     OW 9247   6.324   3.491   1.599
 2783SOL    HW1 9248   6.319   3.564   1.668
 2783SOL    HW2 9249   6.270   3.413   1.629
 2784SOL     OW 9250   2.394   1.882   2.131
 2784SOL    HW1 9251   2.297   1.882   2.107
 2784SOL    HW2 9252   2.449   1.892   2.049
 2785SOL     OW 9253   4.852   2.786   1.531
 2785SOL    HW1 9254   4.870   2.707   1.471
 2785SOL    HW2 9255   4.779   2.762   1.595
 2786SOL     OW 9256   6.504   5.458   0.601
 2786SOL    HW1 9257   6.427   5.474   0.540
 2786SOL    HW2 9258   6.487   5.376   0.656
 2787SOL     OW 9259   6.261   5.852   5.803
 2787SOL    HW1 9260   6.200   5.815   5.732
 2787SOL    HW2 9261   6.324   5.780   5.832
 2788SOL     OW 9262   3.293   6.323   5.688
 2788SOL    HW1 9263   3.208   6.272   5.702
 2788SOL    HW2 9264   3.370   6.271   5.725
 2789SOL     OW 9265   1.508   2.839   3.618
 2789SOL    HW1 9266   1.477   2.828   3.713
 2789SOL    HW2 9267   1.436   2.808   3.556
 2790SOL     OW 9268   2.370   5.186   0.577
 2790SOL    HW1 9269   2.388   5.277   0.540
 2790SOL    HW2 9270   2.272   5.175   0.592
 2791SOL     OW 9271   0.149   3.837   2.332
 2791SOL    HW1 9272   0.052   3.831   2.308
 2791SOL    HW2 9273   0.176   3.753   2.380
 2792SOL     OW 9274   3.069   0.972   4.999
 2792SOL    HW1 9275   3.134   0.908   5.040
 2792SOL    HW2 9276   3.104   1.003   4.911
 2793SOL     OW 9277   4.207   4.128   1.121
 2793SOL    HW1 9278   4.191   4.136   1.220
 2793SOL    HW2 9279   4.119   4.113   1.075
 2794SOL     OW 9280   6.898   1.522   6.559
 2794SOL    HW1 9281   6.913   1.431   6.598
 2794SOL    HW2 9282   6.808   1.556   6.587
 2795SOL     OW 9283   0.123   4.853   0.776
 2795SOL    HW1 9284   0.155   4.901   0.694
 2795SOL    HW2 9285   0.201   4.826   0.832
 2796SOL     OW 9286   0.820   5.796   5.836
 2796SOL    HW1 9287   0.794   5.862   5.906
 2796SOL    HW2 9288   0.861   5.843   5.758
 2797SOL     OW 9289   5.595   6.397   4.629
 2797SOL    HW1 9290   5.502   6.384   4.664
 2797SOL    HW2 9291   5.620   6.318   4.572
 2798SOL     OW 9292   6.666   6.727   2.065
 2798SOL    HW1 9293   6.568   6.749   2.066
 2798SOL    HW2 9294   6.713   6.779   2.136
 2799SOL     OW 9295   4.425   5.584   5.024
 2799SOL    HW1 9296   4.364   5.587   5.103
 2799SOL    HW2 9297   4.450   5.677   4.998
 2800SOL     OW 9298   6.078   0.531   0.078
 2800SOL    HW1 9299   6.149   0.582   0.028
 2800SOL    HW2 9300   5.995   0.587   0.084
 2801SOL     OW 9301   0.233   4.919   6.072
 2801SOL    HW1 9302   0.170   4.953   6.141
 2801SOL    HW2 9303   0.270   4.995   6.019
 2802SOL     OW 9304   6.297   6.618   5.361
 2802SOL    HW1 9305   6.270   6.709   5.394
 2802SOL    HW2 9306   6.395   6.619   5.338
 2803SOL     OW 9307   3.574   3.040   6.015
 2803SOL    HW1 9308   3.512   3.014   5.941
 2803SOL    HW2 9309   3.597   3.137   6.007
 2804SOL     OW 9310   0.604   2.593   4.035
 2804SOL    HW1 9311   0.551   2.511   4.013
 2804SOL    HW2 9312   0.651   2.580   4.122
 2805SOL     OW 9313   4.675   3.835   1.749
 2805SOL    HW1 9314   4.649   3.932   1.757
 2805SOL    HW2 9315   4.611   3.788   1.690
 2806SOL     OW 9316   1.581   3.942   6.168
 2806SOL    HW1 9317   1.501   3.992   6.136
 2806SOL    HW2 9318   1.583   3.852   6.124
 2807SOL     OW 9319   3.024   0.494   2.752
 2807SOL    HW1 9320   2.927   0.477   2.732
 2807SOL    HW2 9321   3.070   0.407   2.770
 2808SOL     OW 9322   6.285   5.506   0.453
 2808SOL    HW1 9323   6.279   5.563   0.371
 2808SOL    HW2 9324   6.230   5.423   0.440
 2809SOL     OW 9325   6.075   4.747   2.307
 2809SOL    HW1 9326   6.035   4.659   2.335
 2809SOL    HW2 9327   6.168   4.753   2.343
 2810SOL     OW 9328   2.542   6.066   3.602
 2810SOL    HW1 9329   2.553   6.057   3.503
 2810SOL    HW2 9330   2.631   6.054   3.647
 2811SOL     OW 9331   0.360   0.195   2.380
 2811SOL    HW1 9332   0.409   0.282   2.377
 2811SOL    HW2 9333   0.376   0.152   2.469
 2812SOL     OW 9334   0.812   3.101   1.142
 2812SOL    HW1 9335   0.866   3.147   1.071
 2812SOL    HW2 9336   0.724   3.073   1.104
 2813SOL     OW 9337   0.519   1.711   1.063
 2813SOL    HW1 9338   0.543   1.631   1.118
 2813SOL    HW2 9339   0.597   1.774   1.060
 2814SOL     OW 9340   2.229   4.260   0.047
 2814SOL    HW1 9341   2.218   4.340   7.006
 2814SOL    HW2 9342   2.287   4.284   0.125
 2815SOL     OW 9343   0.355   5.954   4.960
 2815SOL    HW1 9344   0.323   5.988   5.048
 2815SOL    HW2 9345   0.294   5.882   4.928
 2816SOL     OW 9346   0.071   6.108   5.656
 2816SOL    HW1 9347   0.120   6.045   5.596
 2816SOL    HW2 9348   0.114   6.198   5.652
 2817SOL     OW 9349   3.753   0.210   2.012
 2817SOL    HW1 9350   3.698   0.245   1.936
 2817SOL    HW2 9351   3.722   0.251   2.098
 2818SOL     OW 9352   1.905   0.630   1.616
 2818SOL    HW1 9353   1.845   0.691   1.564
 2818SOL    HW2 9354   1.971   0.588   1.555
 2819SOL     OW 9355   0.692   0.012   0.697
 2819SOL    HW1 9356   0.694   0.033   0.795
 2819SOL    HW2 9357   0.640   6.946   0.682
 2820SOL     OW 9358   0.923   2.561   2.134
 2820SOL    HW1 9359   0.852   2.492   2.153
 2820SOL    HW2 9360   1.009   2.531   2.175
 2821SOL     OW 9361   3.536   4.447   6.237
 2821SOL    HW1 9362   3.609   4.431   6.303
 2821SOL    HW2 9363   3.513   4.362   6.191
 2822SOL     OW 9364   3.730   2.703   0.712
 2822SOL    HW1 9365   3.696   2.735   0.623
 2822SOL    HW2 9366   3.738   2.781   0.774
 2823SOL     OW 9367   5.039   1.222   0.657
 2823SOL    HW1 9368   5.001   1.303   0.700
 2823SOL    HW2 9369   5.091   1.248   0.576
 2824SOL     OW 9370   0.782   3.736   5.922
 2824SOL    HW1 9371   0.789   3.781   6.010
 2824SOL    HW2 9372   0.831   3.790   5.853
 2825SOL     OW 9373   5.330   1.311   6.069
 2825SOL    HW1 9374   5.251   1.251   6.076
 2825SOL    HW2 9375   5.300   1.406   6.061
 2826SOL     OW 9376   0.976   3.576   6.162
 2826SOL    HW1 9377   0.958   3.571   6.064
 2826SOL    HW2 9378   1.066   3.538   6.182
 2827SOL     OW 9379   0.091   1.096   6.458
 2827SOL    HW1 9380   0.042   1.183   6.459
 2827SOL    HW2 9381   0.110   1.070   6.363
 2828SOL     OW 9382   0.963   3.525   1.304
 2828SOL    HW1 9383   1.059   3.522   1.331
 2828SOL    HW2 9384   0.952   3.475   1.218
 2829SOL     OW 9385   3.475   4.102   3.363
 2829SOL    HW1 9386   3.425   4.074   3.445
 2829SOL    HW2 9387   3.572   4.115   3.386
 2830SOL     OW 9388   4.231   5.437   6.217
 2830SOL    HW1 9389   4.250   5.492   6.298
 2830SOL    HW2 9390   4.159   5.370   6.237
 2831SOL     OW 9391   0.195   2.264   2.232
 2831SOL    HW1 9392   0.294   2.246   2.229
 2831SOL    HW2 9393   0.170   2.323   2.155
 2832SOL     OW 9394   0.672   3.295   1.318
 2832SOL    HW1 9395   0.672   3.211   1.263
 2832SOL    HW2 9396   0.745   3.291   1.386
 2833SOL     OW 9397   2.183   1.187   1.840
 2833SOL    HW1 9398   2.231   1.166   1.755
 2833SOL    HW2 9399   2.240   1.163   1.918
 2834SOL     OW 9400   4.462   6.117   4.783
 2834SOL    HW1 9401   4.441   6.169   4.866
 2834SOL    HW2 9402   4.557   6.088   4.785
 2835SOL     OW 9403   0.924   6.151   0.552
 2835SOL    HW1 9404   0.999   6.084   0.555
 2835SOL    HW2 9405   0.924   6.196   0.463
 2836SOL     OW 9406   3.554   6.471   3.207
 2836SOL    HW1 9407   3.630   6.455   3.144
 2836SOL    HW2 9408   3.499   6.547   3.175
 2837SOL     OW 9409   5.795   3.719   2.248
 2837SOL    HW1 9410   5.886   3.706   2.210
 2837SOL    HW2 9411   5.750   3.796   2.202
 2838SOL     OW 9412   5.127   3.744   6.153
 2838SOL    HW1 9413   5.051   3.750   6.218
 2838SOL    HW2 9414   5.099   3.785   6.066
 2839SOL     OW 9415   6.172   3.556   4.518
 2839SOL    HW1 9416   6.260   3.566   4.471
 2839SOL    HW2 9417   6.111   3.498   4.463
 2840SOL     OW 9418   0.508   6.003   2.454
 2840SOL    HW1 9419   0.512   5.914   2.408
 2840SOL    HW2 9420   0.415   6.020   2.485
 2841SOL     OW 9421   6.034   2.503   1.570
 2841SOL    HW1 9422   6.110   2.524   1.631
 2841SOL    HW2 9423   6.069   2.463   1.485
 2842SOL     OW 9424   1.413   6.576   4.436
 2842SOL    HW1 9425   1.511   6.560   4.447
 2842SOL    HW2 9426   1.395   6.601   4.341
 2843SOL     OW 9427   2.259   3.035   3.100
 2843SOL    HW1 9428   2.269   2.936   3.103
 2843SOL    HW2 9429   2.238   3.070   3.192
 2844SOL     OW 9430   4.854   4.967   0.700
 2844SOL    HW1 9431   4.762   4.943   0.670
 2844SOL    HW2 9432   4.886   5.046   0.648
 2845SOL     OW 9433   4.421   2.390   3.137
 2845SOL    HW1 9434   4.487   2.435   3.076
 2845SOL    HW2 9435   4.443   2.411   3.232
 2846SOL     OW 9436   4.719   0.826   6.890
 2846SOL    HW1 9437   4.712   0.915   6.934
 2846SOL    HW2 9438   4.745   0.757   6.958
 2847SOL     OW 9439   4.509   4.452   2.284
 2847SOL    HW1 9440   4.540   4.406   2.367
 2847SOL    HW2 9441   4.536   4.399   2.204
 2848SOL     OW 9442   0.776   3.167   4.970
 2848SOL    HW1 9443   0.773   3.084   5.027
 2848SOL    HW2 9444   0.871   3.192   4.953
 2849SOL     OW 9445   3.467   0.412   2.480
 2849SOL    HW1 9446   3.565   0.434   2.477
 2849SOL    HW2 9447   3.454   0.315   2.459
 2850SOL     OW 9448   2.735   6.987   2.822
 2850SOL    HW1 9449   2.774   6.941   2.902
 2850SOL    HW2 9450   2.766   6.941   2.739
 2851SOL     OW 9451   4.354   3.284   0.917
 2851SOL    HW1 9452   4.419   3.355   0.891
 2851SOL    HW2 9453   4.403   3.198   0.933
 2852SOL     OW 9454   6.360   4.486   5.785
 2852SOL    HW1 9455   6.396   4.429   5.710
 2852SOL    HW2 9456   6.352   4.431   5.868
 2853SOL     OW 9457   0.038   3.932   0.028
 2853SOL    HW1 9458   6.959   3.953   0.019
 2853SOL    HW2 9459   0.062   3.855   6.987
 2854SOL     OW 9460   3.117   1.390   6.363
 2854SOL    HW1 9461   3.113   1.437   6.275
 2854SOL    HW2 9462   3.024   1.362   6.390
 2855SOL     OW 9463   1.750   1.790   4.708
 2855SOL    HW1 9464   1.784   1.765   4.798
 2855SOL    HW2 9465   1.659   1.751   4.693
 2856SOL     OW 9466   1.492   4.223   2.845
 2856SOL    HW1 9467   1.470   4.128   2.827
 2856SOL    HW2 9468   1.533   4.232   2.935
 2857SOL     OW 9469   0.487   3.252   1.072
 2857SOL    HW1 9470   0.443   3.326   1.020
 2857SOL    HW2 9471   0.419   3.203   1.125
 2858SOL     OW 9472   4.463   5.126   2.659
 2858SOL    HW1 9473   4.386   5.097   2.716
 2858SOL    HW2 9474   4.547   5.079   2.690
 2859SOL     OW 9475   4.993   5.937   1.254
 2859SOL    HW1 9476   4.923   5.990   1.208
 2859SOL    HW2 9477   5.000   5.967   1.349
 2860SOL     OW 9478   1.327   5.929   1.420
 2860SOL    HW1 9479   1.345   6.014   1.370
 2860SOL    HW2 9480   1.374   5.853   1.374
 2861SOL     OW 9481   3.934   4.685   6.380
 2861SOL    HW1 9482   3.942   4.640   6.291
 2861SOL    HW2 9483   3.903   4.618   6.447
 2862SOL     OW 9484   4.473   3.532   1.262
 2862SOL    HW1 9485   4.500   3.500   1.353
 2862SOL    HW2 9486   4.384   3.495   1.239
 2863SOL     OW 9487   5.987   6.963   5.571
 2863SOL    HW1 9488   5.962   0.032   5.530
 2863SOL    HW2 9489   5.908   6.923   5.616
 2864SOL     OW 9490   3.846   3.360   1.767
 2864SOL    HW1 9491   3.771   3.330   1.708
 2864SOL    HW2 9492   3.871   3.286   1.830
 2865SOL     OW 9493   5.034   6.071   4.547
 2865SOL    HW1 9494   4.987   6.155   4.570
 2865SOL    HW2 9495   5.046   6.015   4.630
 2866SOL     OW 9496   5.016   4.411   6.437
 2866SOL    HW1 9497   5.066   4.339   6.387
 2866SOL    HW2 9498   4.944   4.370   6.491
 2867SOL     OW 9499   6.190   6.687   1.847
 2867SOL    HW1 9500   6.141   6.625   1.908
 2867SOL    HW2 9501   6.288   6.668   1.853
 2868SOL     OW 9502   1.695   1.176   6.013
 2868SOL    HW1 9503   1.761   1.224   5.955
 2868SOL    HW2 9504   1.717   1.079   6.015
 2869SOL     OW 9505   5.534   6.124   3.770
 2869SOL    HW1 9506   5.529   6.119   3.670
 2869SOL    HW2 9507   5.448   6.159   3.806
 2870SOL     OW 9508   1.213   1.771   1.386
 2870SOL    HW1 9509   1.262   1.856   1.399
 2870SOL    HW2 9510   1.258   1.715   1.317
 2871SOL     OW 9511   6.678   2.057   1.549
 2871SOL    HW1 9512   6.643   2.127   1.485
 2871SOL    HW2 9513   6.601   2.014   1.596
 2872SOL     OW 9514   2.679   1.583   2.707
 2872SOL    HW1 9515   2.615   1.657   2.688
 2872SOL    HW2 9516   2.735   1.565   2.626
 2873SOL     OW 9517   0.684   5.945   1.274
 2873SOL    HW1 9518   0.604   5.938   1.214
 2873SOL    HW2 9519   0.735   6.028   1.252
 2874SOL     OW 9520   2.640   0.691   2.882
 2874SOL    HW1 9521   2.573   0.703   2.956
 2874SOL    HW2 9522   2.681   0.780   2.860
 2875SOL     OW 9523   2.898   6.988   2.372
 2875SOL    HW1 9524   2.984   0.002   2.412
 2875SOL    HW2 9525   2.823   7.008   2.436
 2876SOL     OW 9526   1.637   6.287   2.028
 2876SOL    HW1 9527   1.647   6.197   1.986
 2876SOL    HW2 9528   1.664   6.282   2.124
 2877SOL     OW 9529   1.463   1.094   5.717
 2877SOL    HW1 9530   1.473   1.193   5.703
 2877SOL    HW2 9531   1.413   1.078   5.801
 2878SOL     OW 9532   3.701   2.944   5.127
 2878SOL    HW1 9533   3.775   2.929   5.193
 2878SOL    HW2 9534   3.729   2.910   5.037
 2879SOL     OW 9535   4.469   4.459   5.589
 2879SOL    HW1 9536   4.500   4.368   5.561
 2879SOL    HW2 9537   4.542   4.526   5.574
 2880SOL     OW 9538   0.909   1.995   3.946
 2880SOL    HW1 9539   0.828   1.953   3.989
 2880SOL    HW2 9540   0.976   2.017   4.016
 2881SOL     OW 9541   3.439   6.127   6.641
 2881SOL    HW1 9542   3.363   6.127   6.576
 2881SOL    HW2 9543   3.479   6.035   6.645
 2882SOL     OW 9544   4.585   6.161   0.032
 2882SOL    HW1 9545   4.488   6.141   0.048
 2882SOL    HW2 9546   4.609   6.247   0.077
 2883SOL     OW 9547   5.974   6.576   3.302
 2883SOL    HW1 9548   5.938   6.669   3.292
 2883SOL    HW2 9549   6.026   6.552   3.220
 2884SOL     OW 9550   6.824   5.500   2.616
 2884SOL    HW1 9551   6.772   5.419   2.643
 2884SOL    HW2 9552   6.856   5.548   2.698
 2885SOL     OW 9553   1.259   3.162   2.818
 2885SOL    HW1 9554   1.344   3.114   2.839
 2885SOL    HW2 9555   1.278   3.238   2.756
 2886SOL     OW 9556   2.914   4.477   6.366
 2886SOL    HW1 9557   2.899   4.394   6.419
 2886SOL    HW2 9558   2.856   4.477   6.285
 2887SOL     OW 9559   0.640   6.723   4.359
 2887SOL    HW1 9560   0.644   6.682   4.450
 2887SOL    HW2 9561   0.649   6.651   4.290
 2888SOL     OW 9562   6.682   6.222   0.424
 2888SOL    HW1 9563   6.583   6.230   0.430
 2888SOL    HW2 9564   6.707   6.155   0.354
 2889SOL     OW 9565   3.126   7.015   2.947
 2889SOL    HW1 9566   3.049   7.000   3.009
 2889SOL    HW2 9567   3.159   6.927   2.913
 2890SOL     OW 9568   1.838   6.311   1.254
 2890SOL    HW1 9569   1.927   6.353   1.272
 2890SOL    HW2 9570   1.839   6.270   1.163
 2891SOL     OW 9571   6.694   3.399   2.452
 2891SOL    HW1 9572   6.655   3.448   2.529
 2891SOL    HW2 9573   6.687   3.300   2.468
 2892SOL     OW 9574   6.122   3.920   0.948
 2892SOL    HW1 9575   6.189   3.846   0.944
 2892SOL    HW2 9576   6.165   4.003   0.983
 2893SOL     OW 9577   0.475   5.697   4.612
 2893SOL    HW1 9578   0.382   5.718   4.642
 2893SOL    HW2 9579   0.479   5.604   4.576
 2894SOL     OW 9580   1.198   4.958   1.802
 2894SOL    HW1 9581   1.243   4.881   1.847
 2894SOL    HW2 9582   1.203   5.039   1.860
 2895SOL     OW 9583   3.878   0.039   6.020
 2895SOL    HW1 9584   3.806   7.015   5.965
 2895SOL    HW2 9585   3.906   0.125   5.977
 2896SOL     OW 9586   5.657   6.494   5.232
 2896SOL    HW1 9587   5.713   6.424   5.189
 2896SOL    HW2 9588   5.625   6.558   5.162
 2897SOL     OW 9589   3.000   4.977   3.260
 2897SOL    HW1 9590   3.058   5.005   3.184
 2897SOL    HW2 9591   2.914   4.941   3.223
 2898SOL     OW 9592   5.807   4.300   2.278
 2898SOL    HW1 9593   5.847   4.391   2.285
 2898SOL    HW2 9594   5.859   4.246   2.211
 2899SOL     OW 9595   6.813   2.374   0.992
 2899SOL    HW1 9596   6.832   2.398   1.087
 2899SOL    HW2 9597   6.876   2.301   0.963
 2900SOL     OW 9598   3.188   3.870   6.858
 2900SOL    HW1 9599   3.264   3.901   6.915
 2900SOL    HW2 9600   3.224   3.839   6.769
 2901SOL     OW 9601   1.949   4.476   3.417
 2901SOL    HW1 9602   2.044   4.486   3.449
 2901SOL    HW2 9603   1.948   4.423   3.333
 2902SOL     OW 9604   0.598   5.524   3.902
 2902SOL    HW1 9605   0.590   5.590   3.827
 2902SOL    HW2 9606   0.594   5.573   3.989
 2903SOL     OW 9607   4.268   5.939   0.534
 2903SOL    HW1 9608   4.349   5.903   0.579
 2903SOL    HW2 9609   4.294   6.008   0.467
 2904SOL     OW 9610   2.638   4.435   5.271
 2904SOL    HW1 9611   2.729   4.452   5.235
 2904SOL    HW2 9612   2.642   4.363   5.340
 2905SOL     OW 9613   1.042   4.565   2.370
 2905SOL    HW1 9614   0.950   4.594   2.399
 2905SOL    HW2 9615   1.051   4.466   2.383
 2906SOL     OW 9616   5.761   6.007   2.906
 2906SOL    HW1 9617   5.675   6.057   2.898
 2906SOL    HW2 9618   5.828   6.063   2.955
 2907SOL     OW 9619   0.865   0.470   3.562
 2907SOL    HW1 9620   0.918   0.537   3.510
 2907SOL    HW2 9621   0.885   0.479   3.659
 2908SOL     OW 9622   4.941   0.014   3.307
 2908SOL    HW1 9623   4.944   6.933   3.311
 2908SOL    HW2 9624   4.999   0.046   3.232
 2909SOL     OW 9625   1.225   5.757   1.983
 2909SOL    HW1 9626   1.186   5.677   2.027
 2909SOL    HW2 9627   1.151   5.813   1.945
 2910SOL     OW 9628   0.180   1.216   3.420
 2910SOL    HW1 9629   0.178   1.171   3.509
 2910SOL    HW2 9630   0.171   1.147   3.348
 2911SOL     OW 9631   6.438   4.564   3.624
 2911SOL    HW1 9632   6.513   4.555   3.689
 2911SOL    HW2 9633   6.438   4.655   3.584
 2912SOL     OW 9634   6.694   6.505   0.339
 2912SOL    HW1 9635   6.719   6.415   0.375
 2912SOL    HW2 9636   6.663   6.563   0.415
 2913SOL     OW 9637   1.982   4.927   1.672
 2913SOL    HW1 9638   2.028   4.984   1.604
 2913SOL    HW2 9639   1.901   4.886   1.631
 2914SOL     OW 9640   5.669   4.703   0.616
 2914SOL    HW1 9641   5.701   4.783   0.665
 2914SOL    HW2 9642   5.571   4.692   0.630
 2915SOL     OW 9643   3.734   1.867   2.726
 2915SOL    HW1 9644   3.726   1.954   2.775
 2915SOL    HW2 9645   3.721   1.882   2.628
 2916SOL     OW 9646   2.304   5.662   0.359
 2916SOL    HW1 9647   2.260   5.611   0.285
 2916SOL    HW2 9648   2.299   5.760   0.340
 2917SOL     OW 9649   2.520   0.114   3.285
 2917SOL    HW1 9650   2.465   0.080   3.209
 2917SOL    HW2 9651   2.509   0.213   3.293
 2918SOL     OW 9652   6.119   4.272   1.022
 2918SOL    HW1 9653   6.092   4.368   1.028
 2918SOL    HW2 9654   6.040   4.214   1.041
 2919SOL     OW 9655   0.698   6.417   4.504
 2919SOL    HW1 9656   0.752   6.344   4.546
 2919SOL    HW2 9657   0.621   6.439   4.563
 2920SOL     OW 9658   1.645   0.631   2.083
 2920SOL    HW1 9659   1.638   0.727   2.111
 2920SOL    HW2 9660   1.563   0.605   2.033
 2921SOL     OW 9661   0.096   0.287   5.496
 2921SOL    HW1 9662   0.031   0.239   5.555
 2921SOL    HW2 9663   0.048   0.326   5.417
 2922SOL     OW 9664   4.640   0.902   3.359
 2922SOL    HW1 9665   4.690   0.816   3.361
 2922SOL    HW2 9666   4.550   0.890   3.400
 2923SOL     OW 9667   6.512   4.987   4.835
 2923SOL    HW1 9668   6.466   4.899   4.838
 2923SOL    HW2 9669   6.503   5.032   4.924
 2924SOL     OW 9670   6.980   2.317   5.469
 2924SOL    HW1 9671   0.037   2.372   5.433
 2924SOL    HW2 9672   6.936   2.268   5.394
 2925SOL     OW 9673   5.550   0.885   5.703
 2925SOL    HW1 9674   5.555   0.964   5.763
 2925SOL    HW2 9675   5.510   0.808   5.752
 2926SOL     OW 9676   0.562   1.650   5.024
 2926SOL    HW1 9677   0.514   1.713   4.963
 2926SOL    HW2 9678   0.496   1.585   5.063
 2927SOL     OW 9679   1.925   2.785   1.511
 2927SOL    HW1 9680   1.992   2.855   1.536
 2927SOL    HW2 9681   1.835   2.811   1.547
 2928SOL     OW 9682   6.571   1.959   6.885
 2928SOL    HW1 9683   6.594   1.930   6.978
 2928SOL    HW2 9684   6.619   2.044   6.863
 2929SOL     OW 9685   1.844   2.355   4.694
 2929SOL    HW1 9686   1.848   2.270   4.641
 2929SOL    HW2 9687   1.830   2.333   4.791
 2930SOL     OW 9688   6.477   5.567   4.699
 2930SOL    HW1 9689   6.499   5.660   4.728
 2930SOL    HW2 9690   6.559   5.523   4.663
 2931SOL     OW 9691   4.173   4.130   6.430
 2931SOL    HW1 9692   4.184   4.227   6.408
 2931SOL    HW2 9693   4.202   4.075   6.351
 2932SOL     OW 9694   6.754   5.983   0.985
 2932SOL    HW1 9695   6.656   5.967   0.994
 2932SOL    HW2 9696   6.770   6.066   0.932
 2933SOL     OW 9697   0.965   0.036   1.161
 2933SOL    HW1 9698   1.035   6.983   1.148
 2933SOL    HW2 9699   0.876   7.012   1.173
 2934SOL     OW 9700   4.132   3.213   0.777
 2934SOL    HW1 9701   4.200   3.266   0.828
 2934SOL    HW2 9702   4.130   3.119   0.813
 2935SOL     OW 9703   0.494   2.365   6.416
 2935SOL    HW1 9704   0.594   2.362   6.416
 2935SOL    HW2 9705   0.459   2.306   6.344
 2936SOL     OW 9706   4.555   0.844   0.590
 2936SOL    HW1 9707   4.639   0.795   0.565
 2936SOL    HW2 9708   4.548   0.850   0.690
 2937SOL     OW 9709   4.245   5.541   1.423
 2937SOL    HW1 9710   4.190   5.459   1.434
 2937SOL    HW2 9711   4.283   5.568   1.512
 2938SOL     OW 9712   6.519   6.285   6.648
 2938SOL    HW1 9713   6.514   6.210   6.582
 2938SOL    HW2 9714   6.599   6.272   6.706
 2939SOL     OW 9715   0.050   5.624   1.665
 2939SOL    HW1 9716   6.982   5.574   1.663
 2939SOL    HW2 9717   0.032   5.722   1.668
 2940SOL     OW 9718   5.653   6.008   4.179
 2940SOL    HW1 9719   5.688   5.916   4.162
 2940SOL    HW2 9720   5.556   6.003   4.203
 2941SOL     OW 9721   1.792   3.393   3.489
 2941SOL    HW1 9722   1.853   3.365   3.415
 2941SOL    HW2 9723   1.697   3.392   3.456
 2942SOL     OW 9724   2.638   1.267   6.892
 2942SOL    HW1 9725   2.651   1.269   6.991
 2942SOL    HW2 9726   2.594   1.352   6.863
 2943SOL     OW 9727   6.068   4.224   3.525
 2943SOL    HW1 9728   6.151   4.281   3.533
 2943SOL    HW2 9729   6.091   4.129   3.547
 2944SOL     OW 9730   2.623   6.283   4.276
 2944SOL    HW1 9731   2.718   6.291   4.248
 2944SOL    HW2 9732   2.605   6.189   4.307
 2945SOL     OW 9733   5.290   4.477   1.330
 2945SOL    HW1 9734   5.229   4.411   1.374
 2945SOL    HW2 9735   5.339   4.432   1.255
 2946SOL     OW 9736   3.281   4.025   6.084
 2946SOL    HW1 9737   3.267   3.990   5.991
 2946SOL    HW2 9738   3.261   3.952   6.150
 2947SOL     OW 9739   5.912   6.075   0.684
 2947SOL    HW1 9740   5.988   6.018   0.651
 2947SOL    HW2 9741   5.863   6.113   0.605
 2948SOL     OW 9742   5.654   4.571   3.082
 2948SOL    HW1 9743   5.661   4.647   3.016
 2948SOL    HW2 9744   5.738   4.566   3.135
 2949SOL     OW 9745   1.079   6.702   1.273
 2949SOL    HW1 9746   1.108   6.771   1.206
 2949SOL    HW2 9747   1.058   6.747   1.360
 2950SOL     OW 9748   4.544   4.761   2.812
 2950SOL    HW1 9749   4.558   4.662   2.808
 2950SOL    HW2 9750   4.517   4.793   2.721
 2951SOL     OW 9751   5.690   0.828   1.356
 2951SOL    HW1 9752   5.630   0.904   1.380
 2951SOL    HW2 9753   5.654   0.782   1.274
 2952SOL     OW 9754   6.037   1.005   4.367
 2952SOL    HW1 9755   5.971   1.045   4.304
 2952SOL    HW2 9756   6.114   0.968   4.316
 2953SOL     OW 9757   0.706   6.184   3.252
 2953SOL    HW1 9758   0.680   6.130   3.332
 2953SOL    HW2 9759   0.742   6.124   3.181
 2954SOL     OW 9760   1.078   4.281   6.510
 2954SOL    HW1 9761   1.150   4.273   6.579
 2954SOL    HW2 9762   0.989   4.283   6.555
 2955SOL     OW 9763   1.316   3.839   0.151
 2955SOL    HW1 9764   1.229   3.827   0.200
 2955SOL    HW2 9765   1.376   3.762   0.170
 2956SOL     OW 9766   6.607   4.468   3.839
 2956SOL    HW1 9767   6.706   4.469   3.848
 2956SOL    HW2 9768   6.568   4.407   3.909
 2957SOL     OW 9769   2.749   4.872   1.536
 2957SOL    HW1 9770   2.698   4.909   1.613
 2957SOL    HW2 9771   2.780   4.780   1.557
 2958SOL     OW 9772   2.035   4.894   2.957
 2958SOL    HW1 9773   2.001   4.813   3.005
 2958SOL    HW2 9774   2.135   4.894   2.960
 2959SOL     OW 9775   6.051   2.377   2.940
 2959SOL    HW1 9776   6.107   2.449   2.899
 2959SOL    HW2 9777   6.006   2.412   3.022
 2960SOL     OW 9778   3.938   0.785   0.477
 2960SOL    HW1 9779   4.031   0.794   0.442
 2960SOL    HW2 9780   3.941   0.747   0.570
 2961SOL     OW 9781   5.557   4.170   2.258
 2961SOL    HW1 9782   5.642   4.216   2.283
 2961SOL    HW2 9783   5.520   4.121   2.337
 2962SOL     OW 9784   6.420   6.663   2.453
 2962SOL    HW1 9785   6.417   6.589   2.386
 2962SOL    HW2 9786   6.445   6.749   2.408
 2963SOL     OW 9787   1.110   0.862   5.888
 2963SOL    HW1 9788   1.107   0.762   5.885
 2963SOL    HW2 9789   1.021   0.898   5.914
 2964SOL     OW 9790   0.709   2.718   6.930
 2964SOL    HW1 9791   0.675   2.624   6.924
 2964SOL    HW2 9792   0.738   2.737   0.005
 2965SOL     OW 9793   0.950   0.498   4.640
 2965SOL    HW1 9794   0.903   0.447   4.712
 2965SOL    HW2 9795   0.898   0.491   4.555
 2966SOL     OW 9796   4.194   5.700   3.580
 2966SOL    HW1 9797   4.194   5.636   3.503
 2966SOL    HW2 9798   4.121   5.767   3.568
 2967SOL     OW 9799   6.527   0.909   5.851
 2967SOL    HW1 9800   6.510   0.861   5.765
 2967SOL    HW2 9801   6.572   0.996   5.833
 2968SOL     OW 9802   2.020   2.549   1.281
 2968SOL    HW1 9803   1.957   2.487   1.328
 2968SOL    HW2 9804   2.070   2.603   1.348
 2969SOL     OW 9805   5.330   3.730   4.655
 2969SOL    HW1 9806   5.270   3.649   4.651
 2969SOL    HW2 9807   5.275   3.809   4.682
 2970SOL     OW 9808   2.199   2.797   5.204
 2970SOL    HW1 9809   2.106   2.833   5.201
 2970SOL    HW2 9810   2.260   2.860   5.156
 2971SOL     OW 9811   5.546   4.074   0.194
 2971SOL    HW1 9812   5.472   4.050   0.257
 2971SOL    HW2 9813   5.626   4.019   0.214
 2972SOL     OW 9814   6.084   5.501   6.238
 2972SOL    HW1 9815   6.169   5.453   6.213
 2972SOL    HW2 9816   6.054   5.469   6.328
 2973SOL     OW 9817   4.962   6.672   1.971
 2973SOL    HW1 9818   5.045   6.704   1.925
 2973SOL    HW2 9819   4.957   6.572   1.966
 2974SOL     OW 9820   5.712   4.958   3.723
 2974SOL    HW1 9821   5.621   4.989   3.751
 2974SOL    HW2 9822   5.764   4.932   3.804
 2975SOL     OW 9823   4.865   4.585   4.288
 2975SOL    HW1 9824   4.847   4.505   4.231
 2975SOL    HW2 9825   4.786   4.646   4.284
 2976SOL     OW 9826   4.831   2.220   2.492
 2976SOL    HW1 9827   4.923   2.193   2.464
 2976SOL    HW2 9828   4.819   2.318   2.480
 2977SOL     OW 9829   0.320   0.176   1.776
 2977SOL    HW1 9830   0.318   0.241   1.852
 2977SOL    HW2 9831   0.226   0.156   1.747
 2978SOL     OW 9832   4.270   4.336   6.059
 2978SOL    HW1 9833   4.292   4.394   5.980
 2978SOL    HW2 9834   4.350   4.331   6.119
 2979SOL     OW 9835   2.833   1.280   4.933
 2979SOL    HW1 9836   2.837   1.181   4.918
 2979SOL    HW2 9837   2.868   1.328   4.853
 2980SOL     OW 9838   4.276   3.947   6.214
 2980SOL    HW1 9839   4.196   3.893   6.186
 2980SOL    HW2 9840   4.293   4.018   6.145
 2981SOL     OW 9841   1.891   0.881   0.826
 2981SOL    HW1 9842   1.957   0.933   0.771
 2981SOL    HW2 9843   1.799   0.894   0.789
 2982SOL     OW 9844   1.594   6.746   2.304
 2982SOL    HW1 9845   1.531   6.675   2.273
 2982SOL    HW2 9846   1.554   6.794   2.382
 2983SOL     OW 9847   6.332   3.144   0.088
 2983SOL    HW1 9848   6.292   3.120   7.017
 2983SOL    HW2 9849   6.264   3.195   0.141
 2984SOL     OW 9850   6.410   4.973   7.018
 2984SOL    HW1 9851   6.470   5.011   0.070
 2984SOL    HW2 9852   6.320   5.014   0.007
 2985SOL     OW 9853   0.536   0.492   4.670
 2985SOL    HW1 9854   0.463   0.429   4.696
 2985SOL    HW2 9855   0.594   0.509   4.750
 2986SOL     OW 9856   3.460   4.151   2.627
 2986SOL    HW1 9857   3.520   4.209   2.572
 2986SOL    HW2 9858   3.508   4.120   2.708
 2987SOL     OW 9859   0.819   2.091   4.342
 2987SOL    HW1 9860   0.724   2.062   4.346
 2987SOL    HW2 9861   0.826   2.175   4.288
 2988SOL     OW 9862   1.318   1.591   1.158
 2988SOL    HW1 9863   1.235   1.598   1.102
 2988SOL    HW2 9864   1.395   1.631   1.108
 2989SOL     OW 9865   5.105   3.047   4.904
 2989SOL    HW1 9866   5.007   3.057   4.888
 2989SOL    HW2 9867   5.136   3.121   4.963
 2990SOL     OW 9868   4.983   1.938   4.686
 2990SOL    HW1 9869   4.977   1.989   4.772
 2990SOL    HW2 9870   4.898   1.885   4.674
 2991SOL     OW 9871   5.579   3.133   0.644
 2991SOL    HW1 9872   5.576   3.085   0.556
 2991SOL    HW2 9873   5.622   3.222   0.631
 2992SOL     OW 9874   0.516   3.806   5.663
 2992SOL    HW1 9875   0.470   3.876   5.608
 2992SOL    HW2 9876   0.583   3.850   5.723
 2993SOL     OW 9877   0.601   4.680   6.843
 2993SOL    HW1 9878   0.517   4.729   6.822
 2993SOL    HW2 9879   0.628   4.625   6.764
 2994SOL     OW 9880   4.927   6.092   0.180
 2994SOL    HW1 9881   4.987   6.171   0.181
 2994SOL    HW2 9882   4.862   6.099   0.104
 2995SOL     OW 9883   4.708   0.489   0.473
 2995SOL    HW1 9884   4.752   0.579   0.470
 2995SOL    HW2 9885   4.726   0.441   0.387
 2996SOL     OW 9886   1.562   2.134   4.685
 2996SOL    HW1 9887   1.652   2.132   4.727
 2996SOL    HW2 9888   1.505   2.202   4.731
 2997SOL     OW 9889   5.090   0.809   3.361
 2997SOL    HW1 9890   5.064   0.890   3.308
 2997SOL    HW2 9891   5.169   0.830   3.417
 2998SOL     OW 9892   2.653   0.648   3.279
 2998SOL    HW1 9893   2.612   0.736   3.255
 2998SOL    HW2 9894   2.739   0.637   3.230
 2999SOL     OW 9895   2.754   4.195   0.251
 2999SOL    HW1 9896   2.676   4.132   0.252
 2999SOL    HW2 9897   2.834   4.149   0.288
 3000SOL     OW 9898   2.699   3.662   5.365
 3000SOL    HW1 9899   2.772   3.663   5.433
 3000SOL    HW2 9900   2.678   3.756   5.338
 3001SOL     OW 9901   6.135   1.462   6.150
 3001SOL    HW1 9902   6.184   1.384   6.189
 3001SOL    HW2 9903   6.185   1.496   6.070
 3002SOL     OW 9904   2.779   1.210   1.404
 3002SOL    HW1 9905   2.819   1.245   1.320
 3002SOL    HW2 9906   2.725   1.128   1.383
 3003SOL     OW 9907   1.137   5.958   0.530
 3003SOL    HW1 9908   1.078   5.904   0.471
 3003SOL    HW2 9909   1.221   5.982   0.481
 3004SOL     OW 9910   2.575   4.824   3.940
 3004SOL    HW1 9911   2.521   4.741   3.924
 3004SOL    HW2 9912   2.673   4.801   3.933
 3005SOL     OW 9913   1.373   3.103   5.746
 3005SOL    HW1 9914   1.317   3.180   5.777
 3005SOL    HW2 9915   1.317   3.041   5.691
 3006SOL     OW 9916   5.240   1.867   5.345
 3006SOL    HW1 9917   5.256   1.830   5.436
 3006SOL    HW2 9918   5.284   1.807   5.277
 3007SOL     OW 9919   5.495   5.352   6.955
 3007SOL    HW1 9920   5.570   5.287   6.970
 3007SOL    HW2 9921   5.518   5.440   6.996
 3008SOL     OW 9922   4.310   2.337   5.817
 3008SOL    HW1 9923   4.268   2.405   5.757
 3008SOL    HW2 9924   4.344   2.260   5.761
 3009SOL     OW 9925   0.416   2.959   3.192
 3009SOL    HW1 9926   0.400   2.888   3.260
 3009SOL    HW2 9927   0.408   2.919   3.100
 3010SOL     OW 9928   4.281   5.606   6.420
 3010SOL    HW1 9929   4.293   5.675   6.348
 3010SOL    HW2 9930   4.243   5.650   6.501
 3011SOL     OW 9931   6.095   0.174   1.123
 3011SOL    HW1 9932   6.123   0.113   1.048
 3011SOL    HW2 9933   6.170   0.183   1.188
 3012SOL     OW 9934   2.916   3.273   6.484
 3012SOL    HW1 9935   2.944   3.341   6.551
 3012SOL    HW2 9936   2.816   3.269   6.481
 3013SOL     OW 9937   0.160   6.270   4.076
 3013SOL    HW1 9938   0.207   6.329   4.011
 3013SOL    HW2 9939   0.078   6.231   4.033
 3014SOL     OW 9940   4.555   0.941   5.194
 3014SOL    HW1 9941   4.574   1.036   5.167
 3014SOL    HW2 9942   4.633   0.905   5.245
 3015SOL     OW 9943   1.445   0.653   0.470
 3015SOL    HW1 9944   1.391   0.724   0.515
 3015SOL    HW2 9945   1.542   0.676   0.479
 3016SOL     OW 9946   2.799   6.871   4.275
 3016SOL    HW1 9947   2.847   6.800   4.326
 3016SOL    HW2 9948   2.753   6.830   4.196
 3017SOL     OW 9949   6.417   5.895   1.963
 3017SOL    HW1 9950   6.416   5.890   2.062
 3017SOL    HW2 9951   6.455   5.810   1.925
 3018SOL     OW 9952   3.375   6.999   0.416
 3018SOL    HW1 9953   3.447   6.948   0.369
 3018SOL    HW2 9954   3.397   0.078   0.414
 3019SOL     OW 9955   1.636   6.324   6.543
 3019SOL    HW1 9956   1.685   6.382   6.607
 3019SOL    HW2 9957   1.537   6.336   6.556
 3020SOL     OW 9958   5.409   3.536   6.935
 3020SOL    HW1 9959   5.420   3.633   6.915
 3020SOL    HW2 9960   5.489   3.504   6.987
 3021SOL     OW 9961   3.367   6.265   4.971
 3021SOL    HW1 9962   3.387   6.285   5.067
 3021SOL    HW2 9963   3.440   6.300   4.913
 3022SOL     OW 9964   3.641   5.997   3.583
 3022SOL    HW1 9965   3.711   5.958   3.524
 3022SOL    HW2 9966   3.564   6.028   3.528
 3023SOL     OW 9967   4.418   6.586   2.735
 3023SOL    HW1 9968   4.357   6.519   2.776
 3023SOL    HW2 9969   4.439   6.560   2.641
 3024SOL     OW 9970   0.178   6.598   5.938
 3024SOL    HW1 9971   0.183   6.649   6.024
 3024SOL    HW2 9972   0.161   6.502   5.958
 3025SOL     OW 9973   4.038   5.940   0.732
 3025SOL    HW1 9974   4.100   5.925   0.655
 3025SOL    HW2 9975   4.092   5.963   0.813
 3026SOL     OW 9976   5.690   1.494   0.448
 3026SOL    HW1 9977   5.723   1.583   0.481
 3026SOL    HW2 9978   5.768   1.440   0.416
 3027SOL     OW 9979   4.778   1.836   1.744
 3027SOL    HW1 9980   4.728   1.825   1.830
 3027SOL    HW2 9981   4.816   1.747   1.717
 3028SOL     OW 9982   2.335   4.173   6.633
 3028SOL    HW1 9983   2.407   4.230   6.594
 3028SOL    HW2 9984   2.247   4.200   6.594
 3029SOL     OW 9985   0.979   2.630   4.340
 3029SOL    HW1 9986   1.016   2.718   4.307
 3029SOL    HW2 9987   1.055   2.567   4.357
 3030SOL     OW 9988   1.440   4.303   1.512
 3030SOL    HW1 9989   1.539   4.312   1.500
 3030SOL    HW2 9990   1.394   4.373   1.457
 3031SOL     OW 9991   1.683   5.664   0.931
 3031SOL    HW1 9992   1.761   5.692   0.987
 3031SOL    HW2 9993   1.624   5.743   0.914
 3032SOL     OW 9994   1.713   0.415   2.950
 3032SOL    HW1 9995   1.660   0.486   2.902
 3032SOL    HW2 9996   1.720   0.334   2.892
 3033SOL     OW 9997   6.376   2.482   4.605
 3033SOL    HW1 9998   6.474   2.498   4.620
 3033SOL    HW2 9999   6.324   2.517   4.682
 3034SOL     OW10000   0.623   6.189   3.639
 3034SOL    HW110001   0.588   6.282   3.649
 3034SOL    HW210002   0.620   6.143   3.728
 3035SOL     OW10003   1.376   2.603   6.289
 3035SOL    HW110004   1.300   2.544   6.260
 3035SOL    HW210005   1.412   2.652   6.211
 3036SOL     OW10006   1.728   2.245   6.378
 3036SOL    HW110007   1.816   2.244   6.427
 3036SOL    HW210008   1.679   2.330   6.400
 3037SOL     OW10009   0.765   5.210   5.711
 3037SOL    HW110010   0.816   5.143   5.657
 3037SOL    HW210011   0.667   5.199   5.693
 3038SOL     OW10012   5.105   5.137   6.229
 3038SOL    HW110013   5.112   5.163   6.325
 3038SOL    HW210014   5.192   5.153   6.183
 3039SOL     OW10015   6.040   3.827   6.724
 3039SOL    HW110016   6.027   3.728   6.711
 3039SOL    HW210017   5.977   3.877   6.664
 3040SOL     OW10018   3.757   4.296   5.759
 3040SOL    HW110019   3.671   4.279   5.807
 3040SOL    HW210020   3.815   4.215   5.767
 3041SOL     OW10021   2.074   4.128   5.168
 3041SOL    HW110022   2.085   4.089   5.259
 3041SOL    HW210023   2.163   4.129   5.122
 3042SOL     OW10024   0.456   5.107   3.437
 3042SOL    HW110025   0.539   5.137   3.390
 3042SOL    HW210026   0.479   5.086   3.533
 3043SOL     OW10027   2.958   3.760   0.870
 3043SOL    HW110028   2.946   3.810   0.956
 3043SOL    HW210029   3.055   3.745   0.853
 3044SOL     OW10030   3.564   3.658   4.961
 3044SOL    HW110031   3.500   3.615   4.897
 3044SOL    HW210032   3.565   3.606   5.046
 3045SOL     OW10033   5.075   1.601   2.988
 3045SOL    HW110034   5.112   1.694   2.978
 3045SOL    HW210035   4.981   1.599   2.955
 3046SOL     OW10036   5.504   5.459   0.741
 3046SOL    HW110037   5.444   5.436   0.817
 3046SOL    HW210038   5.569   5.385   0.726
 3047SOL     OW10039   6.268   0.563   6.848
 3047SOL    HW110040   6.229   0.618   6.775
 3047SOL    HW210041   6.216   0.478   6.858
 3048SOL     OW10042   4.271   3.364   1.193
 3048SOL    HW110043   4.235   3.350   1.100
 3048SOL    HW210044   4.262   3.279   1.245
 3049SOL     OW10045   1.631   0.548   4.285
 3049SOL    HW110046   1.624   0.449   4.276
 3049SOL    HW210047   1.545   0.590   4.257
 3050SOL     OW10048   2.919   2.231   1.047
 3050SOL    HW110049   2.971   2.149   1.068
 3050SOL    HW210050   2.908   2.239   0.948
 3051SOL     OW10051   2.616   6.798   5.039
 3051SOL    HW110052   2.615   6.889   4.999
 3051SOL    HW210053   2.663   6.734   4.976
 3052SOL     OW10054   5.854   6.217   2.518
 3052SOL    HW110055   5.759   6.243   2.536
 3052SOL    HW210056   5.912   6.253   2.591
 3053SOL     OW10057   1.962   4.093   0.200
 3053SOL    HW110058   1.971   4.189   0.174
 3053SOL    HW210059   2.051   4.048   0.194
 3054SOL     OW10060   5.587   1.325   2.898
 3054SOL    HW110061   5.614   1.296   2.990
 3054SOL    HW210062   5.623   1.416   2.879
 3055SOL     OW10063   6.167   6.203   6.399
 3055SOL    HW110064   6.220   6.169   6.477
 3055SOL    HW210065   6.110   6.280   6.428
 3056SOL     OW10066   4.668   1.651   6.473
 3056SOL    HW110067   4.717   1.567   6.495
 3056SOL    HW210068   4.678   1.671   6.375
 3057SOL     OW10069   5.899   5.642   3.212
 3057SOL    HW110070   5.802   5.640   3.186
 3057SOL    HW210071   5.935   5.549   3.214
 3058SOL     OW10072   5.968   4.265   0.165
 3058SOL    HW110073   5.972   4.243   0.262
 3058SOL    HW210074   5.990   4.362   0.152
 3059SOL     OW10075   2.309   2.921   4.555
 3059SOL    HW110076   2.373   2.932   4.479
 3059SOL    HW210077   2.281   2.825   4.560
 3060SOL     OW10078   3.407   4.964   5.424
 3060SOL    HW110079   3.345   4.962   5.502
 3060SOL    HW210080   3.402   4.876   5.375
 3061SOL     OW10081   5.360   4.859   5.829
 3061SOL    HW110082   5.315   4.936   5.784
 3061SOL    HW210083   5.426   4.818   5.766
 3062SOL     OW10084   4.299   4.554   1.535
 3062SOL    HW110085   4.321   4.602   1.450
 3062SOL    HW210086   4.205   4.518   1.529
 3063SOL     OW10087   0.504   4.161   1.360
 3063SOL    HW110088   0.427   4.097   1.357
 3063SOL    HW210089   0.472   4.253   1.338
 3064SOL     OW10090   3.990   2.568   6.901
 3064SOL    HW110091   3.902   2.612   6.923
 3064SOL    HW210092   4.005   2.572   6.803
 3065SOL     OW10093   1.061   0.828   0.136
 3065SOL    HW110094   1.125   0.856   0.207
 3065SOL    HW210095   1.110   0.780   0.063
 3066SOL     OW10096   4.924   5.364   5.461
 3066SOL    HW110097   4.950   5.363   5.558
 3066SOL    HW210098   4.867   5.444   5.444
 3067SOL     OW10099   2.627   1.515   6.654
 3067SOL    HW110100   2.685   1.447   6.609
 3067SOL    HW210101   2.537   1.517   6.609
 3068SOL     OW10102   0.582   1.253   1.116
 3068SOL    HW110103   0.602   1.202   1.200
 3068SOL    HW210104   0.521   1.199   1.058
 3069SOL     OW10105   5.387   6.951   3.140
 3069SOL    HW110106   5.296   6.957   3.097
 3069SOL    HW210107   5.396   6.862   3.185
 3070SOL     OW10108   2.947   1.532   0.329
 3070SOL    HW110109   2.917   1.627   0.341
 3070SOL    HW210110   3.038   1.521   0.367
 3071SOL     OW10111   0.264   3.271   3.423
 3071SOL    HW110112   0.343   3.304   3.474
 3071SOL    HW210113   0.267   3.171   3.418
 3072SOL     OW10114   2.003   6.128   6.772
 3072SOL    HW110115   2.067   6.055   6.748
 3072SOL    HW210116   1.943   6.148   6.695
 3073SOL     OW10117   6.409   4.672   0.618
 3073SOL    HW110118   6.484   4.723   0.661
 3073SOL    HW210119   6.389   4.710   0.528
 3074SOL     OW10120   0.980   3.673   0.900
 3074SOL    HW110121   0.989   3.581   0.862
 3074SOL    HW210122   0.907   3.674   0.969
 3075SOL     OW10123   2.303   5.302   3.788
 3075SOL    HW110124   2.337   5.217   3.827
 3075SOL    HW210125   2.238   5.281   3.714
 3076SOL     OW10126   0.225   1.497   4.946
 3076SOL    HW110127   0.210   1.576   4.887
 3076SOL    HW210128   0.173   1.419   4.911
 3077SOL     OW10129   6.400   3.781   1.069
 3077SOL    HW110130   6.487   3.733   1.055
 3077SOL    HW210131   6.395   3.816   1.163
 3078SOL     OW10132   6.552   2.869   1.846
 3078SOL    HW110133   6.640   2.821   1.838
 3078SOL    HW210134   6.524   2.901   1.756
 3079SOL     OW10135   2.258   2.601   5.393
 3079SOL    HW110136   2.192   2.527   5.388
 3079SOL    HW210137   2.253   2.656   5.310
 3080SOL     OW10138   4.663   4.961   0.906
 3080SOL    HW110139   4.686   4.997   0.997
 3080SOL    HW210140   4.746   4.929   0.861
 3081SOL     OW10141   1.089   4.121   0.712
 3081SOL    HW110142   1.144   4.109   0.795
 3081SOL    HW210143   1.145   4.105   0.631
 3082SOL     OW10144   3.559   5.304   4.208
 3082SOL    HW110145   3.526   5.398   4.216
 3082SOL    HW210146   3.499   5.243   4.259
 3083SOL     OW10147   1.940   5.785   2.992
 3083SOL    HW110148   1.937   5.749   2.899
 3083SOL    HW210149   1.849   5.818   3.018
 3084SOL     OW10150   0.900   3.679   3.256
 3084SOL    HW110151   0.811   3.723   3.271
 3084SOL    HW210152   0.918   3.615   3.331
 3085SOL     OW10153   4.621   5.187   0.611
 3085SOL    HW110154   4.720   5.204   0.616
 3085SOL    HW210155   4.588   5.212   0.520
 3086SOL     OW10156   5.937   1.250   0.043
 3086SOL    HW110157   5.947   1.196   6.978
 3086SOL    HW210158   5.852   1.225   0.090
 3087SOL     OW10159   2.930   6.736   1.915
 3087SOL    HW110160   2.876   6.786   1.982
 3087SOL    HW210161   2.874   6.664   1.874
 3088SOL     OW10162   0.749   2.727   5.608
 3088SOL    HW110163   0.720   2.805   5.663
 3088SOL    HW210164   0.834   2.689   5.645
 3089SOL     OW10165   4.863   0.171   4.726
 3089SOL    HW110166   4.786   0.122   4.767
 3089SOL    HW210167   4.908   0.226   4.797
 3090SOL     OW10168   0.987   1.680   1.528
 3090SOL    HW110169   1.050   1.716   1.458
 3090SOL    HW210170   0.915   1.627   1.484
 3091SOL     OW10171   1.503   1.679   0.981
 3091SOL    HW110172   1.505   1.629   0.894
 3091SOL    HW210173   1.549   1.767   0.970
 3092SOL     OW10174   5.473   0.035   2.184
 3092SOL    HW110175   5.495   0.097   2.109
 3092SOL    HW210176   5.537   6.976   2.183
 3093SOL     OW10177   5.741   5.306   5.997
 3093SOL    HW110178   5.723   5.403   5.982
 3093SOL    HW210179   5.698   5.253   5.924
 3094SOL     OW10180   2.758   0.798   5.874
 3094SOL    HW110181   2.692   0.743   5.925
 3094SOL    HW210182   2.744   0.895   5.894
 3095SOL     OW10183   2.505   2.848   5.381
 3095SOL    HW110184   2.511   2.914   5.306
 3095SOL    HW210185   2.411   2.844   5.415
 3096SOL     OW10186   0.883   3.439   4.876
 3096SOL    HW110187   0.799   3.426   4.929
 3096SOL    HW210188   0.860   3.449   4.779
 3097SOL     OW10189   6.023   1.974   6.269
 3097SOL    HW110190   6.079   1.959   6.187
 3097SOL    HW210191   6.077   2.024   6.337
 3098SOL     OW10192   1.922   1.670   2.339
 3098SOL    HW110193   1.965   1.580   2.339
 3098SOL    HW210194   1.990   1.739   2.315
 3099SOL     OW10195   0.845   6.779   4.081
 3099SOL    HW110196   0.794   6.809   4.001
 3099SOL    HW210197   0.823   6.839   4.158
 3100SOL     OW10198   6.411   6.577   3.050
 3100SOL    HW110199   6.382   6.672   3.045
 3100SOL    HW210200   6.367   6.532   3.128
 3101SOL     OW10201   4.301   6.662   5.841
 3101SOL    HW110202   4.331   6.608   5.920
 3101SOL    HW210203   4.373   6.662   5.771
 3102SOL     OW10204   6.979   5.481   0.455
 3102SOL    HW110205   6.977   5.523   0.364
 3102SOL    HW210206   6.890   5.493   0.499
 3103SOL     OW10207   3.173   0.110   1.282
 3103SOL    HW110208   3.140   0.204   1.275
 3103SOL    HW210209   3.132   0.065   1.361
 3104SOL     OW10210   4.708   0.359   6.294
 3104SOL    HW110211   4.642   0.370   6.219
 3104SOL    HW210212   4.745   0.267   6.293
 3105SOL     OW10213   5.157   3.206   0.112
 3105SOL    HW110214   5.153   3.219   0.211
 3105SOL    HW210215   5.244   3.164   0.088
 3106SOL     OW10216   5.616   1.291   4.752
 3106SOL    HW110217   5.599   1.194   4.771
 3106SOL    HW210218   5.628   1.341   4.837
 3107SOL     OW10219   4.266   1.510   5.042
 3107SOL    HW110220   4.301   1.440   5.104
 3107SOL    HW210221   4.209   1.467   4.972
 3108SOL     OW10222   2.355   4.306   4.310
 3108SOL    HW110223   2.355   4.321   4.409
 3108SOL    HW210224   2.304   4.223   4.289
 3109SOL     OW10225   6.555   6.849   4.240
 3109SOL    HW110226   6.559   6.922   4.308
 3109SOL    HW210227   6.595   6.881   4.154
 3110SOL     OW10228   2.474   4.513   3.270
 3110SOL    HW110229   2.487   4.506   3.171
 3110SOL    HW210230   2.530   4.588   3.305
 3111SOL     OW10231   6.374   4.738   4.821
 3111SOL    HW110232   6.457   4.692   4.790
 3111SOL    HW210233   6.325   4.678   4.884
 3112SOL     OW10234   3.855   2.420   0.331
 3112SOL    HW110235   3.774   2.370   0.361
 3112SOL    HW210236   3.937   2.368   0.354
 3113SOL     OW10237   2.481   5.730   3.073
 3113SOL    HW110238   2.422   5.763   3.000
 3113SOL    HW210239   2.482   5.630   3.073
 3114SOL     OW10240   3.514   1.805   0.406
 3114SOL    HW110241   3.457   1.795   0.324
 3114SOL    HW210242   3.558   1.717   0.427
 3115SOL     OW10243   4.139   4.227   5.248
 3115SOL    HW110244   4.195   4.307   5.225
 3115SOL    HW210245   4.197   4.151   5.274
 3116SOL     OW10246   0.362   2.525   0.745
 3116SOL    HW110247   0.446   2.483   0.780
 3116SOL    HW210248   0.359   2.621   0.772
 3117SOL     OW10249   4.704   2.148   5.602
 3117SOL    HW110250   4.693   2.048   5.603
 3117SOL    HW210251   4.694   2.184   5.695
 3118SOL     OW10252   1.521   0.548   2.811
 3118SOL    HW110253   1.433   0.545   2.858
 3118SOL    HW210254   1.522   0.481   2.737
 3119SOL     OW10255   3.997   3.334   5.783
 3119SOL    HW110256   3.971   3.289   5.697
 3119SOL    HW210257   4.082   3.384   5.769
 3120SOL     OW10258   2.999   0.292   5.279
 3120SOL    HW110259   3.051   0.227   5.334
 3120SOL    HW210260   2.982   0.375   5.332
 3121SOL     OW10261   4.807   1.526   4.367
 3121SOL    HW110262   4.754   1.464   4.425
 3121SOL    HW210263   4.849   1.473   4.293
 3122SOL     OW10264   4.232   4.695   4.291
 3122SOL    HW110265   4.299   4.653   4.230
 3122SOL    HW210266   4.262   4.684   4.385
 3123SOL     OW10267   2.360   1.781   2.846
 3123SOL    HW110268   2.420   1.824   2.914
 3123SOL    HW210269   2.400   1.792   2.755
 3124SOL     OW10270   4.955   6.734   4.389
 3124SOL    HW110271   4.947   6.833   4.385
 3124SOL    HW210272   4.941   6.696   4.297
 3125SOL     OW10273   1.348   2.791   5.368
 3125SOL    HW110274   1.431   2.796   5.424
 3125SOL    HW210275   1.371   2.755   5.277
 3126SOL     OW10276   5.591   5.899   4.473
 3126SOL    HW110277   5.567   5.894   4.570
 3126SOL    HW210278   5.578   5.992   4.439
 3127SOL     OW10279   0.785   2.512   4.581
 3127SOL    HW110280   0.881   2.508   4.556
 3127SOL    HW210281   0.750   2.604   4.565
 3128SOL     OW10282   3.880   0.230   0.516
 3128SOL    HW110283   3.857   0.300   0.448
 3128SOL    HW210284   3.843   0.257   0.605
 3129SOL     OW10285   4.557   3.109   1.060
 3129SOL    HW110286   4.560   3.102   1.160
 3129SOL    HW210287   4.577   3.203   1.032
 3130SOL     OW10288   1.857   3.812   0.950
 3130SOL    HW110289   1.953   3.807   0.923
 3130SOL    HW210290   1.850   3.852   1.042
 3131SOL     OW10291   6.805   4.137   1.560
 3131SOL    HW110292   6.832   4.222   1.605
 3131SOL    HW210293   6.884   4.097   1.514
 3132SOL     OW10294   3.731   4.297   0.340
 3132SOL    HW110295   3.715   4.381   0.289
 3132SOL    HW210296   3.798   4.240   0.292
 3133SOL     OW10297   4.105   0.272   3.056
 3133SOL    HW110298   4.167   0.215   3.002
 3133SOL    HW210299   4.129   0.368   3.045
 3134SOL     OW10300   3.101   5.118   1.904
 3134SOL    HW110301   3.044   5.066   1.968
 3134SOL    HW210302   3.197   5.093   1.917
 3135SOL     OW10303   5.914   6.734   5.947
 3135SOL    HW110304   5.888   6.774   5.858
 3135SOL    HW210305   5.992   6.783   5.984
 3136SOL     OW10306   6.192   1.063   2.790
 3136SOL    HW110307   6.123   1.036   2.723
 3136SOL    HW210308   6.282   1.033   2.759
 3137SOL     OW10309   6.119   0.086   0.146
 3137SOL    HW110310   6.166   0.112   0.231
 3137SOL    HW210311   6.031   0.134   0.142
 3138SOL     OW10312   5.373   5.449   3.914
 3138SOL    HW110313   5.363   5.387   3.992
 3138SOL    HW210314   5.438   5.410   3.848
 3139SOL     OW10315   2.071   5.118   1.508
 3139SOL    HW110316   2.003   5.111   1.436
 3139SOL    HW210317   2.156   5.156   1.471
 3140SOL     OW10318   6.348   6.678   5.701
 3140SOL    HW110319   6.405   6.644   5.776
 3140SOL    HW210320   6.251   6.664   5.724
 3141SOL     OW10321   0.171   2.241   6.769
 3141SOL    HW110322   0.115   2.257   6.851
 3141SOL    HW210323   0.116   2.260   6.687
 3142SOL     OW10324   4.769   0.656   2.039
 3142SOL    HW110325   4.753   0.590   2.113
 3142SOL    HW210326   4.842   0.623   1.980
 3143SOL     OW10327   6.131   1.519   0.331
 3143SOL    HW110328   6.082   1.574   0.399
 3143SOL    HW210329   6.127   1.564   0.242
 3144SOL     OW10330   4.588   3.887   6.573
 3144SOL    HW110331   4.508   3.946   6.575
 3144SOL    HW210332   4.579   3.820   6.499
 3145SOL     OW10333   2.733   6.140   2.038
 3145SOL    HW110334   2.782   6.058   2.008
 3145SOL    HW210335   2.634   6.124   2.029
 3146SOL     OW10336   0.681   1.088   5.181
 3146SOL    HW110337   0.728   1.010   5.140
 3146SOL    HW210338   0.691   1.085   5.280
 3147SOL     OW10339   3.402   4.865   6.031
 3147SOL    HW110340   3.449   4.866   5.943
 3147SOL    HW210341   3.410   4.775   6.073
 3148SOL     OW10342   0.237   6.418   3.018
 3148SOL    HW110343   0.297   6.352   3.063
 3148SOL    HW210344   0.283   6.506   3.010
 3149SOL     OW10345   3.286   1.286   0.471
 3149SOL    HW110346   3.267   1.215   0.403
 3149SOL    HW210347   3.234   1.268   0.554
 3150SOL     OW10348   6.128   6.549   5.163
 3150SOL    HW110349   6.165   6.584   5.249
 3150SOL    HW210350   6.052   6.607   5.133
 3151SOL     OW10351   6.442   1.873   5.949
 3151SOL    HW110352   6.406   1.950   5.896
 3151SOL    HW210353   6.539   1.889   5.968
 3152SOL     OW10354   1.500   4.050   6.769
 3152SOL    HW110355   1.418   4.011   6.728
 3152SOL    HW210356   1.499   4.035   6.868
 3153SOL     OW10357   6.572   5.012   0.502
 3153SOL    HW110358   6.665   4.984   0.527
 3153SOL    HW210359   6.520   4.931   0.472
 3154SOL     OW10360   5.852   1.667   1.681
 3154SOL    HW110361   5.796   1.685   1.601
 3154SOL    HW210362   5.808   1.597   1.738
 3155SOL     OW10363   6.534   4.688   0.021
 3155SOL    HW110364   6.468   4.640   0.079
 3155SOL    HW210365   6.500   4.779   7.018
 3156SOL     OW10366   3.547   4.157   2.292
 3156SOL    HW110367   3.578   4.247   2.264
 3156SOL    HW210368   3.623   4.106   2.333
 3157SOL     OW10369   1.358   2.012   5.195
 3157SOL    HW110370   1.361   1.989   5.097
 3157SOL    HW210371   1.451   2.008   5.232
 3158SOL     OW10372   2.908   2.168   5.411
 3158SOL    HW110373   2.935   2.262   5.390
 3158SOL    HW210374   2.808   2.163   5.418
 3159SOL     OW10375   4.707   6.804   0.358
 3159SOL    HW110376   4.694   6.850   0.446
 3159SOL    HW210377   4.781   6.736   0.366
 3160SOL     OW10378   2.517   6.842   5.696
 3160SOL    HW110379   2.459   6.914   5.735
 3160SOL    HW210380   2.611   6.876   5.688
 3161SOL     OW10381   2.072   2.822   2.466
 3161SOL    HW110382   2.040   2.892   2.529
 3161SOL    HW210383   2.163   2.847   2.431
 3162SOL     OW10384   1.755   5.338   0.243
 3162SOL    HW110385   1.770   5.367   0.337
 3162SOL    HW210386   1.838   5.297   0.206
 3163SOL     OW10387   3.990   3.643   0.715
 3163SOL    HW110388   3.989   3.562   0.655
 3163SOL    HW210389   3.935   3.716   0.674
 3164SOL     OW10390   2.982   5.484   2.651
 3164SOL    HW110391   2.962   5.460   2.556
 3164SOL    HW210392   3.045   5.417   2.690
 3165SOL     OW10393   0.299   5.239   0.195
 3165SOL    HW110394   0.350   5.154   0.212
 3165SOL    HW210395   0.346   5.293   0.125
 3166SOL     OW10396   3.845   1.125   4.850
 3166SOL    HW110397   3.892   1.162   4.930
 3166SOL    HW210398   3.892   1.042   4.821
 3167SOL     OW10399   4.691   4.183   0.134
 3167SOL    HW110400   4.686   4.109   0.201
 3167SOL    HW210401   4.702   4.271   0.181
 3168SOL     OW10402   4.702   2.717   0.974
 3168SOL    HW110403   4.710   2.796   0.913
 3168SOL    HW210404   4.619   2.665   0.950
 3169SOL     OW10405   1.417   4.467   2.300
 3169SOL    HW110406   1.479   4.434   2.370
 3169SOL    HW210407   1.429   4.566   2.289
 3170SOL     OW10408   3.575   5.778   2.883
 3170SOL    HW110409   3.664   5.821   2.876
 3170SOL    HW210410   3.537   5.763   2.791
 3171SOL     OW10411   5.251   3.262   2.706
 3171SOL    HW110412   5.310   3.343   2.703
 3171SOL    HW210413   5.155   3.290   2.694
 3172SOL     OW10414   6.966   4.862   0.109
 3172SOL    HW110415   6.937   4.810   0.028
 3172SOL    HW210416   7.014   4.945   0.079
 3173SOL     OW10417   3.233   1.809   6.911
 3173SOL    HW110418   3.199   1.794   6.818
 3173SOL    HW210419   3.304   1.879   6.910
 3174SOL     OW10420   2.733   3.054   5.656
 3174SOL    HW110421   2.799   3.072   5.729
 3174SOL    HW210422   2.650   3.106   5.673
 3175SOL     OW10423   6.812   1.834   3.639
 3175SOL    HW110424   6.843   1.901   3.571
 3175SOL    HW210425   6.716   1.812   3.623
 3176SOL     OW10426   0.074   4.187   4.946
 3176SOL    HW110427   0.115   4.170   5.035
 3176SOL    HW210428   0.086   4.106   4.888
 3177SOL     OW10429   5.297   4.205   3.063
 3177SOL    HW110430   5.393   4.218   3.039
 3177SOL    HW210431   5.254   4.141   2.998
 3178SOL     OW10432   5.541   1.396   0.263
 3178SOL    HW110433   5.585   1.450   0.335
 3178SOL    HW210434   5.568   1.431   0.173
 3179SOL     OW10435   0.980   1.912   2.407
 3179SOL    HW110436   1.030   1.909   2.320
 3179SOL    HW210437   1.030   1.970   2.472
 3180SOL     OW10438   5.519   6.592   6.537
 3180SOL    HW110439   5.459   6.601   6.458
 3180SOL    HW210440   5.602   6.542   6.510
 3181SOL     OW10441   0.377   1.299   4.268
 3181SOL    HW110442   0.315   1.359   4.317
 3181SOL    HW210443   0.384   1.212   4.316
 3182SOL     OW10444   3.173   0.036   0.852
 3182SOL    HW110445   3.192   6.993   0.776
 3182SOL    HW210446   3.214   7.017   0.936
 3183SOL     OW10447   4.452   4.852   2.575
 3183SOL    HW110448   4.527   4.823   2.516
 3183SOL    HW210449   4.435   4.949   2.562
 3184SOL     OW10450   0.776   2.238   3.380
 3184SOL    HW110451   0.763   2.138   3.379
 3184SOL    HW210452   0.873   2.259   3.389
 3185SOL     OW10453   6.784   6.735   5.375
 3185SOL    HW110454   6.798   6.761   5.470
 3185SOL    HW210455   6.698   6.684   5.366
 3186SOL     OW10456   1.766   0.658   0.290
 3186SOL    HW110457   1.840   0.725   0.278
 3186SOL    HW210458   1.722   0.642   0.202
 3187SOL     OW10459   3.663   5.540   2.470
 3187SOL    HW110460   3.633   5.496   2.554
 3187SOL    HW210461   3.584   5.578   2.422
 3188SOL     OW10462   2.273   4.787   4.890
 3188SOL    HW110463   2.285   4.707   4.950
 3188SOL    HW210464   2.220   4.857   4.938
 3189SOL     OW10465   1.999   0.796   0.317
 3189SOL    HW110466   1.988   0.845   0.403
 3189SOL    HW210467   2.091   0.758   0.311
 3190SOL     OW10468   6.827   5.730   5.280
 3190SOL    HW110469   6.750   5.702   5.337
 3190SOL    HW210470   6.846   5.827   5.293
 3191SOL     OW10471   4.359   5.344   2.023
 3191SOL    HW110472   4.435   5.394   2.065
 3191SOL    HW210473   4.300   5.409   1.974
 3192SOL     OW10474   6.965   2.578   1.605
 3192SOL    HW110475   6.880   2.574   1.659
 3192SOL    HW210476   6.942   2.577   1.508
 3193SOL     OW10477   4.130   1.142   5.059
 3193SOL    HW110478   4.201   1.153   5.129
 3193SOL    HW210479   4.153   1.065   4.999
 3194SOL     OW10480   1.238   1.281   5.383
 3194SOL    HW110481   1.149   1.241   5.362
 3194SOL    HW210482   1.246   1.370   5.337
 3195SOL     OW10483   0.251   1.228   1.942
 3195SOL    HW110484   0.317   1.167   1.897
 3195SOL    HW210485   0.298   1.312   1.970
 3196SOL     OW10486   6.601   0.984   5.555
 3196SOL    HW110487   6.661   1.012   5.481
 3196SOL    HW210488   6.507   0.980   5.522
 3197SOL     OW10489   1.934   6.772   6.196
 3197SOL    HW110490   2.013   6.710   6.193
 3197SOL    HW210491   1.912   6.803   6.104
 3198SOL     OW10492   6.530   2.388   4.049
 3198SOL    HW110493   6.490   2.477   4.023
 3198SOL    HW210494   6.457   2.323   4.067
 3199SOL     OW10495   5.378   4.893   2.845
 3199SOL    HW110496   5.359   4.991   2.837
 3199SOL    HW210497   5.297   4.841   2.818
 3200SOL     OW10498   6.089   3.343   4.322
 3200SOL    HW110499   6.043   3.271   4.268
 3200SOL    HW210500   6.187   3.323   4.327
 3201SOL     OW10501   6.481   4.588   3.221
 3201SOL    HW110502   6.388   4.624   3.214
 3201SOL    HW210503   6.481   4.507   3.280
 3202SOL     OW10504   0.954   5.194   0.721
 3202SOL    HW110505   0.883   5.145   0.670
 3202SOL    HW210506   0.975   5.145   0.805
 3203SOL     OW10507   4.489   0.236   1.291
 3203SOL    HW110508   4.501   0.177   1.371
 3203SOL    HW210509   4.554   0.209   1.220
 3204SOL     OW10510   2.775   1.673   3.612
 3204SOL    HW110511   2.841   1.735   3.569
 3204SOL    HW210512   2.817   1.584   3.625
 3205SOL     OW10513   5.467   3.341   5.856
 3205SOL    HW110514   5.494   3.436   5.871
 3205SOL    HW210515   5.417   3.308   5.936
 3206SOL     OW10516   2.587   2.888   1.449
 3206SOL    HW110517   2.546   2.904   1.360
 3206SOL    HW210518   2.557   2.959   1.513
 3207SOL     OW10519   1.072   0.577   5.844
 3207SOL    HW110520   1.126   0.556   5.763
 3207SOL    HW210521   1.122   0.549   5.926
 3208SOL     OW10522   5.919   5.852   5.337
 3208SOL    HW110523   5.824   5.870   5.311
 3208SOL    HW210524   5.921   5.783   5.410
 3209SOL     OW10525   3.892   5.274   5.317
 3209SOL    HW110526   3.848   5.297   5.229
 3209SOL    HW210527   3.842   5.199   5.361
 3210SOL     OW10528   0.182   5.145   1.888
 3210SOL    HW110529   0.112   5.203   1.846
 3210SOL    HW210530   0.150   5.112   1.976
 3211SOL     OW10531   1.492   4.835   0.786
 3211SOL    HW110532   1.434   4.755   0.802
 3211SOL    HW210533   1.582   4.820   0.826
 3212SOL     OW10534   3.163   0.346   2.403
 3212SOL    HW110535   3.121   0.434   2.384
 3212SOL    HW210536   3.261   0.351   2.384
 3213SOL     OW10537   1.843   0.554   6.199
 3213SOL    HW110538   1.773   0.537   6.129
 3213SOL    HW210539   1.802   0.543   6.289
 3214SOL     OW10540   4.738   6.997   3.832
 3214SOL    HW110541   4.690   6.973   3.748
 3214SOL    HW210542   4.817   6.936   3.844
 3215SOL     OW10543   1.284   3.227   0.458
 3215SOL    HW110544   1.363   3.286   0.474
 3215SOL    HW210545   1.254   3.236   0.363
 3216SOL     OW10546   5.939   5.142   1.490
 3216SOL    HW110547   5.880   5.178   1.419
 3216SOL    HW210548   6.016   5.204   1.505
 3217SOL     OW10549   7.006   5.381   3.270
 3217SOL    HW110550   6.945   5.457   3.293
 3217SOL    HW210551   6.979   5.343   3.181
 3218SOL     OW10552   5.823   2.521   3.661
 3218SOL    HW110553   5.840   2.453   3.733
 3218SOL    HW210554   5.737   2.499   3.614
 3219SOL     OW10555   6.690   1.063   4.782
 3219SOL    HW110556   6.692   1.107   4.692
 3219SOL    HW210557   6.596   1.046   4.809
 3220SOL     OW10558   0.208   6.031   6.624
 3220SOL    HW110559   0.280   5.991   6.567
 3220SOL    HW210560   0.250   6.068   6.707
 3221SOL     OW10561   4.069   0.081   2.552
 3221SOL    HW110562   4.007   0.009   2.522
 3221SOL    HW210563   4.074   0.153   2.482
 3222SOL     OW10564   3.007   1.145   3.311
 3222SOL    HW110565   3.098   1.185   3.301
 3222SOL    HW210566   3.016   1.048   3.335
 3223SOL     OW10567   1.945   6.422   0.612
 3223SOL    HW110568   1.911   6.435   0.705
 3223SOL    HW210569   1.868   6.415   0.549
 3224SOL     OW10570   5.194   2.457   4.868
 3224SOL    HW110571   5.249   2.534   4.836
 3224SOL    HW210572   5.097   2.480   4.862
 3225SOL     OW10573   4.184   1.524   3.977
 3225SOL    HW110574   4.153   1.619   3.984
 3225SOL    HW210575   4.132   1.477   3.907
 3226SOL     OW10576   1.760   6.937   2.178
 3226SOL    HW110577   1.704   6.871   2.228
 3226SOL    HW210578   1.814   6.991   2.243
 3227SOL     OW10579   3.353   2.596   6.418
 3227SOL    HW110580   3.421   2.634   6.355
 3227SOL    HW210581   3.386   2.508   6.453
 3228SOL     OW10582   0.445   4.189   0.783
 3228SOL    HW110583   0.379   4.148   0.721
 3228SOL    HW210584   0.536   4.188   0.741
 3229SOL     OW10585   3.443   0.500   5.604
 3229SOL    HW110586   3.416   0.418   5.554
 3229SOL    HW210587   3.517   0.547   5.554
 3230SOL     OW10588   2.336   5.608   6.430
 3230SOL    HW110589   2.351   5.688   6.372
 3230SOL    HW210590   2.415   5.547   6.424
 3231SOL     OW10591   3.047   1.138   2.498
 3231SOL    HW110592   3.135   1.120   2.543
 3231SOL    HW210593   2.992   1.197   2.556
 3232SOL     OW10594   3.483   5.938   3.963
 3232SOL    HW110595   3.512   5.846   3.934
 3232SOL    HW210596   3.387   5.936   3.988
 3233SOL     OW10597   6.880   2.542   0.574
 3233SOL    HW110598   6.852   2.593   0.655
 3233SOL    HW210599   6.864   2.598   0.493
 3234SOL     OW10600   1.715   2.740   0.331
 3234SOL    HW110601   1.643   2.681   0.296
 3234SOL    HW210602   1.711   2.828   0.282
 3235SOL     OW10603   5.862   5.580   1.765
 3235SOL    HW110604   5.935   5.551   1.703
 3235SOL    HW210605   5.856   5.517   1.842
 3236SOL     OW10606   2.425   3.293   0.236
 3236SOL    HW110607   2.326   3.283   0.247
 3236SOL    HW210608   2.472   3.242   0.307
 3237SOL     OW10609   6.114   1.900   4.322
 3237SOL    HW110610   6.064   1.906   4.408
 3237SOL    HW210611   6.192   1.838   4.332
 3238SOL     OW10612   6.118   5.356   0.276
 3238SOL    HW110613   6.171   5.383   0.196
 3238SOL    HW210614   6.132   5.259   0.295
 3239SOL     OW10615   0.124   0.236   3.746
 3239SOL    HW110616   0.173   0.246   3.832
 3239SOL    HW210617   0.039   0.186   3.761
 3240SOL     OW10618   6.958   0.856   6.535
 3240SOL    HW110619   6.976   0.937   6.479
 3240SOL    HW210620   7.010   0.862   6.620
 3241SOL     OW10621   4.853   2.203   6.897
 3241SOL    HW110622   4.868   2.104   6.905
 3241SOL    HW210623   4.801   2.223   6.815
 3242SOL     OW10624   5.191   3.974   5.608
 3242SOL    HW110625   5.235   4.058   5.578
 3242SOL    HW210626   5.092   3.985   5.604
 3243SOL     OW10627   4.736   5.725   6.577
 3243SOL    HW110628   4.809   5.667   6.614
 3243SOL    HW210629   4.664   5.667   6.539
 3244SOL     OW10630   5.504   6.097   0.320
 3244SOL    HW110631   5.594   6.077   0.281
 3244SOL    HW210632   5.501   6.194   0.346
 3245SOL     OW10633   4.802   2.500   4.264
 3245SOL    HW110634   4.786   2.566   4.191
 3245SOL    HW210635   4.783   2.408   4.230
 3246SOL     OW10636   6.945   0.222   2.820
 3246SOL    HW110637   6.964   0.138   2.770
 3246SOL    HW210638   6.846   0.233   2.831
 3247SOL     OW10639   0.295   4.413   2.796
 3247SOL    HW110640   0.265   4.499   2.836
 3247SOL    HW210641   0.216   4.367   2.754
 3248SOL     OW10642   5.891   2.888   2.460
 3248SOL    HW110643   5.936   2.955   2.401
 3248SOL    HW210644   5.793   2.887   2.439
 3249SOL     OW10645   3.624   3.540   3.985
 3249SOL    HW110646   3.658   3.617   3.930
 3249SOL    HW210647   3.526   3.552   4.002
 3250SOL     OW10648   5.063   6.511   3.744
 3250SOL    HW110649   4.991   6.493   3.676
 3250SOL    HW210650   5.140   6.556   3.699
 3251SOL     OW10651   2.785   1.036   4.715
 3251SOL    HW110652   2.883   1.039   4.692
 3251SOL    HW210653   2.742   1.122   4.689
 3252SOL     OW10654   3.033   1.353   3.044
 3252SOL    HW110655   3.049   1.254   3.033
 3252SOL    HW210656   2.935   1.371   3.044
 3253SOL     OW10657   4.754   3.858   1.078
 3253SOL    HW110658   4.840   3.844   1.129
 3253SOL    HW210659   4.704   3.771   1.075
 3254SOL     OW10660   5.201   6.983   6.372
 3254SOL    HW110661   5.125   6.926   6.341
 3254SOL    HW210662   5.266   6.926   6.423
 3255SOL     OW10663   5.782   5.834   0.806
 3255SOL    HW110664   5.877   5.821   0.834
 3255SOL    HW210665   5.775   5.916   0.749
 3256SOL     OW10666   4.458   2.178   1.059
 3256SOL    HW110667   4.498   2.184   1.150
 3256SOL    HW210668   4.437   2.270   1.026
 3257SOL     OW10669   3.013   2.101   2.166
 3257SOL    HW110670   3.112   2.092   2.160
 3257SOL    HW210671   2.982   2.172   2.104
 3258SOL     OW10672   3.180   5.179   3.576
 3258SOL    HW110673   3.254   5.115   3.552
 3258SOL    HW210674   3.126   5.199   3.495
 3259SOL     OW10675   5.376   4.697   3.901
 3259SOL    HW110676   5.442   4.639   3.852
 3259SOL    HW210677   5.406   4.708   3.996
 3260SOL     OW10678   1.952   3.988   1.887
 3260SOL    HW110679   1.927   3.970   1.792
 3260SOL    HW210680   1.934   3.907   1.943
 3261SOL     OW10681   5.437   0.407   2.518
 3261SOL    HW110682   5.405   0.313   2.503
 3261SOL    HW210683   5.494   0.435   2.441
 3262SOL     OW10684   4.107   2.154   2.365
 3262SOL    HW110685   4.059   2.098   2.297
 3262SOL    HW210686   4.202   2.166   2.337
 3263SOL     OW10687   3.045   0.900   3.422
 3263SOL    HW110688   3.096   0.837   3.364
 3263SOL    HW210689   3.032   0.859   3.512
 3264SOL     OW10690   1.772   4.864   0.625
 3264SOL    HW110691   1.726   4.904   0.546
 3264SOL    HW210692   1.871   4.864   0.609
 3265SOL     OW10693   6.229   6.420   5.530
 3265SOL    HW110694   6.277   6.463   5.453
 3265SOL    HW210695   6.194   6.492   5.590
 3266SOL     OW10696   2.554   4.571   0.130
 3266SOL    HW110697   2.632   4.513   0.106
 3266SOL    HW210698   2.479   4.514   0.164
 3267SOL     OW10699   3.803   0.322   1.540
 3267SOL    HW110700   3.732   0.310   1.471
 3267SOL    HW210701   3.892   0.303   1.499
 3268SOL     OW10702   0.761   4.869   1.590
 3268SOL    HW110703   0.673   4.914   1.606
 3268SOL    HW210704   0.822   4.884   1.667
 3269SOL     OW10705   0.598   5.229   2.444
 3269SOL    HW110706   0.556   5.160   2.386
 3269SOL    HW210707   0.595   5.199   2.539
 3270SOL     OW10708   1.397   3.242   6.606
 3270SOL    HW110709   1.433   3.298   6.680
 3270SOL    HW210710   1.472   3.214   6.546
 3271SOL     OW10711   6.491   3.351   1.429
 3271SOL    HW110712   6.438   3.390   1.504
 3271SOL    HW210713   6.533   3.265   1.459
 3272SOL     OW10714   3.521   4.742   6.543
 3272SOL    HW110715   3.507   4.794   6.627
 3272SOL    HW210716   3.445   4.678   6.531
 3273SOL     OW10717   5.238   4.390   6.135
 3273SOL    HW110718   5.146   4.423   6.115
 3273SOL    HW210719   5.242   4.291   6.122
 3274SOL     OW10720   5.916   0.279   0.222
 3274SOL    HW110721   5.879   0.332   0.298
 3274SOL    HW210722   5.944   0.341   0.149
 3275SOL     OW10723   4.242   1.017   0.561
 3275SOL    HW110724   4.266   0.943   0.624
 3275SOL    HW210725   4.313   1.088   0.565
 3276SOL     OW10726   4.438   6.730   0.259
 3276SOL    HW110727   4.398   6.814   0.222
 3276SOL    HW210728   4.534   6.746   0.280
 3277SOL     OW10729   2.836   1.305   1.118
 3277SOL    HW110730   2.872   1.356   1.040
 3277SOL    HW210731   2.740   1.281   1.102
 3278SOL     OW10732   0.277   0.435   5.685
 3278SOL    HW110733   0.216   0.366   5.645
 3278SOL    HW210734   0.223   0.513   5.717
 3279SOL     OW10735   4.332   6.436   0.654
 3279SOL    HW110736   4.334   6.536   0.656
 3279SOL    HW210737   4.238   6.405   0.641
 3280SOL     OW10738   5.220   4.496   4.122
 3280SOL    HW110739   5.176   4.449   4.046
 3280SOL    HW210740   5.206   4.444   4.206
 3281SOL     OW10741   6.905   4.794   1.349
 3281SOL    HW110742   6.971   4.727   1.314
 3281SOL    HW210743   6.846   4.825   1.274
 3282SOL     OW10744   0.377   3.728   5.252
 3282SOL    HW110745   0.398   3.633   5.272
 3282SOL    HW210746   0.460   3.783   5.264
 3283SOL     OW10747   3.861   1.275   1.088
 3283SOL    HW110748   3.790   1.215   1.051
 3283SOL    HW210749   3.833   1.308   1.178
 3284SOL     OW10750   1.026   5.154   4.627
 3284SOL    HW110751   1.107   5.182   4.678
 3284SOL    HW210752   0.964   5.105   4.687
 3285SOL     OW10753   5.682   2.006   4.624
 3285SOL    HW110754   5.598   1.956   4.602
 3285SOL    HW210755   5.664   2.104   4.617
 3286SOL     OW10756   3.468   2.462   1.665
 3286SOL    HW110757   3.381   2.426   1.698
 3286SOL    HW210758   3.543   2.415   1.712
 3287SOL     OW10759   0.561   0.442   0.176
 3287SOL    HW110760   0.598   0.479   0.261
 3287SOL    HW210761   0.499   0.366   0.198
 3288SOL     OW10762   1.682   6.449   0.906
 3288SOL    HW110763   1.596   6.431   0.955
 3288SOL    HW210764   1.753   6.388   0.940
 3289SOL     OW10765   2.991   1.807   6.677
 3289SOL    HW110766   2.973   1.852   6.589
 3289SOL    HW210767   2.983   1.874   6.751
 3290SOL     OW10768   6.738   5.552   0.504
 3290SOL    HW110769   6.716   5.628   0.442
 3290SOL    HW210770   6.659   5.532   0.562
 3291SOL     OW10771   3.928   0.806   5.930
 3291SOL    HW110772   3.949   0.901   5.953
 3291SOL    HW210773   3.959   0.747   6.005
 3292SOL     OW10774   6.923   1.087   0.997
 3292SOL    HW110775   6.970   1.023   0.937
 3292SOL    HW210776   6.847   1.130   0.948
 3293SOL     OW10777   6.737   4.633   2.328
 3293SOL    HW110778   6.799   4.572   2.279
 3293SOL    HW210779   6.667   4.668   2.266
 3294SOL     OW10780   5.149   1.814   5.953
 3294SOL    HW110781   5.157   1.799   5.854
 3294SOL    HW210782   5.209   1.890   5.979
 3295SOL     OW10783   1.707   3.177   0.742
 3295SOL    HW110784   1.803   3.184   0.769
 3295SOL    HW210785   1.656   3.253   0.782
 3296SOL     OW10786   6.643   0.255   5.015
 3296SOL    HW110787   6.669   0.180   4.954
 3296SOL    HW210788   6.630   0.220   5.107
 3297SOL     OW10789   3.408   1.893   5.014
 3297SOL    HW110790   3.349   1.936   5.083
 3297SOL    HW210791   3.500   1.885   5.050
 3298SOL     OW10792   6.525   3.063   5.476
 3298SOL    HW110793   6.581   3.146   5.473
 3298SOL    HW210794   6.455   3.074   5.546
 3299SOL     OW10795   4.399   5.800   3.086
 3299SOL    HW110796   4.387   5.869   3.157
 3299SOL    HW210797   4.315   5.793   3.032
 3300SOL     OW10798   2.063   0.397   5.615
 3300SOL    HW110799   1.969   0.382   5.584
 3300SOL    HW210800   2.063   0.414   5.714
 3301SOL     OW10801   1.637   3.234   2.792
 3301SOL    HW110802   1.599   3.317   2.751
 3301SOL    HW210803   1.573   3.159   2.781
 3302SOL     OW10804   1.329   4.530   6.712
 3302SOL    HW110805   1.247   4.585   6.728
 3302SOL    HW210806   1.302   4.439   6.681
 3303SOL     OW10807   3.690   3.259   0.554
 3303SOL    HW110808   3.596   3.277   0.526
 3303SOL    HW210809   3.714   3.164   0.531
 3304SOL     OW10810   2.357   4.805   6.028
 3304SOL    HW110811   2.307   4.737   6.082
 3304SOL    HW210812   2.294   4.848   5.964
 3305SOL     OW10813   3.224   0.428   1.637
 3305SOL    HW110814   3.239   0.337   1.676
 3305SOL    HW210815   3.142   0.468   1.679
 3306SOL     OW10816   1.261   5.870   5.951
 3306SOL    HW110817   1.217   5.783   5.973
 3306SOL    HW210818   1.191   5.941   5.939
 3307SOL     OW10819   1.061   0.049   6.173
 3307SOL    HW110820   1.084   0.095   6.258
 3307SOL    HW210821   0.967   0.072   6.147
 3308SOL     OW10822   3.897   4.753   1.061
 3308SOL    HW110823   3.931   4.784   0.973
 3308SOL    HW210824   3.969   4.704   1.110
 3309SOL     OW10825   5.294   4.292   3.872
 3309SOL    HW110826   5.203   4.334   3.875
 3309SOL    HW210827   5.296   4.224   3.799
 3310SOL     OW10828   0.499   4.226   4.898
 3310SOL    HW110829   0.468   4.212   4.804
 3310SOL    HW210830   0.482   4.321   4.925
 3311SOL     OW10831   3.577   3.336   1.259
 3311SOL    HW110832   3.489   3.294   1.234
 3311SOL    HW210833   3.640   3.266   1.291
 3312SOL     OW10834   4.143   2.875   5.885
 3312SOL    HW110835   4.051   2.916   5.887
 3312SOL    HW210836   4.211   2.946   5.869
 3313SOL     OW10837   0.773   0.616   3.013
 3313SOL    HW110838   0.723   0.536   2.982
 3313SOL    HW210839   0.861   0.621   2.966
 3314SOL     OW10840   2.744   0.478   2.738
 3314SOL    HW110841   2.731   0.555   2.801
 3314SOL    HW210842   2.656   0.432   2.723
 3315SOL     OW10843   0.892   4.484   5.354
 3315SOL    HW110844   0.946   4.493   5.438
 3315SOL    HW210845   0.813   4.424   5.371
 3316SOL     OW10846   3.596   1.002   5.477
 3316SOL    HW110847   3.597   1.025   5.575
 3316SOL    HW210848   3.516   1.045   5.434
 3317SOL     OW10849   5.558   1.552   2.574
 3317SOL    HW110850   5.613   1.469   2.563
 3317SOL    HW210851   5.611   1.631   2.543
 3318SOL     OW10852   2.116   1.255   6.629
 3318SOL    HW110853   2.018   1.239   6.611
 3318SOL    HW210854   2.151   1.323   6.565
 3319SOL     OW10855   6.494   0.132   2.991
 3319SOL    HW110856   6.517   0.155   3.086
 3319SOL    HW210857   6.533   0.200   2.930
 3320SOL     OW10858   6.510   0.307   0.128
 3320SOL    HW110859   6.591   0.298   0.070
 3320SOL    HW210860   6.536   0.294   0.224
 3321SOL     OW10861   6.163   1.429   1.055
 3321SOL    HW110862   6.139   1.503   1.118
 3321SOL    HW210863   6.145   1.341   1.100
 3322SOL     OW10864   6.829   3.171   0.802
 3322SOL    HW110865   6.787   3.243   0.856
 3322SOL    HW210866   6.875   3.106   0.862
 3323SOL     OW10867   2.415   1.732   0.912
 3323SOL    HW110868   2.402   1.637   0.942
 3323SOL    HW210869   2.451   1.787   0.987
 3324SOL     OW10870   4.191   5.261   5.294
 3324SOL    HW110871   4.096   5.292   5.292
 3324SOL    HW210872   4.252   5.340   5.300
 3325SOL     OW10873   0.374   3.251   6.220
 3325SOL    HW110874   0.309   3.271   6.147
 3325SOL    HW210875   0.428   3.333   6.241
 3326SOL     OW10876   4.651   1.220   2.265
 3326SOL    HW110877   4.694   1.171   2.189
 3326SOL    HW210878   4.552   1.202   2.265
 3327SOL     OW10879   2.192   5.863   2.047
 3327SOL    HW110880   2.204   5.766   2.023
 3327SOL    HW210881   2.132   5.906   1.980
 3328SOL     OW10882   3.284   1.622   1.214
 3328SOL    HW110883   3.311   1.544   1.158
 3328SOL    HW210884   3.326   1.705   1.177
 3329SOL     OW10885   5.980   0.378   5.198
 3329SOL    HW110886   6.007   0.406   5.106
 3329SOL    HW210887   6.048   0.410   5.264
 3330SOL     OW10888   6.843   3.666   2.038
 3330SOL    HW110889   6.921   3.636   2.093
 3330SOL    HW210890   6.805   3.750   2.077
 3331SOL     OW10891   2.231   2.844   1.290
 3331SOL    HW110892   2.143   2.882   1.260
 3331SOL    HW210893   2.219   2.799   1.378
 3332SOL     OW10894   5.432   5.663   0.008
 3332SOL    HW110895   5.456   5.740   6.968
 3332SOL    HW210896   5.349   5.620   6.993
 3333SOL     OW10897   4.875   5.530   6.718
 3333SOL    HW110898   4.813   5.452   6.713
 3333SOL    HW210899   4.965   5.504   6.682
 3334SOL     OW10900   3.322   3.233   1.192
 3334SOL    HW110901   3.309   3.201   1.285
 3334SOL    HW210902   3.236   3.226   1.141
 3335SOL     OW10903   4.523   5.587   5.356
 3335SOL    HW110904   4.558   5.617   5.267
 3335SOL    HW210905   4.481   5.497   5.347
 3336SOL     OW10906   2.837   5.247   5.399
 3336SOL    HW110907   2.806   5.312   5.329
 3336SOL    HW210908   2.914   5.195   5.364
 3337SOL     OW10909   3.401   2.410   1.376
 3337SOL    HW110910   3.320   2.352   1.362
 3337SOL    HW210911   3.401   2.445   1.470
 3338SOL     OW10912   6.634   3.668   1.010
 3338SOL    HW110913   6.728   3.689   0.983
 3338SOL    HW210914   6.620   3.569   1.008
 3339SOL     OW10915   0.005   6.263   6.901
 3339SOL    HW110916   0.039   6.204   6.974
 3339SOL    HW210917   6.942   6.312   6.933
 3340SOL     OW10918   3.602   6.735   1.494
 3340SOL    HW110919   3.575   6.728   1.590
 3340SOL    HW210920   3.615   6.831   1.470
 3341SOL     OW10921   0.740   0.132   3.539
 3341SOL    HW110922   0.727   0.033   3.535
 3341SOL    HW210923   0.729   0.170   3.448
 3342SOL     OW10924   2.022   0.009   3.573
 3342SOL    HW110925   2.109   0.002   3.524
 3342SOL    HW210926   1.956   0.060   3.519
 3343SOL     OW10927   5.052   3.202   0.361
 3343SOL    HW110928   5.087   3.281   0.412
 3343SOL    HW210929   4.953   3.207   0.355
 3344SOL     OW10930   5.552   4.241   5.110
 3344SOL    HW110931   5.549   4.154   5.060
 3344SOL    HW210932   5.551   4.222   5.208
 3345SOL     OW10933   2.796   3.562   6.269
 3345SOL    HW110934   2.838   3.589   6.356
 3345SOL    HW210935   2.780   3.643   6.213
 3346SOL     OW10936   0.685   0.972   2.310
 3346SOL    HW110937   0.721   1.025   2.233
 3346SOL    HW210938   0.756   0.964   2.380
 3347SOL     OW10939   6.740   4.656   3.255
 3347SOL    HW110940   6.783   4.609   3.179
 3347SOL    HW210941   6.643   4.670   3.235
 3348SOL     OW10942   3.429   3.092   4.004
 3348SOL    HW110943   3.383   3.023   3.949
 3348SOL    HW210944   3.505   3.131   3.952
 3349SOL     OW10945   0.385   4.785   4.382
 3349SOL    HW110946   0.403   4.878   4.416
 3349SOL    HW210947   0.471   4.739   4.365
 3350SOL     OW10948   1.515   1.618   6.618
 3350SOL    HW110949   1.504   1.534   6.671
 3350SOL    HW210950   1.575   1.681   6.668
 3351SOL     OW10951   5.216   0.732   2.018
 3351SOL    HW110952   5.127   0.709   1.980
 3351SOL    HW210953   5.225   0.691   2.109
 3352SOL     OW10954   0.036   3.716   6.903
 3352SOL    HW110955   6.982   3.656   6.936
 3352SOL    HW210956   0.124   3.668   6.909
 3353SOL     OW10957   1.673   6.586   1.521
 3353SOL    HW110958   1.632   6.672   1.553
 3353SOL    HW210959   1.627   6.557   1.437
 3354SOL     OW10960   6.654   2.728   3.704
 3354SOL    HW110961   6.670   2.708   3.801
 3354SOL    HW210962   6.561   2.764   3.693
 3355SOL     OW10963   0.841   1.817   0.205
 3355SOL    HW110964   0.884   1.765   0.279
 3355SOL    HW210965   0.742   1.809   0.212
 3356SOL     OW10966   2.879   2.881   0.262
 3356SOL    HW110967   2.783   2.871   0.287
 3356SOL    HW210968   2.936   2.867   0.343
 3357SOL     OW10969   2.136   4.837   1.357
 3357SOL    HW110970   2.071   4.909   1.333
 3357SOL    HW210971   2.089   4.767   1.411
 3358SOL     OW10972   4.762   6.265   1.696
 3358SOL    HW110973   4.808   6.203   1.760
 3358SOL    HW210974   4.708   6.211   1.631
 3359SOL     OW10975   0.069   0.523   3.597
 3359SOL    HW110976   0.059   0.429   3.630
 3359SOL    HW210977   0.161   0.556   3.619
 3360SOL     OW10978   0.157   0.969   0.954
 3360SOL    HW110979   0.177   0.906   1.029
 3360SOL    HW210980   0.220   0.952   0.878
 3361SOL     OW10981   6.591   5.405   2.909
 3361SOL    HW110982   6.625   5.498   2.900
 3361SOL    HW210983   6.617   5.368   2.999
 3362SOL     OW10984   2.973   1.169   5.198
 3362SOL    HW110985   2.944   1.245   5.141
 3362SOL    HW210986   3.025   1.104   5.143
 3363SOL     OW10987   0.346   0.697   6.235
 3363SOL    HW110988   0.356   0.598   6.226
 3363SOL    HW210989   0.336   0.721   6.331
 3364SOL     OW10990   0.932   5.399   5.829
 3364SOL    HW110991   0.865   5.348   5.776
 3364SOL    HW210992   0.885   5.458   5.894
 3365SOL     OW10993   0.738   2.560   4.273
 3365SOL    HW110994   0.830   2.573   4.310
 3365SOL    HW210995   0.681   2.513   4.341
 3366SOL     OW10996   5.600   0.990   4.485
 3366SOL    HW110997   5.693   0.959   4.506
 3366SOL    HW210998   5.557   0.925   4.422
 3367SOL     OW10999   2.366   2.732   1.861
 3367SOL    HW111000   2.405   2.644   1.832
 3367SOL    HW211001   2.401   2.805   1.802
 3368SOL     OW11002   6.718   5.309   6.536
 3368SOL    HW111003   6.632   5.271   6.502
 3368SOL    HW211004   6.700   5.385   6.597
 3369SOL     OW11005   3.312   1.721   0.208
 3369SOL    HW111006   3.272   1.686   0.124
 3369SOL    HW211007   3.297   1.657   0.282
 3370SOL     OW11008   6.449   6.603   5.109
 3370SOL    HW111009   6.477   6.575   5.017
 3370SOL    HW211010   6.354   6.574   5.124
 3371SOL     OW11011   1.249   4.336   2.524
 3371SOL    HW111012   1.304   4.376   2.450
 3371SOL    HW211013   1.172   4.286   2.485
 3372SOL     OW11014   0.432   1.412   2.077
 3372SOL    HW111015   0.528   1.391   2.056
 3372SOL    HW211016   0.413   1.386   2.172
 3373SOL     OW11017   6.166   1.365   4.345
 3373SOL    HW111018   6.241   1.299   4.347
 3373SOL    HW211019   6.088   1.325   4.296
 3374SOL     OW11020   3.640   5.969   4.839
 3374SOL    HW111021   3.563   6.023   4.873
 3374SOL    HW211022   3.719   5.982   4.900
 3375SOL     OW11023   4.395   4.759   4.827
 3375SOL    HW111024   4.368   4.751   4.731
 3375SOL    HW211025   4.399   4.668   4.868
 3376SOL     OW11026   3.967   3.408   3.129
 3376SOL    HW111027   4.046   3.456   3.165
 3376SOL    HW211028   3.993   3.359   3.045
 3377SOL     OW11029   0.844   6.222   4.624
 3377SOL    HW111030   0.922   6.256   4.675
 3377SOL    HW211031   0.762   6.226   4.681
 3378SOL     OW11032   6.688   0.717   1.137
 3378SOL    HW111033   6.765   0.753   1.190
 3378SOL    HW211034   6.685   0.762   1.048
 3379SOL     OW11035   0.356   4.167   5.792
 3379SOL    HW111036   0.329   4.071   5.785
 3379SOL    HW211037   0.279   4.220   5.828
 3380SOL     OW11038   6.843   5.794   6.022
 3380SOL    HW111039   6.770   5.757   6.079
 3380SOL    HW211040   6.804   5.854   5.953
 3381SOL     OW11041   1.947   2.050   0.271
 3381SOL    HW111042   1.941   2.042   0.172
 3381SOL    HW211043   1.862   2.087   0.307
 3382SOL     OW11044   0.724   1.263   0.516
 3382SOL    HW111045   0.641   1.282   0.463
 3382SOL    HW211046   0.714   1.300   0.608
 3383SOL     OW11047   6.004   5.009   2.610
 3383SOL    HW111048   6.078   4.942   2.615
 3383SOL    HW211049   5.934   4.977   2.547
 3384SOL     OW11050   3.007   2.930   5.345
 3384SOL    HW111051   2.930   2.980   5.305
 3384SOL    HW211052   3.051   2.987   5.414
 3385SOL     OW11053   0.083   4.361   3.864
 3385SOL    HW111054   0.097   4.394   3.770
 3385SOL    HW211055   0.167   4.374   3.916
 3386SOL     OW11056   5.936   3.430   5.416
 3386SOL    HW111057   6.001   3.468   5.482
 3386SOL    HW211058   5.850   3.479   5.422
 3387SOL     OW11059   2.272   1.417   2.943
 3387SOL    HW111060   2.319   1.369   3.017
 3387SOL    HW211061   2.178   1.435   2.969
 3388SOL     OW11062   5.547   3.462   1.248
 3388SOL    HW111063   5.598   3.384   1.285
 3388SOL    HW211064   5.459   3.431   1.213
 3389SOL     OW11065   4.531   4.551   4.511
 3389SOL    HW111066   4.611   4.612   4.512
 3389SOL    HW211067   4.546   4.478   4.444
 3390SOL     OW11068   5.006   3.640   5.721
 3390SOL    HW111069   4.935   3.577   5.689
 3390SOL    HW211070   5.088   3.588   5.747
 3391SOL     OW11071   4.361   2.018   4.617
 3391SOL    HW111072   4.303   2.097   4.638
 3391SOL    HW211073   4.457   2.044   4.629
 3392SOL     OW11074   2.754   0.771   3.970
 3392SOL    HW111075   2.822   0.808   3.906
 3392SOL    HW211076   2.664   0.810   3.949
 3393SOL     OW11077   6.116   6.261   0.563
 3393SOL    HW111078   6.200   6.267   0.618
 3393SOL    HW211079   6.045   6.319   0.604
 3394SOL     OW11080   5.713   3.327   0.958
 3394SOL    HW111081   5.754   3.418   0.958
 3394SOL    HW211082   5.754   3.272   1.030
 3395SOL     OW11083   6.617   2.921   4.154
 3395SOL    HW111084   6.681   2.943   4.079
 3395SOL    HW211085   6.532   2.886   4.116
 3396SOL     OW11086   0.718   3.019   3.546
 3396SOL    HW111087   0.715   2.924   3.577
 3396SOL    HW211088   0.713   3.021   3.446
 3397SOL     OW11089   3.371   1.217   5.297
 3397SOL    HW111090   3.283   1.187   5.335
 3397SOL    HW211091   3.394   1.159   5.219
 3398SOL     OW11092   0.943   6.908   4.493
 3398SOL    HW111093   0.996   6.824   4.484
 3398SOL    HW211094   0.921   6.923   4.589
 3399SOL     OW11095   4.617   4.471   3.974
 3399SOL    HW111096   4.605   4.421   3.889
 3399SOL    HW211097   4.671   4.416   4.038
 3400SOL     OW11098   3.890   1.825   5.810
 3400SOL    HW111099   3.861   1.805   5.717
 3400SOL    HW211100   3.980   1.785   5.827
 3401SOL     OW11101   0.118   3.992   0.855
 3401SOL    HW111102   0.113   3.931   0.776
 3401SOL    HW211103   0.210   3.989   0.894
 3402SOL     OW11104   4.918   5.891   0.864
 3402SOL    HW111105   4.984   5.963   0.884
 3402SOL    HW211106   4.877   5.908   0.774
 3403SOL     OW11107   3.924   0.618   5.305
 3403SOL    HW111108   3.944   0.668   5.220
 3403SOL    HW211109   3.840   0.566   5.293
 3404SOL     OW11110   4.018   1.837   0.849
 3404SOL    HW111111   4.071   1.819   0.932
 3404SOL    HW211112   4.012   1.753   0.795
 3405SOL     OW11113   6.522   3.487   4.761
 3405SOL    HW111114   6.423   3.497   4.773
 3405SOL    HW211115   6.540   3.411   4.698
 3406SOL     OW11116   1.904   3.942   1.631
 3406SOL    HW111117   1.852   3.933   1.546
 3406SOL    HW211118   1.937   3.853   1.659
 3407SOL     OW11119   1.665   5.222   1.414
 3407SOL    HW111120   1.605   5.145   1.391
 3407SOL    HW211121   1.649   5.250   1.509
 3408SOL     OW11122   4.765   4.329   4.166
 3408SOL    HW111123   4.718   4.326   4.254
 3408SOL    HW211124   4.854   4.285   4.175
 3409SOL     OW11125   3.879   6.830   5.299
 3409SOL    HW111126   3.787   6.807   5.330
 3409SOL    HW211127   3.933   6.747   5.289
 3410SOL     OW11128   6.192   6.216   6.746
 3410SOL    HW111129   6.206   6.245   6.841
 3410SOL    HW211130   6.174   6.296   6.689
 3411SOL     OW11131   6.493   3.248   1.889
 3411SOL    HW111132   6.423   3.267   1.820
 3411SOL    HW211133   6.468   3.166   1.939
 3412SOL     OW11134   4.048   2.867   6.454
 3412SOL    HW111135   4.089   2.958   6.454
 3412SOL    HW211136   4.016   2.845   6.362
 3413SOL     OW11137   4.322   1.733   2.760
 3413SOL    HW111138   4.292   1.638   2.769
 3413SOL    HW211139   4.246   1.788   2.725
 3414SOL     OW11140   3.147   1.137   5.415
 3414SOL    HW111141   3.075   1.138   5.345
 3414SOL    HW211142   3.150   1.046   5.457
 3415SOL     OW11143   1.476   3.907   4.616
 3415SOL    HW111144   1.386   3.870   4.594
 3415SOL    HW211145   1.465   3.995   4.662
 3416SOL     OW11146   6.541   4.499   6.156
 3416SOL    HW111147   6.459   4.494   6.212
 3416SOL    HW211148   6.561   4.409   6.118
 3417SOL     OW11149   6.154   5.983   2.553
 3417SOL    HW111150   6.249   5.956   2.568
 3417SOL    HW211151   6.094   5.921   2.604
 3418SOL     OW11152   4.542   0.533   4.448
 3418SOL    HW111153   4.580   0.625   4.452
 3418SOL    HW211154   4.612   0.467   4.475
 3419SOL     OW11155   3.605   5.674   5.756
 3419SOL    HW111156   3.690   5.621   5.761
 3419SOL    HW211157   3.590   5.704   5.662
 3420SOL     OW11158   5.109   2.417   3.974
 3420SOL    HW111159   5.126   2.434   4.071
 3420SOL    HW211160   5.022   2.458   3.948
 3421SOL     OW11161   6.506   0.667   5.662
 3421SOL    HW111162   6.580   0.602   5.678
 3421SOL    HW211163   6.454   0.679   5.747
 3422SOL     OW11164   3.101   6.737   1.221
 3422SOL    HW111165   3.157   6.656   1.238
 3422SOL    HW211166   3.039   6.719   1.144
 3423SOL     OW11167   1.622   0.228   0.697
 3423SOL    HW111168   1.627   0.129   0.702
 3423SOL    HW211169   1.577   0.255   0.612
 3424SOL     OW11170   3.482   0.591   2.111
 3424SOL    HW111171   3.511   0.562   2.020
 3424SOL    HW211172   3.397   0.644   2.105
 3425SOL     OW11173   5.014   4.203   2.353
 3425SOL    HW111174   5.092   4.219   2.293
 3425SOL    HW211175   4.959   4.128   2.315
 3426SOL     OW11176   3.445   3.204   0.406
 3426SOL    HW111177   3.383   3.144   0.458
 3426SOL    HW211178   3.491   3.150   0.336
 3427SOL     OW11179   6.430   6.103   0.158
 3427SOL    HW111180   6.332   6.084   0.161
 3427SOL    HW211181   6.448   6.176   0.092
 3428SOL     OW11182   3.950   4.614   1.738
 3428SOL    HW111183   4.033   4.604   1.793
 3428SOL    HW211184   3.901   4.697   1.765
 3429SOL     OW11185   0.552   1.447   6.630
 3429SOL    HW111186   0.495   1.394   6.568
 3429SOL    HW211187   0.523   1.543   6.629
 3430SOL     OW11188   0.615   6.881   6.205
 3430SOL    HW111189   0.613   6.979   6.224
 3430SOL    HW211190   0.531   6.854   6.158
 3431SOL     OW11191   2.401   6.679   0.662
 3431SOL    HW111192   2.343   6.629   0.726
 3431SOL    HW211193   2.497   6.653   0.676
 3432SOL     OW11194   2.796   2.427   5.590
 3432SOL    HW111195   2.868   2.428   5.520
 3432SOL    HW211196   2.719   2.372   5.558
 3433SOL     OW11197   2.024   0.459   6.513
 3433SOL    HW111198   2.014   0.412   6.601
 3433SOL    HW211199   1.959   0.534   6.508
 3434SOL     OW11200   3.440   2.571   0.847
 3434SOL    HW111201   3.465   2.662   0.880
 3434SOL    HW211202   3.523   2.520   0.824
 3435SOL     OW11203   0.173   1.960   1.938
 3435SOL    HW111204   0.191   1.898   2.014
 3435SOL    HW211205   0.240   1.945   1.865
 3436SOL     OW11206   4.276   6.816   5.224
 3436SOL    HW111207   4.252   6.912   5.233
 3436SOL    HW211208   4.276   6.773   5.315
 3437SOL     OW11209   4.702   1.104   6.457
 3437SOL    HW111210   4.631   1.148   6.513
 3437SOL    HW211211   4.677   1.009   6.440
 3438SOL     OW11212   1.500   2.754   6.064
 3438SOL    HW111213   1.416   2.749   6.010
 3438SOL    HW211214   1.573   2.704   6.018
 3439SOL     OW11215   2.599   0.480   5.113
 3439SOL    HW111216   2.566   0.539   5.039
 3439SOL    HW211217   2.521   0.435   5.157
 3440SOL     OW11218   5.157   3.107   1.629
 3440SOL    HW111219   5.119   3.023   1.668
 3440SOL    HW211220   5.139   3.183   1.692
 3441SOL     OW11221   5.227   0.396   3.155
 3441SOL    HW111222   5.278   0.477   3.184
 3441SOL    HW211223   5.130   0.419   3.147
 3442SOL     OW11224   2.631   4.964   2.943
 3442SOL    HW111225   2.556   4.930   2.886
 3442SOL    HW211226   2.654   4.896   3.012
 3443SOL     OW11227   5.363   0.692   2.862
 3443SOL    HW111228   5.279   0.686   2.916
 3443SOL    HW211229   5.419   0.767   2.897
 3444SOL     OW11230   5.354   5.009   6.774
 3444SOL    HW111231   5.302   4.943   6.826
 3444SOL    HW211232   5.311   5.099   6.781
 3445SOL     OW11233   6.410   4.261   3.978
 3445SOL    HW111234   6.363   4.336   3.931
 3445SOL    HW211235   6.405   4.274   4.077
 3446SOL     OW11236   5.913   1.082   3.020
 3446SOL    HW111237   5.924   1.164   2.964
 3446SOL    HW211238   6.003   1.042   3.038
 3447SOL     OW11239   5.033   5.055   0.352
 3447SOL    HW111240   5.126   5.066   0.317
 3447SOL    HW211241   5.017   5.119   0.426
 3448SOL     OW11242   3.237   6.933   1.091
 3448SOL    HW111243   3.214   6.999   1.162
 3448SOL    HW211244   3.188   6.848   1.108
 3449SOL     OW11245   5.313   6.618   3.162
 3449SOL    HW111246   5.269   6.560   3.231
 3449SOL    HW211247   5.409   6.632   3.187
 3450SOL     OW11248   0.735   2.930   0.385
 3450SOL    HW111249   0.721   2.835   0.411
 3450SOL    HW211250   0.690   2.990   0.452
 3451SOL     OW11251   0.385   5.692   2.893
 3451SOL    HW111252   0.483   5.711   2.902
 3451SOL    HW211253   0.354   5.637   2.971
 3452SOL     OW11254   5.923   1.331   0.383
 3452SOL    HW111255   5.904   1.248   0.330
 3452SOL    HW211256   6.010   1.370   0.353
 3453SOL     OW11257   6.369   5.995   5.601
 3453SOL    HW111258   6.412   6.085   5.609
 3453SOL    HW211259   6.348   5.960   5.692
 3454SOL     OW11260   2.018   0.353   6.251
 3454SOL    HW111261   2.026   0.370   6.350
 3454SOL    HW211262   1.970   0.430   6.209
 3455SOL     OW11263   1.449   3.066   4.281
 3455SOL    HW111264   1.547   3.046   4.285
 3455SOL    HW211265   1.404   3.025   4.361
 3456SOL     OW11266   5.484   6.540   2.261
 3456SOL    HW111267   5.479   6.624   2.314
 3456SOL    HW211268   5.577   6.529   2.224
 3457SOL     OW11269   2.378   5.212   4.201
 3457SOL    HW111270   2.461   5.211   4.145
 3457SOL    HW211271   2.330   5.125   4.190
 3458SOL     OW11272   5.521   6.479   6.937
 3458SOL    HW111273   5.459   6.448   6.865
 3458SOL    HW211274   5.603   6.421   6.938
 3459SOL     OW11275   0.339   4.178   3.162
 3459SOL    HW111276   0.318   4.269   3.127
 3459SOL    HW211277   0.263   4.147   3.220
 3460SOL     OW11278   3.025   3.324   0.609
 3460SOL    HW111279   2.975   3.275   0.538
 3460SOL    HW211280   3.049   3.261   0.683
 3461SOL     OW11281   4.726   5.511   3.955
 3461SOL    HW111282   4.743   5.609   3.949
 3461SOL    HW211283   4.636   5.494   3.996
 3462SOL     OW11284   6.154   4.142   1.645
 3462SOL    HW111285   6.107   4.231   1.643
 3462SOL    HW211286   6.217   4.135   1.568
 3463SOL     OW11287   0.707   3.299   2.719
 3463SOL    HW111288   0.791   3.325   2.767
 3463SOL    HW211289   0.635   3.280   2.786
 3464SOL     OW11290   5.859   2.095   6.582
 3464SOL    HW111291   5.943   2.059   6.621
 3464SOL    HW211292   5.865   2.195   6.576
 3465SOL     OW11293   1.181   2.869   2.041
 3465SOL    HW111294   1.259   2.824   1.996
 3465SOL    HW211295   1.102   2.866   1.980
 3466SOL     OW11296   5.970   5.249   5.345
 3466SOL    HW111297   5.940   5.155   5.328
 3466SOL    HW211298   6.037   5.275   5.275
 3467SOL     OW11299   2.136   1.457   1.082
 3467SOL    HW111300   2.129   1.534   1.018
 3467SOL    HW211301   2.180   1.488   1.166
 3468SOL     OW11302   5.544   1.611   3.110
 3468SOL    HW111303   5.624   1.659   3.145
 3468SOL    HW211304   5.473   1.678   3.087
 3469SOL     OW11305   5.081   1.185   5.654
 3469SOL    HW111306   5.013   1.150   5.719
 3469SOL    HW211307   5.173   1.162   5.687
 3470SOL     OW11308   0.022   2.837   2.165
 3470SOL    HW111309   0.060   2.848   2.073
 3470SOL    HW211310   0.050   2.748   2.202
 3471SOL     OW11311   4.555   4.418   3.664
 3471SOL    HW111312   4.541   4.362   3.583
 3471SOL    HW211313   4.550   4.514   3.640
 3472SOL     OW11314   3.895   1.080   1.493
 3472SOL    HW111315   3.928   1.081   1.587
 3472SOL    HW211316   3.964   1.122   1.433
 3473SOL     OW11317   6.360   3.235   3.170
 3473SOL    HW111318   6.418   3.316   3.163
 3473SOL    HW211319   6.381   3.171   3.096
 3474SOL     OW11320   0.650   3.839   3.619
 3474SOL    HW111321   0.604   3.923   3.591
 3474SOL    HW211322   0.582   3.768   3.637
 3475SOL     OW11323   0.777   4.214   4.867
 3475SOL    HW111324   0.835   4.258   4.936
 3475SOL    HW211325   0.681   4.238   4.884
 3476SOL     OW11326   1.941   2.127   2.390
 3476SOL    HW111327   1.905   2.186   2.318
 3476SOL    HW211328   2.040   2.117   2.379
 3477SOL     OW11329   0.675   4.400   0.767
 3477SOL    HW111330   0.604   4.458   0.728
 3477SOL    HW211331   0.760   4.413   0.716
 3478SOL     OW11332   2.693   6.331   6.489
 3478SOL    HW111333   2.652   6.420   6.507
 3478SOL    HW211334   2.627   6.259   6.510
 3479SOL     OW11335   0.625   0.836   2.995
 3479SOL    HW111336   0.605   0.894   3.074
 3479SOL    HW211337   0.663   0.749   3.025
 3480SOL     OW11338   0.733   6.282   5.523
 3480SOL    HW111339   0.802   6.351   5.502
 3480SOL    HW211340   0.643   6.326   5.532
 3481SOL     OW11341   5.223   0.558   0.222
 3481SOL    HW111342   5.152   0.505   0.269
 3481SOL    HW211343   5.313   0.535   0.261
 3482SOL     OW11344   5.758   1.372   2.262
 3482SOL    HW111345   5.697   1.342   2.188
 3482SOL    HW211346   5.807   1.454   2.233
 3483SOL     OW11347   5.596   2.085   2.803
 3483SOL    HW111348   5.587   2.161   2.739
 3483SOL    HW211349   5.590   1.998   2.753
 3484SOL     OW11350   1.206   2.850   6.918
 3484SOL    HW111351   1.140   2.809   6.981
 3484SOL    HW211352   1.273   2.781   6.890
 3485SOL     OW11353   1.219   2.203   4.645
 3485SOL    HW111354   1.247   2.269   4.574
 3485SOL    HW211355   1.280   2.124   4.642
 3486SOL     OW11356   1.808   0.604   4.081
 3486SOL    HW111357   1.762   0.533   4.028
 3486SOL    HW211358   1.783   0.595   4.177
 3487SOL     OW11359   6.462   2.395   6.962
 3487SOL    HW111360   6.537   2.374   0.007
 3487SOL    HW211361   6.376   2.360   6.999
 3488SOL     OW11362   5.707   0.815   4.810
 3488SOL    HW111363   5.774   0.825   4.884
 3488SOL    HW211364   5.751   0.831   4.722
 3489SOL     OW11365   3.666   6.989   1.787
 3489SOL    HW111366   3.584   0.007   1.744
 3489SOL    HW211367   3.644   6.952   1.877
 3490SOL     OW11368   3.359   4.503   1.438
 3490SOL    HW111369   3.429   4.508   1.509
 3490SOL    HW211370   3.268   4.508   1.480
 3491SOL     OW11371   4.065   3.182   6.038
 3491SOL    HW111372   3.967   3.196   6.056
 3491SOL    HW211373   4.081   3.181   5.940
 3492SOL     OW11374   5.985   4.572   0.691
 3492SOL    HW111375   5.900   4.622   0.704
 3492SOL    HW211376   6.049   4.594   0.764
 3493SOL     OW11377   5.885   3.951   3.858
 3493SOL    HW111378   5.975   3.923   3.824
 3493SOL    HW211379   5.895   3.989   3.950
 3494SOL     OW11380   2.297   0.631   2.147
 3494SOL    HW111381   2.319   0.676   2.061
 3494SOL    HW211382   2.245   0.548   2.128
 3495SOL     OW11383   0.286   4.299   2.422
 3495SOL    HW111384   0.289   4.201   2.404
 3495SOL    HW211385   0.289   4.349   2.336
 3496SOL     OW11386   6.133   5.345   1.269
 3496SOL    HW111387   6.155   5.291   1.350
 3496SOL    HW211388   6.096   5.434   1.296
 3497SOL     OW11389   2.576   1.360   4.040
 3497SOL    HW111390   2.623   1.272   4.035
 3497SOL    HW211391   2.544   1.375   4.133
 3498SOL     OW11392   3.073   1.244   2.247
 3498SOL    HW111393   3.013   1.211   2.319
 3498SOL    HW211394   3.156   1.283   2.287
 3499SOL     OW11395   6.620   4.795   4.110
 3499SOL    HW111396   6.717   4.820   4.109
 3499SOL    HW211397   6.574   4.843   4.184
 3500SOL     OW11398   1.810   2.980   2.976
 3500SOL    HW111399   1.895   2.931   2.957
 3500SOL    HW211400   1.738   2.915   2.999
 3501SOL     OW11401   3.624   6.921   6.311
 3501SOL    HW111402   3.605   6.887   6.219
 3501SOL    HW211403   3.714   6.965   6.312
 3502SOL     OW11404   6.775   2.743   1.759
 3502SOL    HW111405   6.805   2.825   1.712
 3502SOL    HW211406   6.821   2.736   1.847
 3503SOL     OW11407   6.830   6.050   5.790
 3503SOL    HW111408   6.800   6.014   5.702
 3503SOL    HW211409   6.919   6.094   5.780
 3504SOL     OW11410   1.942   0.579   1.982
 3504SOL    HW111411   1.878   0.503   1.977
 3504SOL    HW211412   1.893   0.664   2.000
 3505SOL     OW11413   5.299   4.633   5.170
 3505SOL    HW111414   5.375   4.618   5.107
 3505SOL    HW211415   5.278   4.731   5.175
 3506SOL     OW11416   5.709   4.535   4.767
 3506SOL    HW111417   5.738   4.455   4.714
 3506SOL    HW211418   5.627   4.574   4.727
 3507SOL     OW11419   2.822   0.476   0.957
 3507SOL    HW111420   2.747   0.445   1.016
 3507SOL    HW211421   2.822   0.422   0.872
 3508SOL     OW11422   2.382   1.818   6.388
 3508SOL    HW111423   2.441   1.808   6.309
 3508SOL    HW211424   2.434   1.801   6.472
 3509SOL     OW11425   5.681   6.910   6.732
 3509SOL    HW111426   5.765   6.864   6.759
 3509SOL    HW211427   5.701   6.979   6.663
 3510SOL     OW11428   1.330   0.434   1.531
 3510SOL    HW111429   1.255   0.476   1.480
 3510SOL    HW211430   1.294   0.362   1.589
 3511SOL     OW11431   2.085   4.150   1.621
 3511SOL    HW111432   2.014   4.080   1.628
 3511SOL    HW211433   2.088   4.185   1.527
 3512SOL     OW11434   0.189   4.337   0.598
 3512SOL    HW111435   0.238   4.424   0.602
 3512SOL    HW211436   0.103   4.344   0.649
 3513SOL     OW11437   6.138   1.820   0.754
 3513SOL    HW111438   6.117   1.777   0.842
 3513SOL    HW211439   6.077   1.898   0.739
 3514SOL     OW11440   6.784   0.848   1.436
 3514SOL    HW111441   6.797   0.869   1.533
 3514SOL    HW211442   6.873   0.845   1.390
 3515SOL     OW11443   5.016   6.305   2.902
 3515SOL    HW111444   5.062   6.223   2.935
 3515SOL    HW211445   4.981   6.357   2.980
 3516SOL     OW11446   4.507   6.274   0.786
 3516SOL    HW111447   4.422   6.315   0.755
 3516SOL    HW211448   4.573   6.346   0.809
 3517SOL     OW11449   0.152   1.215   1.095
 3517SOL    HW111450   0.218   1.167   1.038
 3517SOL    HW211451   0.066   1.164   1.097
 3518SOL     OW11452   4.922   2.657   5.141
 3518SOL    HW111453   4.961   2.579   5.189
 3518SOL    HW211454   4.995   2.711   5.099
 3519SOL     OW11455   1.687   0.128   5.651
 3519SOL    HW111456   1.678   0.166   5.743
 3519SOL    HW211457   1.741   0.189   5.594
 3520SOL     OW11458   3.213   6.170   0.347
 3520SOL    HW111459   3.301   6.216   0.355
 3520SOL    HW211460   3.222   6.074   0.373
 3521SOL     OW11461   4.581   2.785   0.159
 3521SOL    HW111462   4.573   2.867   0.102
 3521SOL    HW211463   4.536   2.708   0.113
 3522SOL     OW11464   6.614   5.931   6.696
 3522SOL    HW111465   6.606   5.931   6.597
 3522SOL    HW211466   6.690   5.990   6.723
 3523SOL     OW11467   1.306   4.375   4.885
 3523SOL    HW111468   1.259   4.352   4.971
 3523SOL    HW211469   1.313   4.474   4.876
 3524SOL     OW11470   4.962   2.061   1.864
 3524SOL    HW111471   4.919   1.989   1.810
 3524SOL    HW211472   4.983   2.025   1.956
 3525SOL     OW11473   6.634   3.567   4.001
 3525SOL    HW111474   6.656   3.525   4.089
 3525SOL    HW211475   6.690   3.649   3.988
 3526SOL     OW11476   2.162   6.818   3.895
 3526SOL    HW111477   2.161   6.785   3.990
 3526SOL    HW211478   2.256   6.813   3.860
 3527SOL     OW11479   5.829   3.673   6.449
 3527SOL    HW111480   5.736   3.639   6.430
 3527SOL    HW211481   5.860   3.729   6.372
 3528SOL     OW11482   1.915   6.717   5.285
 3528SOL    HW111483   1.991   6.775   5.316
 3528SOL    HW211484   1.872   6.673   5.364
 3529SOL     OW11485   3.813   6.711   1.087
 3529SOL    HW111486   3.863   6.790   1.053
 3529SOL    HW211487   3.772   6.661   1.011
 3530SOL     OW11488   6.842   5.481   1.457
 3530SOL    HW111489   6.929   5.431   1.453
 3530SOL    HW211490   6.857   5.576   1.429
 3531SOL     OW11491   5.388   2.218   0.249
 3531SOL    HW111492   5.422   2.130   0.216
 3531SOL    HW211493   5.288   2.212   0.260
 3532SOL     OW11494   2.835   0.351   1.799
 3532SOL    HW111495   2.756   0.382   1.850
 3532SOL    HW211496   2.892   0.430   1.774
 3533SOL     OW11497   0.220   1.058   2.184
 3533SOL    HW111498   0.225   1.123   2.109
 3533SOL    HW211499   0.138   1.002   2.175
 3534SOL     OW11500   0.785   1.944   0.633
 3534SOL    HW111501   0.824   1.860   0.595
 3534SOL    HW211502   0.705   1.922   0.689
 3535SOL     OW11503   1.952   5.050   6.048
 3535SOL    HW111504   1.907   4.965   6.019
 3535SOL    HW211505   1.974   5.043   6.145
 3536SOL     OW11506   3.431   1.491   2.707
 3536SOL    HW111507   3.355   1.540   2.665
 3536SOL    HW211508   3.478   1.551   2.772
 3537SOL     OW11509   2.308   5.783   2.855
 3537SOL    HW111510   2.312   5.784   2.755
 3537SOL    HW211511   2.255   5.705   2.886
 3538SOL     OW11512   2.388   6.214   5.547
 3538SOL    HW111513   2.431   6.217   5.456
 3538SOL    HW211514   2.340   6.128   5.559
 3539SOL     OW11515   3.838   3.502   5.124
 3539SOL    HW111516   3.803   3.516   5.217
 3539SOL    HW211517   3.858   3.591   5.082
 3540SOL     OW11518   1.878   2.785   4.693
 3540SOL    HW111519   1.871   2.752   4.600
 3540SOL    HW211520   1.958   2.744   4.737
 3541SOL     OW11521   2.458   2.578   5.984
 3541SOL    HW111522   2.530   2.562   5.917
 3541SOL    HW211523   2.469   2.670   6.024
 3542SOL     OW11524   1.371   5.462   3.532
 3542SOL    HW111525   1.371   5.394   3.605
 3542SOL    HW211526   1.464   5.474   3.498
 3543SOL     OW11527   0.493   2.995   5.195
 3543SOL    HW111528   0.455   2.921   5.251
 3543SOL    HW211529   0.590   3.006   5.214
 3544SOL     OW11530   1.323   4.120   6.398
 3544SOL    HW111531   1.383   4.200   6.403
 3544SOL    HW211532   1.228   4.149   6.405
 3545SOL     OW11533   3.915   5.671   6.510
 3545SOL    HW111534   3.904   5.665   6.411
 3545SOL    HW211535   3.974   5.596   6.542
 3546SOL     OW11536   1.415   4.867   4.083
 3546SOL    HW111537   1.411   4.817   3.996
 3546SOL    HW211538   1.459   4.809   4.152
 3547SOL     OW11539   5.533   4.421   3.294
 3547SOL    HW111540   5.592   4.453   3.220
 3547SOL    HW211541   5.577   4.343   3.339
 3548SOL     OW11542   5.664   1.652   5.753
 3548SOL    HW111543   5.685   1.666   5.656
 3548SOL    HW211544   5.705   1.567   5.785
 3549SOL     OW11545   6.369   4.608   5.113
 3549SOL    HW111546   6.466   4.585   5.111
 3549SOL    HW211547   6.319   4.534   5.159
 3550SOL     OW11548   5.376   2.103   2.411
 3550SOL    HW111549   5.472   2.132   2.418
 3550SOL    HW211550   5.365   2.016   2.457
 3551SOL     OW11551   4.106   6.513   2.711
 3551SOL    HW111552   4.073   6.606   2.726
 3551SOL    HW211553   4.141   6.504   2.617
 3552SOL     OW11554   5.139   6.506   1.495
 3552SOL    HW111555   5.105   6.598   1.516
 3552SOL    HW211556   5.211   6.481   1.560
 3553SOL     OW11557   5.822   3.517   1.496
 3553SOL    HW111558   5.913   3.499   1.533
 3553SOL    HW211559   5.780   3.430   1.469
 3554SOL     OW11560   3.773   2.683   1.155
 3554SOL    HW111561   3.801   2.668   1.250
 3554SOL    HW211562   3.725   2.602   1.121
 3555SOL     OW11563   1.082   3.387   3.118
 3555SOL    HW111564   1.006   3.405   3.180
 3555SOL    HW211565   1.135   3.471   3.105
 3556SOL     OW11566   4.015   0.898   4.805
 3556SOL    HW111567   4.103   0.894   4.853
 3556SOL    HW211568   4.029   0.879   4.708
 3557SOL     OW11569   0.322   0.655   3.596
 3557SOL    HW111570   0.295   0.726   3.531
 3557SOL    HW211571   0.415   0.625   3.577
 3558SOL     OW11572   1.042   5.623   0.890
 3558SOL    HW111573   0.980   5.558   0.934
 3558SOL    HW211574   1.098   5.575   0.822
 3559SOL     OW11575   0.678   0.108   4.912
 3559SOL    HW111576   0.578   0.118   4.912
 3559SOL    HW211577   0.703   0.023   4.959
 3560SOL     OW11578   1.328   5.057   0.778
 3560SOL    HW111579   1.380   4.973   0.772
 3560SOL    HW211580   1.269   5.054   0.858
 3561SOL     OW11581   3.834   4.949   5.163
 3561SOL    HW111582   3.913   4.890   5.176
 3561SOL    HW211583   3.807   4.950   5.067
 3562SOL     OW11584   5.001   0.862   4.081
 3562SOL    HW111585   4.915   0.912   4.079
 3562SOL    HW211586   5.073   0.921   4.118
 3563SOL     OW11587   4.843   0.584   1.321
 3563SOL    HW111588   4.813   0.537   1.404
 3563SOL    HW211589   4.876   0.675   1.344
 3564SOL     OW11590   1.393   4.638   4.770
 3564SOL    HW111591   1.455   4.694   4.824
 3564SOL    HW211592   1.375   4.681   4.682
 3565SOL     OW11593   4.166   6.437   4.625
 3565SOL    HW111594   4.264   6.435   4.604
 3565SOL    HW211595   4.150   6.496   4.704
 3566SOL     OW11596   6.299   3.446   6.834
 3566SOL    HW111597   6.381   3.494   6.801
 3566SOL    HW211598   6.242   3.511   6.885
 3567SOL     OW11599   1.150   2.628   0.141
 3567SOL    HW111600   1.180   2.533   0.140
 3567SOL    HW211601   1.077   2.641   0.074
 3568SOL     OW11602   5.103   5.329   3.480
 3568SOL    HW111603   5.071   5.412   3.527
 3568SOL    HW211604   5.201   5.335   3.464
 3569SOL     OW11605   2.914   2.866   6.057
 3569SOL    HW111606   2.850   2.943   6.048
 3569SOL    HW211607   2.863   2.781   6.052
 3570SOL     OW11608   5.692   0.634   4.384
 3570SOL    HW111609   5.604   0.596   4.353
 3570SOL    HW211610   5.717   0.711   4.325
 3571SOL     OW11611   2.416   0.790   5.291
 3571SOL    HW111612   2.344   0.859   5.281
 3571SOL    HW211613   2.423   0.736   5.207
 3572SOL     OW11614   5.805   3.703   2.695
 3572SOL    HW111615   5.832   3.608   2.713
 3572SOL    HW211616   5.755   3.707   2.609
 3573SOL     OW11617   6.238   3.887   2.299
 3573SOL    HW111618   6.222   3.982   2.272
 3573SOL    HW211619   6.331   3.861   2.276
 3574SOL     OW11620   1.205   3.600   0.523
 3574SOL    HW111621   1.141   3.614   0.448
 3574SOL    HW211622   1.230   3.503   0.528
 3575SOL     OW11623   5.117   6.134   1.813
 3575SOL    HW111624   5.075   6.180   1.735
 3575SOL    HW211625   5.046   6.104   1.876
 3576SOL     OW11626   0.586   2.118   0.497
 3576SOL    HW111627   0.663   2.057   0.517
 3576SOL    HW211628   0.501   2.073   0.525
 3577SOL     OW11629   2.514   2.852   6.010
 3577SOL    HW111630   2.425   2.896   6.024
 3577SOL    HW211631   2.575   2.877   6.085
 3578SOL     OW11632   4.901   1.939   1.377
 3578SOL    HW111633   4.877   1.905   1.286
 3578SOL    HW211634   4.823   1.991   1.414
 3579SOL     OW11635   6.935   2.629   2.641
 3579SOL    HW111636   6.898   2.537   2.627
 3579SOL    HW211637   6.863   2.696   2.629
 3580SOL     OW11638   6.618   3.387   0.686
 3580SOL    HW111639   6.572   3.376   0.598
 3580SOL    HW211640   6.671   3.472   0.687
 3581SOL     OW11641   0.898   6.240   2.876
 3581SOL    HW111642   0.892   6.323   2.820
 3581SOL    HW211643   0.988   6.235   2.919
 3582SOL     OW11644   2.532   4.802   5.810
 3582SOL    HW111645   2.476   4.793   5.728
 3582SOL    HW211646   2.474   4.821   5.889
 3583SOL     OW11647   0.973   4.497   0.498
 3583SOL    HW111648   1.036   4.459   0.431
 3583SOL    HW211649   1.012   4.488   0.589
 3584SOL     OW11650   5.498   4.748   5.611
 3584SOL    HW111651   5.460   4.732   5.520
 3584SOL    HW211652   5.598   4.740   5.608
 3585SOL     OW11653   3.602   2.013   4.636
 3585SOL    HW111654   3.611   1.915   4.625
 3585SOL    HW211655   3.562   2.034   4.726
 3586SOL     OW11656   0.232   2.646   4.853
 3586SOL    HW111657   0.286   2.678   4.932
 3586SOL    HW211658   0.171   2.720   4.823
 3587SOL     OW11659   3.196   5.382   6.279
 3587SOL    HW111660   3.194   5.297   6.331
 3587SOL    HW211661   3.267   5.442   6.316
 3588SOL     OW11662   6.772   3.797   4.576
 3588SOL    HW111663   6.767   3.872   4.641
 3588SOL    HW211664   6.838   3.820   4.504
 3589SOL     OW11665   6.097   6.445   6.575
 3589SOL    HW111666   6.040   6.455   6.656
 3589SOL    HW211667   6.062   6.506   6.503
 3590SOL     OW11668   0.483   3.746   0.645
 3590SOL    HW111669   0.431   3.824   0.613
 3590SOL    HW211670   0.581   3.764   0.635
 3591SOL     OW11671   5.298   3.090   1.103
 3591SOL    HW111672   5.362   3.146   1.050
 3591SOL    HW211673   5.319   3.097   1.200
 3592SOL     OW11674   0.360   0.142   2.644
 3592SOL    HW111675   0.343   0.157   2.742
 3592SOL    HW211676   0.441   0.084   2.633
 3593SOL     OW11677   0.744   4.622   6.335
 3593SOL    HW111678   0.700   4.689   6.275
 3593SOL    HW211679   0.841   4.643   6.343
 3594SOL     OW11680   5.194   0.276   4.298
 3594SOL    HW111681   5.177   0.285   4.199
 3594SOL    HW211682   5.130   0.334   4.348
 3595SOL     OW11683   5.972   5.534   0.608
 3595SOL    HW111684   6.047   5.525   0.673
 3595SOL    HW211685   5.973   5.626   0.568
 3596SOL     OW11686   4.536   2.390   3.498
 3596SOL    HW111687   4.494   2.419   3.584
 3596SOL    HW211688   4.507   2.450   3.424
 3597SOL     OW11689   1.974   2.638   5.637
 3597SOL    HW111690   2.073   2.622   5.640
 3597SOL    HW211691   1.956   2.735   5.622
 3598SOL     OW11692   1.814   6.276   5.265
 3598SOL    HW111693   1.811   6.253   5.362
 3598SOL    HW211694   1.732   6.328   5.241
 3599SOL     OW11695   4.401   2.242   6.764
 3599SOL    HW111696   4.425   2.180   6.839
 3599SOL    HW211697   4.427   2.202   6.677
 3600SOL     OW11698   0.984   3.249   1.958
 3600SOL    HW111699   1.011   3.290   2.046
 3600SOL    HW211700   1.061   3.198   1.920
 3601SOL     OW11701   5.312   2.038   5.889
 3601SOL    HW111702   5.266   2.104   5.830
 3601SOL    HW211703   5.403   2.017   5.850
 3602SOL     OW11704   1.834   2.918   0.492
 3602SOL    HW111705   1.747   2.959   0.521
 3602SOL    HW211706   1.816   2.838   0.435
 3603SOL     OW11707   3.533   0.982   5.801
 3603SOL    HW111708   3.594   1.036   5.859
 3603SOL    HW211709   3.569   0.889   5.791
 3604SOL     OW11710   5.730   1.308   3.572
 3604SOL    HW111711   5.644   1.329   3.525
 3604SOL    HW211712   5.758   1.388   3.626
 3605SOL     OW11713   1.158   5.423   3.933
 3605SOL    HW111714   1.139   5.440   4.030
 3605SOL    HW211715   1.089   5.362   3.895
 3606SOL     OW11716   1.599   6.644   2.585
 3606SOL    HW111717   1.642   6.636   2.675
 3606SOL    HW211718   1.544   6.727   2.581
 3607SOL     OW11719   5.639   3.003   2.481
 3607SOL    HW111720   5.638   2.999   2.381
 3607SOL    HW211721   5.545   2.995   2.515
 3608SOL     OW11722   5.105   1.414   3.630
 3608SOL    HW111723   5.006   1.400   3.633
 3608SOL    HW211724   5.137   1.445   3.719
 3609SOL     OW11725   2.055   6.886   4.617
 3609SOL    HW111726   2.082   6.963   4.559
 3609SOL    HW211727   2.018   6.813   4.559
 3610SOL     OW11728   1.804   0.325   5.499
 3610SOL    HW111729   1.739   0.393   5.532
 3610SOL    HW211730   1.846   0.357   5.414
 3611SOL     OW11731   4.436   4.645   4.098
 3611SOL    HW111732   4.475   4.560   4.062
 3611SOL    HW211733   4.392   4.696   4.024
 3612SOL     OW11734   6.595   1.312   6.675
 3612SOL    HW111735   6.607   1.409   6.655
 3612SOL    HW211736   6.684   1.270   6.692
 3613SOL     OW11737   4.031   5.072   2.067
 3613SOL    HW111738   4.018   5.169   2.087
 3613SOL    HW211739   3.943   5.032   2.039
 3614SOL     OW11740   3.071   3.190   6.740
 3614SOL    HW111741   3.134   3.127   6.693
 3614SOL    HW211742   3.099   3.284   6.723
 3615SOL     OW11743   5.960   2.621   6.156
 3615SOL    HW111744   6.018   2.588   6.231
 3615SOL    HW211745   5.873   2.654   6.193
 3616SOL     OW11746   1.762   1.375   6.242
 3616SOL    HW111747   1.705   1.344   6.166
 3616SOL    HW211748   1.843   1.317   6.249
 3617SOL     OW11749   4.576   0.371   5.996
 3617SOL    HW111750   4.597   0.429   5.917
 3617SOL    HW211751   4.520   0.293   5.967
 3618SOL     OW11752   2.468   3.457   5.374
 3618SOL    HW111753   2.543   3.522   5.382
 3618SOL    HW211754   2.408   3.465   5.454
 3619SOL     OW11755   5.575   3.416   0.465
 3619SOL    HW111756   5.555   3.414   0.563
 3619SOL    HW211757   5.622   3.501   0.442
 3620SOL     OW11758   6.222   5.851   4.659
 3620SOL    HW111759   6.278   5.789   4.605
 3620SOL    HW211760   6.149   5.888   4.601
 3621SOL     OW11761   3.369   3.197   4.263
 3621SOL    HW111762   3.446   3.243   4.307
 3621SOL    HW211763   3.391   3.180   4.167
 3622SOL     OW11764   0.807   0.611   1.286
 3622SOL    HW111765   0.857   0.538   1.332
 3622SOL    HW211766   0.827   0.610   1.188
 3623SOL     OW11767   0.589   5.763   5.024
 3623SOL    HW111768   0.598   5.813   4.938
 3623SOL    HW211769   0.524   5.810   5.084
 3624SOL     OW11770   1.505   6.795   1.800
 3624SOL    HW111771   1.502   6.729   1.875
 3624SOL    HW211772   1.579   6.861   1.816
 3625SOL     OW11773   0.391   3.160   0.022
 3625SOL    HW111774   0.410   3.132   6.946
 3625SOL    HW211775   0.313   3.222   0.023
 3626SOL     OW11776   0.768   3.472   4.294
 3626SOL    HW111777   0.704   3.395   4.298
 3626SOL    HW211778   0.790   3.502   4.387
 3627SOL     OW11779   5.140   3.381   1.783
 3627SOL    HW111780   5.059   3.400   1.838
 3627SOL    HW211781   5.157   3.456   1.720
 3628SOL     OW11782   1.594   1.039   2.255
 3628SOL    HW111783   1.662   1.111   2.269
 3628SOL    HW211784   1.637   0.950   2.266
 3629SOL     OW11785   1.380   0.639   4.230
 3629SOL    HW111786   1.429   0.725   4.222
 3629SOL    HW211787   1.305   0.637   4.164
 3630SOL     OW11788   6.765   2.567   3.215
 3630SOL    HW111789   6.677   2.595   3.177
 3630SOL    HW211790   6.751   2.528   3.306
 3631SOL     OW11791   1.935   6.669   3.605
 3631SOL    HW111792   1.933   6.569   3.599
 3631SOL    HW211793   2.018   6.704   3.560
 3632SOL     OW11794   4.755   4.148   1.032
 3632SOL    HW111795   4.710   4.060   1.041
 3632SOL    HW211796   4.784   4.180   1.122
 3633SOL     OW11797   3.601   2.287   5.520
 3633SOL    HW111798   3.631   2.355   5.454
 3633SOL    HW211799   3.559   2.210   5.472
 3634SOL     OW11800   2.073   6.231   6.215
 3634SOL    HW111801   2.019   6.214   6.132
 3634SOL    HW211802   2.013   6.271   6.285
 3635SOL     OW11803   2.404   1.457   0.991
 3635SOL    HW111804   2.308   1.429   0.991
 3635SOL    HW211805   2.447   1.426   1.076
 3636SOL     OW11806   0.131   5.576   0.960
 3636SOL    HW111807   0.100   5.651   1.018
 3636SOL    HW211808   0.091   5.585   0.869
 3637SOL     OW11809   1.225   2.342   0.409
 3637SOL    HW111810   1.251   2.436   0.434
 3637SOL    HW211811   1.207   2.338   0.311
 3638SOL     OW11812   6.959   3.900   2.676
 3638SOL    HW111813   6.880   3.839   2.683
 3638SOL    HW211814   6.937   3.977   2.616
 3639SOL     OW11815   3.946   4.509   5.603
 3639SOL    HW111816   3.952   4.435   5.536
 3639SOL    HW211817   4.035   4.553   5.612
 3640SOL     OW11818   5.451   2.452   0.384
 3640SOL    HW111819   5.442   2.369   0.330
 3640SOL    HW211820   5.366   2.470   0.433
 3641SOL     OW11821   5.107   4.840   1.245
 3641SOL    HW111822   5.165   4.782   1.188
 3641SOL    HW211823   5.130   4.936   1.228
 3642SOL     OW11824   5.330   1.840   6.513
 3642SOL    HW111825   5.304   1.915   6.452
 3642SOL    HW211826   5.263   1.832   6.587
 3643SOL     OW11827   3.998   6.903   5.744
 3643SOL    HW111828   3.992   6.809   5.710
 3643SOL    HW211829   4.044   6.903   5.833
 3644SOL     OW11830   3.052   1.073   1.227
 3644SOL    HW111831   3.009   1.156   1.261
 3644SOL    HW211832   2.982   1.014   1.186
 3645SOL     OW11833   1.601   3.627   4.276
 3645SOL    HW111834   1.614   3.542   4.226
 3645SOL    HW211835   1.503   3.643   4.290
 3646SOL     OW11836   2.228   4.935   4.649
 3646SOL    HW111837   2.202   4.863   4.585
 3646SOL    HW211838   2.248   4.895   4.739
 3647SOL     OW11839   2.757   6.891   6.633
 3647SOL    HW111840   2.712   6.884   6.722
 3647SOL    HW211841   2.691   6.871   6.561
 3648SOL     OW11842   5.258   6.007   3.230
 3648SOL    HW111843   5.203   5.940   3.180
 3648SOL    HW211844   5.245   6.098   3.190
 3649SOL     OW11845   5.745   4.286   0.021
 3649SOL    HW111846   5.730   4.205   6.983
 3649SOL    HW211847   5.824   4.271   0.080
 3650SOL     OW11848   5.680   4.392   0.872
 3650SOL    HW111849   5.724   4.381   0.961
 3650SOL    HW211850   5.605   4.456   0.879
 3651SOL     OW11851   2.119   1.333   5.676
 3651SOL    HW111852   2.193   1.400   5.682
 3651SOL    HW211853   2.074   1.340   5.586
 3652SOL     OW11854   5.671   0.828   2.387
 3652SOL    HW111855   5.595   0.820   2.452
 3652SOL    HW211856   5.639   0.805   2.296
 3653SOL     OW11857   0.811   0.853   2.771
 3653SOL    HW111858   0.739   0.852   2.841
 3653SOL    HW211859   0.875   0.778   2.788
 3654SOL     OW11860   4.583   6.054   0.423
 3654SOL    HW111861   4.627   5.973   0.384
 3654SOL    HW211862   4.581   6.045   0.523
 3655SOL     OW11863   3.046   1.031   4.317
 3655SOL    HW111864   3.058   0.943   4.271
 3655SOL    HW211865   3.043   1.104   4.250
 3656SOL     OW11866   0.419   5.263   1.428
 3656SOL    HW111867   0.375   5.214   1.353
 3656SOL    HW211868   0.375   5.352   1.439
 3657SOL     OW11869   4.653   5.927   5.565
 3657SOL    HW111870   4.682   5.979   5.485
 3657SOL    HW211871   4.720   5.854   5.583
 3658SOL     OW11872   1.136   5.011   6.359
 3658SOL    HW111873   1.145   4.911   6.353
 3658SOL    HW211874   1.140   5.050   6.267
 3659SOL     OW11875   0.339   1.597   6.229
 3659SOL    HW111876   0.318   1.579   6.132
 3659SOL    HW211877   0.309   1.520   6.284
 3660SOL     OW11878   5.823   6.514   5.698
 3660SOL    HW111879   5.777   6.494   5.784
 3660SOL    HW211880   5.770   6.476   5.622
 3661SOL     OW11881   6.938   0.784   4.490
 3661SOL    HW111882   7.009   0.720   4.461
 3661SOL    HW211883   6.909   0.840   4.413
 3662SOL     OW11884   3.915   0.986   5.404
 3662SOL    HW111885   3.905   0.972   5.305
 3662SOL    HW211886   3.946   1.079   5.421
 3663SOL     OW11887   2.518   2.004   6.566
 3663SOL    HW111888   2.536   2.014   6.664
 3663SOL    HW211889   2.505   2.094   6.525
 3664SOL     OW11890   4.174   1.655   2.198
 3664SOL    HW111891   4.225   1.694   2.121
 3664SOL    HW211892   4.115   1.581   2.164
 3665SOL     OW11893   0.401   6.117   5.677
 3665SOL    HW111894   0.468   6.102   5.750
 3665SOL    HW211895   0.376   6.214   5.675
 3666SOL     OW11896   1.719   2.375   3.493
 3666SOL    HW111897   1.791   2.403   3.429
 3666SOL    HW211898   1.629   2.390   3.451
 3667SOL     OW11899   0.895   1.603   3.103
 3667SOL    HW111900   0.845   1.543   3.040
 3667SOL    HW211901   0.992   1.582   3.098
 3668SOL     OW11902   1.175   0.349   1.896
 3668SOL    HW111903   1.198   0.258   1.928
 3668SOL    HW211904   1.158   0.346   1.797
 3669SOL     OW11905   5.964   1.965   4.568
 3669SOL    HW111906   5.867   1.969   4.589
 3669SOL    HW211907   6.017   2.002   4.644
 3670SOL     OW11908   3.227   4.793   1.355
 3670SOL    HW111909   3.305   4.753   1.308
 3670SOL    HW211910   3.257   4.828   1.444
 3671SOL     OW11911   6.360   1.248   2.930
 3671SOL    HW111912   6.429   1.216   2.995
 3671SOL    HW211913   6.303   1.170   2.902
 3672SOL     OW11914   5.712   1.339   2.535
 3672SOL    HW111915   5.738   1.346   2.439
 3672SOL    HW211916   5.793   1.326   2.592
 3673SOL     OW11917   4.137   5.916   6.991
 3673SOL    HW111918   4.089   5.943   6.907
 3673SOL    HW211919   4.080   5.851   0.023
 3674SOL     OW11920   1.063   6.049   5.956
 3674SOL    HW111921   0.970   6.030   5.987
 3674SOL    HW211922   1.078   6.148   5.955
 3675SOL     OW11923   0.479   2.242   3.504
 3675SOL    HW111924   0.446   2.148   3.503
 3675SOL    HW211925   0.573   2.244   3.469
 3676SOL     OW11926   4.920   3.050   3.205
 3676SOL    HW111927   4.980   3.061   3.284
 3676SOL    HW211928   4.872   3.136   3.188
 3677SOL     OW11929   2.147   0.971   5.080
 3677SOL    HW111930   2.217   1.008   5.020
 3677SOL    HW211931   2.142   1.025   5.164
 3678SOL     OW11932   1.555   0.924   4.261
 3678SOL    HW111933   1.468   0.926   4.311
 3678SOL    HW211934   1.541   0.956   4.168
 3679SOL     OW11935   6.180   0.217   2.688
 3679SOL    HW111936   6.131   0.286   2.635
 3679SOL    HW211937   6.267   0.196   2.644
 3680SOL     OW11938   4.731   2.193   3.356
 3680SOL    HW111939   4.696   2.282   3.382
 3680SOL    HW211940   4.732   2.185   3.256
 3681SOL     OW11941   1.240   0.439   5.648
 3681SOL    HW111942   1.252   0.379   5.569
 3681SOL    HW211943   1.324   0.489   5.665
 3682SOL     OW11944   5.498   2.490   1.565
 3682SOL    HW111945   5.414   2.453   1.526
 3682SOL    HW211946   5.567   2.500   1.494
 3683SOL     OW11947   0.108   0.923   4.295
 3683SOL    HW111948   0.123   0.881   4.384
 3683SOL    HW211949   0.047   0.865   4.240
 3684SOL     OW11950   1.849   6.316   6.359
 3684SOL    HW111951   1.805   6.299   6.447
 3684SOL    HW211952   1.789   6.285   6.285
 3685SOL     OW11953   2.627   5.927   5.658
 3685SOL    HW111954   2.533   5.897   5.673
 3685SOL    HW211955   2.646   5.927   5.560
 3686SOL     OW11956   6.957   4.144   3.825
 3686SOL    HW111957   0.013   4.209   3.841
 3686SOL    HW211958   6.945   4.130   3.727
 3687SOL     OW11959   4.975   6.763   3.282
 3687SOL    HW111960   4.902   6.753   3.214
 3687SOL    HW211961   5.001   6.674   3.317
 3688SOL     OW11962   5.789   3.925   0.240
 3688SOL    HW111963   5.884   3.915   0.270
 3688SOL    HW211964   5.733   3.854   0.282
 3689SOL     OW11965   2.213   1.459   5.285
 3689SOL    HW111966   2.157   1.480   5.365
 3689SOL    HW211967   2.245   1.545   5.244
 3690SOL     OW11968   5.279   5.369   0.616
 3690SOL    HW111969   5.190   5.403   0.645
 3690SOL    HW211970   5.348   5.393   0.683
 3691SOL     OW11971   2.441   2.091   6.138
 3691SOL    HW111972   2.501   2.156   6.184
 3691SOL    HW211973   2.403   2.133   6.056
 3692SOL     OW11974   6.603   3.781   6.478
 3692SOL    HW111975   6.698   3.793   6.448
 3692SOL    HW211976   6.569   3.693   6.445
 3693SOL     OW11977   0.964   1.991   2.826
 3693SOL    HW111978   1.009   2.048   2.757
 3693SOL    HW211979   0.881   2.037   2.858
 3694SOL     OW11980   0.769   0.536   1.838
 3694SOL    HW111981   0.754   0.621   1.889
 3694SOL    HW211982   0.692   0.521   1.776
 3695SOL     OW11983   6.802   2.342   2.180
 3695SOL    HW111984   6.812   2.369   2.084
 3695SOL    HW211985   6.796   2.424   2.238
 3696SOL     OW11986   5.365   1.163   5.180
 3696SOL    HW111987   5.304   1.163   5.259
 3696SOL    HW211988   5.454   1.125   5.206
 3697SOL     OW11989   6.129   5.735   3.334
 3697SOL    HW111990   6.053   5.701   3.281
 3697SOL    HW211991   6.108   5.827   3.368
 3698SOL     OW11992   1.998   0.694   3.770
 3698SOL    HW111993   2.037   0.784   3.753
 3698SOL    HW211994   2.026   0.661   3.860
 3699SOL     OW11995   2.486   2.224   3.998
 3699SOL    HW111996   2.470   2.175   4.085
 3699SOL    HW211997   2.400   2.231   3.948
 3700SOL     OW11998   1.467   5.108   5.435
 3700SOL    HW111999   1.400   5.062   5.494
 3700SOL    HW212000   1.460   5.070   5.342
 3701SOL     OW12001   0.695   6.055   2.014
 3701SOL    HW112002   0.615   6.047   1.954
 3701SOL    HW212003   0.664   6.079   2.106
 3702SOL     OW12004   5.918   6.608   3.710
 3702SOL    HW112005   5.843   6.554   3.673
 3702SOL    HW212006   5.894   6.639   3.802
 3703SOL     OW12007   1.016   0.912   6.195
 3703SOL    HW112008   1.074   0.992   6.211
 3703SOL    HW212009   0.925   0.942   6.166
 3704SOL     OW12010   5.370   3.058   1.396
 3704SOL    HW112011   5.323   3.012   1.472
 3704SOL    HW212012   5.376   3.156   1.415
 3705SOL     OW12013   5.023   4.805   3.519
 3705SOL    HW112014   5.057   4.791   3.425
 3705SOL    HW212015   5.099   4.796   3.583
 3706SOL     OW12016   0.358   3.814   0.323
 3706SOL    HW112017   0.326   3.735   0.270
 3706SOL    HW212018   0.282   3.878   0.337
 3707SOL     OW12019   3.518   4.937   3.880
 3707SOL    HW112020   3.545   4.915   3.974
 3707SOL    HW212021   3.418   4.945   3.875
 3708SOL     OW12022   4.226   6.597   1.436
 3708SOL    HW112023   4.217   6.546   1.522
 3708SOL    HW212024   4.260   6.536   1.364
 3709SOL     OW12025   1.305   6.916   1.620
 3709SOL    HW112026   1.340   6.912   1.526
 3709SOL    HW212027   1.373   6.878   1.682
 3710SOL     OW12028   0.611   4.940   5.470
 3710SOL    HW112029   0.542   5.012   5.477
 3710SOL    HW212030   0.568   4.850   5.483
 3711SOL     OW12031   1.863   6.438   5.001
 3711SOL    HW112032   1.930   6.416   5.072
 3711SOL    HW212033   1.805   6.359   4.984
 3712SOL     OW12034   2.532   5.393   6.474
 3712SOL    HW112035   2.564   5.301   6.452
 3712SOL    HW212036   2.605   5.444   6.519
 3713SOL     OW12037   0.202   6.963   4.930
 3713SOL    HW112038   0.211   6.925   5.022
 3713SOL    HW212039   0.200   6.887   4.864
 3714SOL     OW12040   0.718   4.500   6.673
 3714SOL    HW112041   0.754   4.410   6.695
 3714SOL    HW212042   0.790   4.555   6.630
 3715SOL     OW12043   0.561   5.949   3.461
 3715SOL    HW112044   0.640   5.893   3.435
 3715SOL    HW212045   0.591   6.027   3.516
 3716SOL     OW12046   6.188   5.313   4.068
 3716SOL    HW112047   6.161   5.371   4.145
 3716SOL    HW212048   6.210   5.221   4.101
 3717SOL     OW12049   4.960   1.592   0.113
 3717SOL    HW112050   5.027   1.618   0.183
 3717SOL    HW212051   4.891   1.532   0.154
 3718SOL     OW12052   0.300   0.065   6.992
 3718SOL    HW112053   0.225   0.069   0.040
 3718SOL    HW212054   0.385   0.092   0.018
 3719SOL     OW12055   4.302   3.174   6.173
 3719SOL    HW112056   4.376   3.158   6.107
 3719SOL    HW212057   4.216   3.188   6.124
 3720SOL     OW12058   5.467   3.698   1.146
 3720SOL    HW112059   5.537   3.751   1.099
 3720SOL    HW212060   5.500   3.606   1.163
 3721SOL     OW12061   6.222   5.623   6.753
 3721SOL    HW112062   6.181   5.670   6.675
 3721SOL    HW212063   6.230   5.687   6.830
 3722SOL     OW12064   4.301   0.055   1.173
 3722SOL    HW112065   4.299   6.993   1.113
 3722SOL    HW212066   4.396   0.083   1.188
 3723SOL     OW12067   4.351   5.093   0.081
 3723SOL    HW112068   4.272   5.033   0.095
 3723SOL    HW212069   4.323   5.173   0.027
 3724SOL     OW12070   1.932   5.277   5.308
 3724SOL    HW112071   1.921   5.193   5.361
 3724SOL    HW212072   1.956   5.254   5.214
 3725SOL     OW12073   0.292   5.836   0.079
 3725SOL    HW112074   0.324   5.744   0.100
 3725SOL    HW212075   0.274   5.886   0.163
 3726SOL     OW12076   5.281   4.815   4.826
 3726SOL    HW112077   5.288   4.895   4.885
 3726SOL    HW212078   5.208   4.830   4.759
 3727SOL     OW12079   6.968   3.540   4.622
 3727SOL    HW112080   6.946   3.625   4.670
 3727SOL    HW212081   6.926   3.541   4.531
 3728SOL     OW12082   2.891   3.304   0.009
 3728SOL    HW112083   2.823   3.231   0.019
 3728SOL    HW212084   2.860   3.386   0.057
 3729SOL     OW12085   0.585   0.415   4.410
 3729SOL    HW112086   0.603   0.331   4.359
 3729SOL    HW212087   0.594   0.396   4.508
 3730SOL     OW12088   4.587   6.355   5.847
 3730SOL    HW112089   4.679   6.335   5.879
 3730SOL    HW212090   4.535   6.401   5.919
 3731SOL     OW12091   0.952   1.153   0.007
 3731SOL    HW112092   0.931   1.095   0.085
 3731SOL    HW212093   0.917   1.111   6.942
 3732SOL     OW12094   1.399   2.068   0.918
 3732SOL    HW112095   1.418   2.016   0.835
 3732SOL    HW212096   1.355   2.009   0.985
 3733SOL     OW12097   1.928   3.121   3.405
 3733SOL    HW112098   1.903   3.154   3.496
 3733SOL    HW212099   1.863   3.157   3.338
 3734SOL     OW12100   4.192   0.450   1.153
 3734SOL    HW112101   4.109   0.415   1.109
 3734SOL    HW212102   4.168   0.528   1.212
 3735SOL     OW12103   4.416   0.028   2.363
 3735SOL    HW112104   4.495   0.079   2.396
 3735SOL    HW212105   4.437   7.006   2.274
 3736SOL     OW12106   6.518   0.535   1.056
 3736SOL    HW112107   6.435   0.534   1.112
 3736SOL    HW212108   6.583   0.601   1.094
 3737SOL     OW12109   5.864   2.817   4.027
 3737SOL    HW112110   5.833   2.844   4.118
 3737SOL    HW212111   5.785   2.803   3.967
 3738SOL     OW12112   6.364   5.786   1.341
 3738SOL    HW112113   6.432   5.850   1.376
 3738SOL    HW212114   6.407   5.723   1.277
 3739SOL     OW12115   2.835   4.620   1.604
 3739SOL    HW112116   2.822   4.554   1.529
 3739SOL    HW212117   2.860   4.572   1.687
 3740SOL     OW12118   5.788   6.070   0.180
 3740SOL    HW112119   5.741   6.105   0.099
 3740SOL    HW212120   5.810   5.973   0.166
 3741SOL     OW12121   5.111   2.814   6.923
 3741SOL    HW112122   5.046   2.889   6.914
 3741SOL    HW212123   5.065   2.736   6.966
 3742SOL     OW12124   4.897   5.519   0.076
 3742SOL    HW112125   4.891   5.596   0.013
 3742SOL    HW212126   4.811   5.512   0.128
 3743SOL     OW12127   4.666   4.420   1.727
 3743SOL    HW112128   4.728   4.425   1.806
 3743SOL    HW212129   4.593   4.355   1.747
 3744SOL     OW12130   0.860   6.478   1.935
 3744SOL    HW112131   0.929   6.450   1.868
 3744SOL    HW212132   0.883   6.439   2.024
 3745SOL     OW12133   4.950   3.625   2.564
 3745SOL    HW112134   4.959   3.698   2.496
 3745SOL    HW212135   4.904   3.660   2.645
 3746SOL     OW12136   6.857   0.752   3.619
 3746SOL    HW112137   6.891   0.663   3.649
 3746SOL    HW212138   6.935   0.809   3.592
 3747SOL     OW12139   4.510   6.568   6.043
 3747SOL    HW112140   4.567   6.648   6.027
 3747SOL    HW212141   4.454   6.582   6.125
 3748SOL     OW12142   5.832   1.106   2.307
 3748SOL    HW112143   5.802   1.201   2.306
 3748SOL    HW212144   5.763   1.049   2.352
 3749SOL     OW12145   1.303   5.707   2.560
 3749SOL    HW112146   1.359   5.790   2.559
 3749SOL    HW212147   1.242   5.709   2.639
 3750SOL     OW12148   5.649   4.875   0.947
 3750SOL    HW112149   5.623   4.902   0.854
 3750SOL    HW212150   5.633   4.778   0.959
 3751SOL     OW12151   0.878   3.047   0.829
 3751SOL    HW112152   0.850   2.973   0.768
 3751SOL    HW212153   0.960   3.091   0.793
 3752SOL     OW12154   0.638   0.092   0.113
 3752SOL    HW112155   0.626   7.015   0.088
 3752SOL    HW212156   0.561   0.122   0.168
 3753SOL     OW12157   0.303   6.438   5.359
 3753SOL    HW112158   0.331   6.393   5.274
 3753SOL    HW212159   0.215   6.484   5.345
 3754SOL     OW12160   5.362   6.443   1.622
 3754SOL    HW112161   5.425   6.521   1.629
 3754SOL    HW212162   5.356   6.396   1.709
 3755SOL     OW12163   5.814   5.604   4.220
 3755SOL    HW112164   5.741   5.594   4.288
 3755SOL    HW212165   5.799   5.539   4.145
 3756SOL     OW12166   2.074   0.703   6.213
 3756SOL    HW112167   1.993   0.652   6.185
 3756SOL    HW212168   2.137   0.642   6.260
 3757SOL     OW12169   3.918   5.962   5.663
 3757SOL    HW112170   3.910   6.038   5.598
 3757SOL    HW212171   3.965   5.886   5.619
 3758SOL     OW12172   1.873   1.569   4.587
 3758SOL    HW112173   1.970   1.563   4.613
 3758SOL    HW212174   1.823   1.622   4.655
 3759SOL     OW12175   4.452   5.472   5.802
 3759SOL    HW112176   4.410   5.410   5.868
 3759SOL    HW212177   4.415   5.454   5.711
 3760SOL     OW12178   1.196   3.636   3.180
 3760SOL    HW112179   1.116   3.679   3.221
 3760SOL    HW212180   1.241   3.701   3.118
 3761SOL     OW12181   0.886   6.938   4.740
 3761SOL    HW112182   0.877   6.851   4.788
 3761SOL    HW212183   0.949   6.997   4.790
 3762SOL     OW12184   0.622   4.018   6.872
 3762SOL    HW112185   0.622   3.937   6.814
 3762SOL    HW212186   0.647   3.993   6.965
 3763SOL     OW12187   6.656   4.399   6.690
 3763SOL    HW112188   6.592   4.476   6.687
 3763SOL    HW212189   6.743   4.430   6.728
 3764SOL     OW12190   2.225   0.763   4.814
 3764SOL    HW112191   2.223   0.857   4.848
 3764SOL    HW212192   2.137   0.741   4.771
 3765SOL     OW12193   4.917   1.183   3.131
 3765SOL    HW112194   4.849   1.256   3.133
 3765SOL    HW212195   4.874   1.098   3.102
 3766SOL     OW12196   0.930   0.631   3.875
 3766SOL    HW112197   0.922   0.731   3.873
 3766SOL    HW212198   0.868   0.594   3.943
 3767SOL     OW12199   2.259   4.568   0.365
 3767SOL    HW112200   2.225   4.618   0.285
 3767SOL    HW212201   2.198   4.584   0.443
 3768SOL     OW12202   3.686   6.409   6.041
 3768SOL    HW112203   3.726   6.369   6.123
 3768SOL    HW212204   3.606   6.355   6.014
 3769SOL     OW12205   5.308   5.596   5.335
 3769SOL    HW112206   5.314   5.693   5.310
 3769SOL    HW212207   5.311   5.540   5.253
 3770SOL     OW12208   2.197   0.815   6.765
 3770SOL    HW112209   2.255   0.733   6.763
 3770SOL    HW212210   2.175   0.837   6.860
 3771SOL     OW12211   5.510   1.933   0.911
 3771SOL    HW112212   5.492   1.908   1.006
 3771SOL    HW212213   5.444   1.890   0.851
 3772SOL     OW12214   6.463   1.615   0.806
 3772SOL    HW112215   6.375   1.580   0.773
 3772SOL    HW212216   6.508   1.665   0.732
 3773SOL     OW12217   5.545   3.084   5.807
 3773SOL    HW112218   5.461   3.030   5.811
 3773SOL    HW212219   5.523   3.181   5.802
 3774SOL     OW12220   1.051   6.891   6.800
 3774SOL    HW112221   1.012   6.807   6.838
 3774SOL    HW212222   0.978   6.956   6.780
 3775SOL     OW12223   5.360   3.765   2.331
 3775SOL    HW112224   5.260   3.769   2.336
 3775SOL    HW212225   5.390   3.672   2.355
 3776SOL     OW12226   2.537   1.183   1.784
 3776SOL    HW112227   2.531   1.085   1.805
 3776SOL    HW212228   2.497   1.201   1.695
 3777SOL     OW12229   2.609   4.657   4.566
 3777SOL    HW112230   2.662   4.681   4.647
 3777SOL    HW212231   2.671   4.630   4.492
 3778SOL     OW12232   2.140   5.950   3.187
 3778SOL    HW112233   2.086   6.004   3.252
 3778SOL    HW212234   2.093   5.948   3.098
 3779SOL     OW12235   2.962   5.143   6.830
 3779SOL    HW112236   3.055   5.120   6.858
 3779SOL    HW212237   2.896   5.094   6.888
 3780SOL     OW12238   3.298   5.021   4.553
 3780SOL    HW112239   3.363   4.996   4.624
 3780SOL    HW212240   3.205   5.000   4.583
 3781SOL     OW12241   1.914   6.126   3.948
 3781SOL    HW112242   1.935   6.028   3.956
 3781SOL    HW212243   1.841   6.139   3.881
 3782SOL     OW12244   2.594   2.381   4.233
 3782SOL    HW112245   2.641   2.351   4.150
 3782SOL    HW212246   2.605   2.311   4.304
 3783SOL     OW12247   6.884   6.805   4.747
 3783SOL    HW112248   6.983   6.793   4.738
 3783SOL    HW212249   6.860   6.806   4.844
 3784SOL     OW12250   5.168   1.783   3.300
 3784SOL    HW112251   5.186   1.699   3.350
 3784SOL    HW212252   5.122   1.849   3.360
 3785SOL     OW12253   2.117   1.418   0.279
 3785SOL    HW112254   2.048   1.417   0.351
 3785SOL    HW212255   2.124   1.327   0.238
 3786SOL     OW12256   2.704   5.148   3.156
 3786SOL    HW112257   2.763   5.228   3.159
 3786SOL    HW212258   2.672   5.133   3.062
 3787SOL     OW12259   5.574   6.575   3.578
 3787SOL    HW112260   5.619   6.486   3.576
 3787SOL    HW212261   5.628   6.641   3.526
 3788SOL     OW12262   6.392   3.168   3.452
 3788SOL    HW112263   6.411   3.259   3.488
 3788SOL    HW212264   6.374   3.175   3.354
 3789SOL     OW12265   1.800   4.306   4.243
 3789SOL    HW112266   1.757   4.325   4.332
 3789SOL    HW212267   1.837   4.213   4.244
 3790SOL     OW12268   1.976   3.805   4.982
 3790SOL    HW112269   1.904   3.743   4.952
 3790SOL    HW212270   2.039   3.823   4.907
 3791SOL     OW12271   5.610   0.010   0.737
 3791SOL    HW112272   5.554   6.969   0.795
 3791SOL    HW212273   5.682   6.974   0.693
 3792SOL     OW12274   6.688   0.558   4.973
 3792SOL    HW112275   6.713   0.480   5.032
 3792SOL    HW212276   6.614   0.530   4.912
 3793SOL     OW12277   2.315   0.692   2.766
 3793SOL    HW112278   2.360   0.765   2.715
 3793SOL    HW212279   2.383   0.640   2.817
 3794SOL     OW12280   3.847   5.355   1.598
 3794SOL    HW112281   3.782   5.431   1.594
 3794SOL    HW212282   3.797   5.269   1.598
 3795SOL     OW12283   4.119   6.761   6.220
 3795SOL    HW112284   4.041   6.705   6.196
 3795SOL    HW212285   4.123   6.840   6.159
 3796SOL     OW12286   1.875   2.057   1.598
 3796SOL    HW112287   1.845   2.149   1.622
 3796SOL    HW212288   1.795   2.001   1.574
 3797SOL     OW12289   6.614   5.542   2.443
 3797SOL    HW112290   6.585   5.450   2.414
 3797SOL    HW212291   6.687   5.534   2.511
 3798SOL     OW12292   2.409   5.272   2.782
 3798SOL    HW112293   2.363   5.250   2.696
 3798SOL    HW212294   2.508   5.267   2.769
 3799SOL     OW12295   1.200   2.460   4.346
 3799SOL    HW112296   1.278   2.421   4.396
 3799SOL    HW212297   1.217   2.453   4.247
 3800SOL     OW12298   5.147   2.272   5.064
 3800SOL    HW112299   5.203   2.348   5.032
 3800SOL    HW212300   5.090   2.302   5.141
 3801SOL     OW12301   6.589   5.730   5.439
 3801SOL    HW112302   6.524   5.654   5.436
 3801SOL    HW212303   6.541   5.815   5.416
 3802SOL     OW12304   1.362   1.939   4.940
 3802SOL    HW112305   1.265   1.932   4.963
 3802SOL    HW212306   1.385   1.872   4.870
 3803SOL     OW12307   3.679   0.785   2.144
 3803SOL    HW112308   3.661   0.848   2.068
 3803SOL    HW212309   3.601   0.723   2.155
 3804SOL     OW12310   4.608   2.299   4.428
 3804SOL    HW112311   4.666   2.265   4.354
 3804SOL    HW212312   4.602   2.230   4.500
 3805SOL     OW12313   3.029   3.986   1.776
 3805SOL    HW112314   3.052   4.012   1.870
 3805SOL    HW212315   2.952   3.922   1.777
 3806SOL     OW12316   2.681   2.626   0.048
 3806SOL    HW112317   2.670   2.530   0.025
 3806SOL    HW212318   2.657   2.641   0.144
 3807SOL     OW12319   2.148   1.510   4.689
 3807SOL    HW112320   2.229   1.505   4.631
 3807SOL    HW212321   2.154   1.440   4.760
 3808SOL     OW12322   2.986   0.578   2.344
 3808SOL    HW112323   3.009   0.613   2.434
 3808SOL    HW212324   2.938   0.648   2.291
 3809SOL     OW12325   5.847   1.929   0.280
 3809SOL    HW112326   5.920   1.925   0.211
 3809SOL    HW212327   5.768   1.876   0.248
 3810SOL     OW12328   4.140   2.980   5.305
 3810SOL    HW112329   4.046   2.975   5.271
 3810SOL    HW212330   4.165   3.076   5.317
 3811SOL     OW12331   0.776   4.515   3.530
 3811SOL    HW112332   0.758   4.427   3.485
 3811SOL    HW212333   0.690   4.558   3.554
 3812SOL     OW12334   5.429   1.541   5.502
 3812SOL    HW112335   5.445   1.537   5.600
 3812SOL    HW212336   5.496   1.485   5.454
 3813SOL     OW12337   4.581   4.284   0.738
 3813SOL    HW112338   4.658   4.342   0.763
 3813SOL    HW212339   4.522   4.271   0.818
 3814SOL     OW12340   0.090   6.462   1.052
 3814SOL    HW112341   0.148   6.397   1.003
 3814SOL    HW212342   0.112   6.555   1.023
 3815SOL     OW12343   4.962   2.445   0.577
 3815SOL    HW112344   4.929   2.468   0.668
 3815SOL    HW212345   4.931   2.353   0.552
 3816SOL     OW12346   0.026   6.201   1.614
 3816SOL    HW112347   6.982   6.263   1.661
 3816SOL    HW212348   0.120   6.222   1.639
 3817SOL     OW12349   4.878   3.067   4.278
 3817SOL    HW112350   4.812   3.017   4.222
 3817SOL    HW212351   4.969   3.026   4.267
 3818SOL     OW12352   4.389   6.298   1.581
 3818SOL    HW112353   4.321   6.361   1.619
 3818SOL    HW212354   4.435   6.340   1.504
 3819SOL     OW12355   5.556   5.108   0.420
 3819SOL    HW112356   5.464   5.078   0.397
 3819SOL    HW212357   5.571   5.200   0.383
 3820SOL     OW12358   6.097   6.255   3.538
 3820SOL    HW112359   6.070   6.317   3.611
 3820SOL    HW212360   6.100   6.161   3.573
 3821SOL     OW12361   1.592   3.163   2.071
 3821SOL    HW112362   1.532   3.083   2.077
 3821SOL    HW212363   1.565   3.220   1.994
 3822SOL     OW12364   1.431   5.327   2.063
 3822SOL    HW112365   1.402   5.383   2.140
 3822SOL    HW212366   1.461   5.387   1.988
 3823SOL     OW12367   4.239   2.174   5.017
 3823SOL    HW112368   4.190   2.133   5.094
 3823SOL    HW212369   4.229   2.274   5.020
 3824SOL     OW12370   6.185   1.924   5.349
 3824SOL    HW112371   6.270   1.872   5.356
 3824SOL    HW212372   6.200   2.017   5.384
 3825SOL     OW12373   6.714   0.326   6.952
 3825SOL    HW112374   6.809   0.359   6.958
 3825SOL    HW212375   6.696   0.293   6.860
 3826SOL     OW12376   0.059   3.805   0.316
 3826SOL    HW112377   0.016   3.869   0.252
 3826SOL    HW212378   0.003   3.722   0.323
 3827SOL     OW12379   3.931   4.182   1.060
 3827SOL    HW112380   3.843   4.139   1.077
 3827SOL    HW212381   3.952   4.178   0.963
 3828SOL     OW12382   4.397   2.283   0.697
 3828SOL    HW112383   4.442   2.268   0.609
 3828SOL    HW212384   4.464   2.280   0.770
 3829SOL     OW12385   2.435   5.012   3.797
 3829SOL    HW112386   2.357   4.959   3.763
 3829SOL    HW212387   2.494   4.952   3.851
 3830SOL     OW12388   1.427   0.049   5.587
 3830SOL    HW112389   1.403   6.972   5.572
 3830SOL    HW212390   1.526   0.057   5.598
 3831SOL     OW12391   4.268   1.822   2.428
 3831SOL    HW112392   4.215   1.850   2.509
 3831SOL    HW212393   4.208   1.771   2.366
 3832SOL     OW12394   6.297   1.003   1.508
 3832SOL    HW112395   6.388   1.010   1.548
 3832SOL    HW212396   6.270   0.906   1.504
 3833SOL     OW12397   0.520   5.034   6.842
 3833SOL    HW112398   0.429   4.993   6.847
 3833SOL    HW212399   0.554   5.028   6.748
 3834SOL     OW12400   2.644   1.963   0.112
 3834SOL    HW112401   2.668   1.933   0.204
 3834SOL    HW212402   2.710   2.030   0.080
 3835SOL     OW12403   3.762   5.522   5.438
 3835SOL    HW112404   3.769   5.448   5.371
 3835SOL    HW212405   3.686   5.582   5.413
 3836SOL     OW12406   1.908   3.497   5.900
 3836SOL    HW112407   1.829   3.436   5.907
 3836SOL    HW212408   1.978   3.454   5.842
 3837SOL     OW12409   4.654   3.418   0.515
 3837SOL    HW112410   4.586   3.369   0.461
 3837SOL    HW212411   4.611   3.499   0.556
 3838SOL     OW12412   5.144   3.168   4.535
 3838SOL    HW112413   5.050   3.198   4.522
 3838SOL    HW212414   5.176   3.194   4.626
 3839SOL     OW12415   5.206   0.198   5.089
 3839SOL    HW112416   5.269   0.160   5.021
 3839SOL    HW212417   5.217   0.149   5.175
 3840SOL     OW12418   1.535   0.788   5.084
 3840SOL    HW112419   1.459   0.815   5.025
 3840SOL    HW212420   1.610   0.752   5.027
 3841SOL     OW12421   0.619   3.913   5.243
 3841SOL    HW112422   0.565   3.988   5.203
 3841SOL    HW212423   0.674   3.870   5.172
 3842SOL     OW12424   0.610   5.574   6.962
 3842SOL    HW112425   0.693   5.629   6.950
 3842SOL    HW212426   0.607   5.502   6.892
 3843SOL     OW12427   0.064   3.582   0.682
 3843SOL    HW112428   0.103   3.498   0.718
 3843SOL    HW212429   7.011   3.560   0.615
 3844SOL     OW12430   1.338   5.247   5.765
 3844SOL    HW112431   1.393   5.249   5.848
 3844SOL    HW212432   1.375   5.312   5.699
 3845SOL     OW12433   3.329   3.040   2.868
 3845SOL    HW112434   3.246   3.090   2.846
 3845SOL    HW212435   3.340   3.035   2.967
 3846SOL     OW12436   6.882   4.805   4.014
 3846SOL    HW112437   6.963   4.863   4.025
 3846SOL    HW212438   6.884   4.762   3.924
 3847SOL     OW12439   6.338   1.239   6.753
 3847SOL    HW112440   6.432   1.259   6.725
 3847SOL    HW212441   6.297   1.174   6.690
 3848SOL     OW12442   2.082   5.156   2.353
 3848SOL    HW112443   1.982   5.156   2.362
 3848SOL    HW212444   2.123   5.192   2.437
 3849SOL     OW12445   0.698   1.463   5.789
 3849SOL    HW112446   0.782   1.517   5.791
 3849SOL    HW212447   0.649   1.476   5.875
 3850SOL     OW12448   2.901   3.480   1.748
 3850SOL    HW112449   2.963   3.404   1.767
 3850SOL    HW212450   2.889   3.489   1.649
 3851SOL     OW12451   2.422   4.334   2.653
 3851SOL    HW112452   2.490   4.272   2.692
 3851SOL    HW212453   2.334   4.286   2.646
 3852SOL     OW12454   4.492   0.793   4.933
 3852SOL    HW112455   4.580   0.786   4.887
 3852SOL    HW212456   4.505   0.819   5.028
 3853SOL     OW12457   0.449   3.250   2.851
 3853SOL    HW112458   0.478   3.280   2.942
 3853SOL    HW212459   0.437   3.329   2.792
 3854SOL     OW12460   0.955   3.471   3.428
 3854SOL    HW112461   0.993   3.488   3.519
 3854SOL    HW212462   0.896   3.390   3.431
 3855SOL     OW12463   5.957   5.079   6.067
 3855SOL    HW112464   5.953   5.069   5.968
 3855SOL    HW212465   5.895   5.151   6.096
 3856SOL     OW12466   0.383   0.451   6.161
 3856SOL    HW112467   0.426   0.406   6.083
 3856SOL    HW212468   0.373   0.385   6.236
 3857SOL     OW12469   1.617   6.919   5.092
 3857SOL    HW112470   1.704   6.869   5.087
 3857SOL    HW212471   1.632   7.006   5.139
 3858SOL     OW12472   0.889   6.129   6.295
 3858SOL    HW112473   0.967   6.083   6.337
 3858SOL    HW212474   0.850   6.195   6.360
 3859SOL     OW12475   6.695   2.678   3.980
 3859SOL    HW112476   6.767   2.610   3.996
 3859SOL    HW212477   6.734   2.770   3.989
 3860SOL     OW12478   2.028   5.608   4.829
 3860SOL    HW112479   2.097   5.605   4.901
 3860SOL    HW212480   1.941   5.572   4.863
 3861SOL     OW12481   5.408   4.730   1.165
 3861SOL    HW112482   5.424   4.813   1.218
 3861SOL    HW212483   5.494   4.683   1.149
 3862SOL     OW12484   0.403   0.199   6.304
 3862SOL    HW112485   0.368   0.120   6.255
 3862SOL    HW212486   0.405   0.180   6.402
 3863SOL     OW12487   3.270   3.833   0.890
 3863SOL    HW112488   3.232   3.854   0.799
 3863SOL    HW212489   3.288   3.918   0.939
 3864SOL     OW12490   3.646   2.010   6.875
 3864SOL    HW112491   3.698   1.984   6.793
 3864SOL    HW212492   3.706   2.008   6.954
 3865SOL     OW12493   3.577   0.353   2.205
 3865SOL    HW112494   3.555   0.450   2.193
 3865SOL    HW212495   3.493   0.301   2.215
 3866SOL     OW12496   4.026   0.126   1.192
 3866SOL    HW112497   4.124   0.143   1.182
 3866SOL    HW212498   4.010   0.067   1.271
 3867SOL     OW12499   2.049   3.668   3.025
 3867SOL    HW112500   1.969   3.615   3.053
 3867SOL    HW212501   2.091   3.625   2.945
 3868SOL     OW12502   1.846   6.380   1.550
 3868SOL    HW112503   1.845   6.374   1.451
 3868SOL    HW212504   1.797   6.462   1.579
 3869SOL     OW12505   0.221   2.391   3.496
 3869SOL    HW112506   0.321   2.390   3.496
 3869SOL    HW212507   0.187   2.298   3.491
 3870SOL     OW12508   2.954   4.758   6.962
 3870SOL    HW112509   2.906   4.672   6.979
 3870SOL    HW212510   2.894   4.821   6.914
 3871SOL     OW12511   3.350   0.006   2.628
 3871SOL    HW112512   3.347   0.064   2.709
 3871SOL    HW212513   3.386   6.935   2.652
 3872SOL     OW12514   3.984   3.344   1.065
 3872SOL    HW112515   3.965   3.311   1.157
 3872SOL    HW212516   4.039   3.278   1.015
 3873SOL     OW12517   5.199   5.564   1.132
 3873SOL    HW112518   5.133   5.636   1.113
 3873SOL    HW212519   5.222   5.564   1.229
 3874SOL     OW12520   4.168   6.305   6.683
 3874SOL    HW112521   4.150   6.326   6.779
 3874SOL    HW212522   4.250   6.249   6.676
 3875SOL     OW12523   1.576   4.517   1.696
 3875SOL    HW112524   1.489   4.553   1.664
 3875SOL    HW212525   1.585   4.421   1.668
 3876SOL     OW12526   6.015   5.132   4.630
 3876SOL    HW112527   5.929   5.099   4.669
 3876SOL    HW212528   6.083   5.058   4.630
 3877SOL     OW12529   6.308   1.329   2.598
 3877SOL    HW112530   6.341   1.302   2.689
 3877SOL    HW212531   6.371   1.295   2.529
 3878SOL     OW12532   3.876   6.673   6.253
 3878SOL    HW112533   3.801   6.670   6.187
 3878SOL    HW212534   3.839   6.676   6.345
 3879SOL     OW12535   4.262   5.542   1.859
 3879SOL    HW112536   4.174   5.512   1.823
 3879SOL    HW212537   4.326   5.556   1.783
 3880SOL     OW12538   5.643   3.376   2.637
 3880SOL    HW112539   5.681   3.415   2.553
 3880SOL    HW212540   5.647   3.276   2.632
 3881SOL     OW12541   1.176   4.750   0.790
 3881SOL    HW112542   1.194   4.814   0.715
 3881SOL    HW212543   1.243   4.676   0.788
 3882SOL     OW12544   6.322   1.149   6.001
 3882SOL    HW112545   6.308   1.050   5.994
 3882SOL    HW212546   6.312   1.178   6.096
 3883SOL     OW12547   4.167   1.393   3.596
 3883SOL    HW112548   4.162   1.493   3.597
 3883SOL    HW212549   4.254   1.363   3.634
 3884SOL     OW12550   1.389   6.025   4.883
 3884SOL    HW112551   1.356   5.972   4.805
 3884SOL    HW212552   1.452   5.969   4.937
 3885SOL     OW12553   6.825   1.484   3.895
 3885SOL    HW112554   6.855   1.389   3.881
 3885SOL    HW212555   6.741   1.500   3.843
 3886SOL     OW12556   6.796   0.481   5.393
 3886SOL    HW112557   6.887   0.472   5.351
 3886SOL    HW212558   6.752   0.564   5.360
 3887SOL     OW12559   4.076   2.009   5.514
 3887SOL    HW112560   3.991   2.058   5.533
 3887SOL    HW212561   4.063   1.912   5.537
 3888SOL     OW12562   6.386   1.915   0.724
 3888SOL    HW112563   6.297   1.871   0.711
 3888SOL    HW212564   6.404   1.926   0.822
 3889SOL     OW12565   0.629   5.671   6.191
 3889SOL    HW112566   0.534   5.680   6.223
 3889SOL    HW212567   0.691   5.681   6.269
 3890SOL     OW12568   5.562   4.991   2.663
 3890SOL    HW112569   5.499   4.941   2.723
 3890SOL    HW212570   5.594   4.930   2.590
 3891SOL     OW12571   5.390   5.208   4.886
 3891SOL    HW112572   5.379   5.126   4.942
 3891SOL    HW212573   5.309   5.266   4.896
 3892SOL     OW12574   6.042   6.800   2.976
 3892SOL    HW112575   6.001   6.784   2.886
 3892SOL    HW212576   6.060   6.897   2.987
 3893SOL     OW12577   2.979   5.577   4.585
 3893SOL    HW112578   3.069   5.605   4.618
 3893SOL    HW212579   2.984   5.484   4.549
 3894SOL     OW12580   4.216   3.234   0.498
 3894SOL    HW112581   4.144   3.205   0.434
 3894SOL    HW212582   4.185   3.219   0.592
 3895SOL     OW12583   2.146   1.326   6.001
 3895SOL    HW112584   2.184   1.285   5.918
 3895SOL    HW212585   2.083   1.399   5.976
 3896SOL     OW12586   0.121   2.767   5.138
 3896SOL    HW112587   0.105   2.842   5.074
 3896SOL    HW212588   0.033   2.725   5.162
 3897SOL     OW12589   3.550   6.859   1.999
 3897SOL    HW112590   3.550   6.918   2.080
 3897SOL    HW212591   3.609   6.780   2.016
 3898SOL     OW12592   4.130   3.446   4.206
 3898SOL    HW112593   4.173   3.356   4.205
 3898SOL    HW212594   4.070   3.456   4.127
 3899SOL     OW12595   4.544   1.630   5.660
 3899SOL    HW112596   4.489   1.553   5.691
 3899SOL    HW212597   4.611   1.655   5.730
 3900SOL     OW12598   6.151   2.828   3.229
 3900SOL    HW112599   6.177   2.792   3.139
 3900SOL    HW212600   6.052   2.831   3.236
 3901SOL     OW12601   1.217   6.871   5.264
 3901SOL    HW112602   1.249   6.902   5.175
 3901SOL    HW212603   1.126   6.830   5.255
 3902SOL     OW12604   4.928   5.245   1.782
 3902SOL    HW112605   4.918   5.147   1.764
 3902SOL    HW212606   4.962   5.290   1.700
 3903SOL     OW12607   4.400   2.521   6.777
 3903SOL    HW112608   4.312   2.541   6.734
 3903SOL    HW212609   4.405   2.424   6.798
 3904SOL     OW12610   1.169   6.069   0.942
 3904SOL    HW112611   1.074   6.040   0.929
 3904SOL    HW212612   1.231   5.999   0.906
 3905SOL     OW12613   0.096   0.638   5.787
 3905SOL    HW112614   0.110   0.679   5.877
 3905SOL    HW212615   0.124   0.703   5.716
 3906SOL     OW12616   1.915   5.002   4.358
 3906SOL    HW112617   1.883   4.993   4.264
 3906SOL    HW212618   1.837   4.998   4.421
 3907SOL     OW12619   6.601   1.567   4.157
 3907SOL    HW112620   6.537   1.583   4.082
 3907SOL    HW212621   6.668   1.641   4.162
 3908SOL     OW12622   1.660   0.378   5.020
 3908SOL    HW112623   1.749   0.416   4.993
 3908SOL    HW212624   1.618   0.333   4.941
 3909SOL     OW12625   5.676   2.879   5.924
 3909SOL    HW112626   5.639   2.970   5.904
 3909SOL    HW212627   5.602   2.819   5.953
 3910SOL     OW12628   3.604   2.326   0.452
 3910SOL    HW112629   3.560   2.371   0.529
 3910SOL    HW212630   3.604   2.227   0.466
 3911SOL     OW12631   6.292   0.736   1.508
 3911SOL    HW112632   6.374   0.731   1.450
 3911SOL    HW212633   6.212   0.709   1.454
 3912SOL     OW12634   3.916   2.299   0.010
 3912SOL    HW112635   3.890   2.395   0.006
 3912SOL    HW212636   3.984   2.279   6.958
 3913SOL     OW12637   4.278   5.422   0.787
 3913SOL    HW112638   4.288   5.517   0.816
 3913SOL    HW212639   4.337   5.363   0.842
 3914SOL     OW12640   5.590   0.940   0.864
 3914SOL    HW112641   5.607   0.961   0.767
 3914SOL    HW212642   5.627   0.849   0.885
 3915SOL     OW12643   4.709   5.226   6.896
 3915SOL    HW112644   4.725   5.129   6.876
 3915SOL    HW212645   4.706   5.239   6.995
 3916SOL     OW12646   1.665   0.645   2.519
 3916SOL    HW112647   1.637   0.740   2.518
 3916SOL    HW212648   1.736   0.632   2.589
 3917SOL     OW12649   2.888   5.093   0.830
 3917SOL    HW112650   2.822   5.096   0.755
 3917SOL    HW212651   2.975   5.133   0.800
 3918SOL     OW12652   5.564   0.624   0.768
 3918SOL    HW112653   5.506   0.661   0.696
 3918SOL    HW212654   5.523   0.645   0.857
 3919SOL     OW12655   3.950   6.999   1.715
 3919SOL    HW112656   3.853   6.997   1.739
 3919SOL    HW212657   3.979   0.074   1.697
 3920SOL     OW12658   3.238   1.049   6.224
 3920SOL    HW112659   3.283   1.010   6.144
 3920SOL    HW212660   3.143   1.019   6.228
 3921SOL     OW12661   0.783   2.646   6.375
 3921SOL    HW112662   0.796   2.667   6.472
 3921SOL    HW212663   0.738   2.723   6.329
 3922SOL     OW12664   4.699   4.988   2.688
 3922SOL    HW112665   4.772   4.989   2.619
 3922SOL    HW212666   4.685   4.894   2.720
 3923SOL     OW12667   5.087   0.861   1.546
 3923SOL    HW112668   5.036   0.837   1.464
 3923SOL    HW212669   5.072   0.957   1.568
 3924SOL     OW12670   6.379   4.273   4.308
 3924SOL    HW112671   6.356   4.346   4.372
 3924SOL    HW212672   6.468   4.292   4.266
 3925SOL     OW12673   4.537   4.002   0.762
 3925SOL    HW112674   4.624   3.952   0.769
 3925SOL    HW212675   4.556   4.100   0.752
 3926SOL     OW12676   0.340   0.237   5.364
 3926SOL    HW112677   0.405   0.276   5.429
 3926SOL    HW212678   0.248   0.244   5.402
 3927SOL     OW12679   6.398   2.691   5.224
 3927SOL    HW112680   6.467   2.748   5.270
 3927SOL    HW212681   6.361   2.625   5.289
 3928SOL     OW12682   1.972   6.320   2.622
 3928SOL    HW112683   2.053   6.335   2.679
 3928SOL    HW212684   1.905   6.391   2.640
 3929SOL     OW12685   0.507   1.842   5.381
 3929SOL    HW112686   0.570   1.781   5.332
 3929SOL    HW212687   0.413   1.811   5.368
 3930SOL     OW12688   0.877   3.991   3.578
 3930SOL    HW112689   0.865   4.061   3.649
 3930SOL    HW212690   0.811   3.918   3.592
 3931SOL     OW12691   1.495   2.541   1.532
 3931SOL    HW112692   1.417   2.542   1.469
 3931SOL    HW212693   1.461   2.532   1.626
 3932SOL     OW12694   1.624   5.681   4.018
 3932SOL    HW112695   1.646   5.745   4.093
 3932SOL    HW212696   1.704   5.624   3.999
 3933SOL     OW12697   2.053   4.766   0.557
 3933SOL    HW112698   2.037   4.795   0.463
 3933SOL    HW212699   2.023   4.671   0.568
 3934SOL     OW12700   0.585   1.370   1.843
 3934SOL    HW112701   0.652   1.369   1.917
 3934SOL    HW212702   0.558   1.464   1.824
 3935SOL     OW12703   5.987   3.553   6.642
 3935SOL    HW112704   6.058   3.495   6.603
 3935SOL    HW212705   5.925   3.583   6.570
 3936SOL     OW12706   0.476   5.193   5.598
 3936SOL    HW112707   0.385   5.221   5.629
 3936SOL    HW212708   0.487   5.218   5.502
 3937SOL     OW12709   0.157   0.403   1.959
 3937SOL    HW112710   0.202   0.475   2.012
 3937SOL    HW212711   0.087   0.359   2.016
 3938SOL     OW12712   0.722   4.235   2.993
 3938SOL    HW112713   0.704   4.248   3.091
 3938SOL    HW212714   0.650   4.279   2.940
 3939SOL     OW12715   1.025   0.845   2.363
 3939SOL    HW112716   0.970   0.887   2.435
 3939SOL    HW212717   1.093   0.911   2.330
 3940SOL     OW12718   2.748   5.078   1.209
 3940SOL    HW112719   2.780   5.093   1.303
 3940SOL    HW212720   2.792   5.145   1.148
 3941SOL     OW12721   6.166   0.011   4.003
 3941SOL    HW112722   6.242   0.015   3.938
 3941SOL    HW212723   6.103   0.087   3.986
 3942SOL     OW12724   0.073   5.991   5.933
 3942SOL    HW112725   0.046   5.990   5.837
 3942SOL    HW212726   0.020   5.923   5.983
 3943SOL     OW12727   1.347   2.806   0.214
 3943SOL    HW112728   1.426   2.764   0.259
 3943SOL    HW212729   1.282   2.735   0.187
 3944SOL     OW12730   6.080   1.857   6.586
 3944SOL    HW112731   6.139   1.905   6.521
 3944SOL    HW212732   6.054   1.768   6.547
 3945SOL     OW12733   6.830   1.225   3.163
 3945SOL    HW112734   6.840   1.126   3.168
 3945SOL    HW212735   6.887   1.261   3.089
 3946SOL     OW12736   1.124   2.802   0.792
 3946SOL    HW112737   1.188   2.728   0.812
 3946SOL    HW212738   1.175   2.885   0.770
 3947SOL     OW12739   5.988   4.897   1.646
 3947SOL    HW112740   5.898   4.862   1.672
 3947SOL    HW212741   5.977   4.973   1.582
 3948SOL     OW12742   1.271   2.265   6.573
 3948SOL    HW112743   1.339   2.200   6.539
 3948SOL    HW212744   1.224   2.309   6.496
 3949SOL     OW12745   5.730   6.831   2.746
 3949SOL    HW112746   5.672   6.864   2.671
 3949SOL    HW212747   5.814   6.794   2.709
 3950SOL     OW12748   3.066   4.568   1.359
 3950SOL    HW112749   3.114   4.510   1.294
 3950SOL    HW212750   3.120   4.649   1.379
 3951SOL     OW12751   0.867   2.159   5.599
 3951SOL    HW112752   0.837   2.220   5.526
 3951SOL    HW212753   0.790   2.143   5.662
 3952SOL     OW12754   6.411   3.815   5.335
 3952SOL    HW112755   6.433   3.732   5.385
 3952SOL    HW212756   6.344   3.795   5.264
 3953SOL     OW12757   3.628   4.439   5.979
 3953SOL    HW112758   3.721   4.401   5.980
 3953SOL    HW212759   3.602   4.462   6.073
 3954SOL     OW12760   0.921   3.391   5.358
 3954SOL    HW112761   0.979   3.395   5.277
 3954SOL    HW212762   0.839   3.446   5.344
 3955SOL     OW12763   5.944   4.949   6.854
 3955SOL    HW112764   5.858   4.993   6.829
 3955SOL    HW212765   5.927   4.853   6.875
 3956SOL     OW12766   1.211   2.516   5.449
 3956SOL    HW112767   1.256   2.429   5.469
 3956SOL    HW212768   1.259   2.589   5.498
 3957SOL     OW12769   1.757   0.421   3.235
 3957SOL    HW112770   1.716   0.408   3.145
 3957SOL    HW212771   1.737   0.513   3.268
 3958SOL     OW12772   5.308   6.398   5.248
 3958SOL    HW112773   5.229   6.458   5.259
 3958SOL    HW212774   5.392   6.453   5.250
 3959SOL     OW12775   2.692   5.012   0.164
 3959SOL    HW112776   2.715   4.972   0.252
 3959SOL    HW212777   2.617   4.960   0.123
 3960SOL     OW12778   4.007   3.087   0.371
 3960SOL    HW112779   4.030   3.006   0.426
 3960SOL    HW212780   3.939   3.062   0.302
 3961SOL     OW12781   4.761   1.122   1.449
 3961SOL    HW112782   4.670   1.149   1.417
 3961SOL    HW212783   4.827   1.132   1.374
 3962SOL     OW12784   0.539   0.328   5.916
 3962SOL    HW112785   0.591   0.384   5.852
 3962SOL    HW212786   0.580   0.238   5.924
 3963SOL     OW12787   4.614   5.446   3.159
 3963SOL    HW112788   4.679   5.394   3.103
 3963SOL    HW212789   4.661   5.524   3.200
 3964SOL     OW12790   5.478   5.965   5.102
 3964SOL    HW112791   5.477   6.042   5.038
 3964SOL    HW212792   5.475   5.879   5.051
 3965SOL     OW12793   3.509   3.485   0.383
 3965SOL    HW112794   3.466   3.396   0.367
 3965SOL    HW212795   3.505   3.507   0.480
 3966SOL     OW12796   5.867   3.759   5.278
 3966SOL    HW112797   5.958   3.796   5.260
 3966SOL    HW212798   5.841   3.697   5.203
 3967SOL     OW12799   0.348   5.658   6.308
 3967SOL    HW112800   0.309   5.584   6.363
 3967SOL    HW212801   0.288   5.677   6.230
 3968SOL     OW12802   6.032   0.750   1.898
 3968SOL    HW112803   5.937   0.764   1.926
 3968SOL    HW212804   6.090   0.753   1.979
 3969SOL     OW12805   0.423   4.995   2.390
 3969SOL    HW112806   0.453   4.908   2.430
 3969SOL    HW212807   0.368   5.044   2.457
 3970SOL     OW12808   5.434   4.255   2.698
 3970SOL    HW112809   5.500   4.263   2.623
 3970SOL    HW212810   5.456   4.321   2.769
 3971SOL     OW12811   1.406   6.216   3.099
 3971SOL    HW112812   1.494   6.234   3.056
 3971SOL    HW212813   1.395   6.274   3.180
 3972SOL     OW12814   1.274   6.817   6.980
 3972SOL    HW112815   1.351   6.824   6.916
 3972SOL    HW212816   1.196   6.868   6.944
 3973SOL     OW12817   3.227   3.553   4.462
 3973SOL    HW112818   3.178   3.494   4.527
 3973SOL    HW212819   3.246   3.642   4.506
 3974SOL     OW12820   6.154   1.732   6.859
 3974SOL    HW112821   6.163   1.791   6.779
 3974SOL    HW212822   6.119   1.642   6.831
 3975SOL     OW12823   0.253   0.754   5.593
 3975SOL    HW112824   0.329   0.796   5.643
 3975SOL    HW212825   0.287   0.716   5.507
 3976SOL     OW12826   1.044   3.244   0.614
 3976SOL    HW112827   1.129   3.222   0.565
 3976SOL    HW212828   0.971   3.260   0.547
 3977SOL     OW12829   3.455   6.026   6.325
 3977SOL    HW112830   3.498   5.966   6.258
 3977SOL    HW212831   3.374   6.068   6.285
 3978SOL     OW12832   5.994   3.069   6.185
 3978SOL    HW112833   5.976   3.017   6.269
 3978SOL    HW212834   5.995   3.006   6.107
 3979SOL     OW12835   0.770   6.791   2.273
 3979SOL    HW112836   0.793   6.884   2.300
 3979SOL    HW212837   0.671   6.780   2.274
 3980SOL     OW12838   5.294   3.479   4.473
 3980SOL    HW112839   5.377   3.471   4.417
 3980SOL    HW212840   5.217   3.439   4.424
 3981SOL     OW12841   6.824   1.708   6.960
 3981SOL    HW112842   6.729   1.714   6.993
 3981SOL    HW212843   6.858   1.801   6.942
 3982SOL     OW12844   2.143   1.847   3.672
 3982SOL    HW112845   2.158   1.885   3.581
 3982SOL    HW212846   2.045   1.829   3.686
 3983SOL     OW12847   3.110   6.356   4.318
 3983SOL    HW112848   3.207   6.331   4.328
 3983SOL    HW212849   3.064   6.345   4.406
 3984SOL     OW12850   2.269   6.678   1.355
 3984SOL    HW112851   2.317   6.764   1.338
 3984SOL    HW212852   2.179   6.697   1.395
 3985SOL     OW12853   2.425   3.007   1.737
 3985SOL    HW112854   2.368   3.085   1.765
 3985SOL    HW212855   2.515   3.041   1.708
 3986SOL     OW12856   0.597   2.089   1.894
 3986SOL    HW112857   0.639   2.108   1.982
 3986SOL    HW212858   0.559   2.174   1.857
 3987SOL     OW12859   2.829   4.760   6.404
 3987SOL    HW112860   2.861   4.670   6.373
 3987SOL    HW212861   2.800   4.753   6.499
 3988SOL     OW12862   4.116   2.867   0.515
 3988SOL    HW112863   4.152   2.916   0.595
 3988SOL    HW212864   4.069   2.784   0.545
 3989SOL     OW12865   4.793   6.686   6.814
 3989SOL    HW112866   4.796   6.784   6.791
 3989SOL    HW212867   4.865   6.665   6.880
 3990SOL     OW12868   0.824   3.250   3.349
 3990SOL    HW112869   0.821   3.318   3.276
 3990SOL    HW212870   0.781   3.165   3.318
 3991SOL     OW12871   0.135   2.384   4.057
 3991SOL    HW112872   0.217   2.419   4.011
 3991SOL    HW212873   0.145   2.286   4.075
 3992SOL     OW12874   4.345   3.572   6.243
 3992SOL    HW112875   4.360   3.533   6.334
 3992SOL    HW212876   4.268   3.526   6.199
 3993SOL     OW12877   2.687   2.089   2.735
 3993SOL    HW112878   2.758   2.049   2.793
 3993SOL    HW212879   2.711   2.183   2.713
 3994SOL     OW12880   2.162   3.015   3.687
 3994SOL    HW112881   2.118   3.083   3.746
 3994SOL    HW212882   2.185   3.058   3.600
 3995SOL     OW12883   2.053   4.019   2.889
 3995SOL    HW112884   1.958   4.044   2.909
 3995SOL    HW212885   2.058   3.922   2.868
 3996SOL     OW12886   0.055   1.100   2.979
 3996SOL    HW112887   6.992   1.043   2.967
 3996SOL    HW212888   0.036   1.193   2.947
 3997SOL     OW12889   5.649   3.977   2.889
 3997SOL    HW112890   5.652   3.887   2.930
 3997SOL    HW212891   5.644   3.968   2.789
 3998SOL     OW12892   6.033   1.822   3.087
 3998SOL    HW112893   6.051   1.740   3.032
 3998SOL    HW212894   6.106   1.889   3.071
 3999SOL     OW12895   5.833   3.112   2.623
 3999SOL    HW112896   5.925   3.076   2.606
 3999SOL    HW212897   5.768   3.067   2.561
 4000SOL     OW12898   2.350   5.899   2.260
 4000SOL    HW112899   2.281   5.932   2.324
 4000SOL    HW212900   2.309   5.884   2.170
 4001SOL     OW12901   2.646   3.936   5.309
 4001SOL    HW112902   2.720   3.921   5.243
 4001SOL    HW212903   2.558   3.931   5.262
 4002SOL     OW12904   3.692   3.057   4.540
 4002SOL    HW112905   3.741   3.034   4.456
 4002SOL    HW212906   3.624   2.986   4.559
 4003SOL     OW12907   2.546   0.914   5.622
 4003SOL    HW112908   2.633   0.905   5.671
 4003SOL    HW212909   2.512   0.824   5.596
 4004SOL     OW12910   0.645   3.731   3.344
 4004SOL    HW112911   0.672   3.758   3.436
 4004SOL    HW212912   0.607   3.638   3.347
 4005SOL     OW12913   4.505   3.715   1.576
 4005SOL    HW112914   4.569   3.730   1.500
 4005SOL    HW212915   4.492   3.617   1.590
 4006SOL     OW12916   4.993   5.500   3.080
 4006SOL    HW112917   5.088   5.532   3.080
 4006SOL    HW212918   4.990   5.403   3.102
 4007SOL     OW12919   0.152   1.609   2.862
 4007SOL    HW112920   0.141   1.631   2.765
 4007SOL    HW212921   0.225   1.542   2.874
 4008SOL     OW12922   2.425   6.816   0.379
 4008SOL    HW112923   2.376   6.866   0.451
 4008SOL    HW212924   2.469   6.736   0.419
 4009SOL     OW12925   4.372   1.957   0.919
 4009SOL    HW112926   4.409   2.024   0.983
 4009SOL    HW212927   4.283   1.989   0.885
 4010SOL     OW12928   2.768   4.418   1.450
 4010SOL    HW112929   2.785   4.462   1.362
 4010SOL    HW212930   2.669   4.415   1.468
 4011SOL     OW12931   6.192   5.966   0.745
 4011SOL    HW112932   6.217   6.062   0.735
 4011SOL    HW212933   6.275   5.911   0.758
 4012SOL     OW12934   4.136   6.033   1.647
 4012SOL    HW112935   4.209   5.992   1.592
 4012SOL    HW212936   4.133   5.988   1.737
 4013SOL     OW12937   1.463   1.042   1.259
 4013SOL    HW112938   1.444   1.140   1.262
 4013SOL    HW212939   1.379   0.991   1.239
 4014SOL     OW12940   2.415   5.865   3.734
 4014SOL    HW112941   2.375   5.779   3.704
 4014SOL    HW212942   2.478   5.899   3.665
 4015SOL     OW12943   4.689   5.089   6.374
 4015SOL    HW112944   4.730   5.154   6.438
 4015SOL    HW212945   4.629   5.137   6.310
 4016SOL     OW12946   3.624   5.950   5.835
 4016SOL    HW112947   3.562   5.872   5.838
 4016SOL    HW212948   3.713   5.921   5.800
 4017SOL     OW12949   0.505   5.463   5.389
 4017SOL    HW112950   0.470   5.369   5.382
 4017SOL    HW212951   0.488   5.498   5.481
 4018SOL     OW12952   3.778   6.087   2.041
 4018SOL    HW112953   3.772   5.996   2.082
 4018SOL    HW212954   3.764   6.080   1.942
 4019SOL     OW12955   5.368   3.373   3.216
 4019SOL    HW112956   5.270   3.386   3.200
 4019SOL    HW212957   5.409   3.326   3.139
 4020SOL     OW12958   6.616   4.348   4.198
 4020SOL    HW112959   6.629   4.319   4.293
 4020SOL    HW212960   6.678   4.297   4.139
 4021SOL     OW12961   3.515   3.733   5.951
 4021SOL    HW112962   3.429   3.728   6.003
 4021SOL    HW212963   3.501   3.696   5.860
 4022SOL     OW12964   3.142   6.882   0.457
 4022SOL    HW112965   3.097   6.861   0.370
 4022SOL    HW212966   3.228   6.929   0.440
 4023SOL     OW12967   0.334   1.956   5.759
 4023SOL    HW112968   0.258   1.935   5.697
 4023SOL    HW212969   0.407   1.889   5.746
 4024SOL     OW12970   1.431   5.145   4.048
 4024SOL    HW112971   1.431   5.056   4.093
 4024SOL    HW212972   1.398   5.135   3.954
 4025SOL     OW12973   1.454   6.055   4.043
 4025SOL    HW112974   1.412   6.000   3.971
 4025SOL    HW212975   1.517   5.998   4.095
 4026SOL     OW12976   6.707   6.201   4.265
 4026SOL    HW112977   6.781   6.218   4.330
 4026SOL    HW212978   6.683   6.104   4.266
 4027SOL     OW12979   2.182   2.046   6.713
 4027SOL    HW112980   2.265   2.002   6.747
 4027SOL    HW212981   2.196   2.145   6.712
 4028SOL     OW12982   4.696   1.720   3.525
 4028SOL    HW112983   4.686   1.681   3.434
 4028SOL    HW212984   4.677   1.818   3.522
 4029SOL     OW12985   2.661   4.038   6.501
 4029SOL    HW112986   2.750   4.046   6.458
 4029SOL    HW212987   2.651   3.947   6.541
 4030SOL     OW12988   6.762   1.157   1.974
 4030SOL    HW112989   6.752   1.100   2.056
 4030SOL    HW212990   6.859   1.172   1.956
 4031SOL     OW12991   5.322   0.329   1.973
 4031SOL    HW112992   5.307   0.378   2.059
 4031SOL    HW212993   5.256   0.362   1.904
 4032SOL     OW12994   6.352   6.542   1.348
 4032SOL    HW112995   6.345   6.545   1.447
 4032SOL    HW212996   6.411   6.465   1.321
 4033SOL     OW12997   3.217   2.154   2.870
 4033SOL    HW112998   3.153   2.175   2.944
 4033SOL    HW212999   3.262   2.238   2.840
 4034SOL     OW13000   6.720   2.673   5.445
 4034SOL    HW113001   6.689   2.702   5.535
 4034SOL    HW213002   6.704   2.746   5.379
 4035SOL     OW13003   6.861   2.359   1.271
 4035SOL    HW113004   6.897   2.447   1.303
 4035SOL    HW213005   6.926   2.286   1.293
 4036SOL     OW13006   3.745   4.990   2.640
 4036SOL    HW113007   3.739   5.055   2.716
 4036SOL    HW213008   3.827   4.934   2.651
 4037SOL     OW13009   3.349   0.573   6.151
 4037SOL    HW113010   3.311   0.532   6.067
 4037SOL    HW213011   3.371   0.500   6.216
 4038SOL     OW13012   4.383   3.325   6.868
 4038SOL    HW113013   4.359   3.231   6.845
 4038SOL    HW213014   4.420   3.329   6.961
 4039SOL     OW13015   5.304   5.901   1.278
 4039SOL    HW113016   5.399   5.917   1.304
 4039SOL    HW213017   5.262   5.988   1.252
 4040SOL     OW13018   3.000   5.345   5.075
 4040SOL    HW113019   3.077   5.296   5.116
 4040SOL    HW213020   3.013   5.350   4.976
 4041SOL     OW13021   2.246   6.176   1.159
 4041SOL    HW113022   2.262   6.183   1.258
 4041SOL    HW213023   2.200   6.090   1.139
 4042SOL     OW13024   5.841   6.530   2.907
 4042SOL    HW113025   5.880   6.611   2.865
 4042SOL    HW213026   5.914   6.464   2.926
 4043SOL     OW13027   6.207   2.263   0.049
 4043SOL    HW113028   6.233   2.170   0.022
 4043SOL    HW213029   6.108   2.271   0.050
 4044SOL     OW13030   4.727   4.565   3.040
 4044SOL    HW113031   4.742   4.609   3.128
 4044SOL    HW213032   4.802   4.589   2.978
 4045SOL     OW13033   4.702   6.585   6.382
 4045SOL    HW113034   4.730   6.629   6.297
 4045SOL    HW213035   4.778   6.585   6.446
 4046SOL     OW13036   0.603   1.178   2.823
 4046SOL    HW113037   0.686   1.163   2.770
 4046SOL    HW213038   0.586   1.100   2.882
 4047SOL     OW13039   1.790   2.957   0.172
 4047SOL    HW113040   1.791   2.919   0.079
 4047SOL    HW213041   1.734   3.039   0.173
 4048SOL     OW13042   4.791   1.053   2.078
 4048SOL    HW113043   4.826   0.975   2.130
 4048SOL    HW213044   4.725   1.021   2.010
 4049SOL     OW13045   4.474   5.899   6.696
 4049SOL    HW113046   4.470   5.803   6.722
 4049SOL    HW213047   4.566   5.921   6.664
 4050SOL     OW13048   1.187   5.667   2.328
 4050SOL    HW113049   1.242   5.705   2.403
 4050SOL    HW213050   1.094   5.705   2.332
 4051SOL     OW13051   5.026   1.439   6.676
 4051SOL    HW113052   4.984   1.373   6.739
 4051SOL    HW213053   5.125   1.431   6.681
 4052SOL     OW13054   6.066   2.217   3.457
 4052SOL    HW113055   6.100   2.218   3.551
 4052SOL    HW213056   6.085   2.129   3.414
 4053SOL     OW13057   1.364   5.937   4.608
 4053SOL    HW113058   1.446   5.951   4.553
 4053SOL    HW213059   1.318   6.025   4.622
 4054SOL     OW13060   4.776   4.536   1.251
 4054SOL    HW113061   4.802   4.614   1.194
 4054SOL    HW213062   4.831   4.457   1.226
 4055SOL     OW13063   1.181   3.922   1.600
 4055SOL    HW113064   1.250   3.955   1.535
 4055SOL    HW213065   1.197   3.962   1.690
 4056SOL     OW13066   5.210   3.724   1.180
 4056SOL    HW113067   5.188   3.699   1.274
 4056SOL    HW213068   5.308   3.716   1.166
 4057SOL     OW13069   6.172   3.275   6.654
 4057SOL    HW113070   6.212   3.349   6.708
 4057SOL    HW213071   6.220   3.268   6.567
 4058SOL     OW13072   2.853   6.210   4.820
 4058SOL    HW113073   2.941   6.224   4.866
 4058SOL    HW213074   2.816   6.121   4.845
 4059SOL     OW13075   0.060   3.105   3.686
 4059SOL    HW113076   0.119   3.089   3.765
 4059SOL    HW213077   0.105   3.073   3.603
 4060SOL     OW13078   6.144   5.712   4.906
 4060SOL    HW113079   6.153   5.612   4.902
 4060SOL    HW213080   6.181   5.751   4.821
 4061SOL     OW13081   2.330   4.669   1.810
 4061SOL    HW113082   2.424   4.655   1.782
 4061SOL    HW213083   2.327   4.731   1.888
 4062SOL     OW13084   3.016   0.559   1.735
 4062SOL    HW113085   3.023   0.636   1.798
 4062SOL    HW213086   3.001   0.592   1.642
 4063SOL     OW13087   5.721   6.664   0.882
 4063SOL    HW113088   5.679   6.743   0.926
 4063SOL    HW213089   5.809   6.644   0.925
 4064SOL     OW13090   2.789   1.897   4.786
 4064SOL    HW113091   2.831   1.984   4.812
 4064SOL    HW213092   2.691   1.912   4.768
 4065SOL     OW13093   0.643   6.997   0.996
 4065SOL    HW113094   0.672   6.976   1.090
 4065SOL    HW213095   0.572   6.932   0.969
 4066SOL     OW13096   6.725   3.819   3.132
 4066SOL    HW113097   6.698   3.772   3.215
 4066SOL    HW213098   6.825   3.813   3.121
 4067SOL     OW13099   5.941   4.111   3.284
 4067SOL    HW113100   6.001   4.057   3.225
 4067SOL    HW213101   5.992   4.138   3.366
 4068SOL     OW13102   2.113   2.461   4.420
 4068SOL    HW113103   2.174   2.471   4.341
 4068SOL    HW213104   2.030   2.514   4.405
 4069SOL     OW13105   3.104   5.942   6.745
 4069SOL    HW113106   3.008   5.959   6.766
 4069SOL    HW213107   3.133   5.855   6.785
 4070SOL     OW13108   1.072   3.101   3.022
 4070SOL    HW113109   1.064   3.184   3.077
 4070SOL    HW213110   1.138   3.116   2.948
 4071SOL     OW13111   1.949   0.517   4.970
 4071SOL    HW113112   2.046   0.521   4.991
 4071SOL    HW213113   1.903   0.599   5.006
 4072SOL     OW13114   1.068   4.791   4.923
 4072SOL    HW113115   1.070   4.822   4.828
 4072SOL    HW213116   1.019   4.858   4.979
 4073SOL     OW13117   2.784   5.452   6.021
 4073SOL    HW113118   2.749   5.528   5.966
 4073SOL    HW213119   2.718   5.378   6.021
 4074SOL     OW13120   0.523   4.724   1.456
 4074SOL    HW113121   0.611   4.678   1.463
 4074SOL    HW213122   0.514   4.791   1.529
 4075SOL     OW13123   5.120   1.725   1.154
 4075SOL    HW113124   5.068   1.685   1.229
 4075SOL    HW213125   5.163   1.810   1.185
 4076SOL     OW13126   3.572   3.556   5.639
 4076SOL    HW113127   3.480   3.594   5.632
 4076SOL    HW213128   3.635   3.610   5.583
 4077SOL     OW13129   4.397   1.474   1.523
 4077SOL    HW113130   4.301   1.474   1.551
 4077SOL    HW213131   4.454   1.446   1.600
 4078SOL     OW13132   2.406   5.129   2.180
 4078SOL    HW113133   2.388   5.210   2.237
 4078SOL    HW213134   2.323   5.074   2.172
 4079SOL     OW13135   1.994   1.572   3.770
 4079SOL    HW113136   1.954   1.636   3.704
 4079SOL    HW213137   2.083   1.541   3.736
 4080SOL     OW13138   5.285   2.318   5.344
 4080SOL    HW113139   5.191   2.286   5.340
 4080SOL    HW213140   5.286   2.414   5.375
 4081SOL     OW13141   1.641   2.871   4.131
 4081SOL    HW113142   1.634   2.828   4.221
 4081SOL    HW213143   1.683   2.960   4.140
 4082SOL     OW13144   1.206   3.292   0.842
 4082SOL    HW113145   1.187   3.259   0.750
 4082SOL    HW213146   1.299   3.331   0.845
 4083SOL     OW13147   6.363   2.739   3.393
 4083SOL    HW113148   6.279   2.765   3.344
 4083SOL    HW213149   6.343   2.664   3.456
 4084SOL     OW13150   5.909   1.572   4.085
 4084SOL    HW113151   5.998   1.613   4.106
 4084SOL    HW213152   5.840   1.611   4.146
 4085SOL     OW13153   4.033   5.648   0.752
 4085SOL    HW113154   4.023   5.745   0.775
 4085SOL    HW213155   4.021   5.593   0.835
 4086SOL     OW13156   2.302   6.170   1.425
 4086SOL    HW113157   2.256   6.237   1.484
 4086SOL    HW213158   2.291   6.079   1.462
 4087SOL     OW13159   2.622   2.321   3.298
 4087SOL    HW113160   2.549   2.260   3.332
 4087SOL    HW213161   2.591   2.416   3.302
 4088SOL     OW13162   6.958   1.565   0.709
 4088SOL    HW113163   0.038   1.568   0.690
 4088SOL    HW213164   6.943   1.525   0.800
 4089SOL     OW13165   6.527   6.305   3.299
 4089SOL    HW113166   6.557   6.222   3.252
 4089SOL    HW213167   6.571   6.310   3.389
 4090SOL     OW13168   2.628   3.989   5.834
 4090SOL    HW113169   2.638   3.894   5.864
 4090SOL    HW213170   2.600   3.992   5.738
 4091SOL     OW13171   6.287   0.038   0.596
 4091SOL    HW113172   6.211   0.086   0.552
 4091SOL    HW213173   6.301   6.968   0.551
 4092SOL     OW13174   6.619   2.890   5.295
 4092SOL    HW113175   6.584   2.948   5.369
 4092SOL    HW213176   6.649   2.948   5.220
 4093SOL     OW13177   4.776   0.383   3.842
 4093SOL    HW113178   4.773   0.294   3.797
 4093SOL    HW213179   4.684   0.421   3.846
 4094SOL     OW13180   2.368   5.122   4.986
 4094SOL    HW113181   2.303   5.060   5.031
 4094SOL    HW213182   2.432   5.159   5.054
 4095SOL     OW13183   1.123   4.297   0.113
 4095SOL    HW113184   1.074   4.211   0.096
 4095SOL    HW213185   1.202   4.303   0.052
 4096SOL     OW13186   3.993   5.468   0.936
 4096SOL    HW113187   3.997   5.385   0.882
 4096SOL    HW213188   4.072   5.472   0.998
 4097SOL     OW13189   4.036   3.817   6.146
 4097SOL    HW113190   4.018   3.786   6.239
 4097SOL    HW213191   4.020   3.742   6.082
 4098SOL     OW13192   6.869   3.038   2.258
 4098SOL    HW113193   6.874   3.135   2.237
 4098SOL    HW213194   6.952   2.992   2.225
 4099SOL     OW13195   2.568   4.685   1.305
 4099SOL    HW113196   2.560   4.762   1.242
 4099SOL    HW213197   2.658   4.643   1.294
 4100SOL     OW13198   5.805   6.177   4.654
 4100SOL    HW113199   5.838   6.107   4.717
 4100SOL    HW213200   5.867   6.184   4.576
 4101SOL     OW13201   5.496   1.050   0.013
 4101SOL    HW113202   5.558   1.030   6.955
 4101SOL    HW213203   5.519   0.991   0.091
 4102SOL     OW13204   6.910   0.673   1.931
 4102SOL    HW113205   6.963   0.650   2.012
 4102SOL    HW213206   6.939   0.762   1.896
 4103SOL     OW13207   0.326   0.562   2.121
 4103SOL    HW113208   0.373   0.629   2.064
 4103SOL    HW213209   0.390   0.488   2.144
 4104SOL     OW13210   1.239   4.561   2.725
 4104SOL    HW113211   1.265   4.491   2.658
 4104SOL    HW213212   1.139   4.563   2.733
 4105SOL     OW13213   3.979   5.223   0.865
 4105SOL    HW113214   4.022   5.187   0.948
 4105SOL    HW213215   3.881   5.207   0.870
 4106SOL     OW13216   0.417   2.571   5.486
 4106SOL    HW113217   0.410   2.582   5.387
 4106SOL    HW213218   0.513   2.560   5.512
 4107SOL     OW13219   1.268   5.868   0.747
 4107SOL    HW113220   1.204   5.792   0.759
 4107SOL    HW213221   1.237   5.926   0.672
 4108SOL     OW13222   0.404   4.601   6.200
 4108SOL    HW113223   0.314   4.633   6.172
 4108SOL    HW213224   0.473   4.669   6.174
 4109SOL     OW13225   4.886   6.442   4.961
 4109SOL    HW113226   4.827   6.406   5.034
 4109SOL    HW213227   4.904   6.539   4.978
 4110SOL     OW13228   4.363   3.443   6.508
 4110SOL    HW113229   4.284   3.472   6.562
 4110SOL    HW213230   4.385   3.347   6.530
 4111SOL     OW13231   3.422   3.115   6.753
 4111SOL    HW113232   3.378   3.174   6.686
 4111SOL    HW213233   3.442   3.026   6.712
 4112SOL     OW13234   4.946   1.393   5.846
 4112SOL    HW113235   5.032   1.419   5.801
 4112SOL    HW213236   4.966   1.343   5.930
 4113SOL     OW13237   4.414   5.847   5.027
 4113SOL    HW113238   4.443   5.895   4.945
 4113SOL    HW213239   4.400   5.913   5.101
 4114SOL     OW13240   3.810   2.070   3.527
 4114SOL    HW113241   3.877   2.144   3.527
 4114SOL    HW213242   3.803   2.031   3.435
 4115SOL     OW13243   4.648   5.893   2.119
 4115SOL    HW113244   4.643   5.975   2.175
 4115SOL    HW213245   4.562   5.881   2.069
 4116SOL     OW13246   4.382   2.575   1.751
 4116SOL    HW113247   4.290   2.540   1.765
 4116SOL    HW213248   4.440   2.551   1.829
 4117SOL     OW13249   0.491   5.014   2.106
 4117SOL    HW113250   0.440   4.951   2.047
 4117SOL    HW213251   0.463   5.000   2.201
 4118SOL     OW13252   1.921   5.852   0.328
 4118SOL    HW113253   1.923   5.843   0.229
 4118SOL    HW213254   1.850   5.917   0.355
 4119SOL     OW13255   4.169   1.279   3.188
 4119SOL    HW113256   4.171   1.337   3.270
 4119SOL    HW213257   4.258   1.281   3.143
 4120SOL     OW13258   4.463   0.378   0.795
 4120SOL    HW113259   4.457   0.353   0.698
 4120SOL    HW213260   4.387   0.336   0.845
 4121SOL     OW13261   6.124   1.061   4.755
 4121SOL    HW113262   6.176   1.036   4.673
 4121SOL    HW213263   6.109   0.981   4.811
 4122SOL     OW13264   0.798   6.794   5.598
 4122SOL    HW113265   0.859   6.718   5.621
 4122SOL    HW213266   0.848   6.862   5.544
 4123SOL     OW13267   4.901   4.870   5.544
 4123SOL    HW113268   4.805   4.846   5.531
 4123SOL    HW213269   4.913   4.914   5.633
 4124SOL     OW13270   6.199   5.650   5.406
 4124SOL    HW113271   6.275   5.590   5.380
 4124SOL    HW213272   6.183   5.716   5.333
 4125SOL     OW13273   4.491   0.733   1.991
 4125SOL    HW113274   4.565   0.678   2.030
 4125SOL    HW213275   4.526   0.824   1.968
 4126SOL     OW13276   1.223   4.547   4.168
 4126SOL    HW113277   1.206   4.541   4.267
 4126SOL    HW213278   1.269   4.464   4.137
 4127SOL     OW13279   5.008   4.366   4.377
 4127SOL    HW113280   4.965   4.456   4.377
 4127SOL    HW213281   4.986   4.318   4.461
 4128SOL     OW13282   1.888   3.680   2.346
 4128SOL    HW113283   1.880   3.668   2.445
 4128SOL    HW213284   1.967   3.739   2.326
 4129SOL     OW13285   5.727   1.382   6.338
 4129SOL    HW113286   5.792   1.323   6.290
 4129SOL    HW213287   5.712   1.466   6.285
 4130SOL     OW13288   6.910   3.597   5.748
 4130SOL    HW113289   6.980   3.541   5.792
 4130SOL    HW213290   6.911   3.689   5.787
 4131SOL     OW13291   0.957   5.917   3.755
 4131SOL    HW113292   0.920   5.873   3.837
 4131SOL    HW213293   1.016   5.852   3.706
 4132SOL     OW13294   5.055   4.284   3.661
 4132SOL    HW113295   5.003   4.316   3.739
 4132SOL    HW213296   5.110   4.360   3.625
 4133SOL     OW13297   2.898   6.397   1.578
 4133SOL    HW113298   2.995   6.374   1.569
 4133SOL    HW213299   2.847   6.314   1.601
 4134SOL     OW13300   1.592   2.575   1.025
 4134SOL    HW113301   1.583   2.612   0.932
 4134SOL    HW213302   1.594   2.650   1.091
 4135SOL     OW13303   2.183   0.995   2.472
 4135SOL    HW113304   2.164   0.920   2.408
 4135SOL    HW213305   2.269   0.977   2.519
 4136SOL     OW13306   0.533   1.951   3.765
 4136SOL    HW113307   0.435   1.969   3.761
 4136SOL    HW213308   0.583   2.036   3.751
 4137SOL     OW13309   2.204   3.528   1.171
 4137SOL    HW113310   2.257   3.602   1.131
 4137SOL    HW213311   2.260   3.481   1.240
 4138SOL     OW13312   3.812   5.638   3.716
 4138SOL    HW113313   3.721   5.677   3.730
 4138SOL    HW213314   3.842   5.592   3.800
 4139SOL     OW13315   2.258   1.850   5.812
 4139SOL    HW113316   2.172   1.898   5.800
 4139SOL    HW213317   2.280   1.842   5.909
 4140SOL     OW13318   3.311   0.407   5.273
 4140SOL    HW113319   3.344   0.498   5.300
 4140SOL    HW213320   3.241   0.377   5.339
 4141SOL     OW13321   4.890   5.489   0.967
 4141SOL    HW113322   4.939   5.554   1.025
 4141SOL    HW213323   4.915   5.505   0.871
 4142SOL     OW13324   6.468   5.928   1.064
 4142SOL    HW113325   6.504   5.999   1.124
 4142SOL    HW213326   6.379   5.898   1.097
 4143SOL     OW13327   6.714   3.681   0.709
 4143SOL    HW113328   6.762   3.649   0.627
 4143SOL    HW213329   6.781   3.702   0.780
 4144SOL     OW13330   5.934   2.393   0.807
 4144SOL    HW113331   5.883   2.312   0.777
 4144SOL    HW213332   5.869   2.465   0.831
 4145SOL     OW13333   0.244   5.771   1.865
 4145SOL    HW113334   0.268   5.688   1.915
 4145SOL    HW213335   0.174   5.750   1.797
 4146SOL     OW13336   6.058   0.515   4.963
 4146SOL    HW113337   6.139   0.551   5.008
 4146SOL    HW213338   6.074   0.509   4.864
 4147SOL     OW13339   3.637   1.826   5.331
 4147SOL    HW113340   3.682   1.832   5.242
 4147SOL    HW213341   3.558   1.766   5.325
 4148SOL     OW13342   0.619   0.199   3.919
 4148SOL    HW113343   0.596   0.112   3.962
 4148SOL    HW213344   0.706   0.190   3.871
 4149SOL     OW13345   0.757   3.415   0.213
 4149SOL    HW113346   0.705   3.500   0.210
 4149SOL    HW213347   0.787   3.391   0.121
 4150SOL     OW13348   6.125   0.649   6.003
 4150SOL    HW113349   6.222   0.672   6.005
 4150SOL    HW213350   6.086   0.660   6.095
 4151SOL     OW13351   5.190   6.036   6.930
 4151SOL    HW113352   5.225   6.018   6.838
 4151SOL    HW213353   5.090   6.028   6.929
 4152SOL     OW13354   2.758   5.353   1.546
 4152SOL    HW113355   2.837   5.414   1.532
 4152SOL    HW213356   2.778   5.263   1.508
 4153SOL     OW13357   5.470   5.413   6.361
 4153SOL    HW113358   5.504   5.321   6.342
 4153SOL    HW213359   5.387   5.430   6.308
 4154SOL     OW13360   6.748   3.877   5.468
 4154SOL    HW113361   6.710   3.956   5.420
 4154SOL    HW213362   6.714   3.875   5.562
 4155SOL     OW13363   6.769   3.344   3.527
 4155SOL    HW113364   6.722   3.292   3.455
 4155SOL    HW213365   6.867   3.346   3.508
 4156SOL     OW13366   5.469   0.012   5.094
 4156SOL    HW113367   5.483   0.088   5.156
 4156SOL    HW213368   5.411   0.042   5.017
 4157SOL     OW13369   3.785   6.913   3.628
 4157SOL    HW113370   3.688   6.927   3.608
 4157SOL    HW213371   3.839   6.921   3.544
 4158SOL     OW13372   1.334   5.280   4.263
 4158SOL    HW113373   1.376   5.256   4.175
 4158SOL    HW213374   1.271   5.356   4.250
 4159SOL     OW13375   1.605   3.377   4.151
 4159SOL    HW113376   1.522   3.363   4.098
 4159SOL    HW213377   1.657   3.292   4.156
 4160SOL     OW13378   6.351   0.316   0.732
 4160SOL    HW113379   6.368   0.250   0.660
 4160SOL    HW213380   6.427   0.381   0.738
 4161SOL     OW13381   2.071   6.502   6.476
 4161SOL    HW113382   2.137   6.442   6.520
 4161SOL    HW213383   2.000   6.528   6.541
 4162SOL     OW13384   6.264   0.305   4.754
 4162SOL    HW113385   6.300   0.390   4.716
 4162SOL    HW213386   6.272   0.306   4.854
 4163SOL     OW13387   5.715   1.627   3.616
 4163SOL    HW113388   5.617   1.609   3.628
 4163SOL    HW213389   5.742   1.601   3.523
 4164SOL     OW13390   1.793   6.973   6.271
 4164SOL    HW113391   1.842   6.886   6.276
 4164SOL    HW213392   1.856   0.027   6.243
 4165SOL     OW13393   4.782   0.329   0.779
 4165SOL    HW113394   4.793   0.244   0.728
 4165SOL    HW213395   4.685   0.353   0.784
 4166SOL     OW13396   5.570   2.413   0.871
 4166SOL    HW113397   5.631   2.469   0.814
 4166SOL    HW213398   5.608   2.321   0.878
 4167SOL     OW13399   2.618   3.368   0.785
 4167SOL    HW113400   2.707   3.412   0.795
 4167SOL    HW213401   2.607   3.299   0.856
 4168SOL     OW13402   0.268   5.174   1.219
 4168SOL    HW113403   0.245   5.205   1.127
 4168SOL    HW213404   0.185   5.139   1.264
 4169SOL     OW13405   5.622   3.968   4.345
 4169SOL    HW113406   5.604   4.052   4.295
 4169SOL    HW213407   5.536   3.925   4.371
 4170SOL     OW13408   3.769   2.923   4.868
 4170SOL    HW113409   3.689   2.879   4.826
 4170SOL    HW213410   3.839   2.939   4.799
 4171SOL     OW13411   5.255   4.578   1.025
 4171SOL    HW113412   5.316   4.628   1.086
 4171SOL    HW213413   5.205   4.508   1.076
 4172SOL     OW13414   6.828   2.102   6.325
 4172SOL    HW113415   6.822   2.146   6.236
 4172SOL    HW213416   6.778   2.156   6.393
 4173SOL     OW13417   5.824   3.014   4.980
 4173SOL    HW113418   5.866   3.000   5.069
 4173SOL    HW213419   5.879   3.080   4.928
 4174SOL     OW13420   5.291   0.840   3.538
 4174SOL    HW113421   5.275   0.784   3.618
 4174SOL    HW213422   5.381   0.884   3.545
 4175SOL     OW13423   2.900   6.725   4.603
 4175SOL    HW113424   2.990   6.749   4.567
 4175SOL    HW213425   2.853   6.808   4.633
 4176SOL     OW13426   3.463   0.148   2.413
 4176SOL    HW113427   3.428   0.133   2.320
 4176SOL    HW213428   3.441   0.069   2.470
 4177SOL     OW13429   0.726   5.401   5.116
 4177SOL    HW113430   0.728   5.452   5.202
 4177SOL    HW213431   0.634   5.405   5.077
 4178SOL     OW13432   3.497   0.733   4.896
 4178SOL    HW113433   3.586   0.697   4.922
 4178SOL    HW213434   3.510   0.821   4.849
 4179SOL     OW13435   5.472   3.550   4.296
 4179SOL    HW113436   5.422   3.560   4.210
 4179SOL    HW213437   5.557   3.501   4.279
 4180SOL     OW13438   5.233   4.351   2.149
 4180SOL    HW113439   5.145   4.334   2.107
 4180SOL    HW213440   5.293   4.272   2.137
 4181SOL     OW13441   2.027   1.581   5.912
 4181SOL    HW113442   2.074   1.577   5.824
 4181SOL    HW213443   2.080   1.637   5.976
 4182SOL     OW13444   0.111   0.504   3.064
 4182SOL    HW113445   0.088   0.408   3.073
 4182SOL    HW213446   0.032   0.556   3.032
 4183SOL     OW13447   2.986   1.413   1.755
 4183SOL    HW113448   2.965   1.496   1.704
 4183SOL    HW213449   2.941   1.416   1.844
 4184SOL     OW13450   4.105   4.636   1.252
 4184SOL    HW113451   4.197   4.601   1.240
 4184SOL    HW213452   4.067   4.602   1.339
 4185SOL     OW13453   0.928   5.616   3.465
 4185SOL    HW113454   1.019   5.596   3.428
 4185SOL    HW213455   0.935   5.631   3.563
 4186SOL     OW13456   2.195   3.968   0.179
 4186SOL    HW113457   2.215   4.020   0.096
 4186SOL    HW213458   2.279   3.956   0.232
 4187SOL     OW13459   3.568   3.288   5.656
 4187SOL    HW113460   3.539   3.382   5.638
 4187SOL    HW213461   3.596   3.280   5.751
 4188SOL     OW13462   4.486   0.327   4.219
 4188SOL    HW113463   4.573   0.325   4.169
 4188SOL    HW213464   4.490   0.398   4.290
 4189SOL     OW13465   3.081   1.798   4.454
 4189SOL    HW113466   3.121   1.879   4.497
 4189SOL    HW213467   3.024   1.827   4.376
 4190SOL     OW13468   2.618   0.082   6.256
 4190SOL    HW113469   2.551   0.156   6.265
 4190SOL    HW213470   2.706   0.113   6.292
 4191SOL     OW13471   5.811   3.373   3.088
 4191SOL    HW113472   5.766   3.305   3.145
 4191SOL    HW213473   5.903   3.390   3.121
 4192SOL     OW13474   6.824   2.048   3.469
 4192SOL    HW113475   6.791   1.963   3.428
 4192SOL    HW213476   6.844   2.114   3.397
 4193SOL     OW13477   2.161   6.337   1.574
 4193SOL    HW113478   2.213   6.405   1.627
 4193SOL    HW213479   2.066   6.367   1.567
 4194SOL     OW13480   6.712   2.141   4.947
 4194SOL    HW113481   6.791   2.128   5.007
 4194SOL    HW213482   6.690   2.055   4.901
 4195SOL     OW13483   3.638   0.604   1.264
 4195SOL    HW113484   3.590   0.636   1.346
 4195SOL    HW213485   3.639   0.504   1.262
 4196SOL     OW13486   5.752   2.449   4.450
 4196SOL    HW113487   5.710   2.443   4.359
 4196SOL    HW213488   5.739   2.540   4.488
 4197SOL     OW13489   5.143   4.520   3.567
 4197SOL    HW113490   5.206   4.596   3.581
 4197SOL    HW213491   5.071   4.547   3.502
 4198SOL     OW13492   6.316   3.869   6.861
 4198SOL    HW113493   6.220   3.856   6.836
 4198SOL    HW213494   6.338   3.967   6.863
 4199SOL     OW13495   2.870   3.145   5.897
 4199SOL    HW113496   2.969   3.158   5.893
 4199SOL    HW213497   2.831   3.204   5.968
 4200SOL     OW13498   2.998   6.360   6.029
 4200SOL    HW113499   3.014   6.457   6.046
 4200SOL    HW213500   3.039   6.334   5.941
 4201SOL     OW13501   6.356   6.657   3.470
 4201SOL    HW113502   6.399   6.627   3.555
 4201SOL    HW213503   6.258   6.639   3.474
 4202SOL     OW13504   4.875   4.533   5.754
 4202SOL    HW113505   4.857   4.435   5.755
 4202SOL    HW213506   4.919   4.560   5.840
 4203SOL     OW13507   4.542   5.860   2.846
 4203SOL    HW113508   4.458   5.891   2.799
 4203SOL    HW213509   4.517   5.812   2.930
 4204SOL     OW13510   3.166   2.966   2.201
 4204SOL    HW113511   3.094   2.946   2.268
 4204SOL    HW213512   3.255   2.938   2.238
 4205SOL     OW13513   3.792   4.966   4.078
 4205SOL    HW113514   3.862   4.923   4.135
 4205SOL    HW213515   3.705   4.967   4.127
 4206SOL     OW13516   4.930   0.889   6.376
 4206SOL    HW113517   4.971   0.897   6.467
 4206SOL    HW213518   4.909   0.793   6.358
 4207SOL     OW13519   2.001   0.989   1.754
 4207SOL    HW113520   2.043   1.074   1.786
 4207SOL    HW213521   1.967   1.002   1.661
 4208SOL     OW13522   1.261   1.922   1.102
 4208SOL    HW113523   1.196   1.990   1.136
 4208SOL    HW213524   1.216   1.864   1.033
 4209SOL     OW13525   1.477   1.056   5.421
 4209SOL    HW113526   1.480   1.068   5.520
 4209SOL    HW213527   1.404   0.992   5.397
 4210SOL     OW13528   3.328   3.286   1.924
 4210SOL    HW113529   3.351   3.191   1.904
 4210SOL    HW213530   3.256   3.317   1.861
 4211SOL     OW13531   4.464   5.328   5.335
 4211SOL    HW113532   4.546   5.327   5.278
 4211SOL    HW213533   4.419   5.240   5.330
 4212SOL     OW13534   6.803   1.339   2.344
 4212SOL    HW113535   6.797   1.326   2.443
 4212SOL    HW213536   6.719   1.383   2.311
 4213SOL     OW13537   2.385   0.924   2.638
 4213SOL    HW113538   2.435   0.915   2.552
 4213SOL    HW213539   2.444   0.968   2.706
 4214SOL     OW13540   0.451   3.761   6.314
 4214SOL    HW113541   0.445   3.858   6.334
 4214SOL    HW213542   0.425   3.708   6.395
 4215SOL     OW13543   0.373   6.074   4.453
 4215SOL    HW113544   0.288   6.083   4.402
 4215SOL    HW213545   0.410   6.165   4.472
 4216SOL     OW13546   1.541   1.972   4.057
 4216SOL    HW113547   1.522   1.903   3.987
 4216SOL    HW213548   1.566   2.058   4.013
 4217SOL     OW13549   6.952   6.794   3.096
 4217SOL    HW113550   6.976   6.697   3.094
 4217SOL    HW213551   6.867   6.807   3.044
 4218SOL     OW13552   4.761   6.852   2.065
 4218SOL    HW113553   4.808   6.940   2.070
 4218SOL    HW213554   4.824   6.783   2.028
 4219SOL     OW13555   2.985   4.647   5.384
 4219SOL    HW113556   3.022   4.738   5.364
 4219SOL    HW213557   2.960   4.602   5.298
 4220SOL     OW13558   6.865   3.464   3.059
 4220SOL    HW113559   6.958   3.427   3.053
 4220SOL    HW213560   6.835   3.465   3.154
 4221SOL     OW13561   5.940   6.077   6.797
 4221SOL    HW113562   5.889   6.101   6.715
 4221SOL    HW213563   6.038   6.086   6.778
 4222SOL     OW13564   6.221   1.565   2.344
 4222SOL    HW113565   6.221   1.489   2.279
 4222SOL    HW213566   6.138   1.562   2.399
 4223SOL     OW13567   3.364   3.289   3.296
 4223SOL    HW113568   3.377   3.290   3.197
 4223SOL    HW213569   3.453   3.280   3.341
 4224SOL     OW13570   5.048   3.445   4.345
 4224SOL    HW113571   5.003   3.374   4.399
 4224SOL    HW213572   4.990   3.470   4.268
 4225SOL     OW13573   5.564   1.047   4.847
 4225SOL    HW113574   5.596   1.082   4.935
 4225SOL    HW213575   5.580   0.949   4.842
 4226SOL     OW13576   1.778   1.705   3.933
 4226SOL    HW113577   1.859   1.649   3.952
 4226SOL    HW213578   1.797   1.800   3.956
 4227SOL     OW13579   3.826   4.584   6.625
 4227SOL    HW113580   3.745   4.564   6.679
 4227SOL    HW213581   3.908   4.573   6.682
 4228SOL     OW13582   5.823   6.504   4.108
 4228SOL    HW113583   5.908   6.547   4.079
 4228SOL    HW213584   5.756   6.509   4.033
 4229SOL     OW13585   3.943   4.750   6.007
 4229SOL    HW113586   3.846   4.744   6.030
 4229SOL    HW213587   3.979   4.658   5.990
 4230SOL     OW13588   2.548   0.176   5.018
 4230SOL    HW113589   2.648   0.168   5.012
 4230SOL    HW213590   2.518   0.252   4.962
 4231SOL     OW13591   4.934   6.275   5.250
 4231SOL    HW113592   5.019   6.249   5.205
 4231SOL    HW213593   4.946   6.364   5.296
 4232SOL     OW13594   1.066   5.468   2.060
 4232SOL    HW113595   1.014   5.475   1.975
 4232SOL    HW213596   1.015   5.413   2.126
 4233SOL     OW13597   6.475   0.891   6.744
 4233SOL    HW113598   6.554   0.923   6.796
 4233SOL    HW213599   6.413   0.842   6.805
 4234SOL     OW13600   2.219   4.990   5.852
 4234SOL    HW113601   2.152   5.019   5.919
 4234SOL    HW213602   2.258   5.070   5.806
 4235SOL     OW13603   6.500   4.316   5.602
 4235SOL    HW113604   6.586   4.359   5.572
 4235SOL    HW213605   6.477   4.242   5.539
 4236SOL     OW13606   0.264   2.566   3.893
 4236SOL    HW113607   0.207   2.573   3.811
 4236SOL    HW213608   0.351   2.612   3.877
 4237SOL     OW13609   6.156   3.798   4.649
 4237SOL    HW113610   6.082   3.846   4.603
 4237SOL    HW213611   6.171   3.709   4.606
 4238SOL     OW13612   4.205   4.805   3.688
 4238SOL    HW113613   4.112   4.825   3.656
 4238SOL    HW213614   4.207   4.808   3.788
 4239SOL     OW13615   4.602   6.891   4.333
 4239SOL    HW113616   4.675   6.952   4.301
 4239SOL    HW213617   4.626   6.856   4.423
 4240SOL     OW13618   2.824   5.982   6.590
 4240SOL    HW113619   2.832   5.949   6.684
 4240SOL    HW213620   2.809   5.905   6.529
 4241SOL     OW13621   5.130   0.503   1.255
 4241SOL    HW113622   5.032   0.508   1.273
 4241SOL    HW213623   5.177   0.577   1.303
 4242SOL     OW13624   2.443   6.469   2.733
 4242SOL    HW113625   2.467   6.509   2.821
 4242SOL    HW213626   2.446   6.539   2.662
 4243SOL     OW13627   0.520   3.976   2.221
 4243SOL    HW113628   0.594   3.946   2.161
 4243SOL    HW213629   0.539   3.945   2.315
 4244SOL     OW13630   5.021   6.343   0.653
 4244SOL    HW113631   4.947   6.371   0.592
 4244SOL    HW213632   5.078   6.274   0.607
 4245SOL     OW13633   6.462   3.079   0.333
 4245SOL    HW113634   6.435   3.128   0.250
 4245SOL    HW213635   6.501   3.143   0.398
 4246SOL     OW13636   5.474   2.655   3.152
 4246SOL    HW113637   5.478   2.558   3.125
 4246SOL    HW213638   5.384   2.675   3.189
 4247SOL     OW13639   2.443   5.641   4.653
 4247SOL    HW113640   2.366   5.585   4.683
 4247SOL    HW213641   2.528   5.593   4.673
 4248SOL     OW13642   1.816   0.704   2.971
 4248SOL    HW113643   1.750   0.676   3.041
 4248SOL    HW213644   1.909   0.697   3.008
 4249SOL     OW13645   0.158   1.802   4.030
 4249SOL    HW113646   0.197   1.873   3.972
 4249SOL    HW213647   0.077   1.764   3.985
 4250SOL     OW13648   0.535   5.650   4.250
 4250SOL    HW113649   0.596   5.576   4.278
 4250SOL    HW213650   0.555   5.732   4.305
 4251SOL     OW13651   5.745   2.970   0.157
 4251SOL    HW113652   5.780   3.061   0.181
 4251SOL    HW213653   5.814   2.920   0.105
 4252SOL     OW13654   6.149   6.030   5.297
 4252SOL    HW113655   6.072   5.972   5.324
 4252SOL    HW213656   6.135   6.123   5.332
 4253SOL     OW13657   3.845   6.284   2.223
 4253SOL    HW113658   3.795   6.232   2.153
 4253SOL    HW213659   3.901   6.353   2.179
 4254SOL     OW13660   2.124   3.398   0.306
 4254SOL    HW113661   2.174   3.483   0.327
 4254SOL    HW213662   2.067   3.373   0.384
 4255SOL     OW13663   1.035   4.560   3.362
 4255SOL    HW113664   0.974   4.519   3.429
 4255SOL    HW213665   0.983   4.621   3.303
 4256SOL     OW13666   0.237   4.920   1.672
 4256SOL    HW113667   0.144   4.926   1.634
 4256SOL    HW213668   0.236   4.957   1.765
 4257SOL     OW13669   6.136   1.920   5.102
 4257SOL    HW113670   6.039   1.905   5.084
 4257SOL    HW213671   6.152   1.928   5.200
 4258SOL     OW13672   3.123   5.654   0.801
 4258SOL    HW113673   3.130   5.570   0.747
 4258SOL    HW213674   3.214   5.682   0.832
 4259SOL     OW13675   1.439   6.858   1.357
 4259SOL    HW113676   1.450   6.778   1.297
 4259SOL    HW213677   1.511   6.857   1.427
 4260SOL     OW13678   4.784   0.295   4.153
 4260SOL    HW113679   4.808   0.390   4.135
 4260SOL    HW213680   4.753   0.251   4.069
 4261SOL     OW13681   2.211   0.514   5.050
 4261SOL    HW113682   2.227   0.419   5.076
 4261SOL    HW213683   2.291   0.550   5.002
 4262SOL     OW13684   1.145   4.739   6.288
 4262SOL    HW113685   1.090   4.761   6.208
 4262SOL    HW213686   1.153   4.640   6.297
 4263SOL     OW13687   2.838   2.145   3.307
 4263SOL    HW113688   2.785   2.065   3.333
 4263SOL    HW213689   2.781   2.227   3.318
 4264SOL     OW13690   5.273   1.196   4.398
 4264SOL    HW113691   5.259   1.290   4.430
 4264SOL    HW213692   5.308   1.140   4.474
 4265SOL     OW13693   2.854   6.976   1.260
 4265SOL    HW113694   2.929   6.995   1.197
 4265SOL    HW213695   2.844   6.877   1.271
 4266SOL     OW13696   1.175   6.774   0.579
 4266SOL    HW113697   1.108   6.751   0.649
 4266SOL    HW213698   1.137   6.843   0.517
 4267SOL     OW13699   2.201   3.955   3.504
 4267SOL    HW113700   2.282   3.914   3.463
 4267SOL    HW213701   2.220   3.978   3.600
 4268SOL     OW13702   1.117   4.921   6.887
 4268SOL    HW113703   1.158   4.996   6.835
 4268SOL    HW213704   1.066   4.959   6.964
 4269SOL     OW13705   3.455   1.548   4.014
 4269SOL    HW113706   3.500   1.516   4.097
 4269SOL    HW213707   3.380   1.485   3.990
 4270SOL     OW13708   3.476   2.986   1.336
 4270SOL    HW113709   3.520   2.989   1.246
 4270SOL    HW213710   3.491   3.073   1.383
 4271SOL     OW13711   6.260   0.411   1.394
 4271SOL    HW113712   6.262   0.459   1.306
 4271SOL    HW213713   6.172   0.426   1.438
 4272SOL     OW13714   0.031   3.312   5.518
 4272SOL    HW113715   0.072   3.384   5.573
 4272SOL    HW213716   0.009   3.234   5.576
 4273SOL     OW13717   4.509   6.540   4.704
 4273SOL    HW113718   4.470   6.596   4.631
 4273SOL    HW213719   4.579   6.480   4.666
 4274SOL     OW13720   0.092   6.553   2.067
 4274SOL    HW113721   7.015   6.533   2.089
 4274SOL    HW213722   0.149   6.476   2.093
 4275SOL     OW13723   1.005   2.442   3.758
 4275SOL    HW113724   1.080   2.379   3.739
 4275SOL    HW213725   0.989   2.445   3.857
 4276SOL     OW13726   2.904   5.106   4.033
 4276SOL    HW113727   2.933   5.161   3.954
 4276SOL    HW213728   2.937   5.012   4.022
 4277SOL     OW13729   6.508   4.761   3.852
 4277SOL    HW113730   6.544   4.811   3.930
 4277SOL    HW213731   6.526   4.663   3.863
 4278SOL     OW13732   6.811   6.306   2.968
 4278SOL    HW113733   6.772   6.290   2.877
 4278SOL    HW213734   6.850   6.221   3.003
 4279SOL     OW13735   1.395   1.468   2.579
 4279SOL    HW113736   1.395   1.568   2.577
 4279SOL    HW213737   1.372   1.433   2.488
 4280SOL     OW13738   6.363   6.526   6.629
 4280SOL    HW113739   6.435   6.457   6.617
 4280SOL    HW213740   6.286   6.504   6.570
 4281SOL     OW13741   4.218   5.651   3.861
 4281SOL    HW113742   4.245   5.719   3.929
 4281SOL    HW213743   4.235   5.687   3.769
 4282SOL     OW13744   2.899   4.100   0.879
 4282SOL    HW113745   2.915   4.012   0.925
 4282SOL    HW213746   2.964   4.111   0.804
 4283SOL     OW13747   5.095   0.783   3.006
 4283SOL    HW113748   5.128   0.812   3.096
 4283SOL    HW213749   5.108   0.857   2.941
 4284SOL     OW13750   4.446   5.372   0.486
 4284SOL    HW113751   4.418   5.378   0.582
 4284SOL    HW213752   4.471   5.463   0.453
 4285SOL     OW13753   3.521   0.392   6.273
 4285SOL    HW113754   3.503   0.301   6.234
 4285SOL    HW213755   3.618   0.414   6.261
 4286SOL     OW13756   6.487   1.365   0.175
 4286SOL    HW113757   6.413   1.324   0.121
 4286SOL    HW213758   6.448   1.413   0.254
 4287SOL     OW13759   4.342   0.727   0.050
 4287SOL    HW113760   4.249   0.693   0.037
 4287SOL    HW213761   4.401   0.692   6.997
 4288SOL     OW13762   6.088   6.080   1.928
 4288SOL    HW113763   6.042   6.080   1.840
 4288SOL    HW213764   6.124   5.988   1.947
 4289SOL     OW13765   0.689   2.481   5.461
 4289SOL    HW113766   0.741   2.564   5.482
 4289SOL    HW213767   0.688   2.467   5.362
 4290SOL     OW13768   0.372   0.555   3.063
 4290SOL    HW113769   0.420   0.550   2.976
 4290SOL    HW213770   0.274   0.537   3.050
 4291SOL     OW13771   4.801   3.001   5.822
 4291SOL    HW113772   4.751   2.958   5.898
 4291SOL    HW213773   4.868   2.936   5.786
 4292SOL     OW13774   4.723   2.069   0.356
 4292SOL    HW113775   4.709   2.110   0.266
 4292SOL    HW213776   4.763   2.138   0.418
 4293SOL     OW13777   5.186   3.941   6.751
 4293SOL    HW113778   5.125   4.014   6.721
 4293SOL    HW213779   5.183   3.932   6.850
 4294SOL     OW13780   3.012   2.293   5.921
 4294SOL    HW113781   3.104   2.321   5.949
 4294SOL    HW213782   3.015   2.257   5.827
 4295SOL     OW13783   4.499   6.281   2.079
 4295SOL    HW113784   4.550   6.364   2.055
 4295SOL    HW213785   4.538   6.241   2.162
 4296SOL     OW13786   3.058   6.360   0.992
 4296SOL    HW113787   3.008   6.355   0.906
 4296SOL    HW213788   2.994   6.364   1.069
 4297SOL     OW13789   6.472   5.562   0.907
 4297SOL    HW113790   6.456   5.466   0.881
 4297SOL    HW213791   6.567   5.586   0.889
 4298SOL     OW13792   3.478   6.224   1.335
 4298SOL    HW113793   3.481   6.302   1.273
 4298SOL    HW213794   3.528   6.147   1.294
 4299SOL     OW13795   0.373   2.643   6.729
 4299SOL    HW113796   0.349   2.626   6.633
 4299SOL    HW213797   0.414   2.734   6.738
 4300SOL     OW13798   3.404   0.537   0.901
 4300SOL    HW113799   3.347   0.524   0.820
 4300SOL    HW213800   3.413   0.451   0.951
 4301SOL     OW13801   3.273   6.023   1.773
 4301SOL    HW113802   3.356   6.056   1.817
 4301SOL    HW213803   3.281   6.034   1.674
 4302SOL     OW13804   0.876   6.684   6.568
 4302SOL    HW113805   0.969   6.716   6.549
 4302SOL    HW213806   0.827   6.672   6.482
 4303SOL     OW13807   6.476   4.575   4.093
 4303SOL    HW113808   6.523   4.499   4.138
 4303SOL    HW213809   6.515   4.661   4.124
 4304SOL     OW13810   3.264   3.550   1.652
 4304SOL    HW113811   3.300   3.563   1.560
 4304SOL    HW213812   3.259   3.639   1.698
 4305SOL     OW13813   0.004   0.013   5.865
 4305SOL    HW113814   0.009   6.973   5.946
 4305SOL    HW213815   0.070   7.001   5.797
 4306SOL     OW13816   5.018   3.892   4.522
 4306SOL    HW113817   4.986   3.876   4.429
 4306SOL    HW213818   5.051   3.806   4.561
 4307SOL     OW13819   6.259   2.939   5.624
 4307SOL    HW113820   6.223   2.993   5.548
 4307SOL    HW213821   6.184   2.916   5.686
 4308SOL     OW13822   5.297   5.138   1.535
 4308SOL    HW113823   5.312   5.059   1.593
 4308SOL    HW213824   5.362   5.210   1.559
 4309SOL     OW13825   0.951   3.151   0.118
 4309SOL    HW113826   1.011   3.079   0.154
 4309SOL    HW213827   0.857   3.117   0.116
 4310SOL     OW13828   1.041   2.121   2.606
 4310SOL    HW113829   0.996   2.124   2.516
 4310SOL    HW213830   1.053   2.213   2.641
 4311SOL     OW13831   0.901   6.342   2.169
 4311SOL    HW113832   0.864   6.421   2.218
 4311SOL    HW213833   0.846   6.261   2.191
 4312SOL     OW13834   0.894   4.845   2.098
 4312SOL    HW113835   0.833   4.780   2.143
 4312SOL    HW213836   0.988   4.813   2.105
 4313SOL     OW13837   5.334   1.802   0.730
 4313SOL    HW113838   5.296   1.736   0.795
 4313SOL    HW213839   5.305   1.776   0.637
 4314SOL     OW13840   6.808   2.819   5.728
 4314SOL    HW113841   6.808   2.745   5.795
 4314SOL    HW213842   6.783   2.905   5.773
 4315SOL     OW13843   2.198   1.225   3.453
 4315SOL    HW113844   2.275   1.217   3.515
 4315SOL    HW213845   2.183   1.321   3.430
 4316SOL     OW13846   5.136   0.625   2.273
 4316SOL    HW113847   5.110   0.700   2.333
 4316SOL    HW213848   5.062   0.557   2.270
 4317SOL     OW13849   4.408   0.916   5.625
 4317SOL    HW113850   4.360   0.837   5.661
 4317SOL    HW213851   4.495   0.927   5.672
 4318SOL     OW13852   0.855   1.018   4.015
 4318SOL    HW113853   0.893   1.046   4.103
 4318SOL    HW213854   0.758   0.996   4.026
 4319SOL     OW13855   1.432   2.859   1.708
 4319SOL    HW113856   1.490   2.844   1.788
 4319SOL    HW213857   1.343   2.815   1.723
 4320SOL     OW13858   3.570   6.312   0.727
 4320SOL    HW113859   3.619   6.233   0.690
 4320SOL    HW213860   3.471   6.298   0.717
 4321SOL     OW13861   6.852   5.914   2.592
 4321SOL    HW113862   6.790   5.913   2.671
 4321SOL    HW213863   6.938   5.958   2.618
 4322SOL     OW13864   0.650   2.378   5.224
 4322SOL    HW113865   0.741   2.381   5.183
 4322SOL    HW213866   0.614   2.285   5.220
 4323SOL     OW13867   4.090   5.561   0.016
 4323SOL    HW113868   4.049   5.626   0.079
 4323SOL    HW213869   4.022   5.531   6.968
 4324SOL     OW13870   0.266   3.727   5.776
 4324SOL    HW113871   0.213   3.804   5.740
 4324SOL    HW213872   0.361   3.735   5.745
 4325SOL     OW13873   3.012   0.532   3.437
 4325SOL    HW113874   2.935   0.569   3.385
 4325SOL    HW213875   3.087   0.509   3.376
 4326SOL     OW13876   5.701   2.721   2.636
 4326SOL    HW113877   5.763   2.799   2.638
 4326SOL    HW213878   5.739   2.647   2.693
 4327SOL     OW13879   3.307   5.663   3.764
 4327SOL    HW113880   3.313   5.566   3.739
 4327SOL    HW213881   3.211   5.689   3.774
 4328SOL     OW13882   6.149   5.086   5.048
 4328SOL    HW113883   6.191   5.063   5.136
 4328SOL    HW213884   6.133   5.002   4.996
 4329SOL     OW13885   5.574   3.179   5.355
 4329SOL    HW113886   5.623   3.230   5.284
 4329SOL    HW213887   5.508   3.117   5.312
 4330SOL     OW13888   2.285   6.014   5.205
 4330SOL    HW113889   2.362   5.958   5.173
 4330SOL    HW213890   2.200   5.979   5.165
 4331SOL     OW13891   6.501   0.685   1.674
 4331SOL    HW113892   6.515   0.587   1.689
 4331SOL    HW213893   6.412   0.699   1.630
 4332SOL     OW13894   6.380   3.586   2.924
 4332SOL    HW113895   6.392   3.520   2.849
 4332SOL    HW213896   6.389   3.538   3.011
 4333SOL     OW13897   4.485   2.074   5.058
 4333SOL    HW113898   4.465   2.103   5.151
 4333SOL    HW213899   4.410   2.101   4.997
 4334SOL     OW13900   1.357   2.834   2.972
 4334SOL    HW113901   1.355   2.734   2.970
 4334SOL    HW213902   1.281   2.868   3.028
 4335SOL     OW13903   3.145   2.908   0.826
 4335SOL    HW113904   3.132   3.007   0.815
 4335SOL    HW213905   3.223   2.891   0.886
 4336SOL     OW13906   1.709   5.458   6.317
 4336SOL    HW113907   1.657   5.501   6.244
 4336SOL    HW213908   1.775   5.523   6.355
 4337SOL     OW13909   1.032   6.016   2.360
 4337SOL    HW113910   0.954   5.957   2.337
 4337SOL    HW213911   1.103   6.005   2.291
 4338SOL     OW13912   6.480   0.328   5.631
 4338SOL    HW113913   6.490   0.420   5.594
 4338SOL    HW213914   6.388   0.294   5.614
 4339SOL     OW13915   3.918   2.585   6.611
 4339SOL    HW113916   3.877   2.670   6.579
 4339SOL    HW213917   3.848   2.514   6.615
 4340SOL     OW13918   6.434   3.966   0.839
 4340SOL    HW113919   6.445   3.907   0.919
 4340SOL    HW213920   6.476   3.923   0.760
 4341SOL     OW13921   1.056   5.592   1.543
 4341SOL    HW113922   1.004   5.539   1.610
 4341SOL    HW213923   0.994   5.624   1.471
 4342SOL     OW13924   5.495   3.805   2.696
 4342SOL    HW113925   5.471   3.901   2.678
 4342SOL    HW213926   5.555   3.773   2.622
 4343SOL     OW13927   4.286   0.334   5.710
 4343SOL    HW113928   4.236   0.296   5.633
 4343SOL    HW213929   4.381   0.350   5.682
 4344SOL     OW13930   0.402   3.127   4.002
 4344SOL    HW113931   0.472   3.181   3.957
 4344SOL    HW213932   0.444   3.048   4.048
 4345SOL     OW13933   2.921   3.351   2.734
 4345SOL    HW113934   2.923   3.425   2.667
 4345SOL    HW213935   2.862   3.376   2.810
 4346SOL     OW13936   2.447   2.577   2.959
 4346SOL    HW113937   2.508   2.601   2.883
 4346SOL    HW213938   2.403   2.489   2.940
 4347SOL     OW13939   6.198   5.233   1.506
 4347SOL    HW113940   6.271   5.292   1.542
 4347SOL    HW213941   6.230   5.138   1.503
 4348SOL     OW13942   6.675   6.010   3.566
 4348SOL    HW113943   6.619   5.931   3.541
 4348SOL    HW213944   6.619   6.076   3.616
 4349SOL     OW13945   0.138   4.357   3.557
 4349SOL    HW113946   0.085   4.273   3.567
 4349SOL    HW213947   0.217   4.341   3.499
 4350SOL     OW13948   5.595   1.917   4.921
 4350SOL    HW113949   5.626   1.962   4.837
 4350SOL    HW213950   5.497   1.900   4.915
 4351SOL     OW13951   1.352   6.178   1.288
 4351SOL    HW113952   1.369   6.218   1.378
 4351SOL    HW213953   1.258   6.196   1.260
 4352SOL     OW13954   5.016   4.357   1.078
 4352SOL    HW113955   5.042   4.262   1.094
 4352SOL    HW213956   4.963   4.363   0.993
 4353SOL     OW13957   3.456   3.563   6.745
 4353SOL    HW113958   3.554   3.577   6.754
 4353SOL    HW213959   3.421   3.520   6.828
 4354SOL     OW13960   0.032   0.532   3.977
 4354SOL    HW113961   6.988   0.519   3.899
 4354SOL    HW213962   0.049   0.629   3.990
 4355SOL     OW13963   1.466   0.341   4.043
 4355SOL    HW113964   1.393   0.307   4.102
 4355SOL    HW213965   1.430   0.411   3.982
 4356SOL     OW13966   5.012   2.618   5.857
 4356SOL    HW113967   4.967   2.700   5.821
 4356SOL    HW213968   4.981   2.602   5.951
 4357SOL     OW13969   6.226   1.357   2.169
 4357SOL    HW113970   6.324   1.341   2.158
 4357SOL    HW213971   6.176   1.304   2.101
 4358SOL     OW13972   0.508   1.285   0.276
 4358SOL    HW113973   0.454   1.367   0.295
 4358SOL    HW213974   0.485   1.213   0.342
 4359SOL     OW13975   2.379   0.593   6.790
 4359SOL    HW113976   2.449   0.663   6.776
 4359SOL    HW213977   2.355   0.589   6.887
 4360SOL     OW13978   1.518   2.690   3.248
 4360SOL    HW113979   1.581   2.701   3.325
 4360SOL    HW213980   1.438   2.748   3.260
 4361SOL     OW13981   1.052   2.097   1.104
 4361SOL    HW113982   1.104   2.138   1.029
 4361SOL    HW213983   0.955   2.117   1.093
 4362SOL     OW13984   0.728   6.530   4.182
 4362SOL    HW113985   0.792   6.466   4.224
 4362SOL    HW213986   0.779   6.595   4.125
 4363SOL     OW13987   4.519   0.827   2.986
 4363SOL    HW113988   4.532   0.753   3.052
 4363SOL    HW213989   4.423   0.828   2.955
 4364SOL     OW13990   2.970   3.907   2.419
 4364SOL    HW113991   2.927   3.989   2.457
 4364SOL    HW213992   2.939   3.893   2.325
 4365SOL     OW13993   3.194   2.186   1.830
 4365SOL    HW113994   3.177   2.280   1.802
 4365SOL    HW213995   3.107   2.137   1.840
 4366SOL     OW13996   5.016   5.330   5.188
 4366SOL    HW113997   5.115   5.337   5.198
 4366SOL    HW213998   4.980   5.266   5.256
 4367SOL     OW13999   3.063   5.223   3.343
 4367SOL    HW114000   2.997   5.275   3.288
 4367SOL    HW214001   3.053   5.126   3.324
 4368SOL     OW14002   5.274   5.776   2.618
 4368SOL    HW114003   5.340   5.845   2.590
 4368SOL    HW214004   5.286   5.693   2.563
 4369SOL     OW14005   4.937   5.142   2.809
 4369SOL    HW114006   4.923   5.118   2.713
 4369SOL    HW214007   4.871   5.211   2.837
 4370SOL     OW14008   3.712   4.241   1.458
 4370SOL    HW114009   3.784   4.215   1.393
 4370SOL    HW214010   3.736   4.329   1.500
 4371SOL     OW14011   2.537   0.919   1.867
 4371SOL    HW114012   2.635   0.907   1.884
 4371SOL    HW214013   2.496   0.831   1.848
 4372SOL     OW14014   1.700   2.268   4.939
 4372SOL    HW114015   1.611   2.225   4.952
 4372SOL    HW214016   1.729   2.311   5.025
 4373SOL     OW14017   4.760   1.029   6.135
 4373SOL    HW114018   4.859   1.021   6.125
 4373SOL    HW214019   4.735   1.023   6.232
 4374SOL     OW14020   2.511   1.948   1.557
 4374SOL    HW114021   2.496   2.046   1.571
 4374SOL    HW214022   2.599   1.933   1.513
 4375SOL     OW14023   3.753   0.216   3.413
 4375SOL    HW114024   3.750   0.313   3.393
 4375SOL    HW214025   3.689   0.167   3.353
 4376SOL     OW14026   6.113   6.289   1.599
 4376SOL    HW114027   6.158   6.212   1.553
 4376SOL    HW214028   6.181   6.343   1.647
 4377SOL     OW14029   5.595   6.346   0.385
 4377SOL    HW114030   5.542   6.422   0.423
 4377SOL    HW214031   5.666   6.382   0.325
 4378SOL     OW14032   1.773   5.658   2.341
 4378SOL    HW114033   1.770   5.566   2.381
 4378SOL    HW214034   1.864   5.675   2.303
 4379SOL     OW14035   1.580   0.605   1.819
 4379SOL    HW114036   1.515   0.636   1.749
 4379SOL    HW214037   1.643   0.680   1.840
 4380SOL     OW14038   1.956   5.958   5.526
 4380SOL    HW114039   1.985   5.862   5.533
 4380SOL    HW214040   1.860   5.961   5.496
 4381SOL     OW14041   4.002   6.011   4.472
 4381SOL    HW114042   4.009   6.111   4.479
 4381SOL    HW214043   4.012   5.983   4.377
 4382SOL     OW14044   4.941   4.162   4.569
 4382SOL    HW114045   4.862   4.161   4.630
 4382SOL    HW214046   4.972   4.068   4.553
 4383SOL     OW14047   1.263   1.893   6.248
 4383SOL    HW114048   1.272   1.991   6.262
 4383SOL    HW214049   1.167   1.869   6.236
 4384SOL     OW14050   3.744   6.570   1.327
 4384SOL    HW114051   3.788   6.622   1.253
 4384SOL    HW214052   3.694   6.633   1.386
 4385SOL     OW14053   0.246   1.926   3.760
 4385SOL    HW114054   0.160   1.977   3.769
 4385SOL    HW214055   0.270   1.917   3.663
 4386SOL     OW14056   0.677   3.809   6.723
 4386SOL    HW114057   0.703   3.870   6.648
 4386SOL    HW214058   0.758   3.785   6.777
 4387SOL     OW14059   6.482   2.993   1.234
 4387SOL    HW114060   6.541   3.073   1.217
 4387SOL    HW214061   6.416   2.985   1.159
 4388SOL     OW14062   3.996   0.288   6.277
 4388SOL    HW114063   3.901   0.260   6.290
 4388SOL    HW214064   4.049   0.211   6.242
 4389SOL     OW14065   5.674   2.928   1.523
 4389SOL    HW114066   5.621   2.936   1.607
 4389SOL    HW214067   5.736   2.850   1.529
 4390SOL     OW14068   5.162   2.027   1.433
 4390SOL    HW114069   5.076   2.006   1.388
 4390SOL    HW214070   5.144   2.077   1.517
 4391SOL     OW14071   0.955   6.001   0.074
 4391SOL    HW114072   0.913   6.041   7.010
 4391SOL    HW214073   1.036   5.949   0.047
 4392SOL     OW14074   4.895   3.254   4.480
 4392SOL    HW114075   4.864   3.188   4.412
 4392SOL    HW214076   4.832   3.254   4.558
 4393SOL     OW14077   5.369   0.192   3.693
 4393SOL    HW114078   5.370   0.173   3.595
 4393SOL    HW214079   5.440   0.138   3.739
 4394SOL     OW14080   6.192   6.196   2.963
 4394SOL    HW114081   6.268   6.229   2.907
 4394SOL    HW214082   6.223   6.181   3.057
 4395SOL     OW14083   4.345   1.436   1.975
 4395SOL    HW114084   4.329   1.534   1.971
 4395SOL    HW214085   4.261   1.389   2.003
 4396SOL     OW14086   1.472   1.520   4.603
 4396SOL    HW114087   1.443   1.509   4.508
 4396SOL    HW214088   1.551   1.461   4.621
 4397SOL     OW14089   0.231   1.527   4.364
 4397SOL    HW114090   0.242   1.627   4.371
 4397SOL    HW214091   0.145   1.506   4.319
 4398SOL     OW14092   1.124   3.916   4.427
 4398SOL    HW114093   1.033   3.925   4.385
 4398SOL    HW214094   1.122   3.957   4.518
 4399SOL     OW14095   2.242   0.365   0.643
 4399SOL    HW114096   2.338   0.393   0.636
 4399SOL    HW214097   2.230   0.275   0.601
 4400SOL     OW14098   2.216   6.473   4.083
 4400SOL    HW114099   2.231   6.567   4.113
 4400SOL    HW214100   2.162   6.473   3.999
 4401SOL     OW14101   5.255   6.147   5.217
 4401SOL    HW114102   5.266   6.244   5.237
 4401SOL    HW214103   5.294   6.127   5.127
 4402SOL     OW14104   0.841   5.861   2.787
 4402SOL    HW114105   0.928   5.907   2.809
 4402SOL    HW214106   0.781   5.926   2.739
 4403SOL     OW14107   6.798   0.228   3.311
 4403SOL    HW114108   6.867   0.155   3.316
 4403SOL    HW214109   6.809   0.278   3.226
 4404SOL     OW14110   1.064   4.393   3.778
 4404SOL    HW114111   1.161   4.374   3.790
 4404SOL    HW214112   1.010   4.317   3.814
 4405SOL     OW14113   3.350   4.591   5.721
 4405SOL    HW114114   3.345   4.534   5.803
 4405SOL    HW214115   3.259   4.626   5.700
 4406SOL     OW14116   4.883   4.750   1.623
 4406SOL    HW114117   4.790   4.734   1.591
 4406SOL    HW214118   4.949   4.712   1.558
 4407SOL     OW14119   6.892   6.265   0.587
 4407SOL    HW114120   6.805   6.232   0.552
 4407SOL    HW214121   6.937   6.322   0.519
 4408SOL     OW14122   4.504   0.315   0.551
 4408SOL    HW114123   4.581   0.379   0.548
 4408SOL    HW214124   4.468   0.301   0.459
 4409SOL     OW14125   4.267   1.706   1.947
 4409SOL    HW114126   4.315   1.760   1.877
 4409SOL    HW214127   4.179   1.676   1.911
 4410SOL     OW14128   2.410   4.342   0.291
 4410SOL    HW114129   2.439   4.262   0.345
 4410SOL    HW214130   2.361   4.406   0.350
 4411SOL     OW14131   3.690   3.564   2.899
 4411SOL    HW114132   3.699   3.572   2.998
 4411SOL    HW214133   3.599   3.596   2.871
 4412SOL     OW14134   4.018   1.482   5.632
 4412SOL    HW114135   3.964   1.418   5.577
 4412SOL    HW214136   4.029   1.568   5.583
 4413SOL     OW14137   3.987   5.881   4.185
 4413SOL    HW114138   3.892   5.907   4.166
 4413SOL    HW214139   3.989   5.792   4.229
 4414SOL     OW14140   4.191   4.971   2.262
 4414SOL    HW114141   4.147   4.921   2.336
 4414SOL    HW214142   4.125   4.990   2.190
 4415SOL     OW14143   5.738   3.693   5.942
 4415SOL    HW114144   5.675   3.636   5.995
 4415SOL    HW214145   5.749   3.654   5.850
 4416SOL     OW14146   3.158   1.575   4.279
 4416SOL    HW114147   3.135   1.530   4.366
 4416SOL    HW214148   3.119   1.667   4.278
 4417SOL     OW14149   6.701   5.113   2.386
 4417SOL    HW114150   6.696   5.031   2.444
 4417SOL    HW214151   6.758   5.181   2.431
 4418SOL     OW14152   4.668   6.463   3.726
 4418SOL    HW114153   4.576   6.449   3.690
 4418SOL    HW214154   4.668   6.450   3.825
 4419SOL     OW14155   5.753   5.326   0.732
 4419SOL    HW114156   5.805   5.392   0.786
 4419SOL    HW214157   5.782   5.330   0.636
 4420SOL     OW14158   4.602   0.828   0.867
 4420SOL    HW114159   4.682   0.883   0.890
 4420SOL    HW214160   4.611   0.737   0.907
 4421SOL     OW14161   2.451   1.430   2.421
 4421SOL    HW114162   2.407   1.508   2.378
 4421SOL    HW214163   2.387   1.353   2.424
 4422SOL     OW14164   3.292   3.414   5.849
 4422SOL    HW114165   3.316   3.409   5.752
 4422SOL    HW214166   3.231   3.492   5.864
 4423SOL     OW14167   1.202   1.614   5.919
 4423SOL    HW114168   1.149   1.571   5.993
 4423SOL    HW214169   1.293   1.637   5.954
 4424SOL     OW14170   5.261   6.221   3.075
 4424SOL    HW114171   5.285   6.318   3.078
 4424SOL    HW214172   5.306   6.178   2.997
 4425SOL     OW14173   3.555   5.251   5.881
 4425SOL    HW114174   3.630   5.280   5.940
 4425SOL    HW214175   3.502   5.331   5.854
 4426SOL     OW14176   0.031   0.933   5.558
 4426SOL    HW114177   0.088   0.851   5.553
 4426SOL    HW214178   0.044   0.987   5.475
 4427SOL     OW14179   0.681   0.798   3.323
 4427SOL    HW114180   0.615   0.871   3.306
 4427SOL    HW214181   0.733   0.780   3.239
 4428SOL     OW14182   2.676   4.718   4.241
 4428SOL    HW114183   2.608   4.791   4.240
 4428SOL    HW214184   2.633   4.632   4.214
 4429SOL     OW14185   3.057   6.991   3.490
 4429SOL    HW114186   2.983   6.937   3.530
 4429SOL    HW214187   3.022   0.061   3.460
 4430SOL     OW14188   4.238   2.186   3.207
 4430SOL    HW114189   4.295   2.265   3.187
 4430SOL    HW214190   4.297   2.107   3.227
 4431SOL     OW14191   3.009   1.680   3.148
 4431SOL    HW114192   2.951   1.679   3.066
 4431SOL    HW214193   3.048   1.589   3.162
 4432SOL     OW14194   3.487   2.978   3.107
 4432SOL    HW114195   3.538   2.937   3.031
 4432SOL    HW214196   3.542   2.973   3.190
 4433SOL     OW14197   5.959   0.109   3.384
 4433SOL    HW114198   5.972   0.122   3.482
 4433SOL    HW214199   5.862   0.107   3.362
 4434SOL     OW14200   5.124   1.736   4.281
 4434SOL    HW114201   5.192   1.809   4.280
 4434SOL    HW214202   5.052   1.759   4.347
 4435SOL     OW14203   3.717   3.112   1.341
 4435SOL    HW114204   3.789   3.181   1.327
 4435SOL    HW214205   3.757   3.029   1.378
 4436SOL     OW14206   3.115   2.021   0.168
 4436SOL    HW114207   3.212   2.025   0.143
 4436SOL    HW214208   3.075   1.939   0.127
 4437SOL     OW14209   4.092   0.802   4.563
 4437SOL    HW114210   4.085   0.792   4.464
 4437SOL    HW214211   4.037   0.731   4.608
 4438SOL     OW14212   4.024   2.220   0.427
 4438SOL    HW114213   4.061   2.157   0.496
 4438SOL    HW214214   4.099   2.264   0.379
 4439SOL     OW14215   0.501   4.949   1.620
 4439SOL    HW114216   0.523   5.043   1.645
 4439SOL    HW214217   0.402   4.938   1.616
 4440SOL     OW14218   2.113   5.462   0.229
 4440SOL    HW114219   2.147   5.368   0.233
 4440SOL    HW214220   2.070   5.479   0.140
 4441SOL     OW14221   6.667   2.148   2.304
 4441SOL    HW114222   6.729   2.216   2.265
 4441SOL    HW214223   6.707   2.057   2.296
 4442SOL     OW14224   3.781   6.272   3.413
 4442SOL    HW114225   3.772   6.172   3.414
 4442SOL    HW214226   3.852   6.298   3.348
 4443SOL     OW14227   1.897   1.885   6.656
 4443SOL    HW114228   1.992   1.915   6.646
 4443SOL    HW214229   1.838   1.941   6.597
 4444SOL     OW14230   4.813   6.411   0.485
 4444SOL    HW114231   4.722   6.452   0.485
 4444SOL    HW214232   4.819   6.342   0.413
 4445SOL     OW14233   1.407   0.627   6.476
 4445SOL    HW114234   1.364   0.660   6.392
 4445SOL    HW214235   1.504   0.607   6.458
 4446SOL     OW14236   5.373   1.067   1.574
 4446SOL    HW114237   5.407   1.122   1.650
 4446SOL    HW214238   5.308   0.999   1.609
 4447SOL     OW14239   5.380   3.354   5.511
 4447SOL    HW114240   5.408   3.374   5.605
 4447SOL    HW214241   5.442   3.285   5.472
 4448SOL     OW14242   2.724   3.680   0.466
 4448SOL    HW114243   2.655   3.620   0.508
 4448SOL    HW214244   2.815   3.645   0.487
 4449SOL     OW14245   3.380   0.479   5.863
 4449SOL    HW114246   3.458   0.452   5.920
 4449SOL    HW214247   3.412   0.499   5.771
 4450SOL     OW14248   2.919   3.402   3.010
 4450SOL    HW114249   2.998   3.423   2.951
 4450SOL    HW214250   2.912   3.304   3.023
 4451SOL     OW14251   6.318   4.433   2.701
 4451SOL    HW114252   6.269   4.488   2.769
 4451SOL    HW214253   6.341   4.344   2.741
 4452SOL     OW14254   6.253   6.957   5.241
 4452SOL    HW114255   6.350   6.976   5.225
 4452SOL    HW214256   6.239   6.935   5.338
 4453SOL     OW14257   6.224   2.720   1.429
 4453SOL    HW114258   6.296   2.651   1.415
 4453SOL    HW214259   6.236   2.761   1.519
 4454SOL     OW14260   5.435   2.497   1.085
 4454SOL    HW114261   5.413   2.593   1.064
 4454SOL    HW214262   5.502   2.463   1.019
 4455SOL     OW14263   3.510   6.063   1.888
 4455SOL    HW114264   3.538   5.974   1.926
 4455SOL    HW214265   3.577   6.092   1.820
 4456SOL     OW14266   2.214   5.533   2.233
 4456SOL    HW114267   2.204   5.517   2.331
 4456SOL    HW214268   2.170   5.459   2.182
 4457SOL     OW14269   4.348   2.315   6.384
 4457SOL    HW114270   4.266   2.366   6.358
 4457SOL    HW214271   4.419   2.378   6.415
 4458SOL     OW14272   2.267   3.358   6.172
 4458SOL    HW114273   2.293   3.284   6.109
 4458SOL    HW214274   2.347   3.414   6.193
 4459SOL     OW14275   5.087   0.340   4.060
 4459SOL    HW114276   5.081   0.264   3.995
 4459SOL    HW214277   5.013   0.404   4.043
 4460SOL     OW14278   2.321   3.239   6.640
 4460SOL    HW114279   2.319   3.327   6.591
 4460SOL    HW214280   2.288   3.252   6.733
 4461SOL     OW14281   1.038   6.788   2.313
 4461SOL    HW114282   1.063   6.728   2.389
 4461SOL    HW214283   0.942   6.772   2.289
 4462SOL     OW14284   6.241   4.651   0.847
 4462SOL    HW114285   6.274   4.661   0.940
 4462SOL    HW214286   6.309   4.687   0.783
 4463SOL     OW14287   1.632   2.653   6.927
 4463SOL    HW114288   1.703   2.722   6.945
 4463SOL    HW214289   1.674   2.571   6.889
 4464SOL     OW14290   6.251   4.599   6.838
 4464SOL    HW114291   6.293   4.683   6.804
 4464SOL    HW214292   6.157   4.593   6.805
 4465SOL     OW14293   2.113   6.710   2.256
 4465SOL    HW114294   2.046   6.671   2.319
 4465SOL    HW214295   2.091   6.806   2.239
 4466SOL     OW14296   0.833   0.972   2.530
 4466SOL    HW114297   0.833   0.925   2.618
 4466SOL    HW214298   0.804   1.067   2.543
 4467SOL     OW14299   1.493   6.796   3.361
 4467SOL    HW114300   1.507   6.717   3.421
 4467SOL    HW214301   1.485   6.879   3.417
 4468SOL     OW14302   1.004   2.244   6.947
 4468SOL    HW114303   1.058   2.177   6.895
 4468SOL    HW214304   0.936   2.196   7.002
 4469SOL     OW14305   2.940   0.272   2.045
 4469SOL    HW114306   2.952   0.305   1.951
 4469SOL    HW214307   3.021   0.294   2.099
 4470SOL     OW14308   5.260   3.893   1.768
 4470SOL    HW114309   5.246   3.907   1.866
 4470SOL    HW214310   5.239   3.977   1.719
 4471SOL     OW14311   0.243   3.020   0.368
 4471SOL    HW114312   0.290   2.955   0.309
 4471SOL    HW214313   0.148   2.992   0.380
 4472SOL     OW14314   1.590   3.960   2.447
 4472SOL    HW114315   1.688   3.979   2.434
 4472SOL    HW214316   1.542   4.045   2.466
 4473SOL     OW14317   0.346   0.705   4.657
 4473SOL    HW114318   0.393   0.776   4.604
 4473SOL    HW214319   0.409   0.628   4.672
 4474SOL     OW14320   3.089   0.106   2.501
 4474SOL    HW114321   3.178   0.064   2.519
 4474SOL    HW214322   3.101   0.192   2.453
 4475SOL     OW14323   1.245   3.693   1.364
 4475SOL    HW114324   1.184   3.677   1.441
 4475SOL    HW214325   1.340   3.694   1.396
 4476SOL     OW14326   4.898   6.410   2.699
 4476SOL    HW114327   4.948   6.496   2.687
 4476SOL    HW214328   4.935   6.361   2.778
 4477SOL     OW14329   2.235   6.939   6.879
 4477SOL    HW114330   2.243   0.021   6.882
 4477SOL    HW214331   2.224   6.910   6.784
 4478SOL     OW14332   2.430   6.457   2.017
 4478SOL    HW114333   2.526   6.466   1.994
 4478SOL    HW214334   2.418   6.386   2.087
 4479SOL     OW14335   1.270   0.273   6.257
 4479SOL    HW114336   1.333   0.247   6.185
 4479SOL    HW214337   1.320   0.319   6.331
 4480SOL     OW14338   2.013   3.759   4.576
 4480SOL    HW114339   2.064   3.673   4.581
 4480SOL    HW214340   1.926   3.744   4.529
 4481SOL     OW14341   1.650   6.249   4.481
 4481SOL    HW114342   1.732   6.197   4.506
 4481SOL    HW214343   1.672   6.347   4.480
 4482SOL     OW14344   0.886   4.041   4.371
 4482SOL    HW114345   0.814   3.975   4.391
 4482SOL    HW214346   0.882   4.116   4.437
 4483SOL     OW14347   6.875   3.270   1.253
 4483SOL    HW114348   6.794   3.275   1.195
 4483SOL    HW214349   6.936   3.346   1.230
 4484SOL     OW14350   3.910   2.798   5.268
 4484SOL    HW114351   3.865   2.781   5.356
 4484SOL    HW214352   3.954   2.714   5.237
 4485SOL     OW14353   4.820   2.724   6.474
 4485SOL    HW114354   4.771   2.638   6.482
 4485SOL    HW214355   4.914   2.707   6.444
 4486SOL     OW14356   0.154   4.122   5.206
 4486SOL    HW114357   0.099   4.039   5.195
 4486SOL    HW214358   0.144   4.156   5.299
 4487SOL     OW14359   2.628   3.649   6.801
 4487SOL    HW114360   2.617   3.689   6.710
 4487SOL    HW214361   2.657   3.553   6.792
 4488SOL     OW14362   5.468   2.398   6.030
 4488SOL    HW114363   5.403   2.333   6.070
 4488SOL    HW214364   5.521   2.352   5.959
 4489SOL     OW14365   5.525   5.895   4.755
 4489SOL    HW114366   5.466   5.976   4.761
 4489SOL    HW214367   5.483   5.819   4.803
 4490SOL     OW14368   6.004   1.420   1.609
 4490SOL    HW114369   6.045   1.500   1.566
 4490SOL    HW214370   6.010   1.428   1.708
 4491SOL     OW14371   1.273   3.597   2.469
 4491SOL    HW114372   1.348   3.621   2.531
 4491SOL    HW214373   1.306   3.534   2.400
 4492SOL     OW14374   5.318   2.362   6.994
 4492SOL    HW114375   5.228   2.379   6.955
 4492SOL    HW214376   5.309   2.341   0.073
 4493SOL     OW14377   4.220   5.175   4.651
 4493SOL    HW114378   4.191   5.248   4.713
 4493SOL    HW214379   4.313   5.193   4.619
 4494SOL     OW14380   0.080   2.983   5.926
 4494SOL    HW114381   0.123   2.901   5.963
 4494SOL    HW214382   0.011   3.017   5.990
 4495SOL     OW14383   5.177   6.937   2.718
 4495SOL    HW114384   5.254   6.876   2.738
 4495SOL    HW214385   5.210   0.012   2.709
 4496SOL     OW14386   5.184   4.874   6.979
 4496SOL    HW114387   5.144   4.873   0.052
 4496SOL    HW214388   5.183   4.782   6.941
 4497SOL     OW14389   5.493   5.892   6.810
 4497SOL    HW114390   5.541   5.805   6.796
 4497SOL    HW214391   5.559   5.967   6.805
 4498SOL     OW14392   6.885   4.041   6.856
 4498SOL    HW114393   6.970   4.082   6.888
 4498SOL    HW214394   6.877   4.055   6.758
 4499SOL     OW14395   6.615   2.746   4.711
 4499SOL    HW114396   6.562   2.714   4.790
 4499SOL    HW214397   6.653   2.668   4.662
 4500SOL     OW14398   2.954   3.777   3.840
 4500SOL    HW114399   2.877   3.803   3.897
 4500SOL    HW214400   2.963   3.840   3.763
 4501SOL     OW14401   0.946   3.903   5.697
 4501SOL    HW114402   0.851   3.930   5.712
 4501SOL    HW214403   0.956   3.866   5.605
 4502SOL     OW14404   1.906   2.501   6.152
 4502SOL    HW114405   2.000   2.494   6.117
 4502SOL    HW214406   1.902   2.464   6.245
 4503SOL     OW14407   2.386   1.185   3.626
 4503SOL    HW114408   2.382   1.095   3.668
 4503SOL    HW214409   2.480   1.219   3.627
 4504SOL     OW14410   6.357   2.377   5.728
 4504SOL    HW114411   6.292   2.453   5.732
 4504SOL    HW214412   6.432   2.401   5.666
 4505SOL     OW14413   0.651   6.180   4.842
 4505SOL    HW114414   0.724   6.138   4.896
 4505SOL    HW214415   0.607   6.252   4.895
 4506SOL     OW14416   3.626   1.720   4.696
 4506SOL    HW114417   3.544   1.699   4.750
 4506SOL    HW214418   3.707   1.695   4.748
 4507SOL     OW14419   4.945   5.430   1.553
 4507SOL    HW114420   5.043   5.417   1.563
 4507SOL    HW214421   4.926   5.524   1.526
 4508SOL     OW14422   1.184   4.269   0.372
 4508SOL    HW114423   1.198   4.172   0.390
 4508SOL    HW214424   1.159   4.282   0.277
 4509SOL     OW14425   4.227   2.006   4.344
 4509SOL    HW114426   4.270   1.995   4.434
 4509SOL    HW214427   4.154   1.939   4.334
 4510SOL     OW14428   5.827   0.772   5.095
 4510SOL    HW114429   5.894   0.739   5.160
 4510SOL    HW214430   5.751   0.815   5.144
 4511SOL     OW14431   0.256   3.599   0.191
 4511SOL    HW114432   0.185   3.589   0.260
 4511SOL    HW214433   0.328   3.530   0.206
 4512SOL     OW14434   2.830   6.602   6.746
 4512SOL    HW114435   2.858   6.616   6.651
 4512SOL    HW214436   2.853   6.508   6.773
 4513SOL     OW14437   4.531   6.472   1.420
 4513SOL    HW114438   4.506   6.472   1.323
 4513SOL    HW214439   4.629   6.492   1.429
 4514SOL     OW14440   3.915   1.325   5.054
 4514SOL    HW114441   3.916   1.425   5.047
 4514SOL    HW214442   4.008   1.291   5.069
 4515SOL     OW14443   6.893   4.447   6.780
 4515SOL    HW114444   6.984   4.437   6.740
 4515SOL    HW214445   6.900   4.446   6.880
 4516SOL     OW14446   1.144   1.032   5.604
 4516SOL    HW114447   1.221   1.063   5.660
 4516SOL    HW214448   1.170   0.948   5.557
 4517SOL     OW14449   2.869   6.603   6.456
 4517SOL    HW114450   2.894   6.527   6.396
 4517SOL    HW214451   2.848   6.683   6.401
 4518SOL     OW14452   0.848   2.314   4.184
 4518SOL    HW114453   0.946   2.310   4.169
 4518SOL    HW214454   0.823   2.403   4.223
 4519SOL     OW14455   0.348   1.966   3.462
 4519SOL    HW114456   0.429   1.914   3.437
 4519SOL    HW214457   0.266   1.912   3.441
 4520SOL     OW14458   6.198   4.616   2.836
 4520SOL    HW114459   6.188   4.700   2.783
 4520SOL    HW214460   6.118   4.603   2.894
 4521SOL     OW14461   4.607   2.079   6.291
 4521SOL    HW114462   4.597   2.069   6.390
 4521SOL    HW214463   4.534   2.030   6.245
 4522SOL     OW14464   5.656   6.633   3.889
 4522SOL    HW114465   5.591   6.563   3.920
 4522SOL    HW214466   5.623   6.675   3.805
 4523SOL     OW14467   2.860   4.465   6.796
 4523SOL    HW114468   2.855   4.432   6.890
 4523SOL    HW214469   2.955   4.465   6.765
 4524SOL     OW14470   5.182   1.495   5.803
 4524SOL    HW114471   5.191   1.536   5.893
 4524SOL    HW214472   5.273   1.469   5.769
 4525SOL     OW14473   6.603   1.808   4.383
 4525SOL    HW114474   6.657   1.748   4.323
 4525SOL    HW214475   6.656   1.828   4.465
 4526SOL     OW14476   5.243   0.256   1.283
 4526SOL    HW114477   5.333   0.251   1.238
 4526SOL    HW214478   5.220   0.351   1.301
 4527SOL     OW14479   4.105   0.609   3.452
 4527SOL    HW114480   4.156   0.664   3.518
 4527SOL    HW214481   4.047   0.543   3.500
 4528SOL     OW14482   4.753   6.875   0.072
 4528SOL    HW114483   4.721   6.820   0.149
 4528SOL    HW214484   4.764   6.970   0.102
 4529SOL     OW14485   2.834   1.326   3.424
 4529SOL    HW114486   2.858   1.359   3.516
 4529SOL    HW214487   2.915   1.291   3.379
 4530SOL     OW14488   0.427   3.395   5.579
 4530SOL    HW114489   0.417   3.296   5.588
 4530SOL    HW214490   0.341   3.439   5.604
 4531SOL     OW14491   1.461   3.900   2.817
 4531SOL    HW114492   1.426   3.881   2.909
 4531SOL    HW214493   1.561   3.891   2.817
 4532SOL     OW14494   6.673   1.225   1.376
 4532SOL    HW114495   6.714   1.310   1.410
 4532SOL    HW214496   6.720   1.147   1.418
 4533SOL     OW14497   1.713   0.378   3.939
 4533SOL    HW114498   1.618   0.373   3.970
 4533SOL    HW214499   1.717   0.366   3.840
 4534SOL     OW14500   6.528   3.718   4.908
 4534SOL    HW114501   6.499   3.784   4.838
 4534SOL    HW214502   6.551   3.631   4.865
 4535SOL     OW14503   4.763   2.369   2.154
 4535SOL    HW114504   4.742   2.346   2.059
 4535SOL    HW214505   4.755   2.468   2.167
 4536SOL     OW14506   4.705   1.306   4.523
 4536SOL    HW114507   4.606   1.307   4.538
 4536SOL    HW214508   4.751   1.342   4.605
 4537SOL     OW14509   3.789   3.431   6.646
 4537SOL    HW114510   3.797   3.332   6.640
 4537SOL    HW214511   3.700   3.460   6.611
 4538SOL     OW14512   3.272   1.858   3.869
 4538SOL    HW114513   3.321   1.775   3.894
 4538SOL    HW214514   3.219   1.891   3.947
 4539SOL     OW14515   2.855   2.286   3.723
 4539SOL    HW114516   2.828   2.190   3.711
 4539SOL    HW214517   2.954   2.295   3.713
 4540SOL     OW14518   3.361   3.513   3.958
 4540SOL    HW114519   3.292   3.569   3.911
 4540SOL    HW214520   3.365   3.423   3.916
 4541SOL     OW14521   5.251   1.049   0.300
 4541SOL    HW114522   5.287   1.132   0.258
 4541SOL    HW214523   5.153   1.042   0.282
 4542SOL     OW14524   5.940   6.105   1.683
 4542SOL    HW114525   5.913   6.052   1.603
 4542SOL    HW214526   5.981   6.192   1.653
 4543SOL     OW14527   4.531   1.889   0.259
 4543SOL    HW114528   4.582   1.952   0.319
 4543SOL    HW214529   4.436   1.886   0.287
 4544SOL     OW14530   2.381   5.966   6.821
 4544SOL    HW114531   2.424   6.017   6.747
 4544SOL    HW214532   2.397   6.013   6.908
 4545SOL     OW14533   4.203   2.108   5.296
 4545SOL    HW114534   4.143   2.068   5.365
 4545SOL    HW214535   4.292   2.063   5.297
 4546SOL     OW14536   0.768   0.134   6.037
 4546SOL    HW114537   0.744   0.057   5.977
 4546SOL    HW214538   0.813   0.205   5.984
 4547SOL     OW14539   5.470   2.802   1.984
 4547SOL    HW114540   5.514   2.755   1.908
 4547SOL    HW214541   5.398   2.744   2.022
 4548SOL     OW14542   0.674   4.767   4.186
 4548SOL    HW114543   0.748   4.813   4.234
 4548SOL    HW214544   0.649   4.820   4.105
 4549SOL     OW14545   6.883   3.440   3.770
 4549SOL    HW114546   6.792   3.465   3.736
 4549SOL    HW214547   6.933   3.390   3.699
 4550SOL     OW14548   0.836   6.489   3.814
 4550SOL    HW114549   0.889   6.415   3.772
 4550SOL    HW214550   0.876   6.577   3.789
 4551SOL     OW14551   0.177   2.141   5.406
 4551SOL    HW114552   0.176   2.173   5.311
 4551SOL    HW214553   0.084   2.149   5.444
 4552SOL     OW14554   0.766   2.884   5.850
 4552SOL    HW114555   0.669   2.859   5.849
 4552SOL    HW214556   0.775   2.982   5.870
 4553SOL     OW14557   4.090   4.998   0.032
 4553SOL    HW114558   4.037   5.068   0.078
 4553SOL    HW214559   4.047   4.908   0.044
 4554SOL     OW14560   3.839   0.533   2.213
 4554SOL    HW114561   3.801   0.536   2.305
 4554SOL    HW214562   3.778   0.580   2.149
 4555SOL     OW14563   4.145   2.166   6.874
 4555SOL    HW114564   4.239   2.172   6.841
 4555SOL    HW214565   4.126   2.072   6.905
 4556SOL     OW14566   3.966   0.991   3.633
 4556SOL    HW114567   4.012   1.074   3.602
 4556SOL    HW214568   3.942   0.934   3.555
 4557SOL     OW14569   5.087   0.546   4.766
 4557SOL    HW114570   5.175   0.584   4.794
 4557SOL    HW214571   5.033   0.522   4.848
 4558SOL     OW14572   6.015   3.741   6.263
 4558SOL    HW114573   6.061   3.733   6.351
 4558SOL    HW214574   6.031   3.659   6.209
 4559SOL     OW14575   1.558   6.621   1.220
 4559SOL    HW114576   1.646   6.658   1.191
 4559SOL    HW214577   1.535   6.542   1.163
 4560SOL     OW14578   4.855   3.724   3.272
 4560SOL    HW114579   4.953   3.706   3.281
 4560SOL    HW214580   4.825   3.788   3.343
 4561SOL     OW14581   2.760   0.982   0.314
 4561SOL    HW114582   2.811   0.941   0.390
 4561SOL    HW214583   2.776   1.080   0.311
 4562SOL     OW14584   3.073   5.932   5.515
 4562SOL    HW114585   3.024   5.977   5.590
 4562SOL    HW214586   3.008   5.876   5.462
 4563SOL     OW14587   5.634   2.786   0.364
 4563SOL    HW114588   5.639   2.866   0.304
 4563SOL    HW214589   5.569   2.804   0.438
 4564SOL     OW14590   0.660   5.672   0.516
 4564SOL    HW114591   0.745   5.715   0.547
 4564SOL    HW214592   0.673   5.573   0.511
 4565SOL     OW14593   0.526   1.400   5.429
 4565SOL    HW114594   0.595   1.401   5.356
 4565SOL    HW214595   0.541   1.322   5.488
 4566SOL     OW14596   6.573   0.814   0.155
 4566SOL    HW114597   6.618   0.819   0.244
 4566SOL    HW214598   6.545   0.720   0.137
 4567SOL     OW14599   0.305   0.240   1.203
 4567SOL    HW114600   0.380   0.252   1.138
 4567SOL    HW214601   0.219   0.260   1.158
 4568SOL     OW14602   2.229   4.429   5.362
 4568SOL    HW114603   2.300   4.426   5.432
 4568SOL    HW214604   2.271   4.443   5.272
 4569SOL     OW14605   1.324   2.477   4.076
 4569SOL    HW114606   1.281   2.562   4.046
 4569SOL    HW214607   1.405   2.459   4.019
 4570SOL     OW14608   0.011   6.184   3.365
 4570SOL    HW114609   0.000   6.095   3.319
 4570SOL    HW214610   0.039   6.169   3.460
 4571SOL     OW14611   3.121   3.721   5.003
 4571SOL    HW114612   3.200   3.782   5.013
 4571SOL    HW214613   3.152   3.626   5.004
 4572SOL     OW14614   0.186   6.725   0.520
 4572SOL    HW114615   0.235   6.714   0.607
 4572SOL    HW214616   0.096   6.766   0.538
 4573SOL     OW14617   5.491   6.108   1.071
 4573SOL    HW114618   5.584   6.145   1.067
 4573SOL    HW214619   5.480   6.036   1.003
 4574SOL     OW14620   6.888   4.838   0.855
 4574SOL    HW114621   6.892   4.933   0.885
 4574SOL    HW214622   6.971   4.815   0.805
 4575SOL     OW14623   6.701   2.305   0.692
 4575SOL    HW114624   6.664   2.393   0.663
 4575SOL    HW214625   6.790   2.290   0.650
 4576SOL     OW14626   3.077   6.030   6.423
 4576SOL    HW114627   3.051   5.976   6.343
 4576SOL    HW214628   3.016   6.006   6.499
 4577SOL     OW14629   1.071   3.704   2.852
 4577SOL    HW114630   0.996   3.722   2.916
 4577SOL    HW214631   1.061   3.763   2.772
 4578SOL     OW14632   0.756   3.407   3.133
 4578SOL    HW114633   0.661   3.378   3.123
 4578SOL    HW214634   0.766   3.501   3.098
 4579SOL     OW14635   4.656   1.629   2.715
 4579SOL    HW114636   4.617   1.682   2.640
 4579SOL    HW214637   4.745   1.594   2.688
 4580SOL     OW14638   6.201   5.104   0.336
 4580SOL    HW114639   6.296   5.106   0.303
 4580SOL    HW214640   6.169   5.009   0.339
 4581SOL     OW14641   3.221   5.040   3.057
 4581SOL    HW114642   3.306   5.016   3.104
 4581SOL    HW214643   3.222   5.000   2.965
 4582SOL     OW14644   5.851   7.008   4.384
 4582SOL    HW114645   5.826   7.001   4.288
 4582SOL    HW214646   5.778   0.037   4.434
 4583SOL     OW14647   2.981   2.109   5.142
 4583SOL    HW114648   2.961   2.140   5.235
 4583SOL    HW214649   3.062   2.155   5.108
 4584SOL     OW14650   0.206   5.649   6.012
 4584SOL    HW114651   0.138   5.607   5.951
 4584SOL    HW214652   0.219   5.745   5.986
 4585SOL     OW14653   3.193   6.586   2.683
 4585SOL    HW114654   3.168   6.627   2.595
 4585SOL    HW214655   3.111   6.576   2.740
 4586SOL     OW14656   3.352   4.523   1.037
 4586SOL    HW114657   3.450   4.506   1.027
 4586SOL    HW214658   3.337   4.620   1.057
 4587SOL     OW14659   4.282   3.467   1.801
 4587SOL    HW114660   4.266   3.408   1.880
 4587SOL    HW214661   4.200   3.472   1.745
 4588SOL     OW14662   3.559   3.847   5.345
 4588SOL    HW114663   3.630   3.891   5.289
 4588SOL    HW214664   3.576   3.749   5.351
 4589SOL     OW14665   6.071   2.198   2.231
 4589SOL    HW114666   6.059   2.259   2.309
 4589SOL    HW214667   6.165   2.162   2.231
 4590SOL     OW14668   4.576   6.111   2.287
 4590SOL    HW114669   4.478   6.094   2.297
 4590SOL    HW214670   4.625   6.077   2.367
 4591SOL     OW14671   6.760   5.911   5.593
 4591SOL    HW114672   6.832   5.929   5.526
 4591SOL    HW214673   6.683   5.865   5.549
 4592SOL     OW14674   4.089   3.062   1.063
 4592SOL    HW114675   4.038   2.977   1.053
 4592SOL    HW214676   4.141   3.060   1.148
 4593SOL     OW14677   4.177   5.658   3.205
 4593SOL    HW114678   4.250   5.726   3.200
 4593SOL    HW214679   4.187   5.605   3.289
 4594SOL     OW14680   3.773   1.623   2.357
 4594SOL    HW114681   3.700   1.572   2.404
 4594SOL    HW214682   3.733   1.674   2.280
 4595SOL     OW14683   3.385   2.829   6.846
 4595SOL    HW114684   3.456   2.773   6.804
 4595SOL    HW214685   3.301   2.776   6.854
 4596SOL     OW14686   6.242   6.233   2.083
 4596SOL    HW114687   6.181   6.169   2.037
 4596SOL    HW214688   6.197   6.322   2.093
 4597SOL     OW14689   5.586   5.386   6.603
 4597SOL    HW114690   5.621   5.292   6.605
 4597SOL    HW214691   5.540   5.403   6.516
 4598SOL     OW14692   1.420   4.772   6.285
 4598SOL    HW114693   1.424   4.784   6.186
 4598SOL    HW214694   1.326   4.754   6.314
 4599SOL     OW14695   1.569   3.855   1.328
 4599SOL    HW114696   1.528   3.858   1.237
 4599SOL    HW214697   1.554   3.765   1.369
 4600SOL     OW14698   2.818   5.203   6.318
 4600SOL    HW114699   2.896   5.156   6.277
 4600SOL    HW214700   2.750   5.223   6.247
 4601SOL     OW14701   1.831   0.764   5.582
 4601SOL    HW114702   1.896   0.716   5.523
 4601SOL    HW214703   1.772   0.822   5.525
 4602SOL     OW14704   1.198   6.416   1.106
 4602SOL    HW114705   1.298   6.411   1.098
 4602SOL    HW214706   1.171   6.395   1.200
 4603SOL     OW14707   3.585   6.268   1.602
 4603SOL    HW114708   3.522   6.269   1.524
 4603SOL    HW214709   3.574   6.353   1.654
 4604SOL     OW14710   4.094   0.628   1.366
 4604SOL    HW114711   4.115   0.726   1.373
 4604SOL    HW214712   4.062   0.595   1.455
 4605SOL     OW14713   4.753   1.009   4.078
 4605SOL    HW114714   4.695   1.074   4.127
 4605SOL    HW214715   4.700   0.963   4.007
 4606SOL     OW14716   0.015   6.761   3.648
 4606SOL    HW114717   0.048   6.688   3.589
 4606SOL    HW214718   6.979   6.722   3.722
 4607SOL     OW14719   2.591   2.404   0.965
 4607SOL    HW114720   2.516   2.464   0.936
 4607SOL    HW214721   2.570   2.310   0.937
 4608SOL     OW14722   1.337   4.922   5.199
 4608SOL    HW114723   1.312   4.934   5.103
 4608SOL    HW214724   1.278   4.979   5.256
 4609SOL     OW14725   4.533   5.759   6.210
 4609SOL    HW114726   4.527   5.743   6.112
 4609SOL    HW214727   4.577   5.680   6.253
 4610SOL     OW14728   7.004   2.327   0.252
 4610SOL    HW114729   0.062   2.383   0.284
 4610SOL    HW214730   6.996   2.246   0.310
 4611SOL     OW14731   6.238   4.197   0.169
 4611SOL    HW114732   6.252   4.104   0.204
 4611SOL    HW214733   6.140   4.212   0.155
 4612SOL     OW14734   1.833   5.815   6.571
 4612SOL    HW114735   1.763   5.873   6.531
 4612SOL    HW214736   1.811   5.797   6.667
 4613SOL     OW14737   2.244   5.705   3.284
 4613SOL    HW114738   2.197   5.787   3.252
 4613SOL    HW214739   2.338   5.705   3.250
 4614SOL     OW14740   1.593   5.129   6.545
 4614SOL    HW114741   1.609   5.036   6.578
 4614SOL    HW214742   1.664   5.153   6.478
 4615SOL     OW14743   1.776   1.296   0.901
 4615SOL    HW114744   1.833   1.357   0.847
 4615SOL    HW214745   1.737   1.225   0.842
 4616SOL     OW14746   6.645   0.638   6.768
 4616SOL    HW114747   6.660   0.672   6.861
 4616SOL    HW214748   6.620   0.715   6.709
 4617SOL     OW14749   0.887   2.555   2.577
 4617SOL    HW114750   0.885   2.611   2.495
 4617SOL    HW214751   0.982   2.536   2.602
 4618SOL     OW14752   1.243   1.773   5.316
 4618SOL    HW114753   1.284   1.855   5.275
 4618SOL    HW214754   1.147   1.792   5.338
 4619SOL     OW14755   4.429   0.372   3.656
 4619SOL    HW114756   4.440   0.380   3.755
 4619SOL    HW214757   4.386   0.284   3.634
 4620SOL     OW14758   3.868   4.449   0.020
 4620SOL    HW114759   3.880   4.483   6.945
 4620SOL    HW214760   3.947   4.393   0.045
 4621SOL     OW14761   6.491   2.113   4.759
 4621SOL    HW114762   6.569   2.173   4.772
 4621SOL    HW214763   6.455   2.085   4.849
 4622SOL     OW14764   1.303   2.741   1.165
 4622SOL    HW114765   1.401   2.760   1.165
 4622SOL    HW214766   1.284   2.656   1.116
 4623SOL     OW14767   0.213   5.284   0.963
 4623SOL    HW114768   0.183   5.372   0.926
 4623SOL    HW214769   0.219   5.217   0.889
 4624SOL     OW14770   4.529   0.971   3.926
 4624SOL    HW114771   4.473   0.888   3.925
 4624SOL    HW214772   4.473   1.048   3.957
 4625SOL     OW14773   1.673   4.385   0.149
 4625SOL    HW114774   1.606   4.411   0.079
 4625SOL    HW214775   1.653   4.293   0.182
 4626SOL     OW14776   6.315   4.525   1.738
 4626SOL    HW114777   6.397   4.469   1.751
 4626SOL    HW214778   6.289   4.567   1.825
 4627SOL     OW14779   4.193   5.713   6.042
 4627SOL    HW114780   4.120   5.781   6.055
 4627SOL    HW214781   4.186   5.643   6.113
 4628SOL     OW14782   5.717   4.681   2.383
 4628SOL    HW114783   5.748   4.773   2.406
 4628SOL    HW214784   5.780   4.614   2.421
 4629SOL     OW14785   2.121   4.629   6.132
 4629SOL    HW114786   2.032   4.584   6.147
 4629SOL    HW214787   2.128   4.656   6.036
 4630SOL     OW14788   2.663   6.022   4.057
 4630SOL    HW114789   2.571   5.989   4.076
 4630SOL    HW214790   2.729   5.966   4.107
 4631SOL     OW14791   2.468   6.716   3.496
 4631SOL    HW114792   2.472   6.708   3.396
 4631SOL    HW214793   2.558   6.741   3.531
 4632SOL     OW14794   4.362   5.111   3.810
 4632SOL    HW114795   4.421   5.037   3.843
 4632SOL    HW214796   4.379   5.193   3.864
 4633SOL     OW14797   6.959   1.796   5.013
 4633SOL    HW114798   6.946   1.758   4.921
 4633SOL    HW214799   0.036   1.787   5.040
 4634SOL     OW14800   2.776   4.417   0.088
 4634SOL    HW114801   2.779   4.318   0.105
 4634SOL    HW214802   2.840   4.464   0.149
 4635SOL     OW14803   6.201   3.378   2.127
 4635SOL    HW114804   6.184   3.426   2.041
 4635SOL    HW214805   6.130   3.401   2.193
 4636SOL     OW14806   2.857   5.343   6.678
 4636SOL    HW114807   2.863   5.329   6.579
 4636SOL    HW214808   2.909   5.271   6.724
 4637SOL     OW14809   1.191   0.645   6.967
 4637SOL    HW114810   1.245   0.663   6.884
 4637SOL    HW214811   1.103   0.606   6.941
 4638SOL     OW14812   3.733   3.035   6.313
 4638SOL    HW114813   3.791   2.960   6.283
 4638SOL    HW214814   3.639   3.018   6.284
 4639SOL     OW14815   1.358   4.062   6.015
 4639SOL    HW114816   1.268   4.106   6.014
 4639SOL    HW214817   1.347   3.965   5.994
 4640SOL     OW14818   5.048   4.737   4.091
 4640SOL    HW114819   5.116   4.664   4.095
 4640SOL    HW214820   4.956   4.696   4.089
 4641SOL     OW14821   2.495   4.918   4.198
 4641SOL    HW114822   2.565   4.980   4.234
 4641SOL    HW214823   2.481   4.936   4.101
 4642SOL     OW14824   6.359   5.317   4.902
 4642SOL    HW114825   6.374   5.235   4.958
 4642SOL    HW214826   6.444   5.369   4.896
 4643SOL     OW14827   4.610   2.446   0.264
 4643SOL    HW114828   4.661   2.524   0.300
 4643SOL    HW214829   4.538   2.479   0.202
 4644SOL     OW14830   1.328   5.413   4.883
 4644SOL    HW114831   1.263   5.462   4.941
 4644SOL    HW214832   1.342   5.464   4.798
 4645SOL     OW14833   2.237   6.526   4.588
 4645SOL    HW114834   2.195   6.466   4.520
 4645SOL    HW214835   2.169   6.551   4.657
 4646SOL     OW14836   2.767   0.392   2.442
 4646SOL    HW114837   2.813   0.408   2.355
 4646SOL    HW214838   2.824   0.425   2.517
 4647SOL     OW14839   1.182   6.515   3.475
 4647SOL    HW114840   1.133   6.470   3.549
 4647SOL    HW214841   1.192   6.612   3.495
 4648SOL     OW14842   3.518   6.492   1.767
 4648SOL    HW114843   3.516   6.438   1.851
 4648SOL    HW214844   3.571   6.575   1.781
 4649SOL     OW14845   5.030   0.834   5.865
 4649SOL    HW114846   5.013   0.796   5.956
 4649SOL    HW214847   4.985   0.924   5.858
 4650SOL     OW14848   3.782   5.912   2.775
 4650SOL    HW114849   3.815   5.871   2.690
 4650SOL    HW214850   3.859   5.922   2.839
 4651SOL     OW14851   0.728   2.421   1.740
 4651SOL    HW114852   0.731   2.432   1.641
 4651SOL    HW214853   0.632   2.411   1.769
 4652SOL     OW14854   0.850   6.898   3.791
 4652SOL    HW114855   0.923   6.831   3.803
 4652SOL    HW214856   0.824   6.901   3.695
 4653SOL     OW14857   6.776   6.092   0.222
 4653SOL    HW114858   6.715   6.048   0.156
 4653SOL    HW214859   6.871   6.076   0.195
 4654SOL     OW14860   0.787   0.035   0.356
 4654SOL    HW114861   0.725   6.981   0.388
 4654SOL    HW214862   0.762   0.062   0.263
 4655SOL     OW14863   0.737   5.106   2.675
 4655SOL    HW114864   0.642   5.076   2.677
 4655SOL    HW214865   0.796   5.029   2.650
 4656SOL     OW14866   1.028   6.945   3.343
 4656SOL    HW114867   1.020   6.997   3.428
 4656SOL    HW214868   0.978   6.992   3.271
 4657SOL     OW14869   5.255   0.024   1.872
 4657SOL    HW114870   5.213   0.040   1.962
 4657SOL    HW214871   5.327   0.091   1.857
 4658SOL     OW14872   4.137   0.222   2.775
 4658SOL    HW114873   4.096   0.311   2.756
 4658SOL    HW214874   4.094   0.152   2.719
 4659SOL     OW14875   1.846   3.158   5.346
 4659SOL    HW114876   1.806   3.215   5.274
 4659SOL    HW214877   1.774   3.105   5.392
 4660SOL     OW14878   1.609   1.765   5.038
 4660SOL    HW114879   1.608   1.742   5.136
 4660SOL    HW214880   1.517   1.787   5.008
 4661SOL     OW14881   3.611   3.797   4.722
 4661SOL    HW114882   3.618   3.782   4.820
 4661SOL    HW214883   3.559   3.880   4.704
 4662SOL     OW14884   4.575   0.542   5.480
 4662SOL    HW114885   4.622   0.478   5.419
 4662SOL    HW214886   4.527   0.612   5.427
 4663SOL     OW14887   0.213   1.884   2.417
 4663SOL    HW114888   0.280   1.896   2.344
 4663SOL    HW214889   0.147   1.959   2.415
 4664SOL     OW14890   1.885   2.432   6.516
 4664SOL    HW114891   1.830   2.514   6.529
 4664SOL    HW214892   1.954   2.426   6.588
 4665SOL     OW14893   4.780   6.981   6.817
 4665SOL    HW114894   4.848   0.034   6.798
 4665SOL    HW214895   4.787   6.954   6.913
 4666SOL     OW14896   2.334   1.090   0.271
 4666SOL    HW114897   2.380   1.015   0.222
 4666SOL    HW214898   2.256   1.122   0.217
 4667SOL     OW14899   6.821   4.625   6.121
 4667SOL    HW114900   6.746   4.570   6.158
 4667SOL    HW214901   6.905   4.570   6.119
 4668SOL     OW14902   0.226   1.766   4.728
 4668SOL    HW114903   0.131   1.739   4.710
 4668SOL    HW214904   0.258   1.826   4.655
 4669SOL     OW14905   2.188   6.004   0.471
 4669SOL    HW114906   2.097   6.041   0.488
 4669SOL    HW214907   2.197   5.914   0.514
 4670SOL     OW14908   3.263   1.040   4.773
 4670SOL    HW114909   3.307   1.130   4.766
 4670SOL    HW214910   3.318   0.972   4.725
 4671SOL     OW14911   6.032   3.314   1.533
 4671SOL    HW114912   5.997   3.222   1.513
 4671SOL    HW214913   6.087   3.346   1.456
 4672SOL     OW14914   2.661   4.200   6.098
 4672SOL    HW114915   2.636   4.118   6.150
 4672SOL    HW214916   2.596   4.213   6.023
 4673SOL     OW14917   3.337   6.768   1.412
 4673SOL    HW114918   3.286   6.835   1.358
 4673SOL    HW214919   3.433   6.771   1.387
 4674SOL     OW14920   5.553   6.141   5.557
 4674SOL    HW114921   5.542   6.067   5.491
 4674SOL    HW214922   5.509   6.116   5.643
 4675SOL     OW14923   1.456   3.585   1.172
 4675SOL    HW114924   1.381   3.544   1.225
 4675SOL    HW214925   1.542   3.541   1.197
 4676SOL     OW14926   1.179   5.847   3.603
 4676SOL    HW114927   1.278   5.859   3.616
 4676SOL    HW214928   1.156   5.862   3.507
 4677SOL     OW14929   1.817   1.624   1.035
 4677SOL    HW114930   1.758   1.544   1.039
 4677SOL    HW214931   1.778   1.692   0.973
 4678SOL     OW14932   1.806   4.218   2.525
 4678SOL    HW114933   1.804   4.136   2.469
 4678SOL    HW214934   1.805   4.192   2.622
 4679SOL     OW14935   4.873   6.513   1.736
 4679SOL    HW114936   4.952   6.489   1.792
 4679SOL    HW214937   4.807   6.437   1.738
 4680SOL     OW14938   3.673   0.335   1.305
 4680SOL    HW114939   3.605   0.262   1.313
 4680SOL    HW214940   3.730   0.320   1.225
 4681SOL     OW14941   4.811   4.806   7.008
 4681SOL    HW114942   4.810   4.875   6.935
 4681SOL    HW214943   4.879   4.736   6.985
 4682SOL     OW14944   5.286   3.520   6.236
 4682SOL    HW114945   5.312   3.453   6.166
 4682SOL    HW214946   5.242   3.599   6.193
 4683SOL     OW14947   5.966   4.574   2.976
 4683SOL    HW114948   5.975   4.572   3.076
 4683SOL    HW214949   5.928   4.488   2.944
 4684SOL     OW14950   4.255   5.966   6.518
 4684SOL    HW114951   4.326   5.932   6.579
 4684SOL    HW214952   4.169   5.973   6.569
 4685SOL     OW14953   1.764   3.796   6.301
 4685SOL    HW114954   1.804   3.769   6.213
 4685SOL    HW214955   1.697   3.869   6.285
 4686SOL     OW14956   3.688   5.797   0.181
 4686SOL    HW114957   3.607   5.848   0.208
 4686SOL    HW214958   3.664   5.701   0.167
 4687SOL     OW14959   3.712   1.473   3.452
 4687SOL    HW114960   3.699   1.571   3.438
 4687SOL    HW214961   3.809   1.452   3.459
 4688SOL     OW14962   5.483   2.672   5.955
 4688SOL    HW114963   5.488   2.582   5.998
 4688SOL    HW214964   5.389   2.689   5.926
 4689SOL     OW14965   5.428   0.229   1.519
 4689SOL    HW114966   5.452   0.278   1.435
 4689SOL    HW214967   5.335   0.195   1.513
 4690SOL     OW14968   1.955   0.794   1.281
 4690SOL    HW114969   1.898   0.725   1.326
 4690SOL    HW214970   1.898   0.851   1.223
 4691SOL     OW14971   4.476   4.321   0.472
 4691SOL    HW114972   4.551   4.300   0.535
 4691SOL    HW214973   4.392   4.339   0.524
 4692SOL     OW14974   6.404   4.229   2.854
 4692SOL    HW114975   6.496   4.189   2.854
 4692SOL    HW214976   6.346   4.178   2.917
 4693SOL     OW14977   1.443   1.521   4.331
 4693SOL    HW114978   1.541   1.525   4.347
 4693SOL    HW214979   1.423   1.552   4.238
 4694SOL     OW14980   2.039   1.795   0.484
 4694SOL    HW114981   2.055   1.833   0.393
 4694SOL    HW214982   2.103   1.720   0.502
 4695SOL     OW14983   1.805   5.382   0.506
 4695SOL    HW114984   1.752   5.415   0.583
 4695SOL    HW214985   1.873   5.451   0.480
 4696SOL     OW14986   0.571   5.424   5.988
 4696SOL    HW114987   0.565   5.503   5.927
 4696SOL    HW214988   0.481   5.381   5.996
 4697SOL     OW14989   1.159   3.400   2.171
 4697SOL    HW114990   1.248   3.417   2.128
 4697SOL    HW214991   1.110   3.486   2.181
 4698SOL     OW14992   4.439   0.307   3.232
 4698SOL    HW114993   4.399   0.391   3.271
 4698SOL    HW214994   4.460   0.243   3.306
 4699SOL     OW14995   0.369   6.976   2.191
 4699SOL    HW114996   0.274   6.947   2.194
 4699SOL    HW214997   0.380   0.041   2.244
 4700SOL     OW14998   6.725   1.650   2.588
 4700SOL    HW114999   6.631   1.617   2.578
 4700SOL    HW215000   6.767   1.605   2.667
 4701SOL     OW15001   3.530   1.890   2.295
 4701SOL    HW115002   3.618   1.934   2.275
 4701SOL    HW215003   3.512   1.818   2.228
 4702SOL     OW15004   4.890   5.065   0.093
 4702SOL    HW115005   4.839   4.979   0.099
 4702SOL    HW215006   4.932   5.084   0.181
 4703SOL     OW15007   1.453   5.626   2.288
 4703SOL    HW115008   1.491   5.712   2.324
 4703SOL    HW215009   1.356   5.639   2.267
 4704SOL     OW15010   0.241   6.375   5.638
 4704SOL    HW115011   0.235   6.468   5.673
 4704SOL    HW215012   0.248   6.377   5.538
 4705SOL     OW15013   3.128   2.601   0.761
 4705SOL    HW115014   3.209   2.651   0.790
 4705SOL    HW215015   3.136   2.505   0.789
 4706SOL     OW15016   0.988   0.280   1.033
 4706SOL    HW115017   0.987   0.186   1.067
 4706SOL    HW215018   0.955   0.282   0.939
 4707SOL     OW15019   1.474   6.084   1.598
 4707SOL    HW115020   1.544   6.128   1.542
 4707SOL    HW215021   1.427   6.015   1.544
 4708SOL     OW15022   1.416   2.208   4.929
 4708SOL    HW115023   1.337   2.267   4.941
 4708SOL    HW215024   1.386   2.113   4.918
 4709SOL     OW15025   4.534   5.088   4.657
 4709SOL    HW115026   4.454   5.075   4.715
 4709SOL    HW215027   4.526   5.174   4.608
 4710SOL     OW15028   6.003   6.896   4.160
 4710SOL    HW115029   6.056   6.967   4.113
 4710SOL    HW215030   6.042   6.879   4.250
 4711SOL     OW15031   6.627   2.820   3.368
 4711SOL    HW115032   6.683   2.740   3.390
 4711SOL    HW215033   6.530   2.798   3.383
 4712SOL     OW15034   4.490   4.598   6.037
 4712SOL    HW115035   4.538   4.658   5.974
 4712SOL    HW215036   4.556   4.553   6.098
 4713SOL     OW15037   5.401   5.766   1.074
 4713SOL    HW115038   5.359   5.680   1.046
 4713SOL    HW215039   5.361   5.796   1.161
 4714SOL     OW15040   6.579   1.800   6.442
 4714SOL    HW115041   6.582   1.890   6.486
 4714SOL    HW215042   6.484   1.770   6.433
 4715SOL     OW15043   6.076   2.092   1.110
 4715SOL    HW115044   6.136   2.012   1.114
 4715SOL    HW215045   5.981   2.064   1.119
 4716SOL     OW15046   4.638   5.475   5.609
 4716SOL    HW115047   4.593   5.525   5.534
 4716SOL    HW215048   4.582   5.483   5.692
 4717SOL     OW15049   2.043   5.677   5.877
 4717SOL    HW115050   2.024   5.581   5.893
 4717SOL    HW215051   2.086   5.688   5.787
 4718SOL     OW15052   5.126   2.971   0.930
 4718SOL    HW115053   5.174   2.887   0.906
 4718SOL    HW215054   5.171   3.013   1.009
 4719SOL     OW15055   5.660   3.439   3.500
 4719SOL    HW115056   5.746   3.472   3.460
 4719SOL    HW215057   5.614   3.380   3.434
 4720SOL     OW15058   3.145   4.604   6.355
 4720SOL    HW115059   3.197   4.629   6.437
 4720SOL    HW215060   3.073   4.540   6.379
 4721SOL     OW15061   6.033   2.875   1.297
 4721SOL    HW115062   6.116   2.838   1.339
 4721SOL    HW215063   6.002   2.814   1.225
 4722SOL     OW15064   0.809   5.235   0.347
 4722SOL    HW115065   0.777   5.290   0.269
 4722SOL    HW215066   0.742   5.164   0.368
 4723SOL     OW15067   3.521   4.299   5.200
 4723SOL    HW115068   3.423   4.305   5.220
 4723SOL    HW215069   3.561   4.222   5.250
 4724SOL     OW15070   6.758   6.571   4.238
 4724SOL    HW115071   6.792   6.522   4.157
 4724SOL    HW215072   6.663   6.545   4.255
 4725SOL     OW15073   6.179   4.840   0.233
 4725SOL    HW115074   6.177   4.895   0.149
 4725SOL    HW215075   6.108   4.770   0.228
 4726SOL     OW15076   1.705   2.814   5.701
 4726SOL    HW115077   1.793   2.840   5.663
 4726SOL    HW215078   1.720   2.760   5.785
 4727SOL     OW15079   0.669   5.873   0.039
 4727SOL    HW115080   0.758   5.911   0.015
 4727SOL    HW215081   0.681   5.790   0.093
 4728SOL     OW15082   6.298   1.735   2.822
 4728SOL    HW115083   6.394   1.731   2.795
 4728SOL    HW215084   6.247   1.790   2.756
 4729SOL     OW15085   4.859   0.136   0.089
 4729SOL    HW115086   4.887   0.230   0.066
 4729SOL    HW215087   4.933   0.073   0.066
 4730SOL     OW15088   3.826   6.472   4.939
 4730SOL    HW115089   3.852   6.568   4.950
 4730SOL    HW215090   3.903   6.421   4.902
 4731SOL     OW15091   3.023   0.745   0.868
 4731SOL    HW115092   2.962   0.673   0.901
 4731SOL    HW215093   3.079   0.708   0.794
 4732SOL     OW15094   1.009   3.809   5.200
 4732SOL    HW115095   0.989   3.770   5.290
 4732SOL    HW215096   1.010   3.909   5.207
 4733SOL     OW15097   1.924   4.685   3.082
 4733SOL    HW115098   1.873   4.682   2.996
 4733SOL    HW215099   1.994   4.614   3.081
 4734SOL     OW15100   5.094   3.308   6.715
 4734SOL    HW115101   5.099   3.344   6.808
 4734SOL    HW215102   5.129   3.376   6.651
 4735SOL     OW15103   6.892   5.741   3.618
 4735SOL    HW115104   6.858   5.825   3.659
 4735SOL    HW215105   6.980   5.759   3.574
 4736SOL     OW15106   6.047   1.989   4.065
 4736SOL    HW115107   6.085   1.930   4.136
 4736SOL    HW215108   5.950   2.006   4.083
 4737SOL     OW15109   2.291   4.245   0.656
 4737SOL    HW115110   2.345   4.186   0.596
 4737SOL    HW215111   2.202   4.203   0.671
 4738SOL     OW15112   3.440   6.779   3.849
 4738SOL    HW115113   3.389   6.695   3.830
 4738SOL    HW215114   3.401   6.824   3.930
 4739SOL     OW15115   5.997   2.560   4.003
 4739SOL    HW115116   5.938   2.499   4.056
 4739SOL    HW215117   5.958   2.651   4.001
 4740SOL     OW15118   0.327   0.551   1.272
 4740SOL    HW115119   0.254   0.483   1.284
 4740SOL    HW215120   0.406   0.508   1.229
 4741SOL     OW15121   4.653   5.096   1.482
 4741SOL    HW115122   4.616   5.004   1.498
 4741SOL    HW215123   4.619   5.131   1.395
 4742SOL     OW15124   2.341   5.194   1.372
 4742SOL    HW115125   2.367   5.130   1.299
 4742SOL    HW215126   2.416   5.202   1.438
 4743SOL     OW15127   2.504   0.794   6.045
 4743SOL    HW115128   2.533   0.874   5.993
 4743SOL    HW215129   2.434   0.744   5.994
 4744SOL     OW15130   2.558   2.587   5.352
 4744SOL    HW115131   2.598   2.679   5.360
 4744SOL    HW215132   2.458   2.594   5.350
 4745SOL     OW15133   3.132   5.054   5.923
 4745SOL    HW115134   3.105   5.124   5.857
 4745SOL    HW215135   3.226   5.024   5.905
 4746SOL     OW15136   5.712   5.596   0.902
 4746SOL    HW115137   5.632   5.541   0.878
 4746SOL    HW215138   5.705   5.685   0.857
 4747SOL     OW15139   0.462   3.153   6.752
 4747SOL    HW115140   0.506   3.241   6.768
 4747SOL    HW215141   0.407   3.158   6.669
 4748SOL     OW15142   0.953   0.369   1.621
 4748SOL    HW115143   0.939   0.280   1.666
 4748SOL    HW215144   0.896   0.438   1.665
 4749SOL     OW15145   3.194   6.253   6.523
 4749SOL    HW115146   3.162   6.277   6.614
 4749SOL    HW215147   3.154   6.165   6.495
 4750SOL     OW15148   6.926   1.903   4.425
 4750SOL    HW115149   7.003   1.962   4.452
 4750SOL    HW215150   6.867   1.888   4.504
 4751SOL     OW15151   1.913   3.254   6.983
 4751SOL    HW115152   1.999   3.302   6.998
 4751SOL    HW215153   1.919   3.198   6.901
 4752SOL     OW15154   2.771   6.132   0.841
 4752SOL    HW115155   2.672   6.124   0.852
 4752SOL    HW215156   2.807   6.046   0.805
 4753SOL     OW15157   5.841   0.317   4.686
 4753SOL    HW115158   5.930   0.284   4.653
 4753SOL    HW215159   5.774   0.243   4.679
 4754SOL     OW15160   5.707   0.751   6.316
 4754SOL    HW115161   5.787   0.714   6.268
 4754SOL    HW215162   5.691   0.845   6.285
 4755SOL     OW15163   2.397   0.387   6.151
 4755SOL    HW115164   2.365   0.325   6.222
 4755SOL    HW215165   2.322   0.446   6.122
 4756SOL     OW15166   5.945   2.570   1.991
 4756SOL    HW115167   5.863   2.522   2.021
 4756SOL    HW215168   5.921   2.640   1.924
 4757SOL     OW15169   2.385   2.228   2.138
 4757SOL    HW115170   2.369   2.326   2.140
 4757SOL    HW215171   2.461   2.208   2.076
 4758SOL     OW15172   4.188   6.070   4.754
 4758SOL    HW115173   4.286   6.073   4.733
 4758SOL    HW215174   4.167   5.988   4.806
 4759SOL     OW15175   5.029   5.501   4.963
 4759SOL    HW115176   5.002   5.453   5.046
 4759SOL    HW215177   5.007   5.445   4.883
 4760SOL     OW15178   2.883   1.675   1.337
 4760SOL    HW115179   2.946   1.677   1.259
 4760SOL    HW215180   2.805   1.616   1.316
 4761SOL     OW15181   6.471   0.431   6.653
 4761SOL    HW115182   6.522   0.484   6.721
 4761SOL    HW215183   6.509   0.447   6.562
 4762SOL     OW15184   2.154   4.546   2.725
 4762SOL    HW115185   2.099   4.628   2.708
 4762SOL    HW215186   2.246   4.574   2.753
 4763SOL     OW15187   5.915   5.773   2.968
 4763SOL    HW115188   5.934   5.746   3.062
 4763SOL    HW215189   5.861   5.858   2.968
 4764SOL     OW15190   4.755   4.240   5.138
 4764SOL    HW115191   4.782   4.192   5.054
 4764SOL    HW215192   4.817   4.212   5.212
 4765SOL     OW15193   4.816   6.455   4.693
 4765SOL    HW115194   4.883   6.522   4.660
 4765SOL    HW215195   4.849   6.415   4.778
 4766SOL     OW15196   3.627   0.674   3.391
 4766SOL    HW115197   3.660   0.604   3.328
 4766SOL    HW215198   3.700   0.697   3.456
 4767SOL     OW15199   4.050   6.266   0.382
 4767SOL    HW115200   4.097   6.353   0.392
 4767SOL    HW215201   4.105   6.204   0.326
 4768SOL     OW15202   5.427   1.873   4.605
 4768SOL    HW115203   5.356   1.872   4.675
 4768SOL    HW215204   5.490   1.796   4.620
 4769SOL     OW15205   3.963   5.081   1.410
 4769SOL    HW115206   3.996   4.996   1.451
 4769SOL    HW215207   3.875   5.064   1.365
 4770SOL     OW15208   2.265   0.338   3.215
 4770SOL    HW115209   2.294   0.246   3.192
 4770SOL    HW215210   2.166   0.346   3.204
 4771SOL     OW15211   3.379   5.102   5.763
 4771SOL    HW115212   3.424   5.015   5.744
 4771SOL    HW215213   3.439   5.160   5.818
 4772SOL     OW15214   2.715   6.597   1.047
 4772SOL    HW115215   2.688   6.667   0.980
 4772SOL    HW215216   2.644   6.527   1.051
 4773SOL     OW15217   6.978   5.827   4.602
 4773SOL    HW115218   6.987   5.874   4.514
 4773SOL    HW215219   6.882   5.803   4.617
 4774SOL     OW15220   0.681   2.892   2.570
 4774SOL    HW115221   0.779   2.888   2.590
 4774SOL    HW215222   0.662   2.835   2.490
 4775SOL     OW15223   6.051   0.433   2.867
 4775SOL    HW115224   6.123   0.440   2.936
 4775SOL    HW215225   6.019   0.338   2.862
 4776SOL     OW15226   2.871   6.794   2.982
 4776SOL    HW115227   2.924   6.843   3.050
 4776SOL    HW215228   2.926   6.720   2.944
 4777SOL     OW15229   2.439   4.425   1.219
 4777SOL    HW115230   2.476   4.516   1.201
 4777SOL    HW215231   2.359   4.433   1.279
 4778SOL     OW15232   5.731   2.454   2.107
 4778SOL    HW115233   5.643   2.424   2.070
 4778SOL    HW215234   5.719   2.479   2.203
 4779SOL     OW15235   6.468   0.244   2.616
 4779SOL    HW115236   6.532   0.167   2.614
 4779SOL    HW215237   6.500   0.316   2.554
 4780SOL     OW15238   0.658   0.445   6.283
 4780SOL    HW115239   0.661   0.397   6.371
 4780SOL    HW215240   0.562   0.463   6.258
 4781SOL     OW15241   2.683   5.676   1.367
 4781SOL    HW115242   2.719   5.724   1.447
 4781SOL    HW215243   2.676   5.739   1.290
 4782SOL     OW15244   4.412   0.002   0.234
 4782SOL    HW115245   4.461   0.025   0.318
 4782SOL    HW215246   4.460   0.041   0.156
 4783SOL     OW15247   4.261   4.485   0.084
 4783SOL    HW115248   4.187   4.540   0.124
 4783SOL    HW215249   4.348   4.517   0.119
 4784SOL     OW15250   6.260   5.244   6.169
 4784SOL    HW115251   6.198   5.208   6.239
 4784SOL    HW215252   6.333   5.178   6.152
 4785SOL     OW15253   6.536   6.354   1.219
 4785SOL    HW115254   6.543   6.254   1.210
 4785SOL    HW215255   6.627   6.393   1.233
 4786SOL     OW15256   1.855   2.008   2.049
 4786SOL    HW115257   1.951   2.000   2.019
 4786SOL    HW215258   1.840   2.097   2.090
 4787SOL     OW15259   3.388   2.059   3.781
 4787SOL    HW115260   3.335   1.976   3.799
 4787SOL    HW215261   3.459   2.069   3.851
 4788SOL     OW15262   1.487   5.275   6.048
 4788SOL    HW115263   1.476   5.308   6.142
 4788SOL    HW215264   1.584   5.276   6.023
 4789SOL     OW15265   5.266   0.620   6.997
 4789SOL    HW115266   5.194   0.668   6.947
 4789SOL    HW215267   5.249   0.628   0.077
 4790SOL     OW15268   5.765   3.531   6.789
 4790SOL    HW115269   5.855   3.556   6.753
 4790SOL    HW215270   5.710   3.614   6.800
 4791SOL     OW15271   6.022   1.637   1.930
 4791SOL    HW115272   5.984   1.663   1.841
 4791SOL    HW215273   6.092   1.567   1.917
 4792SOL     OW15274   1.924   3.012   2.235
 4792SOL    HW115275   2.024   3.001   2.237
 4792SOL    HW215276   1.896   3.077   2.306
 4793SOL     OW15277   1.450   1.806   5.671
 4793SOL    HW115278   1.438   1.718   5.625
 4793SOL    HW215279   1.485   1.791   5.764
 4794SOL     OW15280   3.854   0.313   2.974
 4794SOL    HW115281   3.856   0.409   2.944
 4794SOL    HW215282   3.942   0.288   3.013
 4795SOL     OW15283   6.665   2.403   4.300
 4795SOL    HW115284   6.750   2.350   4.297
 4795SOL    HW215285   6.625   2.405   4.209
 4796SOL     OW15286   5.176   2.065   6.972
 4796SOL    HW115287   5.188   2.068   6.873
 4796SOL    HW215288   5.121   1.985   6.996
 4797SOL     OW15289   1.424   6.094   5.339
 4797SOL    HW115290   1.523   6.087   5.326
 4797SOL    HW215291   1.405   6.114   5.435
 4798SOL     OW15292   0.450   4.268   5.482
 4798SOL    HW115293   0.351   4.255   5.477
 4798SOL    HW215294   0.474   4.312   5.569
 4799SOL     OW15295   5.029   1.477   5.432
 4799SOL    HW115296   5.102   1.496   5.498
 4799SOL    HW215297   4.943   1.462   5.480
 4800SOL     OW15298   3.460   3.384   6.078
 4800SOL    HW115299   3.549   3.416   6.110
 4800SOL    HW215300   3.436   3.431   5.992
 4801SOL     OW15301   2.173   1.840   0.231
 4801SOL    HW115302   2.256   1.877   0.190
 4801SOL    HW215303   2.096   1.854   0.169
 4802SOL     OW15304   1.180   6.262   2.156
 4802SOL    HW115305   1.083   6.283   2.140
 4802SOL    HW215306   1.193   6.163   2.152
 4803SOL     OW15307   1.033   6.317   0.719
 4803SOL    HW115308   1.129   6.320   0.692
 4803SOL    HW215309   0.987   6.240   0.673
 4804SOL     OW15310   4.239   5.299   6.504
 4804SOL    HW115311   4.228   5.257   6.414
 4804SOL    HW215312   4.279   5.232   6.568
 4805SOL     OW15313   6.570   6.658   0.526
 4805SOL    HW115314   6.603   6.704   0.609
 4805SOL    HW215315   6.491   6.707   0.490
 4806SOL     OW15316   6.755   3.788   3.918
 4806SOL    HW115317   6.771   3.773   3.821
 4806SOL    HW215318   6.683   3.857   3.930
 4807SOL     OW15319   1.579   5.430   1.019
 4807SOL    HW115320   1.520   5.387   0.950
 4807SOL    HW215321   1.624   5.510   0.978
 4808SOL     OW15322   5.940   3.743   0.736
 4808SOL    HW115323   5.916   3.835   0.706
 4808SOL    HW215324   6.033   3.743   0.772
 4809SOL     OW15325   3.607   4.222   6.894
 4809SOL    HW115326   3.656   4.157   6.953
 4809SOL    HW215327   3.590   4.181   6.805
 4810SOL     OW15328   1.587   5.016   0.996
 4810SOL    HW115329   1.564   4.996   1.091
 4810SOL    HW215330   1.524   4.967   0.935
 4811SOL     OW15331   2.323   4.752   2.075
 4811SOL    HW115332   2.265   4.680   2.112
 4811SOL    HW215333   2.300   4.839   2.119
 4812SOL     OW15334   6.726   5.065   5.483
 4812SOL    HW115335   6.804   5.041   5.425
 4812SOL    HW215336   6.751   5.053   5.579
 4813SOL     OW15337   4.526   1.014   1.938
 4813SOL    HW115338   4.486   1.074   2.007
 4813SOL    HW215339   4.461   1.001   1.863
 4814SOL     OW15340   6.137   5.032   0.018
 4814SOL    HW115341   6.081   4.972   6.979
 4814SOL    HW215342   6.123   5.127   7.009
 4815SOL     OW15343   5.267   4.991   2.348
 4815SOL    HW115344   5.179   4.946   2.357
 4815SOL    HW215345   5.263   5.057   2.273
 4816SOL     OW15346   6.043   5.386   3.225
 4816SOL    HW115347   5.995   5.359   3.141
 4816SOL    HW215348   6.131   5.339   3.230
 4817SOL     OW15349   0.275   2.021   6.407
 4817SOL    HW115350   0.298   1.976   6.321
 4817SOL    HW215351   0.292   1.957   6.483
 4818SOL     OW15352   1.171   6.967   4.232
 4818SOL    HW115353   1.270   6.977   4.227
 4818SOL    HW215354   1.140   6.977   4.326
 4819SOL     OW15355   1.587   2.953   0.686
 4819SOL    HW115356   1.643   3.036   0.686
 4819SOL    HW215357   1.517   2.961   0.615
 4820SOL     OW15358   7.017   2.947   1.892
 4820SOL    HW115359   6.938   2.959   1.831
 4820SOL    HW215360   0.006   3.026   1.952
 4821SOL     OW15361   0.926   5.796   2.222
 4821SOL    HW115362   0.933   5.862   2.147
 4821SOL    HW215363   0.840   5.745   2.213
 4822SOL     OW15364   1.347   4.301   4.139
 4822SOL    HW115365   1.416   4.324   4.070
 4822SOL    HW215366   1.349   4.203   4.157
 4823SOL     OW15367   1.581   1.849   2.577
 4823SOL    HW115368   1.674   1.851   2.540
 4823SOL    HW215369   1.565   1.929   2.634
 4824SOL     OW15370   4.984   1.910   5.242
 4824SOL    HW115371   5.063   1.918   5.302
 4824SOL    HW215372   4.958   1.814   5.232
 4825SOL     OW15373   0.969   1.391   4.471
 4825SOL    HW115374   1.043   1.422   4.531
 4825SOL    HW215375   0.970   1.443   4.386
 4826SOL     OW15376   5.030   0.777   0.681
 4826SOL    HW115377   4.994   0.852   0.736
 4826SOL    HW215378   5.008   0.689   0.725
 4827SOL     OW15379   6.683   1.636   0.263
 4827SOL    HW115380   6.771   1.594   0.240
 4827SOL    HW215381   6.612   1.565   0.268
 4828SOL     OW15382   4.503   0.331   1.744
 4828SOL    HW115383   4.568   0.272   1.696
 4828SOL    HW215384   4.454   0.387   1.678
 4829SOL     OW15385   3.771   6.609   6.528
 4829SOL    HW115386   3.719   6.526   6.507
 4829SOL    HW215387   3.840   6.589   6.598
 4830SOL     OW15388   3.985   5.851   3.660
 4830SOL    HW115389   3.926   5.931   3.648
 4830SOL    HW215390   3.929   5.768   3.661
 4831SOL     OW15391   2.793   5.300   5.672
 4831SOL    HW115392   2.822   5.287   5.578
 4831SOL    HW215393   2.829   5.386   5.707
 4832SOL     OW15394   3.853   3.409   4.388
 4832SOL    HW115395   3.909   3.357   4.323
 4832SOL    HW215396   3.910   3.436   4.466
 4833SOL     OW15397   5.500   2.058   3.619
 4833SOL    HW115398   5.584   2.065   3.672
 4833SOL    HW215399   5.487   1.963   3.589
 4834SOL     OW15400   2.752   5.797   2.653
 4834SOL    HW115401   2.755   5.769   2.750
 4834SOL    HW215402   2.690   5.737   2.604
 4835SOL     OW15403   6.070   3.529   6.070
 4835SOL    HW115404   6.090   3.613   6.020
 4835SOL    HW215405   5.994   3.481   6.026
 4836SOL     OW15406   4.685   1.245   5.249
 4836SOL    HW115407   4.735   1.181   5.308
 4836SOL    HW215408   4.673   1.332   5.297
 4837SOL     OW15409   6.666   3.159   3.369
 4837SOL    HW115410   6.728   3.083   3.386
 4837SOL    HW215411   6.572   3.130   3.387
 4838SOL     OW15412   1.025   5.262   6.161
 4838SOL    HW115413   0.926   5.253   6.151
 4838SOL    HW215414   1.070   5.234   6.077
 4839SOL     OW15415   1.509   3.073   0.143
 4839SOL    HW115416   1.458   2.987   0.145
 4839SOL    HW215417   1.490   3.121   0.058
 4840SOL     OW15418   5.295   4.152   5.369
 4840SOL    HW115419   5.393   4.147   5.350
 4840SOL    HW215420   5.245   4.093   5.306
 4841SOL     OW15421   3.184   5.490   2.983
 4841SOL    HW115422   3.181   5.454   3.076
 4841SOL    HW215423   3.125   5.435   2.924
 4842SOL     OW15424   2.261   5.332   3.482
 4842SOL    HW115425   2.347   5.330   3.432
 4842SOL    HW215426   2.228   5.238   3.495
 4843SOL     OW15427   6.730   2.757   2.068
 4843SOL    HW115428   6.685   2.844   2.089
 4843SOL    HW215429   6.766   2.717   2.152
 4844SOL     OW15430   1.492   4.104   5.740
 4844SOL    HW115431   1.530   4.023   5.696
 4844SOL    HW215432   1.439   4.077   5.820
 4845SOL     OW15433   4.685   4.790   5.059
 4845SOL    HW115434   4.757   4.726   5.086
 4845SOL    HW215435   4.703   4.823   4.965
 4846SOL     OW15436   0.683   2.195   3.756
 4846SOL    HW115437   0.695   2.295   3.750
 4846SOL    HW215438   0.690   2.167   3.852
 4847SOL     OW15439   2.625   0.144   5.621
 4847SOL    HW115440   2.604   0.162   5.525
 4847SOL    HW215441   2.696   0.075   5.627
 4848SOL     OW15442   2.153   1.092   3.880
 4848SOL    HW115443   2.186   1.029   3.950
 4848SOL    HW215444   2.175   1.186   3.906
 4849SOL     OW15445   1.647   6.978   0.724
 4849SOL    HW115446   1.547   6.979   0.721
 4849SOL    HW215447   1.682   6.931   0.643
 4850SOL     OW15448   4.482   0.481   1.191
 4850SOL    HW115449   4.384   0.499   1.184
 4850SOL    HW215450   4.497   0.389   1.227
 4851SOL     OW15451   3.589   5.607   6.922
 4851SOL    HW115452   3.585   5.577   7.017
 4851SOL    HW215453   3.558   5.533   6.862
 4852SOL     OW15454   3.749   5.746   4.743
 4852SOL    HW115455   3.711   5.833   4.773
 4852SOL    HW215456   3.848   5.754   4.735
 4853SOL     OW15457   3.459   0.748   2.749
 4853SOL    HW115458   3.478   0.804   2.669
 4853SOL    HW215459   3.361   0.750   2.770
 4854SOL     OW15460   5.541   6.613   1.883
 4854SOL    HW115461   5.524   6.707   1.856
 4854SOL    HW215462   5.585   6.564   1.807
 4855SOL     OW15463   0.151   3.942   4.824
 4855SOL    HW115464   0.244   3.941   4.788
 4855SOL    HW215465   0.145   3.880   4.903
 4856SOL     OW15466   0.405   3.506   2.731
 4856SOL    HW115467   0.451   3.532   2.646
 4856SOL    HW215468   0.378   3.589   2.781
 4857SOL     OW15469   3.221   2.115   4.328
 4857SOL    HW115470   3.308   2.141   4.368
 4857SOL    HW215471   3.156   2.092   4.401
 4858SOL     OW15472   0.710   0.389   5.171
 4858SOL    HW115473   0.704   0.478   5.214
 4858SOL    HW215474   0.618   0.355   5.151
 4859SOL     OW15475   0.928   5.290   2.198
 4859SOL    HW115476   0.906   5.349   2.275
 4859SOL    HW215477   0.846   5.242   2.167
 4860SOL     OW15478   3.921   5.194   0.150
 4860SOL    HW115479   3.824   5.214   0.135
 4860SOL    HW215480   3.942   5.198   0.248
 4861SOL     OW15481   6.414   4.870   5.113
 4861SOL    HW115482   6.411   4.774   5.085
 4861SOL    HW215483   6.423   4.875   5.212
 4862SOL     OW15484   2.713   4.681   4.826
 4862SOL    HW115485   2.783   4.661   4.895
 4862SOL    HW215486   2.662   4.762   4.853
 4863SOL     OW15487   4.924   3.224   2.958
 4863SOL    HW115488   5.004   3.164   2.949
 4863SOL    HW215489   4.951   3.319   2.942
 4864SOL     OW15490   3.565   1.418   2.022
 4864SOL    HW115491   3.520   1.382   1.940
 4864SOL    HW215492   3.590   1.343   2.083
 4865SOL     OW15493   3.380   5.506   5.835
 4865SOL    HW115494   3.376   5.467   5.927
 4865SOL    HW215495   3.419   5.598   5.839
 4866SOL     OW15496   6.374   4.822   2.098
 4866SOL    HW115497   6.329   4.736   2.074
 4866SOL    HW215498   6.349   4.892   2.031
 4867SOL     OW15499   4.952   5.257   3.185
 4867SOL    HW115500   4.880   5.260   3.254
 4867SOL    HW215501   4.978   5.162   3.168
 4868SOL     OW15502   0.709   5.519   1.464
 4868SOL    HW115503   0.699   5.420   1.453
 4868SOL    HW215504   0.726   5.561   1.375
 4869SOL     OW15505   0.301   2.104   0.425
 4869SOL    HW115506   0.304   2.093   0.326
 4869SOL    HW215507   0.208   2.130   0.453
 4870SOL     OW15508   4.145   5.851   1.933
 4870SOL    HW115509   4.075   5.780   1.929
 4870SOL    HW215510   4.230   5.811   1.968
 4871SOL     OW15511   1.464   1.769   3.381
 4871SOL    HW115512   1.465   1.754   3.282
 4871SOL    HW215513   1.486   1.683   3.427
 4872SOL     OW15514   0.788   6.955   2.650
 4872SOL    HW115515   0.807   0.025   2.692
 4872SOL    HW215516   0.868   6.895   2.660
 4873SOL     OW15517   0.435   5.176   5.326
 4873SOL    HW115518   0.507   5.163   5.258
 4873SOL    HW215519   0.359   5.115   5.307
 4874SOL     OW15520   4.997   3.495   2.915
 4874SOL    HW115521   5.043   3.464   2.831
 4874SOL    HW215522   4.988   3.595   2.912
 4875SOL     OW15523   6.089   1.177   1.156
 4875SOL    HW115524   6.022   1.154   1.227
 4875SOL    HW215525   6.082   1.112   1.081
 4876SOL     OW15526   5.923   0.586   6.219
 4876SOL    HW115527   5.983   0.508   6.237
 4876SOL    HW215528   5.843   0.556   6.167
 4877SOL     OW15529   6.545   2.296   0.981
 4877SOL    HW115530   6.635   2.335   0.964
 4877SOL    HW215531   6.511   2.251   0.899
 4878SOL     OW15532   0.442   1.645   1.884
 4878SOL    HW115533   0.373   1.618   1.952
 4878SOL    HW215534   0.520   1.686   1.930
 4879SOL     OW15535   4.150   4.684   3.181
 4879SOL    HW115536   4.245   4.715   3.178
 4879SOL    HW215537   4.117   4.672   3.087
 4880SOL     OW15538   5.348   1.261   0.145
 4880SOL    HW115539   5.406   1.187   0.109
 4880SOL    HW215540   5.406   1.331   0.187
 4881SOL     OW15541   2.836   6.127   6.071
 4881SOL    HW115542   2.879   6.214   6.045
 4881SOL    HW215543   2.823   6.126   6.171
 4882SOL     OW15544   6.629   1.962   5.185
 4882SOL    HW115545   6.594   2.022   5.112
 4882SOL    HW215546   6.562   1.956   5.258
 4883SOL     OW15547   6.198   4.140   2.174
 4883SOL    HW115548   6.253   4.143   2.090
 4883SOL    HW215549   6.102   4.152   2.151
 4884SOL     OW15550   4.541   0.037   1.446
 4884SOL    HW115551   4.597   6.975   1.426
 4884SOL    HW215552   4.444   0.013   1.441
 4885SOL     OW15553   2.146   6.425   1.143
 4885SOL    HW115554   2.179   6.330   1.144
 4885SOL    HW215555   2.223   6.487   1.126
 4886SOL     OW15556   6.498   0.020   6.620
 4886SOL    HW115557   6.465   0.075   6.544
 4886SOL    HW215558   6.539   6.954   6.586
 4887SOL     OW15559   6.751   2.349   3.906
 4887SOL    HW115560   6.732   2.286   3.830
 4887SOL    HW215561   6.664   2.377   3.947
 4888SOL     OW15562   1.875   6.280   3.172
 4888SOL    HW115563   1.947   6.323   3.117
 4888SOL    HW215564   1.915   6.211   3.232
 4889SOL     OW15565   1.294   2.056   0.347
 4889SOL    HW115566   1.241   2.109   0.414
 4889SOL    HW215567   1.248   2.058   0.258
 4890SOL     OW15568   0.410   1.479   4.047
 4890SOL    HW115569   0.505   1.503   4.030
 4890SOL    HW215570   0.404   1.422   4.129
 4891SOL     OW15571   0.887   4.948   0.573
 4891SOL    HW115572   0.810   4.963   0.511
 4891SOL    HW215573   0.854   4.908   0.659
 4892SOL     OW15574   1.419   5.756   1.802
 4892SOL    HW115575   1.367   5.792   1.724
 4892SOL    HW215576   1.356   5.737   1.877
 4893SOL     OW15577   6.617   4.223   6.309
 4893SOL    HW115578   6.713   4.246   6.328
 4893SOL    HW215579   6.568   4.209   6.395
 4894SOL     OW15580   1.821   0.217   3.402
 4894SOL    HW115581   1.771   0.262   3.329
 4894SOL    HW215582   1.822   0.118   3.386
 4895SOL     OW15583   0.924   3.454   0.717
 4895SOL    HW115584   0.971   3.374   0.680
 4895SOL    HW215585   0.905   3.519   0.644
 4896SOL     OW15586   3.182   5.271   4.192
 4896SOL    HW115587   3.201   5.246   4.096
 4896SOL    HW215588   3.084   5.265   4.209
 4897SOL     OW15589   3.613   4.944   6.732
 4897SOL    HW115590   3.608   4.927   6.830
 4897SOL    HW215591   3.701   4.912   6.697
 4898SOL     OW15592   5.798   2.466   5.441
 4898SOL    HW115593   5.787   2.430   5.534
 4898SOL    HW215594   5.753   2.404   5.376
 4899SOL     OW15595   6.353   4.924   3.071
 4899SOL    HW115596   6.322   5.019   3.076
 4899SOL    HW215597   6.329   4.877   3.156
 4900SOL     OW15598   0.077   6.765   5.573
 4900SOL    HW115599   0.109   6.859   5.560
 4900SOL    HW215600   0.151   6.709   5.612
 4901SOL     OW15601   1.644   0.284   4.269
 4901SOL    HW115602   1.551   0.284   4.232
 4901SOL    HW215603   1.700   0.219   4.219
 4902SOL     OW15604   1.710   4.274   1.650
 4902SOL    HW115605   1.655   4.207   1.700
 4902SOL    HW215606   1.767   4.325   1.715
 4903SOL     OW15607   3.991   6.600   6.745
 4903SOL    HW115608   4.050   6.548   6.683
 4903SOL    HW215609   4.025   6.693   6.754
 4904SOL     OW15610   1.809   5.857   4.779
 4904SOL    HW115611   1.894   5.815   4.747
 4904SOL    HW215612   1.820   5.956   4.782
 4905SOL     OW15613   4.750   2.638   2.220
 4905SOL    HW115614   4.730   2.683   2.133
 4905SOL    HW215615   4.782   2.706   2.286
 4906SOL     OW15616   4.686   6.896   0.616
 4906SOL    HW115617   4.658   6.811   0.662
 4906SOL    HW215618   4.762   6.937   0.665
 4907SOL     OW15619   4.370   6.803   3.836
 4907SOL    HW115620   4.388   6.756   3.923
 4907SOL    HW215621   4.271   6.818   3.828
 4908SOL     OW15622   3.916   5.512   6.812
 4908SOL    HW115623   3.981   5.529   6.738
 4908SOL    HW215624   3.860   5.594   6.827
 4909SOL     OW15625   6.012   6.922   5.095
 4909SOL    HW115626   6.101   6.920   5.141
 4909SOL    HW215627   5.991   7.017   5.069
 4910SOL     OW15628   5.243   0.455   5.176
 4910SOL    HW115629   5.210   0.378   5.122
 4910SOL    HW215630   5.243   0.431   5.273
 4911SOL     OW15631   0.080   2.037   5.958
 4911SOL    HW115632   0.077   2.098   6.038
 4911SOL    HW215633   0.069   2.092   5.875
 4912SOL     OW15634   4.026   1.671   2.429
 4912SOL    HW115635   4.078   1.615   2.366
 4912SOL    HW215636   3.928   1.658   2.412
 4913SOL     OW15637   3.254   3.937   3.829
 4913SOL    HW115638   3.184   3.963   3.762
 4913SOL    HW215639   3.258   4.006   3.901
 4914SOL     OW15640   2.882   0.647   4.192
 4914SOL    HW115641   2.956   0.705   4.227
 4914SOL    HW215642   2.832   0.697   4.121
 4915SOL     OW15643   4.315   6.686   4.343
 4915SOL    HW115644   4.241   6.741   4.306
 4915SOL    HW215645   4.358   6.734   4.420
 4916SOL     OW15646   3.048   2.190   3.086
 4916SOL    HW115647   3.071   2.165   3.180
 4916SOL    HW215648   2.949   2.188   3.073
 4917SOL     OW15649   1.608   3.912   0.870
 4917SOL    HW115650   1.697   3.867   0.877
 4917SOL    HW215651   1.619   4.010   0.883
 4918SOL     OW15652   2.773   0.751   2.508
 4918SOL    HW115653   2.708   0.681   2.480
 4918SOL    HW215654   2.740   0.796   2.591
 4919SOL     OW15655   1.599   1.759   2.860
 4919SOL    HW115656   1.604   1.859   2.856
 4919SOL    HW215657   1.674   1.720   2.806
 4920SOL     OW15658   4.585   0.658   0.216
 4920SOL    HW115659   4.670   0.638   0.168
 4920SOL    HW215660   4.516   0.688   0.150
 4921SOL     OW15661   2.344   3.638   1.647
 4921SOL    HW115662   2.285   3.718   1.660
 4921SOL    HW215663   2.359   3.593   1.736
 4922SOL     OW15664   1.599   3.397   5.656
 4922SOL    HW115665   1.618   3.382   5.753
 4922SOL    HW215666   1.685   3.412   5.607
 4923SOL     OW15667   5.112   0.039   2.127
 4923SOL    HW115668   5.157   6.970   2.145
 4923SOL    HW215669   5.148   0.108   2.189
 4924SOL     OW15670   1.674   3.848   4.105
 4924SOL    HW115671   1.629   3.849   4.016
 4924SOL    HW215672   1.644   3.767   4.156
 4925SOL     OW15673   5.183   6.639   1.060
 4925SOL    HW115674   5.133   6.721   1.086
 4925SOL    HW215675   5.166   6.566   1.126
 4926SOL     OW15676   5.806   3.010   1.822
 4926SOL    HW115677   5.712   2.980   1.842
 4926SOL    HW215678   5.865   2.929   1.814
 4927SOL     OW15679   3.603   2.853   2.623
 4927SOL    HW115680   3.655   2.869   2.539
 4927SOL    HW215681   3.508   2.878   2.609
 4928SOL     OW15682   0.475   7.004   6.555
 4928SOL    HW115683   0.538   0.044   6.606
 4928SOL    HW215684   0.490   6.908   6.580
 4929SOL     OW15685   1.164   4.163   5.370
 4929SOL    HW115686   1.189   4.239   5.310
 4929SOL    HW215687   1.122   4.199   5.454
 4930SOL     OW15688   1.123   1.553   0.730
 4930SOL    HW115689   1.157   1.633   0.680
 4930SOL    HW215690   1.109   1.577   0.826
 4931SOL     OW15691   0.673   0.263   6.705
 4931SOL    HW115692   0.683   0.353   6.663
 4931SOL    HW215693   0.576   0.243   6.720
 4932SOL     OW15694   2.589   2.690   1.631
 4932SOL    HW115695   2.675   2.664   1.675
 4932SOL    HW215696   2.598   2.780   1.589
 4933SOL     OW15697   2.500   1.414   4.289
 4933SOL    HW115698   2.450   1.344   4.339
 4933SOL    HW215699   2.446   1.498   4.288
 4934SOL     OW15700   0.639   5.132   4.269
 4934SOL    HW115701   0.672   5.056   4.324
 4934SOL    HW215702   0.673   5.122   4.175
 4935SOL     OW15703   1.863   1.245   6.514
 4935SOL    HW115704   1.900   1.250   6.421
 4935SOL    HW215705   1.766   1.221   6.511
 4936SOL     OW15706   2.966   5.508   1.463
 4936SOL    HW115707   3.045   5.552   1.504
 4936SOL    HW215708   2.977   5.506   1.363
 4937SOL     OW15709   0.741   3.840   6.186
 4937SOL    HW115710   0.701   3.756   6.224
 4937SOL    HW215711   0.814   3.872   6.247
 4938SOL     OW15712   3.162   4.144   1.305
 4938SOL    HW115713   3.100   4.118   1.380
 4938SOL    HW215714   3.124   4.223   1.256
 4939SOL     OW15715   1.905   1.620   1.497
 4939SOL    HW115716   1.886   1.675   1.416
 4939SOL    HW215717   1.831   1.631   1.564
 4940SOL     OW15718   6.848   2.572   5.052
 4940SOL    HW115719   6.858   2.541   5.147
 4940SOL    HW215720   6.752   2.593   5.034
 4941SOL     OW15721   3.966   2.404   5.390
 4941SOL    HW115722   4.011   2.408   5.479
 4941SOL    HW215723   4.025   2.445   5.320
 4942SOL     OW15724   5.563   3.300   3.968
 4942SOL    HW115725   5.621   3.343   3.899
 4942SOL    HW215726   5.569   3.200   3.958
 4943SOL     OW15727   5.623   3.749   6.825
 4943SOL    HW115728   5.563   3.795   6.890
 4943SOL    HW215729   5.641   3.809   6.747
 4944SOL     OW15730   1.700   4.729   0.934
 4944SOL    HW115731   1.763   4.770   1.000
 4944SOL    HW215732   1.741   4.646   0.895
 4945SOL     OW15733   2.015   1.298   5.134
 4945SOL    HW115734   2.024   1.268   5.039
 4945SOL    HW215735   2.106   1.316   5.172
 4946SOL     OW15736   0.948   4.469   6.932
 4946SOL    HW115737   0.852   4.488   6.952
 4946SOL    HW215738   0.995   4.442   7.016
 4947SOL     OW15739   2.497   0.604   2.380
 4947SOL    HW115740   2.419   0.602   2.318
 4947SOL    HW215741   2.509   0.514   2.422
 4948SOL     OW15742   2.276   2.501   2.040
 4948SOL    HW115743   2.242   2.547   2.122
 4948SOL    HW215744   2.200   2.488   1.976
 4949SOL     OW15745   6.601   3.345   5.914
 4949SOL    HW115746   6.529   3.294   5.961
 4949SOL    HW215747   6.569   3.437   5.893
 4950SOL     OW15748   2.406   4.358   5.565
 4950SOL    HW115749   2.462   4.430   5.605
 4950SOL    HW215750   2.336   4.330   5.631
 4951SOL     OW15751   6.181   6.469   3.835
 4951SOL    HW115752   6.225   6.386   3.868
 4951SOL    HW215753   6.085   6.470   3.862
 4952SOL     OW15754   6.911   0.604   6.450
 4952SOL    HW115755   6.924   0.694   6.491
 4952SOL    HW215756   6.968   0.537   6.497
 4953SOL     OW15757   1.048   1.746   4.576
 4953SOL    HW115758   0.948   1.748   4.588
 4953SOL    HW215759   1.087   1.834   4.603
 4954SOL     OW15760   2.661   4.263   5.756
 4954SOL    HW115761   2.575   4.280   5.803
 4954SOL    HW215762   2.693   4.170   5.777
 4955SOL     OW15763   2.918   5.137   0.272
 4955SOL    HW115764   2.981   5.073   0.228
 4955SOL    HW215765   2.851   5.168   0.205
 4956SOL     OW15766   2.824   0.603   5.255
 4956SOL    HW115767   2.843   0.691   5.212
 4956SOL    HW215768   2.762   0.550   5.196
 4957SOL     OW15769   6.346   4.163   6.765
 4957SOL    HW115770   6.397   4.170   6.680
 4957SOL    HW215771   6.255   4.202   6.753
 4958SOL     OW15772   1.992   6.620   5.845
 4958SOL    HW115773   2.069   6.574   5.890
 4958SOL    HW215774   2.027   6.690   5.783
 4959SOL     OW15775   0.048   2.175   1.327
 4959SOL    HW115776   0.090   2.240   1.390
 4959SOL    HW215777   0.074   2.082   1.352
 4960SOL     OW15778   3.943   5.429   3.455
 4960SOL    HW115779   3.955   5.391   3.547
 4960SOL    HW215780   3.887   5.511   3.460
 4961SOL     OW15781   3.121   0.918   6.794
 4961SOL    HW115782   3.041   0.977   6.800
 4961SOL    HW215783   3.092   0.823   6.781
 4962SOL     OW15784   6.425   2.804   0.885
 4962SOL    HW115785   6.343   2.765   0.843
 4962SOL    HW215786   6.402   2.837   0.977
 4963SOL     OW15787   1.022   5.052   0.943
 4963SOL    HW115788   0.971   5.109   1.007
 4963SOL    HW215789   1.000   4.956   0.959
 4964SOL     OW15790   2.479   6.626   4.645
 4964SOL    HW115791   2.393   6.577   4.658
 4964SOL    HW215792   2.528   6.589   4.566
 4965SOL     OW15793   1.581   7.009   3.092
 4965SOL    HW115794   1.567   6.910   3.095
 4965SOL    HW215795   1.637   0.013   3.012
 4966SOL     OW15796   2.866   6.071   4.462
 4966SOL    HW115797   2.775   6.041   4.436
 4966SOL    HW215798   2.917   5.994   4.501
 4967SOL     OW15799   4.029   4.743   5.304
 4967SOL    HW115800   3.940   4.783   5.328
 4967SOL    HW215801   4.021   4.644   5.301
 4968SOL     OW15802   0.385   1.044   4.361
 4968SOL    HW115803   0.295   1.006   4.338
 4968SOL    HW215804   0.451   0.970   4.366
 4969SOL     OW15805   0.397   6.472   2.320
 4969SOL    HW115806   0.449   6.448   2.402
 4969SOL    HW215807   0.423   6.410   2.245
 4970SOL     OW15808   1.699   0.719   1.439
 4970SOL    HW115809   1.662   0.797   1.489
 4970SOL    HW215810   1.649   0.636   1.465
 4971SOL     OW15811   6.493   6.101   2.868
 4971SOL    HW115812   6.507   6.199   2.881
 4971SOL    HW215813   6.406   6.073   2.907
 4972SOL     OW15814   1.304   4.060   0.950
 4972SOL    HW115815   1.242   4.099   1.018
 4972SOL    HW215816   1.365   3.994   0.995
 4973SOL     OW15817   0.087   0.233   1.594
 4973SOL    HW115818   0.126   0.324   1.608
 4973SOL    HW215819   7.017   0.241   1.549
 4974SOL     OW15820   4.591   4.120   6.289
 4974SOL    HW115821   4.690   4.129   6.292
 4974SOL    HW215822   4.565   4.025   6.304
 4975SOL     OW15823   5.133   3.779   0.930
 4975SOL    HW115824   5.159   3.742   1.019
 4975SOL    HW215825   5.135   3.879   0.934
 4976SOL     OW15826   0.658   0.824   4.652
 4976SOL    HW115827   0.626   0.810   4.745
 4976SOL    HW215828   0.751   0.789   4.643
 4977SOL     OW15829   3.523   3.982   6.698
 4977SOL    HW115830   3.487   3.905   6.752
 4977SOL    HW215831   3.448   4.024   6.647
 4978SOL     OW15832   4.901   4.597   5.411
 4978SOL    HW115833   4.931   4.670   5.472
 4978SOL    HW215834   4.938   4.510   5.442
 4979SOL     OW15835   0.790   6.890   7.000
 4979SOL    HW115836   0.816   6.977   6.957
 4979SOL    HW215837   0.822   6.814   6.944
 4980SOL     OW15838   6.950   4.666   2.773
 4980SOL    HW115839   0.018   4.638   2.814
 4980SOL    HW215840   6.938   4.620   2.685
 4981SOL     OW15841   3.402   5.001   1.953
 4981SOL    HW115842   3.436   5.061   2.026
 4981SOL    HW215843   3.462   4.921   1.946
 4982SOL     OW15844   3.969   1.775   6.611
 4982SOL    HW115845   3.882   1.793   6.564
 4982SOL    HW215846   3.988   1.677   6.610
 4983SOL     OW15847   6.220   5.046   4.124
 4983SOL    HW115848   6.272   5.021   4.042
 4983SOL    HW215849   6.199   4.964   4.177
 4984SOL     OW15850   4.709   4.102   2.807
 4984SOL    HW115851   4.711   4.098   2.707
 4984SOL    HW215852   4.713   4.010   2.845
 4985SOL     OW15853   5.394   6.042   2.571
 4985SOL    HW115854   5.342   6.122   2.541
 4985SOL    HW215855   5.485   6.043   2.529
 4986SOL     OW15856   6.565   4.397   1.742
 4986SOL    HW115857   6.598   4.374   1.834
 4986SOL    HW215858   6.584   4.494   1.723
 4987SOL     OW15859   0.833   6.590   2.788
 4987SOL    HW115860   0.767   6.654   2.826
 4987SOL    HW215861   0.896   6.559   2.859
 4988SOL     OW15862   6.457   1.312   3.431
 4988SOL    HW115863   6.373   1.367   3.438
 4988SOL    HW215864   6.527   1.349   3.492
 4989SOL     OW15865   4.761   0.415   1.538
 4989SOL    HW115866   4.737   0.327   1.578
 4989SOL    HW215867   4.797   0.476   1.609
 4990SOL     OW15868   3.901   2.038   0.037
 4990SOL    HW115869   3.907   2.138   0.029
 4990SOL    HW215870   3.889   2.014   0.133
 4991SOL     OW15871   0.008   5.725   4.220
 4991SOL    HW115872   0.104   5.704   4.201
 4991SOL    HW215873   0.002   5.813   4.266
 4992SOL     OW15874   6.329   1.742   3.097
 4992SOL    HW115875   6.317   1.735   2.998
 4992SOL    HW215876   6.324   1.651   3.138
 4993SOL     OW15877   4.678   7.008   4.842
 4993SOL    HW115878   4.701   6.937   4.909
 4993SOL    HW215879   4.600   0.043   4.875
 4994SOL     OW15880   2.236   5.407   5.034
 4994SOL    HW115881   2.260   5.416   4.937
 4994SOL    HW215882   2.257   5.314   5.064
 4995SOL     OW15883   0.528   0.811   4.903
 4995SOL    HW115884   0.557   0.728   4.952
 4995SOL    HW215885   0.428   0.816   4.903
 4996SOL     OW15886   0.167   1.462   3.916
 4996SOL    HW115887   0.247   1.482   3.972
 4996SOL    HW215888   0.167   1.522   3.836
 4997SOL     OW15889   3.837   2.621   1.437
 4997SOL    HW115890   3.757   2.680   1.429
 4997SOL    HW215891   3.846   2.587   1.531
 4998SOL     OW15892   1.652   3.639   3.235
 4998SOL    HW115893   1.691   3.594   3.155
 4998SOL    HW215894   1.594   3.574   3.285
 4999SOL     OW15895   0.686   3.558   5.332
 4999SOL    HW115896   0.675   3.638   5.390
 4999SOL    HW215897   0.596   3.515   5.317
 5000SOL     OW15898   3.029   6.251   3.496
 5000SOL    HW115899   3.101   6.266   3.563
 5000SOL    HW215900   3.035   6.322   3.425
 5001SOL     OW15901   0.128   5.809   2.452
 5001SOL    HW115902   0.161   5.897   2.487
 5001SOL    HW215903   0.129   5.742   2.527
 5002SOL     OW15904   0.949   4.753   2.816
 5002SOL    HW115905   0.952   4.659   2.782
 5002SOL    HW215906   1.016   4.764   2.890
 5003SOL     OW15907   3.949   6.070   2.943
 5003SOL    HW115908   4.012   6.142   2.916
 5003SOL    HW215909   3.880   6.108   3.006
 5004SOL     OW15910   2.590   5.555   5.464
 5004SOL    HW115911   2.667   5.617   5.481
 5004SOL    HW215912   2.565   5.559   5.367
 5005SOL     OW15913   2.091   3.544   6.101
 5005SOL    HW115914   2.150   3.464   6.112
 5005SOL    HW215915   2.016   3.522   6.038
 5006SOL     OW15916   5.230   1.223   2.099
 5006SOL    HW115917   5.173   1.288   2.048
 5006SOL    HW215918   5.285   1.272   2.166
 5007SOL     OW15919   6.553   0.522   0.788
 5007SOL    HW115920   6.516   0.511   0.880
 5007SOL    HW215921   6.582   0.617   0.774
 5008SOL     OW15922   6.613   5.306   1.454
 5008SOL    HW115923   6.701   5.352   1.453
 5008SOL    HW215924   6.567   5.320   1.366
 5009SOL     OW15925   1.119   2.960   0.264
 5009SOL    HW115926   1.111   2.920   0.355
 5009SOL    HW215927   1.193   2.915   0.214
 5010SOL     OW15928   3.909   2.333   0.653
 5010SOL    HW115929   3.924   2.318   0.555
 5010SOL    HW215930   3.996   2.357   0.696
 5011SOL     OW15931   1.854   4.098   1.094
 5011SOL    HW115932   1.781   4.142   1.043
 5011SOL    HW215933   1.942   4.116   1.050
 5012SOL     OW15934   6.031   2.827   5.493
 5012SOL    HW115935   6.124   2.858   5.512
 5012SOL    HW215936   5.977   2.829   5.578
 5013SOL     OW15937   5.709   0.468   5.407
 5013SOL    HW115938   5.782   0.411   5.445
 5013SOL    HW215939   5.696   0.445   5.310
 5014SOL     OW15940   6.984   4.449   0.020
 5014SOL    HW115941   6.905   4.500   0.053
 5014SOL    HW215942   0.038   4.450   0.089
 5015SOL     OW15943   5.378   0.860   4.626
 5015SOL    HW115944   5.443   0.936   4.622
 5015SOL    HW215945   5.389   0.802   4.545
 5016SOL     OW15946   1.074   2.821   5.146
 5016SOL    HW115947   1.010   2.844   5.073
 5016SOL    HW215948   1.155   2.878   5.138
 5017SOL     OW15949   0.790   2.400   1.109
 5017SOL    HW115950   0.838   2.472   1.160
 5017SOL    HW215951   0.845   2.373   1.030
 5018SOL     OW15952   1.448   4.763   2.311
 5018SOL    HW115953   1.468   4.813   2.395
 5018SOL    HW215954   1.486   4.813   2.233
 5019SOL     OW15955   1.929   5.941   5.821
 5019SOL    HW115956   1.954   5.950   5.725
 5019SOL    HW215957   1.969   5.857   5.859
 5020SOL     OW15958   0.292   6.665   4.981
 5020SOL    HW115959   0.213   6.608   4.959
 5020SOL    HW215960   0.267   6.731   5.052
 5021SOL     OW15961   1.128   0.505   1.365
 5021SOL    HW115962   1.044   0.455   1.344
 5021SOL    HW215963   1.175   0.528   1.279
 5022SOL     OW15964   0.834   2.879   1.315
 5022SOL    HW115965   0.893   2.900   1.393
 5022SOL    HW215966   0.829   2.958   1.254
 5023SOL     OW15967   6.957   4.413   1.414
 5023SOL    HW115968   0.030   4.453   1.408
 5023SOL    HW215969   6.900   4.451   1.342
 5024SOL     OW15970   5.653   5.107   1.074
 5024SOL    HW115971   5.658   5.017   1.031
 5024SOL    HW215972   5.566   5.150   1.052
 5025SOL     OW15973   3.743   1.855   3.934
 5025SOL    HW115974   3.699   1.945   3.931
 5025SOL    HW215975   3.692   1.795   3.995
 5026SOL     OW15976   6.994   5.262   4.967
 5026SOL    HW115977   0.065   5.227   4.995
 5026SOL    HW215978   7.005   5.322   4.888
 5027SOL     OW15979   5.890   0.374   1.168
 5027SOL    HW115980   5.956   0.301   1.148
 5027SOL    HW215981   5.900   0.404   1.263
 5028SOL     OW15982   6.739   2.234   3.663
 5028SOL    HW115983   6.764   2.158   3.603
 5028SOL    HW215984   6.772   2.319   3.624
 5029SOL     OW15985   6.297   2.291   2.566
 5029SOL    HW115986   6.205   2.302   2.529
 5029SOL    HW215987   6.363   2.334   2.504
 5030SOL     OW15988   6.862   6.032   6.336
 5030SOL    HW115989   6.867   6.059   6.240
 5030SOL    HW215990   6.811   6.100   6.388
 5031SOL     OW15991   6.780   1.056   5.296
 5031SOL    HW115992   6.739   1.024   5.211
 5031SOL    HW215993   6.879   1.039   5.294
 5032SOL     OW15994   2.274   1.789   6.094
 5032SOL    HW115995   2.354   1.842   6.122
 5032SOL    HW215996   2.236   1.741   6.173
 5033SOL     OW15997   2.052   0.481   0.206
 5033SOL    HW115998   2.093   0.559   0.255
 5033SOL    HW215999   2.001   0.425   0.271
 5034SOL     OW16000   5.209   6.713   3.941
 5034SOL    HW116001   5.244   6.626   3.907
 5034SOL    HW216002   5.286   6.772   3.968
 5035SOL     OW16003   0.891   3.504   5.610
 5035SOL    HW116004   0.898   3.435   5.539
 5035SOL    HW216005   0.797   3.536   5.617
 5036SOL     OW16006   6.151   5.281   6.424
 5036SOL    HW116007   6.134   5.304   6.520
 5036SOL    HW216008   6.208   5.352   6.382
 5037SOL     OW16009   4.535   4.867   1.510
 5037SOL    HW116010   4.575   4.776   1.498
 5037SOL    HW216011   4.436   4.859   1.522
 5038SOL     OW16012   4.012   3.304   3.855
 5038SOL    HW116013   3.994   3.237   3.927
 5038SOL    HW216014   3.992   3.264   3.766
 5039SOL     OW16015   2.455   3.148   5.719
 5039SOL    HW116016   2.412   3.060   5.739
 5039SOL    HW216017   2.427   3.179   5.628
 5040SOL     OW16018   0.996   6.004   4.773
 5040SOL    HW116019   0.899   6.026   4.768
 5040SOL    HW216020   1.009   5.923   4.829
 5041SOL     OW16021   1.102   1.905   2.177
 5041SOL    HW116022   1.065   1.938   2.090
 5041SOL    HW216023   1.176   1.965   2.207
 5042SOL     OW16024   6.785   3.021   0.574
 5042SOL    HW116025   6.823   3.081   0.645
 5042SOL    HW216026   6.755   2.935   0.616
 5043SOL     OW16027   4.457   0.646   6.839
 5043SOL    HW116028   4.475   0.723   6.778
 5043SOL    HW216029   4.388   0.586   6.797
 5044SOL     OW16030   0.729   5.645   1.237
 5044SOL    HW116031   0.793   5.710   1.277
 5044SOL    HW216032   0.644   5.692   1.213
 5045SOL     OW16033   6.386   5.629   5.937
 5045SOL    HW116034   6.298   5.588   5.914
 5045SOL    HW216035   6.455   5.556   5.946
 5046SOL     OW16036   3.719   3.771   3.894
 5046SOL    HW116037   3.784   3.778   3.817
 5046SOL    HW216038   3.769   3.781   3.980
 5047SOL     OW16039   2.287   4.256   2.969
 5047SOL    HW116040   2.356   4.325   2.945
 5047SOL    HW216041   2.271   4.197   2.889
 5048SOL     OW16042   1.333   0.790   4.655
 5048SOL    HW116043   1.329   0.828   4.747
 5048SOL    HW216044   1.338   0.865   4.588
 5049SOL     OW16045   4.991   1.022   0.187
 5049SOL    HW116046   4.893   1.035   0.201
 5049SOL    HW216047   5.030   1.104   0.146
 5050SOL     OW16048   1.662   1.081   6.915
 5050SOL    HW116049   1.567   1.053   6.911
 5050SOL    HW216050   1.667   1.181   6.927
 5051SOL     OW16051   4.551   4.307   1.204
 5051SOL    HW116052   4.648   4.306   1.228
 5051SOL    HW216053   4.496   4.295   1.287
 5052SOL     OW16054   3.211   2.165   6.142
 5052SOL    HW116055   3.122   2.142   6.181
 5052SOL    HW216056   3.268   2.210   6.211
 5053SOL     OW16057   1.132   5.314   3.316
 5053SOL    HW116058   1.177   5.316   3.226
 5053SOL    HW216059   1.154   5.398   3.366
 5054SOL     OW16060   2.698   4.685   5.222
 5054SOL    HW116061   2.777   4.666   5.163
 5054SOL    HW216062   2.660   4.599   5.256
 5055SOL     OW16063   1.187   1.981   5.883
 5055SOL    HW116064   1.116   1.920   5.919
 5055SOL    HW216065   1.182   1.982   5.783
 5056SOL     OW16066   5.259   3.792   5.425
 5056SOL    HW116067   5.347   3.817   5.386
 5056SOL    HW216068   5.226   3.866   5.484
 5057SOL     OW16069   0.351   6.659   3.029
 5057SOL    HW116070   0.333   6.677   3.126
 5057SOL    HW216071   0.420   6.723   2.995
 5058SOL     OW16072   3.213   4.368   6.991
 5058SOL    HW116073   3.188   4.300   6.923
 5058SOL    HW216074   3.192   4.459   6.956
 5059SOL     OW16075   0.131   1.017   3.234
 5059SOL    HW116076   0.113   0.919   3.244
 5059SOL    HW216077   0.095   1.048   3.146
 5060SOL     OW16078   0.049   2.430   6.419
 5060SOL    HW116079   0.038   2.497   6.493
 5060SOL    HW216080   0.071   2.341   6.458
 5061SOL     OW16081   4.800   2.628   0.382
 5061SOL    HW116082   4.793   2.727   0.374
 5061SOL    HW216083   4.871   2.605   0.448
 5062SOL     OW16084   6.325   0.107   2.415
 5062SOL    HW116085   6.274   0.184   2.376
 5062SOL    HW216086   6.390   0.141   2.484
 5063SOL     OW16087   0.073   6.826   2.171
 5063SOL    HW116088   0.111   6.812   2.262
 5063SOL    HW216089   0.070   6.738   2.123
 5064SOL     OW16090   4.956   2.819   0.741
 5064SOL    HW116091   5.033   2.790   0.797
 5064SOL    HW216092   4.906   2.892   0.787
 5065SOL     OW16093   3.075   0.549   5.458
 5065SOL    HW116094   3.125   0.572   5.374
 5065SOL    HW216095   3.055   0.632   5.509
 5066SOL     OW16096   4.954   4.526   2.292
 5066SOL    HW116097   4.901   4.548   2.374
 5066SOL    HW216098   4.983   4.431   2.296
 5067SOL     OW16099   5.253   1.646   0.934
 5067SOL    HW116100   5.198   1.679   1.011
 5067SOL    HW216101   5.281   1.552   0.951
 5068SOL     OW16102   2.029   4.620   1.094
 5068SOL    HW116103   2.100   4.569   1.142
 5068SOL    HW216104   2.071   4.698   1.046
 5069SOL     OW16105   1.804   4.165   2.827
 5069SOL    HW116106   1.754   4.084   2.796
 5069SOL    HW216107   1.769   4.192   2.917
 5070SOL     OW16108   4.924   3.497   3.774
 5070SOL    HW116109   4.885   3.430   3.837
 5070SOL    HW216110   5.000   3.456   3.724
 5071SOL     OW16111   4.415   2.399   4.787
 5071SOL    HW116112   4.492   2.406   4.851
 5071SOL    HW216113   4.329   2.415   4.836
 5072SOL     OW16114   0.537   5.950   0.639
 5072SOL    HW116115   0.567   6.008   0.563
 5072SOL    HW216116   0.540   5.854   0.611
 5073SOL     OW16117   6.682   6.481   3.128
 5073SOL    HW116118   6.585   6.469   3.149
 5073SOL    HW216119   6.709   6.416   3.056
 5074SOL     OW16120   3.493   3.799   6.917
 5074SOL    HW116121   3.486   3.765   7.011
 5074SOL    HW216122   3.560   3.745   6.866
 5075SOL     OW16123   0.194   1.142   5.746
 5075SOL    HW116124   0.153   1.091   5.822
 5075SOL    HW216125   0.240   1.223   5.782
 5076SOL     OW16126   4.286   0.962   1.173
 5076SOL    HW116127   4.361   0.897   1.185
 5076SOL    HW216128   4.222   0.954   1.249
 5077SOL     OW16129   1.185   2.518   3.501
 5077SOL    HW116130   1.194   2.590   3.571
 5077SOL    HW216131   1.214   2.430   3.540
 5078SOL     OW16132   0.930   1.860   3.219
 5078SOL    HW116133   0.923   1.771   3.174
 5078SOL    HW216134   0.986   1.921   3.163
 5079SOL     OW16135   2.724   4.821   6.147
 5079SOL    HW116136   2.736   4.775   6.059
 5079SOL    HW216137   2.780   4.775   6.216
 5080SOL     OW16138   5.774   6.833   4.734
 5080SOL    HW116139   5.717   6.774   4.676
 5080SOL    HW216140   5.861   6.850   4.687
 5081SOL     OW16141   3.440   3.637   3.294
 5081SOL    HW116142   3.533   3.602   3.304
 5081SOL    HW216143   3.375   3.563   3.306
 5082SOL     OW16144   5.482   6.438   4.980
 5082SOL    HW116145   5.415   6.368   5.007
 5082SOL    HW216146   5.560   6.395   4.935
 5083SOL     OW16147   1.912   6.601   2.405
 5083SOL    HW116148   1.952   6.570   2.492
 5083SOL    HW216149   1.813   6.614   2.417
 5084SOL     OW16150   1.567   4.589   4.477
 5084SOL    HW116151   1.525   4.498   4.472
 5084SOL    HW216152   1.664   4.580   4.496
 5085SOL     OW16153   5.199   2.066   6.403
 5085SOL    HW116154   5.121   2.112   6.361
 5085SOL    HW216155   5.241   2.127   6.470
 5086SOL     OW16156   6.293   5.371   3.837
 5086SOL    HW116157   6.237   5.351   3.757
 5086SOL    HW216158   6.245   5.342   3.920
 5087SOL     OW16159   6.887   6.143   3.982
 5087SOL    HW116160   6.810   6.110   4.037
 5087SOL    HW216161   6.903   6.079   3.907
 5088SOL     OW16162   5.852   1.297   5.540
 5088SOL    HW116163   5.937   1.247   5.523
 5088SOL    HW216164   5.873   1.393   5.559
 5089SOL     OW16165   6.491   3.432   3.467
 5089SOL    HW116166   6.462   3.528   3.466
 5089SOL    HW216167   6.562   3.419   3.537
 5090SOL     OW16168   2.011   3.886   1.249
 5090SOL    HW116169   2.094   3.939   1.234
 5090SOL    HW216170   1.942   3.945   1.293
 5091SOL     OW16171   1.185   6.302   2.896
 5091SOL    HW116172   1.151   6.376   2.955
 5091SOL    HW216173   1.268   6.263   2.937
 5092SOL     OW16174   3.619   2.773   1.441
 5092SOL    HW116175   3.555   2.750   1.515
 5092SOL    HW216176   3.583   2.850   1.388
 5093SOL     OW16177   1.031   1.673   1.802
 5093SOL    HW116178   1.012   1.680   1.704
 5093SOL    HW216179   1.109   1.732   1.824
 5094SOL     OW16180   1.323   0.449   5.167
 5094SOL    HW116181   1.285   0.378   5.226
 5094SOL    HW216182   1.423   0.448   5.174
 5095SOL     OW16183   1.299   0.543   4.493
 5095SOL    HW116184   1.295   0.575   4.398
 5095SOL    HW216185   1.344   0.612   4.550
 5096SOL     OW16186   4.535   3.619   0.668
 5096SOL    HW116187   4.584   3.665   0.742
 5096SOL    HW216188   4.442   3.598   0.697
 5097SOL     OW16189   1.552   0.079   6.295
 5097SOL    HW116190   1.541   0.138   6.216
 5097SOL    HW216191   1.633   0.021   6.282
 5098SOL     OW16192   0.181   0.483   1.689
 5098SOL    HW116193   0.176   0.452   1.784
 5098SOL    HW216194   0.276   0.487   1.660
 5099SOL     OW16195   0.928   0.316   5.941
 5099SOL    HW116196   1.002   0.350   5.999
 5099SOL    HW216197   0.867   0.391   5.916
 5100SOL     OW16198   4.782   6.754   6.150
 5100SOL    HW116199   4.743   6.843   6.125
 5100SOL    HW216200   4.828   6.715   6.070
 5101SOL     OW16201   5.232   6.503   0.048
 5101SOL    HW116202   5.218   6.475   6.972
 5101SOL    HW216203   5.296   6.580   0.050
 5102SOL     OW16204   5.986   0.700   5.352
 5102SOL    HW116205   5.916   0.729   5.416
 5102SOL    HW216206   6.026   0.614   5.383
 5103SOL     OW16207   6.734   1.336   4.209
 5103SOL    HW116208   6.667   1.408   4.188
 5103SOL    HW216209   6.756   1.339   4.306
 5104SOL     OW16210   1.929   6.631   1.163
 5104SOL    HW116211   1.884   6.645   1.075
 5104SOL    HW216212   1.994   6.555   1.156
 5105SOL     OW16213   4.505   3.771   6.814
 5105SOL    HW116214   4.553   3.684   6.825
 5105SOL    HW216215   4.532   3.813   6.727
 5106SOL     OW16216   3.746   0.105   2.402
 5106SOL    HW116217   3.737   0.017   2.449
 5106SOL    HW216218   3.656   0.147   2.392
 5107SOL     OW16219   2.741   0.390   0.265
 5107SOL    HW116220   2.736   0.483   0.300
 5107SOL    HW216221   2.724   0.391   0.166
 5108SOL     OW16222   3.032   3.923   3.611
 5108SOL    HW116223   3.107   3.940   3.547
 5108SOL    HW216224   2.982   3.841   3.582
 5109SOL     OW16225   1.108   1.686   0.999
 5109SOL    HW116226   1.101   1.766   0.939
 5109SOL    HW216227   1.022   1.673   1.048
 5110SOL     OW16228   1.247   6.222   6.265
 5110SOL    HW116229   1.333   6.234   6.216
 5110SOL    HW216230   1.259   6.156   6.339
 5111SOL     OW16231   0.444   1.022   5.682
 5111SOL    HW116232   0.506   1.098   5.664
 5111SOL    HW216233   0.349   1.052   5.667
 5112SOL     OW16234   0.140   6.874   3.866
 5112SOL    HW116235   0.109   6.804   3.802
 5112SOL    HW216236   0.136   6.839   3.959
 5113SOL     OW16237   0.602   0.504   1.126
 5113SOL    HW116238   0.689   0.506   1.175
 5113SOL    HW216239   0.585   0.411   1.092
 5114SOL     OW16240   3.444   3.676   0.180
 5114SOL    HW116241   3.480   3.764   0.210
 5114SOL    HW216242   3.452   3.610   0.255
 5115SOL     OW16243   1.665   4.440   5.756
 5115SOL    HW116244   1.750   4.388   5.747
 5115SOL    HW216245   1.608   4.399   5.828
 5116SOL     OW16246   5.454   5.520   6.010
 5116SOL    HW116247   5.451   5.454   5.935
 5116SOL    HW216248   5.408   5.481   6.090
 5117SOL     OW16249   2.247   4.604   3.784
 5117SOL    HW116250   2.330   4.597   3.841
 5117SOL    HW216251   2.232   4.517   3.737
 5118SOL     OW16252   4.534   6.465   0.488
 5118SOL    HW116253   4.462   6.449   0.555
 5118SOL    HW216254   4.518   6.553   0.442
 5119SOL     OW16255   4.955   0.240   1.757
 5119SOL    HW116256   5.025   0.169   1.762
 5119SOL    HW216257   4.873   0.203   1.714
 5120SOL     OW16258   5.905   1.352   2.877
 5120SOL    HW116259   5.855   1.422   2.826
 5120SOL    HW216260   5.933   1.390   2.965
 5121SOL     OW16261   1.037   3.267   6.395
 5121SOL    HW116262   1.074   3.186   6.441
 5121SOL    HW216263   0.943   3.282   6.427
 5122SOL     OW16264   2.712   0.875   3.500
 5122SOL    HW116265   2.632   0.839   3.548
 5122SOL    HW216266   2.686   0.902   3.407
 5123SOL     OW16267   5.537   3.665   3.895
 5123SOL    HW116268   5.439   3.644   3.894
 5123SOL    HW216269   5.586   3.590   3.940
 5124SOL     OW16270   2.473   5.823   6.562
 5124SOL    HW116271   2.555   5.822   6.506
 5124SOL    HW216272   2.420   5.740   6.545
 5125SOL     OW16273   0.536   3.653   4.474
 5125SOL    HW116274   0.495   3.596   4.402
 5125SOL    HW216275   0.515   3.614   4.563
 5126SOL     OW16276   6.279   5.205   5.489
 5126SOL    HW116277   6.221   5.126   5.504
 5126SOL    HW216278   6.230   5.273   5.434
 5127SOL     OW16279   5.912   4.038   0.647
 5127SOL    HW116280   5.906   4.090   0.561
 5127SOL    HW216281   5.989   4.072   0.701
 5128SOL     OW16282   0.780   0.303   6.986
 5128SOL    HW116283   0.732   0.251   6.915
 5128SOL    HW216284   0.728   0.297   0.053
 5129SOL     OW16285   5.683   0.318   3.208
 5129SOL    HW116286   5.653   0.245   3.147
 5129SOL    HW216287   5.722   0.393   3.154
 5130SOL     OW16288   0.896   5.390   4.650
 5130SOL    HW116289   0.913   5.304   4.602
 5130SOL    HW216290   0.941   5.387   4.739
 5131SOL     OW16291   3.389   5.028   3.464
 5131SOL    HW116292   3.395   4.960   3.390
 5131SOL    HW216293   3.452   5.002   3.538
 5132SOL     OW16294   3.121   1.553   6.734
 5132SOL    HW116295   3.214   1.557   6.699
 5132SOL    HW216296   3.068   1.630   6.699
 5133SOL     OW16297   3.537   5.570   6.069
 5133SOL    HW116298   3.634   5.545   6.077
 5133SOL    HW216299   3.481   5.499   6.112
 5134SOL     OW16300   6.510   6.937   1.711
 5134SOL    HW116301   6.559   6.852   1.734
 5134SOL    HW216302   6.523   7.003   1.785
 5135SOL     OW16303   6.471   3.487   3.169
 5135SOL    HW116304   6.557   3.463   3.215
 5135SOL    HW216305   6.426   3.560   3.219
 5136SOL     OW16306   0.510   1.031   5.978
 5136SOL    HW116307   0.547   0.967   6.045
 5136SOL    HW216308   0.500   0.984   5.890
 5137SOL     OW16309   4.904   2.532   5.496
 5137SOL    HW116310   4.937   2.620   5.461
 5137SOL    HW216311   4.827   2.548   5.557
 5138SOL     OW16312   3.754   4.062   4.112
 5138SOL    HW116313   3.842   4.047   4.156
 5138SOL    HW216314   3.680   4.043   4.176
 5139SOL     OW16315   1.639   0.718   4.755
 5139SOL    HW116316   1.666   0.642   4.696
 5139SOL    HW216317   1.612   0.795   4.698
 5140SOL     OW16318   3.956   1.720   6.257
 5140SOL    HW116319   3.883   1.784   6.279
 5140SOL    HW216320   3.942   1.635   6.307
 5141SOL     OW16321   6.319   3.090   1.651
 5141SOL    HW116322   6.297   2.993   1.638
 5141SOL    HW216323   6.411   3.108   1.617
 5142SOL     OW16324   6.037   6.857   3.733
 5142SOL    HW116325   6.133   6.841   3.711
 5142SOL    HW216326   5.991   6.769   3.749
 5143SOL     OW16327   0.767   4.198   4.586
 5143SOL    HW116328   0.772   4.188   4.686
 5143SOL    HW216329   0.675   4.226   4.560
 5144SOL     OW16330   1.923   3.551   6.724
 5144SOL    HW116331   1.968   3.523   6.809
 5144SOL    HW216332   1.988   3.603   6.667
 5145SOL     OW16333   3.565   5.853   6.139
 5145SOL    HW116334   3.516   5.766   6.135
 5145SOL    HW216335   3.577   5.889   6.046
 5146SOL     OW16336   4.197   4.601   5.651
 5146SOL    HW116337   4.275   4.543   5.628
 5146SOL    HW216338   4.188   4.608   5.751
 5147SOL     OW16339   5.092   3.793   3.432
 5147SOL    HW116340   5.187   3.774   3.457
 5147SOL    HW216341   5.078   3.892   3.426
 5148SOL     OW16342   0.505   0.352   1.998
 5148SOL    HW116343   0.542   0.355   1.905
 5148SOL    HW216344   0.567   0.302   2.057
 5149SOL     OW16345   5.914   4.632   3.830
 5149SOL    HW116346   5.908   4.682   3.916
 5149SOL    HW216347   5.984   4.562   3.837
 5150SOL     OW16348   1.652   5.442   3.543
 5150SOL    HW116349   1.648   5.406   3.636
 5150SOL    HW216350   1.616   5.374   3.479
 5151SOL     OW16351   6.104   4.868   1.112
 5151SOL    HW116352   6.137   4.956   1.079
 5151SOL    HW216353   6.162   4.837   1.188
 5152SOL     OW16354   1.785   6.486   6.717
 5152SOL    HW116355   1.772   6.574   6.672
 5152SOL    HW216356   1.881   6.476   6.743
 5153SOL     OW16357   1.627   0.918   0.656
 5153SOL    HW116358   1.545   0.879   0.698
 5153SOL    HW216359   1.684   0.844   0.620
 5154SOL     OW16360   1.096   2.562   6.720
 5154SOL    HW116361   1.163   2.505   6.769
 5154SOL    HW216362   1.144   2.628   6.663
 5155SOL     OW16363   2.411   1.547   0.690
 5155SOL    HW116364   2.330   1.488   0.696
 5155SOL    HW216365   2.405   1.620   0.758
 5156SOL     OW16366   5.299   4.992   5.039
 5156SOL    HW116367   5.205   4.978   5.071
 5156SOL    HW216368   5.363   4.963   5.110
 5157SOL     OW16369   4.028   1.423   2.069
 5157SOL    HW116370   4.026   1.325   2.052
 5157SOL    HW216371   3.959   1.469   2.013
 5158SOL     OW16372   3.862   1.415   1.591
 5158SOL    HW116373   3.815   1.497   1.560
 5158SOL    HW216374   3.795   1.350   1.627
 5159SOL     OW16375   5.719   3.917   6.619
 5159SOL    HW116376   5.692   4.012   6.633
 5159SOL    HW216377   5.791   3.912   6.549
 5160SOL     OW16378   6.370   6.917   3.352
 5160SOL    HW116379   6.371   6.834   3.408
 5160SOL    HW216380   6.452   6.920   3.296
 5161SOL     OW16381   1.110   3.361   6.855
 5161SOL    HW116382   1.048   3.319   6.789
 5161SOL    HW216383   1.175   3.292   6.888
 5162SOL     OW16384   0.215   5.478   3.019
 5162SOL    HW116385   0.240   5.386   3.048
 5162SOL    HW216386   0.198   5.535   3.099
 5163SOL     OW16387   3.184   5.780   1.825
 5163SOL    HW116388   3.204   5.760   1.921
 5163SOL    HW216389   3.215   5.872   1.803
 5164SOL     OW16390   2.741   2.917   0.518
 5164SOL    HW116391   2.662   2.861   0.541
 5164SOL    HW216392   2.805   2.918   0.595
 5165SOL     OW16393   1.296   4.880   0.102
 5165SOL    HW116394   1.263   4.886   0.008
 5165SOL    HW216395   1.244   4.942   0.161
 5166SOL     OW16396   1.974   5.816   1.800
 5166SOL    HW116397   2.020   5.753   1.862
 5166SOL    HW216398   1.876   5.801   1.803
 5167SOL     OW16399   5.712   3.627   5.445
 5167SOL    HW116400   5.620   3.595   5.421
 5167SOL    HW216401   5.746   3.687   5.373
 5168SOL     OW16402   4.836   2.489   2.483
 5168SOL    HW116403   4.784   2.513   2.401
 5168SOL    HW216404   4.842   2.569   2.543
 5169SOL     OW16405   4.297   1.062   4.080
 5169SOL    HW116406   4.239   1.041   4.159
 5169SOL    HW216407   4.313   1.160   4.076
 5170SOL     OW16408   1.238   3.503   6.189
 5170SOL    HW116409   1.316   3.444   6.169
 5170SOL    HW216410   1.215   3.497   6.286
 5171SOL     OW16411   1.754   5.228   5.960
 5171SOL    HW116412   1.814   5.180   6.024
 5171SOL    HW216413   1.779   5.205   5.867
 5172SOL     OW16414   0.998   4.845   4.050
 5172SOL    HW116415   1.064   4.779   4.086
 5172SOL    HW216416   1.027   4.875   3.959
 5173SOL     OW16417   4.572   3.752   6.320
 5173SOL    HW116418   4.489   3.698   6.321
 5173SOL    HW216419   4.582   3.796   6.230
 5174SOL     OW16420   1.378   6.971   3.893
 5174SOL    HW116421   1.469   6.990   3.856
 5174SOL    HW216422   1.324   6.921   3.825
 5175SOL     OW16423   3.123   4.366   6.668
 5175SOL    HW116424   3.106   4.327   6.577
 5175SOL    HW216425   3.115   4.294   6.736
 5176SOL     OW16426   5.621   5.692   6.248
 5176SOL    HW116427   5.601   5.653   6.158
 5176SOL    HW216428   5.652   5.620   6.309
 5177SOL     OW16429   4.921   0.558   0.795
 5177SOL    HW116430   4.865   0.478   0.776
 5177SOL    HW216431   4.913   0.581   0.892
 5178SOL     OW16432   0.882   4.111   1.684
 5178SOL    HW116433   0.919   4.069   1.601
 5178SOL    HW216434   0.783   4.093   1.689
 5179SOL     OW16435   5.225   4.079   2.545
 5179SOL    HW116436   5.242   4.105   2.640
 5179SOL    HW216437   5.177   4.154   2.498
 5180SOL     OW16438   2.895   6.367   1.194
 5180SOL    HW116439   2.929   6.317   1.274
 5180SOL    HW216440   2.857   6.455   1.224
 5181SOL     OW16441   6.852   1.194   6.658
 5181SOL    HW116442   6.839   1.219   6.562
 5181SOL    HW216443   6.949   1.176   6.675
 5182SOL     OW16444   4.244   4.655   2.826
 5182SOL    HW116445   4.290   4.640   2.738
 5182SOL    HW216446   4.310   4.646   2.900
 5183SOL     OW16447   4.069   1.853   3.259
 5183SOL    HW116448   4.013   1.896   3.330
 5183SOL    HW216449   4.047   1.893   3.170
 5184SOL     OW16450   2.214   2.475   3.935
 5184SOL    HW116451   2.146   2.537   3.896
 5184SOL    HW216452   2.303   2.521   3.940
 5185SOL     OW16453   4.615   0.616   2.287
 5185SOL    HW116454   4.574   0.554   2.354
 5185SOL    HW216455   4.565   0.702   2.285
 5186SOL     OW16456   6.406   3.157   5.995
 5186SOL    HW116457   6.454   3.101   5.927
 5186SOL    HW216458   6.308   3.138   5.990
 5187SOL     OW16459   2.344   5.182   4.742
 5187SOL    HW116460   2.356   5.165   4.840
 5187SOL    HW216461   2.293   5.106   4.702
 5188SOL     OW16462   6.464   6.234   1.620
 5188SOL    HW116463   6.429   6.327   1.611
 5188SOL    HW216464   6.471   6.210   1.717
 5189SOL     OW16465   5.708   6.993   6.362
 5189SOL    HW116466   5.718   0.059   6.308
 5189SOL    HW216467   5.629   6.942   6.328
 5190SOL     OW16468   1.884   2.970   1.769
 5190SOL    HW116469   1.954   3.004   1.707
 5190SOL    HW216470   1.871   3.034   1.844
 5191SOL     OW16471   2.942   5.903   2.460
 5191SOL    HW116472   2.879   5.856   2.522
 5191SOL    HW216473   3.027   5.924   2.508
 5192SOL     OW16474   1.588   5.754   1.247
 5192SOL    HW116475   1.669   5.697   1.233
 5192SOL    HW216476   1.599   5.808   1.330
 5193SOL     OW16477   5.354   0.552   6.760
 5193SOL    HW116478   5.385   0.457   6.763
 5193SOL    HW216479   5.321   0.580   6.850
 5194SOL     OW16480   3.429   1.973   6.544
 5194SOL    HW116481   3.373   1.931   6.474
 5194SOL    HW216482   3.523   1.940   6.536
 5195SOL     OW16483   0.577   0.583   3.537
 5195SOL    HW116484   0.624   0.496   3.555
 5195SOL    HW216485   0.627   0.633   3.465
 5196SOL     OW16486   4.652   6.703   2.821
 5196SOL    HW116487   4.594   6.655   2.755
 5196SOL    HW216488   4.609   6.700   2.912
 5197SOL     OW16489   1.353   3.856   6.371
 5197SOL    HW116490   1.434   3.853   6.313
 5197SOL    HW216491   1.330   3.951   6.393
 5198SOL     OW16492   4.687   5.717   3.173
 5198SOL    HW116493   4.614   5.777   3.139
 5198SOL    HW216494   4.774   5.747   3.136
 5199SOL     OW16495   6.749   5.627   0.859
 5199SOL    HW116496   6.804   5.671   0.930
 5199SOL    HW216497   6.808   5.601   0.782
 5200SOL     OW16498   0.398   3.980   5.489
 5200SOL    HW116499   0.391   3.945   5.395
 5200SOL    HW216500   0.427   4.076   5.486
 5201SOL     OW16501   1.089   6.339   4.046
 5201SOL    HW116502   1.044   6.274   3.984
 5201SOL    HW216503   1.138   6.408   3.992
 5202SOL     OW16504   6.940   3.144   6.896
 5202SOL    HW116505   6.925   3.117   6.992
 5202SOL    HW216506   6.869   3.208   6.868
 5203SOL     OW16507   0.971   2.630   6.956
 5203SOL    HW116508   0.884   2.673   6.933
 5203SOL    HW216509   1.025   2.617   6.873
 5204SOL     OW16510   4.006   4.842   0.595
 5204SOL    HW116511   4.040   4.898   0.519
 5204SOL    HW216512   3.910   4.820   0.579
 5205SOL     OW16513   1.309   0.198   1.691
 5205SOL    HW116514   1.406   0.196   1.668
 5205SOL    HW216515   1.271   0.106   1.684
 5206SOL     OW16516   0.155   4.467   6.742
 5206SOL    HW116517   0.191   4.402   6.675
 5206SOL    HW216518   0.220   4.478   6.817
 5207SOL     OW16519   1.336   5.377   4.544
 5207SOL    HW116520   1.282   5.461   4.545
 5207SOL    HW216521   1.326   5.332   4.455
 5208SOL     OW16522   3.773   1.224   0.365
 5208SOL    HW116523   3.686   1.272   0.352
 5208SOL    HW216524   3.761   1.127   0.344
 5209SOL     OW16525   5.904   6.002   3.421
 5209SOL    HW116526   5.935   5.971   3.511
 5209SOL    HW216527   5.982   6.034   3.367
 5210SOL     OW16528   5.251   3.543   4.928
 5210SOL    HW116529   5.169   3.490   4.947
 5210SOL    HW216530   5.329   3.503   4.976
 5211SOL     OW16531   3.584   2.919   4.138
 5211SOL    HW116532   3.537   2.862   4.206
 5211SOL    HW216533   3.521   2.988   4.104
 5212SOL     OW16534   0.190   2.510   0.343
 5212SOL    HW116535   0.216   2.520   0.439
 5212SOL    HW216536   0.128   2.585   0.318
 5213SOL     OW16537   4.800   2.167   6.077
 5213SOL    HW116538   4.744   2.133   6.153
 5213SOL    HW216539   4.742   2.185   5.998
 5214SOL     OW16540   5.233   1.581   6.081
 5214SOL    HW116541   5.324   1.574   6.122
 5214SOL    HW216542   5.216   1.675   6.052
 5215SOL     OW16543   5.551   4.938   3.151
 5215SOL    HW116544   5.586   4.969   3.239
 5215SOL    HW216545   5.506   5.014   3.105
 5216SOL     OW16546   4.829   5.452   1.263
 5216SOL    HW116547   4.880   5.466   1.348
 5216SOL    HW216548   4.894   5.441   1.188
 5217SOL     OW16549   2.828   5.062   3.748
 5217SOL    HW116550   2.917   5.042   3.706
 5217SOL    HW216551   2.758   5.068   3.677
 5218SOL     OW16552   2.059   0.334   4.088
 5218SOL    HW116553   1.960   0.350   4.084
 5218SOL    HW216554   2.101   0.409   4.140
 5219SOL     OW16555   3.884   6.980   6.395
 5219SOL    HW116556   3.981   6.976   6.373
 5219SOL    HW216557   3.872   6.976   6.494
 5220SOL     OW16558   1.174   5.152   2.026
 5220SOL    HW116559   1.085   5.186   2.057
 5220SOL    HW216560   1.240   5.227   2.023
 5221SOL     OW16561   5.471   2.073   4.438
 5221SOL    HW116562   5.435   2.005   4.503
 5221SOL    HW216563   5.421   2.159   4.449
 5222SOL     OW16564   2.644   0.085   4.001
 5222SOL    HW116565   2.640   7.003   4.001
 5222SOL    HW216566   2.682   0.117   4.088
 5223SOL     OW16567   4.590   0.577   0.951
 5223SOL    HW116568   4.555   0.514   0.881
 5223SOL    HW216569   4.549   0.554   1.039
 5224SOL     OW16570   6.619   2.225   3.151
 5224SOL    HW116571   6.550   2.256   3.216
 5224SOL    HW216572   6.592   2.250   3.058
 5225SOL     OW16573   6.796   0.421   3.098
 5225SOL    HW116574   6.769   0.460   3.186
 5225SOL    HW216575   6.863   0.481   3.054
 5226SOL     OW16576   0.324   6.408   5.095
 5226SOL    HW116577   0.276   6.343   5.037
 5226SOL    HW216578   0.301   6.501   5.067
 5227SOL     OW16579   6.952   4.989   3.760
 5227SOL    HW116580   6.986   5.010   3.852
 5227SOL    HW216581   6.938   4.891   3.751
 5228SOL     OW16582   6.634   2.695   0.043
 5228SOL    HW116583   6.707   2.665   6.999
 5228SOL    HW216584   6.641   2.793   0.058
 5229SOL     OW16585   1.797   4.379   6.730
 5229SOL    HW116586   1.834   4.354   6.820
 5229SOL    HW216587   1.742   4.303   6.695
 5230SOL     OW16588   0.289   6.934   0.718
 5230SOL    HW116589   0.217   6.972   0.775
 5230SOL    HW216590   0.282   6.972   0.626
 5231SOL     OW16591   3.335   3.061   4.662
 5231SOL    HW116592   3.353   2.973   4.705
 5231SOL    HW216593   3.414   3.089   4.608
 5232SOL     OW16594   3.196   2.482   6.027
 5232SOL    HW116595   3.122   2.518   5.970
 5232SOL    HW216596   3.174   2.496   6.123
 5233SOL     OW16597   6.755   6.451   1.379
 5233SOL    HW116598   6.735   6.465   1.476
 5233SOL    HW216599   6.854   6.452   1.365
 5234SOL     OW16600   3.333   0.389   0.299
 5234SOL    HW116601   3.323   0.383   0.199
 5234SOL    HW216602   3.410   0.332   0.328
 5235SOL     OW16603   1.154   2.990   1.058
 5235SOL    HW116604   1.167   2.892   1.070
 5235SOL    HW216605   1.103   3.008   0.974
 5236SOL     OW16606   5.380   3.276   1.780
 5236SOL    HW116607   5.285   3.305   1.794
 5236SOL    HW216608   5.434   3.356   1.754
 5237SOL     OW16609   2.962   1.813   5.311
 5237SOL    HW116610   2.977   1.731   5.257
 5237SOL    HW216611   2.915   1.882   5.256
 5238SOL     OW16612   1.185   5.311   0.282
 5238SOL    HW116613   1.179   5.214   0.260
 5238SOL    HW216614   1.270   5.330   0.331
 5239SOL     OW16615   3.454   3.753   4.416
 5239SOL    HW116616   3.398   3.738   4.497
 5239SOL    HW216617   3.442   3.676   4.353
 5240SOL     OW16618   2.851   1.752   5.579
 5240SOL    HW116619   2.892   1.770   5.490
 5240SOL    HW216620   2.817   1.838   5.618
 5241SOL     OW16621   0.831   5.815   6.319
 5241SOL    HW116622   0.888   5.833   6.399
 5241SOL    HW216623   0.890   5.795   6.240
 5242SOL     OW16624   5.760   0.726   5.516
 5242SOL    HW116625   5.736   0.629   5.513
 5242SOL    HW216626   5.682   0.780   5.485
 5243SOL     OW16627   0.740   5.742   0.839
 5243SOL    HW116628   0.806   5.730   0.913
 5243SOL    HW216629   0.779   5.800   0.768
 5244SOL     OW16630   4.413   3.813   5.491
 5244SOL    HW116631   4.509   3.807   5.464
 5244SOL    HW216632   4.377   3.721   5.509
 5245SOL     OW16633   4.442   3.830   5.977
 5245SOL    HW116634   4.410   3.924   5.986
 5245SOL    HW216635   4.365   3.767   5.985
 5246SOL     OW16636   0.105   4.330   2.630
 5246SOL    HW116637   0.186   4.291   2.587
 5246SOL    HW216638   0.068   4.402   2.571
 5247SOL     OW16639   0.846   6.199   6.842
 5247SOL    HW116640   0.902   6.258   6.901
 5247SOL    HW216641   0.755   6.238   6.832
 5248SOL     OW16642   5.492   0.513   5.572
 5248SOL    HW116643   5.567   0.493   5.508
 5248SOL    HW216644   5.522   0.495   5.665
 5249SOL     OW16645   0.910   5.079   4.862
 5249SOL    HW116646   0.827   5.079   4.807
 5249SOL    HW216647   0.891   5.038   4.951
 5250SOL     OW16648   0.154   1.343   6.215
 5250SOL    HW116649   0.233   1.349   6.154
 5250SOL    HW216650   0.122   1.248   6.219
 5251SOL     OW16651   0.283   3.059   1.207
 5251SOL    HW116652   0.281   3.126   1.281
 5251SOL    HW216653   0.203   3.071   1.148
 5252SOL     OW16654   1.784   5.256   1.169
 5252SOL    HW116655   1.733   5.282   1.087
 5252SOL    HW216656   1.726   5.266   1.249
 5253SOL     OW16657   5.715   3.495   4.558
 5253SOL    HW116658   5.761   3.415   4.520
 5253SOL    HW216659   5.715   3.569   4.491
 5254SOL     OW16660   5.255   1.553   3.424
 5254SOL    HW116661   5.204   1.509   3.498
 5254SOL    HW216662   5.278   1.485   3.354
 5255SOL     OW16663   4.225   0.324   4.247
 5255SOL    HW116664   4.317   0.329   4.209
 5255SOL    HW216665   4.187   0.416   4.255
 5256SOL     OW16666   5.083   1.077   3.291
 5256SOL    HW116667   5.030   1.120   3.218
 5256SOL    HW216668   5.044   1.103   3.380
 5257SOL     OW16669   4.421   0.012   1.853
 5257SOL    HW116670   4.519   0.034   1.851
 5257SOL    HW216671   4.369   0.096   1.868
 5258SOL     OW16672   5.179   4.345   1.753
 5258SOL    HW116673   5.098   4.403   1.756
 5258SOL    HW216674   5.260   4.402   1.736
 5259SOL     OW16675   4.415   6.019   1.571
 5259SOL    HW116676   4.396   6.117   1.573
 5259SOL    HW216677   4.454   5.991   1.658
 5260SOL     OW16678   4.769   3.279   0.709
 5260SOL    HW116679   4.725   3.335   0.639
 5260SOL    HW216680   4.719   3.193   0.720
 5261SOL     OW16681   1.453   2.445   5.213
 5261SOL    HW116682   1.425   2.423   5.306
 5261SOL    HW216683   1.389   2.404   5.148
 5262SOL     OW16684   2.660   6.993   2.548
 5262SOL    HW116685   2.576   6.964   2.503
 5262SOL    HW216686   2.645   0.064   2.592
 5263SOL     OW16687   1.391   6.806   6.355
 5263SOL    HW116688   1.435   6.894   6.373
 5263SOL    HW216689   1.313   6.796   6.416
 5264SOL     OW16690   6.435   1.127   1.289
 5264SOL    HW116691   6.524   1.159   1.322
 5264SOL    HW216692   6.383   1.088   1.364
 5265SOL     OW16693   5.469   3.993   2.443
 5265SOL    HW116694   5.452   3.907   2.395
 5265SOL    HW216695   5.387   4.019   2.493
 5266SOL     OW16696   2.824   6.158   1.637
 5266SOL    HW116697   2.895   6.162   1.708
 5266SOL    HW216698   2.740   6.120   1.676
 5267SOL     OW16699   4.870   4.998   5.772
 5267SOL    HW116700   4.859   4.952   5.860
 5267SOL    HW216701   4.809   5.076   5.767
 5268SOL     OW16702   6.441   5.960   5.352
 5268SOL    HW116703   6.390   5.975   5.436
 5268SOL    HW216704   6.379   5.962   5.274
 5269SOL     OW16705   2.110   6.528   3.830
 5269SOL    HW116706   2.108   6.628   3.839
 5269SOL    HW216707   2.071   6.502   3.742
 5270SOL     OW16708   4.593   2.012   1.670
 5270SOL    HW116709   4.675   1.956   1.658
 5270SOL    HW216710   4.581   2.032   1.768
 5271SOL     OW16711   4.327   5.019   4.236
 5271SOL    HW116712   4.286   4.930   4.215
 5271SOL    HW216713   4.384   5.048   4.159
 5272SOL     OW16714   0.599   6.422   3.971
 5272SOL    HW116715   0.675   6.412   3.906
 5272SOL    HW216716   0.635   6.440   4.062
 5273SOL     OW16717   1.133   2.901   3.707
 5273SOL    HW116718   1.202   2.828   3.714
 5273SOL    HW216719   1.109   2.914   3.611
 5274SOL     OW16720   6.164   5.178   3.047
 5274SOL    HW116721   6.071   5.164   3.013
 5274SOL    HW216722   6.222   5.212   2.973
 5275SOL     OW16723   3.292   0.304   6.620
 5275SOL    HW116724   3.319   0.391   6.578
 5275SOL    HW216725   3.193   0.304   6.635
 5276SOL     OW16726   0.162   6.334   0.264
 5276SOL    HW116727   0.253   6.365   0.290
 5276SOL    HW216728   0.138   6.372   0.175
 5277SOL     OW16729   2.103   1.797   2.965
 5277SOL    HW116730   2.037   1.770   2.894
 5277SOL    HW216731   2.196   1.785   2.930
 5278SOL     OW16732   5.520   6.852   5.644
 5278SOL    HW116733   5.493   6.812   5.556
 5278SOL    HW216734   5.455   6.824   5.715
 5279SOL     OW16735   1.074   5.756   6.684
 5279SOL    HW116736   1.144   5.814   6.642
 5279SOL    HW216737   0.994   5.811   6.705
 5280SOL     OW16738   3.888   5.769   5.221
 5280SOL    HW116739   3.938   5.716   5.289
 5280SOL    HW216740   3.826   5.833   5.268
 5281SOL     OW16741   1.026   1.471   3.964
 5281SOL    HW116742   1.010   1.380   3.925
 5281SOL    HW216743   1.042   1.536   3.890
 5282SOL     OW16744   1.965   0.292   2.706
 5282SOL    HW116745   2.019   0.261   2.784
 5282SOL    HW216746   1.937   0.387   2.720
 5283SOL     OW16747   1.602   0.868   3.478
 5283SOL    HW116748   1.520   0.905   3.521
 5283SOL    HW216749   1.680   0.878   3.540
 5284SOL     OW16750   4.603   2.533   2.944
 5284SOL    HW116751   4.689   2.572   2.912
 5284SOL    HW216752   4.589   2.443   2.904
 5285SOL     OW16753   0.887   3.999   4.072
 5285SOL    HW116754   0.871   3.910   4.114
 5285SOL    HW216755   0.937   4.058   4.137
 5286SOL     OW16756   6.270   3.001   1.070
 5286SOL    HW116757   6.187   2.945   1.073
 5286SOL    HW216758   6.248   3.095   1.096
 5287SOL     OW16759   2.859   5.099   1.452
 5287SOL    HW116760   2.811   5.015   1.480
 5287SOL    HW216761   2.954   5.095   1.484
 5288SOL     OW16762   4.865   0.650   3.026
 5288SOL    HW116763   4.947   0.698   2.995
 5288SOL    HW216764   4.800   0.715   3.065
 5289SOL     OW16765   2.592   5.116   6.448
 5289SOL    HW116766   2.570   5.031   6.400
 5289SOL    HW216767   2.681   5.149   6.418
 5290SOL     OW16768   1.369   3.672   5.677
 5290SOL    HW116769   1.339   3.671   5.581
 5290SOL    HW216770   1.466   3.650   5.682
 5291SOL     OW16771   3.072   4.443   5.997
 5291SOL    HW116772   3.083   4.542   6.011
 5291SOL    HW216773   3.040   4.426   5.904
 5292SOL     OW16774   5.773   4.836   6.288
 5292SOL    HW116775   5.872   4.840   6.277
 5292SOL    HW216776   5.751   4.780   6.368
 5293SOL     OW16777   2.102   6.554   5.161
 5293SOL    HW116778   2.029   6.621   5.171
 5293SOL    HW216779   2.149   6.568   5.074
 5294SOL     OW16780   4.677   1.845   5.512
 5294SOL    HW116781   4.671   1.771   5.579
 5294SOL    HW216782   4.696   1.806   5.421
 5295SOL     OW16783   3.872   0.576   2.965
 5295SOL    HW116784   3.817   0.659   2.962
 5295SOL    HW216785   3.936   0.580   3.042
 5296SOL     OW16786   3.605   3.841   0.317
 5296SOL    HW116787   3.552   3.874   0.395
 5296SOL    HW216788   3.700   3.827   0.345
 5297SOL     OW16789   1.929   3.382   0.547
 5297SOL    HW116790   1.881   3.449   0.603
 5297SOL    HW216791   1.862   3.328   0.495
 5298SOL     OW16792   1.703   5.917   6.233
 5298SOL    HW116793   1.709   5.839   6.171
 5298SOL    HW216794   1.793   5.958   6.244
 5299SOL     OW16795   2.884   2.882   0.730
 5299SOL    HW116796   2.976   2.890   0.771
 5299SOL    HW216797   2.847   2.792   0.751
 5300SOL     OW16798   0.845   5.215   1.104
 5300SOL    HW116799   0.862   5.314   1.104
 5300SOL    HW216800   0.860   5.179   1.196
 5301SOL     OW16801   4.062   1.035   5.998
 5301SOL    HW116802   4.026   1.122   6.033
 5301SOL    HW216803   4.150   1.051   5.955
 5302SOL     OW16804   5.664   5.902   3.361
 5302SOL    HW116805   5.759   5.921   3.383
 5302SOL    HW216806   5.643   5.807   3.383
 5303SOL     OW16807   0.229   5.199   5.038
 5303SOL    HW116808   0.319   5.237   5.054
 5303SOL    HW216809   0.233   5.131   4.964
 5304SOL     OW16810   5.985   0.993   0.465
 5304SOL    HW116811   6.024   0.912   0.421
 5304SOL    HW216812   6.055   1.037   0.522
 5305SOL     OW16813   0.860   5.575   2.645
 5305SOL    HW116814   0.917   5.651   2.677
 5305SOL    HW216815   0.767   5.608   2.628
 5306SOL     OW16816   1.025   4.507   5.579
 5306SOL    HW116817   1.040   4.413   5.611
 5306SOL    HW216818   0.994   4.563   5.656
 5307SOL     OW16819   3.651   2.055   0.459
 5307SOL    HW116820   3.744   2.068   0.423
 5307SOL    HW216821   3.619   1.963   0.435
 5308SOL     OW16822   1.467   4.514   2.034
 5308SOL    HW116823   1.406   4.486   1.960
 5308SOL    HW216824   1.436   4.475   2.120
 5309SOL     OW16825   3.802   4.906   2.018
 5309SOL    HW116826   3.714   4.859   2.021
 5309SOL    HW216827   3.877   4.840   2.022
 5310SOL     OW16828   6.192   3.709   1.441
 5310SOL    HW116829   6.287   3.679   1.448
 5310SOL    HW216830   6.168   3.761   1.523
 5311SOL     OW16831   5.768   6.812   0.143
 5311SOL    HW116832   5.777   6.796   0.045
 5311SOL    HW216833   5.770   6.911   0.161
 5312SOL     OW16834   0.951   5.432   1.796
 5312SOL    HW116835   0.926   5.518   1.839
 5312SOL    HW216836   0.868   5.381   1.774
 5313SOL     OW16837   1.409   3.279   6.144
 5313SOL    HW116838   1.427   3.239   6.233
 5313SOL    HW216839   1.439   3.216   6.072
 5314SOL     OW16840   3.861   6.775   0.375
 5314SOL    HW116841   3.763   6.795   0.365
 5314SOL    HW216842   3.889   6.712   0.304
 5315SOL     OW16843   5.156   3.491   2.182
 5315SOL    HW116844   5.195   3.470   2.271
 5315SOL    HW216845   5.097   3.416   2.152
 5316SOL     OW16846   1.238   3.254   5.229
 5316SOL    HW116847   1.239   3.352   5.209
 5316SOL    HW216848   1.259   3.241   5.326
 5317SOL     OW16849   5.913   2.179   5.405
 5317SOL    HW116850   5.908   2.226   5.317
 5317SOL    HW216851   5.989   2.216   5.458
 5318SOL     OW16852   0.847   2.633   0.580
 5318SOL    HW116853   0.783   2.556   0.586
 5318SOL    HW216854   0.809   2.711   0.630
 5319SOL     OW16855   4.395   6.095   0.935
 5319SOL    HW116856   4.427   6.180   0.895
 5319SOL    HW216857   4.442   6.078   1.021
 5320SOL     OW16858   4.283   5.077   0.669
 5320SOL    HW116859   4.236   5.153   0.715
 5320SOL    HW216860   4.228   5.046   0.592
 5321SOL     OW16861   1.945   4.395   5.097
 5321SOL    HW116862   1.909   4.427   5.185
 5321SOL    HW216863   1.999   4.312   5.111
 5322SOL     OW16864   5.307   6.046   0.495
 5322SOL    HW116865   5.401   6.054   0.462
 5322SOL    HW216866   5.250   6.114   0.449
 5323SOL     OW16867   3.080   1.732   5.960
 5323SOL    HW116868   3.154   1.766   6.019
 5323SOL    HW216869   3.010   1.802   5.951
 5324SOL     OW16870   3.244   2.076   0.873
 5324SOL    HW116871   3.279   2.149   0.932
 5324SOL    HW216872   3.291   2.079   0.785
 5325SOL     OW16873   4.320   0.609   4.290
 5325SOL    HW116874   4.403   0.591   4.342
 5325SOL    HW216875   4.344   0.651   4.203
 5326SOL     OW16876   6.515   5.741   3.503
 5326SOL    HW116877   6.575   5.668   3.471
 5326SOL    HW216878   6.459   5.707   3.579
 5327SOL     OW16879   5.917   3.155   5.360
 5327SOL    HW116880   5.897   3.253   5.372
 5327SOL    HW216881   5.831   3.105   5.351
 5328SOL     OW16882   3.662   3.862   6.128
 5328SOL    HW116883   3.709   3.800   6.192
 5328SOL    HW216884   3.596   3.810   6.075
 5329SOL     OW16885   0.463   5.237   6.542
 5329SOL    HW116886   0.488   5.141   6.531
 5329SOL    HW216887   0.462   5.282   6.452
 5330SOL     OW16888   4.688   3.839   0.105
 5330SOL    HW116889   4.626   3.789   0.044
 5330SOL    HW216890   4.636   3.882   0.178
 5331SOL     OW16891   6.303   1.716   5.714
 5331SOL    HW116892   6.239   1.639   5.712
 5331SOL    HW216893   6.273   1.783   5.782
 5332SOL     OW16894   0.745   3.176   1.752
 5332SOL    HW116895   0.746   3.191   1.850
 5332SOL    HW216896   0.768   3.261   1.704
 5333SOL     OW16897   0.997   0.868   3.199
 5333SOL    HW116898   1.076   0.824   3.158
 5333SOL    HW216899   0.964   0.941   3.139
 5334SOL     OW16900   3.389   0.242   4.439
 5334SOL    HW116901   3.294   0.272   4.431
 5334SOL    HW216902   3.419   0.203   4.352
 5335SOL     OW16903   0.077   6.083   0.766
 5335SOL    HW116904   0.004   6.119   0.709
 5335SOL    HW216905   0.061   5.986   0.784
 5336SOL     OW16906   2.181   3.103   2.552
 5336SOL    HW116907   2.181   3.081   2.650
 5336SOL    HW216908   2.202   3.200   2.539
 5337SOL     OW16909   5.045   4.678   0.893
 5337SOL    HW116910   5.046   4.683   0.793
 5337SOL    HW216911   5.119   4.619   0.924
 5338SOL     OW16912   6.025   1.708   0.517
 5338SOL    HW116913   5.925   1.715   0.524
 5338SOL    HW216914   6.066   1.737   0.603
 5339SOL     OW16915   6.738   1.812   4.132
 5339SOL    HW116916   6.707   1.906   4.116
 5339SOL    HW216917   6.807   1.787   4.064
 5340SOL     OW16918   4.866   4.762   1.137
 5340SOL    HW116919   4.941   4.774   1.201
 5340SOL    HW216920   4.901   4.764   1.043
 5341SOL     OW16921   3.696   2.769   6.569
 5341SOL    HW116922   3.668   2.756   6.473
 5341SOL    HW216923   3.635   2.717   6.629
 5342SOL     OW16924   3.689   0.234   4.312
 5342SOL    HW116925   3.754   0.247   4.238
 5342SOL    HW216926   3.608   0.186   4.277
 5343SOL     OW16927   3.348   4.012   4.787
 5343SOL    HW116928   3.266   4.065   4.805
 5343SOL    HW216929   3.413   4.068   4.735
 5344SOL     OW16930   1.875   2.555   2.123
 5344SOL    HW116931   1.901   2.559   2.027
 5344SOL    HW216932   1.833   2.642   2.150
 5345SOL     OW16933   4.134   5.869   1.389
 5345SOL    HW116934   4.117   5.782   1.343
 5345SOL    HW216935   4.047   5.911   1.415
 5346SOL     OW16936   3.181   6.184   4.072
 5346SOL    HW116937   3.154   6.221   4.161
 5346SOL    HW216938   3.100   6.175   4.014
 5347SOL     OW16939   0.699   2.406   2.224
 5347SOL    HW116940   0.721   2.396   2.321
 5347SOL    HW216941   0.605   2.437   2.213
 5348SOL     OW16942   6.939   1.428   0.958
 5348SOL    HW116943   0.007   1.427   1.007
 5348SOL    HW216944   6.881   1.354   0.992
 5349SOL     OW16945   1.203   2.377   0.109
 5349SOL    HW116946   1.295   2.347   0.083
 5349SOL    HW216947   1.135   2.324   0.057
 5350SOL     OW16948   1.388   0.187   5.843
 5350SOL    HW116949   1.294   0.173   5.873
 5350SOL    HW216950   1.398   0.152   5.750
 5351SOL     OW16951   5.625   5.542   1.671
 5351SOL    HW116952   5.608   5.605   1.596
 5351SOL    HW216953   5.722   5.544   1.696
 5352SOL     OW16954   1.816   5.530   4.507
 5352SOL    HW116955   1.730   5.501   4.549
 5352SOL    HW216956   1.833   5.476   4.425
 5353SOL     OW16957   3.693   5.933   4.343
 5353SOL    HW116958   3.622   5.932   4.413
 5353SOL    HW216959   3.732   5.842   4.332
 5354SOL     OW16960   1.825   5.117   1.785
 5354SOL    HW116961   1.883   5.045   1.747
 5354SOL    HW216962   1.850   5.205   1.745
 5355SOL     OW16963   4.872   2.504   3.841
 5355SOL    HW116964   4.824   2.479   3.757
 5355SOL    HW216965   4.806   2.534   3.910
 5356SOL     OW16966   5.936   4.458   1.337
 5356SOL    HW116967   5.949   4.523   1.411
 5356SOL    HW216968   6.020   4.451   1.283
 5357SOL     OW16969   3.320   6.844   0.144
 5357SOL    HW116970   3.241   6.852   0.083
 5357SOL    HW216971   3.305   6.767   0.206
 5358SOL     OW16972   4.291   1.522   0.616
 5358SOL    HW116973   4.380   1.518   0.663
 5358SOL    HW216974   4.305   1.537   0.519
 5359SOL     OW16975   1.799   1.712   0.028
 5359SOL    HW116976   1.829   1.630   6.998
 5359SOL    HW216977   1.740   1.686   0.104
 5360SOL     OW16978   4.525   6.534   5.360
 5360SOL    HW116979   4.441   6.479   5.362
 5360SOL    HW216980   4.584   6.501   5.286
 5361SOL     OW16981   2.086   6.807   4.892
 5361SOL    HW116982   2.165   6.747   4.879
 5361SOL    HW216983   2.051   6.837   4.803
 5362SOL     OW16984   5.260   4.816   3.689
 5362SOL    HW116985   5.271   4.784   3.783
 5362SOL    HW216986   5.346   4.804   3.640
 5363SOL     OW16987   0.672   0.118   6.298
 5363SOL    HW116988   0.729   0.144   6.221
 5363SOL    HW216989   0.583   0.162   6.290
 5364SOL     OW16990   6.730   5.772   1.491
 5364SOL    HW116991   6.811   5.823   1.463
 5364SOL    HW216992   6.723   5.775   1.591
 5365SOL     OW16993   3.508   3.231   6.986
 5365SOL    HW116994   3.458   3.187   6.911
 5365SOL    HW216995   3.482   3.328   6.991
 5366SOL     OW16996   4.982   5.994   1.502
 5366SOL    HW116997   4.883   5.992   1.516
 5366SOL    HW216998   5.021   6.073   1.549
 5367SOL     OW16999   0.068   5.813   0.466
 5367SOL    HW117000   0.156   5.766   0.457
 5367SOL    HW217001   0.027   5.791   0.554
 5368SOL     OW17002   4.875   0.714   2.594
 5368SOL    HW117003   4.925   0.630   2.611
 5368SOL    HW217004   4.852   0.720   2.497
 5369SOL     OW17005   3.628   6.852   2.519
 5369SOL    HW117006   3.535   6.820   2.534
 5369SOL    HW217007   3.669   6.879   2.606
 5370SOL     OW17008   4.508   2.730   1.281
 5370SOL    HW117009   4.448   2.769   1.350
 5370SOL    HW217010   4.568   2.802   1.244
 5371SOL     OW17011   1.809   3.723   4.386
 5371SOL    HW117012   1.722   3.696   4.345
 5371SOL    HW217013   1.876   3.650   4.374
 5372SOL     OW17014   2.360   5.989   3.965
 5372SOL    HW117015   2.335   6.083   3.943
 5372SOL    HW217016   2.391   5.943   3.882
 5373SOL     OW17017   2.894   5.413   4.205
 5373SOL    HW117018   2.845   5.500   4.214
 5373SOL    HW217019   2.841   5.351   4.148
 5374SOL     OW17020   0.783   4.286   0.409
 5374SOL    HW117021   0.815   4.379   0.426
 5374SOL    HW217022   0.789   4.266   0.312
 5375SOL     OW17023   1.812   4.249   4.562
 5375SOL    HW117024   1.784   4.344   4.546
 5375SOL    HW217025   1.893   4.247   4.620
 5376SOL     OW17026   1.958   3.231   0.847
 5376SOL    HW117027   2.028   3.283   0.896
 5376SOL    HW217028   1.954   3.138   0.883
 5377SOL     OW17029   6.792   0.100   1.704
 5377SOL    HW117030   6.781   0.152   1.619
 5377SOL    HW217031   6.820   0.007   1.683
 5378SOL     OW17032   0.002   0.545   2.420
 5378SOL    HW117033   0.029   0.508   2.509
 5378SOL    HW217034   0.014   0.475   2.349
 5379SOL     OW17035   1.144   5.540   5.073
 5379SOL    HW117036   1.207   5.523   5.149
 5379SOL    HW217037   1.137   5.639   5.058
 5380SOL     OW17038   1.552   1.296   3.538
 5380SOL    HW117039   1.627   1.270   3.478
 5380SOL    HW217040   1.562   1.392   3.564
 5381SOL     OW17041   6.457   4.243   0.837
 5381SOL    HW117042   6.432   4.286   0.750
 5381SOL    HW217043   6.444   4.144   0.830
 5382SOL     OW17044   3.236   0.707   2.123
 5382SOL    HW117045   3.229   0.686   2.221
 5382SOL    HW217046   3.285   0.793   2.111
 5383SOL     OW17047   2.598   2.305   5.463
 5383SOL    HW117048   2.521   2.245   5.443
 5383SOL    HW217049   2.580   2.395   5.425
 5384SOL     OW17050   6.376   0.270   4.050
 5384SOL    HW117051   6.292   0.260   4.103
 5384SOL    HW217052   6.454   0.280   4.113
 5385SOL     OW17053   2.925   3.312   3.915
 5385SOL    HW117054   2.923   3.404   3.953
 5385SOL    HW217055   2.950   3.246   3.986
 5386SOL     OW17056   4.472   0.120   4.385
 5386SOL    HW117057   4.496   0.169   4.301
 5386SOL    HW217058   4.502   0.025   4.377
 5387SOL     OW17059   2.915   5.888   3.750
 5387SOL    HW117060   2.840   5.921   3.806
 5387SOL    HW217061   2.997   5.944   3.767
 5388SOL     OW17062   6.199   0.497   3.560
 5388SOL    HW117063   6.125   0.448   3.513
 5388SOL    HW217064   6.279   0.502   3.501
 5389SOL     OW17065   5.032   0.719   1.805
 5389SOL    HW117066   5.098   0.752   1.737
 5389SOL    HW217067   4.939   0.738   1.773
 5390SOL     OW17068   4.679   4.241   3.286
 5390SOL    HW117069   4.689   4.240   3.187
 5390SOL    HW217070   4.630   4.324   3.314
 5391SOL     OW17071   1.655   2.417   1.294
 5391SOL    HW117072   1.605   2.443   1.376
 5391SOL    HW217073   1.600   2.438   1.213
 5392SOL     OW17074   6.020   3.327   0.841
 5392SOL    HW117075   6.001   3.231   0.861
 5392SOL    HW217076   6.111   3.351   0.874
 5393SOL     OW17077   5.654   0.218   6.181
 5393SOL    HW117078   5.646   0.201   6.083
 5393SOL    HW217079   5.587   0.162   6.231
 5394SOL     OW17080   6.513   4.190   6.563
 5394SOL    HW117081   6.529   4.281   6.599
 5394SOL    HW217082   6.553   4.122   6.625
 5395SOL     OW17083   4.740   1.257   1.851
 5395SOL    HW117084   4.725   1.161   1.875
 5395SOL    HW217085   4.831   1.267   1.810
 5396SOL     OW17086   4.945   4.150   2.954
 5396SOL    HW117087   4.853   4.141   2.917
 5396SOL    HW217088   4.941   4.172   3.051
 5397SOL     OW17089   6.801   3.144   1.810
 5397SOL    HW117090   6.790   3.199   1.727
 5397SOL    HW217091   6.766   3.195   1.888
 5398SOL     OW17092   3.539   1.524   2.451
 5398SOL    HW117093   3.491   1.547   2.536
 5398SOL    HW217094   3.505   1.581   2.377
 5399SOL     OW17095   2.503   5.643   6.838
 5399SOL    HW117096   2.425   5.585   6.865
 5399SOL    HW217097   2.473   5.711   6.771
 5400SOL     OW17098   2.665   3.786   0.830
 5400SOL    HW117099   2.744   3.750   0.880
 5400SOL    HW217100   2.595   3.715   0.824
 5401SOL     OW17101   5.773   3.857   1.687
 5401SOL    HW117102   5.699   3.912   1.725
 5401SOL    HW217103   5.760   3.761   1.713
 5402SOL     OW17104   2.157   4.489   1.693
 5402SOL    HW117105   2.237   4.540   1.725
 5402SOL    HW217106   2.182   4.394   1.677
 5403SOL     OW17107   6.340   2.558   6.293
 5403SOL    HW117108   6.323   2.655   6.279
 5403SOL    HW217109   6.259   2.516   6.333
 5404SOL     OW17110   0.807   1.488   2.710
 5404SOL    HW117111   0.901   1.465   2.738
 5404SOL    HW217112   0.806   1.579   2.668
 5405SOL     OW17113   5.966   5.651   6.956
 5405SOL    HW117114   5.909   5.723   6.915
 5405SOL    HW217115   5.908   5.589   7.008
 5406SOL     OW17116   2.309   0.481   0.090
 5406SOL    HW117117   2.215   0.460   0.117
 5406SOL    HW217118   2.372   0.449   0.162
 5407SOL     OW17119   4.361   2.934   0.976
 5407SOL    HW117120   4.321   2.893   1.058
 5407SOL    HW217121   4.444   2.983   1.000
 5408SOL     OW17122   3.264   1.322   6.691
 5408SOL    HW117123   3.258   1.278   6.780
 5408SOL    HW217124   3.186   1.383   6.678
 5409SOL     OW17125   5.801   0.910   3.744
 5409SOL    HW117126   5.849   0.827   3.715
 5409SOL    HW217127   5.718   0.885   3.792
 5410SOL     OW17128   2.681   2.182   1.206
 5410SOL    HW117129   2.605   2.228   1.160
 5410SOL    HW217130   2.767   2.205   1.159
 5411SOL     OW17131   6.445   5.533   5.330
 5411SOL    HW117132   6.510   5.458   5.345
 5411SOL    HW217133   6.416   5.532   5.235
 5412SOL     OW17134   4.188   1.134   6.983
 5412SOL    HW117135   4.223   1.205   0.025
 5412SOL    HW217136   4.137   1.067   0.019
 5413SOL     OW17137   2.240   1.646   1.329
 5413SOL    HW117138   2.266   1.710   1.256
 5413SOL    HW217139   2.233   1.695   1.416
 5414SOL     OW17140   4.768   2.254   4.784
 5414SOL    HW117141   4.862   2.228   4.803
 5414SOL    HW217142   4.737   2.319   4.854
 5415SOL     OW17143   1.624   5.529   0.683
 5415SOL    HW117144   1.547   5.466   0.698
 5415SOL    HW217145   1.644   5.577   0.769
 5416SOL     OW17146   4.703   5.260   6.137
 5416SOL    HW117147   4.773   5.326   6.110
 5416SOL    HW217148   4.684   5.199   6.060
 5417SOL     OW17149   4.051   6.631   5.171
 5417SOL    HW117150   4.137   6.679   5.189
 5417SOL    HW217151   4.021   6.584   5.254
 5418SOL     OW17152   3.557   6.521   3.709
 5418SOL    HW117153   3.511   6.442   3.748
 5418SOL    HW217154   3.509   6.604   3.735
 5419SOL     OW17155   3.237   4.920   0.515
 5419SOL    HW117156   3.170   4.881   0.579
 5419SOL    HW217157   3.278   5.001   0.556
 5420SOL     OW17158   1.169   2.494   2.254
 5420SOL    HW117159   1.216   2.439   2.323
 5420SOL    HW217160   1.227   2.501   2.173
 5421SOL     OW17161   2.313   2.764   2.746
 5421SOL    HW117162   2.238   2.698   2.745
 5421SOL    HW217163   2.362   2.761   2.659
 5422SOL     OW17164   0.376   5.573   0.118
 5422SOL    HW117165   0.449   5.561   0.051
 5422SOL    HW217166   0.289   5.543   0.078
 5423SOL     OW17167   6.137   2.599   6.975
 5423SOL    HW117168   6.133   2.514   6.921
 5423SOL    HW217169   6.224   2.604   0.004
 5424SOL     OW17170   5.356   3.298   4.148
 5424SOL    HW117171   5.367   3.251   4.236
 5424SOL    HW217172   5.443   3.296   4.099
 5425SOL     OW17173   4.050   1.320   3.829
 5425SOL    HW117174   4.056   1.321   3.729
 5425SOL    HW217175   3.961   1.283   3.856
 5426SOL     OW17176   6.757   5.193   3.712
 5426SOL    HW117177   6.783   5.289   3.723
 5426SOL    HW217178   6.838   5.135   3.720
 5427SOL     OW17179   4.517   4.758   6.832
 5427SOL    HW117180   4.596   4.803   6.791
 5427SOL    HW217181   4.546   4.704   6.911
 5428SOL     OW17182   6.826   6.606   1.595
 5428SOL    HW117183   6.909   6.624   1.649
 5428SOL    HW217184   6.842   6.634   1.500
 5429SOL     OW17185   1.654   1.755   6.808
 5429SOL    HW117186   1.726   1.814   6.770
 5429SOL    HW217187   1.661   1.755   6.908
 5430SOL     OW17188   0.462   2.984   6.148
 5430SOL    HW117189   0.401   3.059   6.174
 5430SOL    HW217190   0.526   3.015   6.078
 5431SOL     OW17191   3.314   5.914   0.446
 5431SOL    HW117192   3.347   5.936   0.354
 5431SOL    HW217193   3.221   5.880   0.440
 5432SOL     OW17194   5.238   6.707   6.839
 5432SOL    HW117195   5.309   6.773   6.864
 5432SOL    HW217196   5.280   6.628   6.795
 5433SOL     OW17197   0.445   1.821   4.115
 5433SOL    HW117198   0.410   1.804   4.207
 5433SOL    HW217199   0.378   1.790   4.047
 5434SOL     OW17200   4.061   0.726   5.515
 5434SOL    HW117201   4.093   0.811   5.473
 5434SOL    HW217202   4.000   0.678   5.452
 5435SOL     OW17203   4.843   0.970   1.792
 5435SOL    HW117204   4.828   1.013   1.704
 5435SOL    HW217205   4.939   0.982   1.819
 5436SOL     OW17206   5.447   4.153   4.081
 5436SOL    HW117207   5.405   4.223   4.023
 5436SOL    HW217208   5.461   4.070   4.028
 5437SOL     OW17209   3.132   4.730   6.103
 5437SOL    HW117210   3.212   4.789   6.113
 5437SOL    HW217211   3.116   4.680   6.189
 5438SOL     OW17212   6.563   3.686   2.586
 5438SOL    HW117213   6.636   3.688   2.655
 5438SOL    HW217214   6.484   3.637   2.623
 5439SOL     OW17215   1.043   2.414   0.631
 5439SOL    HW117216   1.089   2.348   0.571
 5439SOL    HW217217   0.993   2.481   0.576
 5440SOL     OW17218   0.784   1.091   1.714
 5440SOL    HW117219   0.757   1.178   1.674
 5440SOL    HW217220   0.883   1.090   1.728
 5441SOL     OW17221   5.305   2.454   2.869
 5441SOL    HW117222   5.348   2.491   2.787
 5441SOL    HW217223   5.376   2.427   2.935
 5442SOL     OW17224   2.897   5.684   3.561
 5442SOL    HW117225   2.961   5.745   3.608
 5442SOL    HW217226   2.942   5.643   3.482
 5443SOL     OW17227   2.428   0.602   3.886
 5443SOL    HW117228   2.465   0.513   3.856
 5443SOL    HW217229   2.502   0.670   3.887
 5444SOL     OW17230   1.983   0.657   4.720
 5444SOL    HW117231   1.930   0.633   4.639
 5444SOL    HW217232   1.965   0.590   4.792
 5445SOL     OW17233   5.894   3.773   3.595
 5445SOL    HW117234   5.894   3.765   3.495
 5445SOL    HW217235   5.802   3.790   3.628
 5446SOL     OW17236   6.758   5.140   5.037
 5446SOL    HW117237   6.776   5.042   5.031
 5446SOL    HW217238   6.842   5.190   5.017
 5447SOL     OW17239   2.373   1.541   6.530
 5447SOL    HW117240   2.315   1.622   6.529
 5447SOL    HW217241   2.399   1.518   6.437
 5448SOL     OW17242   4.652   2.717   5.136
 5448SOL    HW117243   4.751   2.703   5.148
 5448SOL    HW217244   4.616   2.765   5.216
 5449SOL     OW17245   1.732   2.819   6.395
 5449SOL    HW117246   1.684   2.747   6.446
 5449SOL    HW217247   1.665   2.882   6.355
 5450SOL     OW17248   1.503   0.336   1.924
 5450SOL    HW117249   1.520   0.420   1.871
 5450SOL    HW217250   1.415   0.297   1.897
 5451SOL     OW17251   1.402   6.389   3.315
 5451SOL    HW117252   1.333   6.444   3.361
 5451SOL    HW217253   1.493   6.429   3.329
 5452SOL     OW17254   2.168   4.447   6.887
 5452SOL    HW117255   2.136   4.451   6.793
 5452SOL    HW217256   2.167   4.539   6.926
 5453SOL     OW17257   5.699   4.830   1.625
 5453SOL    HW117258   5.629   4.797   1.562
 5453SOL    HW217259   5.684   4.790   1.715
 5454SOL     OW17260   6.973   4.091   6.609
 5454SOL    HW117261   0.033   4.152   6.620
 5454SOL    HW217262   6.912   4.127   6.538
 5455SOL     OW17263   6.293   3.435   0.643
 5455SOL    HW117264   6.347   3.416   0.725
 5455SOL    HW217265   6.203   3.392   0.651
 5456SOL     OW17266   3.614   0.308   0.125
 5456SOL    HW117267   3.575   0.216   0.118
 5456SOL    HW217268   3.671   0.326   0.044
 5457SOL     OW17269   5.951   2.416   0.306
 5457SOL    HW117270   5.857   2.444   0.323
 5457SOL    HW217271   5.953   2.346   0.234
 5458SOL     OW17272   0.646   4.875   0.083
 5458SOL    HW117273   0.657   4.792   0.139
 5458SOL    HW217274   0.638   4.850   7.005
 5459SOL     OW17275   2.312   4.086   6.883
 5459SOL    HW117276   2.247   4.148   6.927
 5459SOL    HW217277   2.323   4.113   6.787
 5460SOL     OW17278   3.437   0.169   2.820
 5460SOL    HW117279   3.415   0.191   2.915
 5460SOL    HW217280   3.440   0.253   2.766
 5461SOL     OW17281   5.855   6.695   5.020
 5461SOL    HW117282   5.931   6.751   5.055
 5461SOL    HW217283   5.861   6.690   4.920
 5462SOL     OW17284   1.145   0.374   6.605
 5462SOL    HW117285   1.060   0.398   6.653
 5462SOL    HW217286   1.196   0.458   6.585
 5463SOL     OW17287   6.696   2.336   0.082
 5463SOL    HW117288   6.754   2.414   0.061
 5463SOL    HW217289   6.679   2.331   0.180
 5464SOL     OW17290   1.377   1.336   4.012
 5464SOL    HW117291   1.375   1.434   4.030
 5464SOL    HW217292   1.447   1.315   3.943
 5465SOL     OW17293   4.002   6.354   3.268
 5465SOL    HW117294   4.060   6.395   3.338
 5465SOL    HW217295   4.011   6.406   3.182
 5466SOL     OW17296   5.568   4.179   5.376
 5466SOL    HW117297   5.650   4.122   5.368
 5466SOL    HW217298   5.585   4.251   5.444
 5467SOL     OW17299   5.205   2.901   2.807
 5467SOL    HW117300   5.293   2.864   2.836
 5467SOL    HW217301   5.188   2.988   2.854
 5468SOL     OW17302   5.330   2.301   4.486
 5468SOL    HW117303   5.243   2.344   4.511
 5468SOL    HW217304   5.401   2.328   4.551
 5469SOL     OW17305   3.831   5.296   6.425
 5469SOL    HW117306   3.832   5.253   6.515
 5469SOL    HW217307   3.750   5.265   6.374
 5470SOL     OW17308   3.204   5.923   2.572
 5470SOL    HW117309   3.292   5.967   2.591
 5470SOL    HW217310   3.208   5.828   2.602
 5471SOL     OW17311   4.980   0.122   2.456
 5471SOL    HW117312   4.921   0.153   2.530
 5471SOL    HW217313   4.964   0.025   2.437
 5472SOL     OW17314   3.997   3.593   5.959
 5472SOL    HW117315   4.003   3.493   5.952
 5472SOL    HW217316   4.045   3.635   5.882
 5473SOL     OW17317   0.220   3.471   3.263
 5473SOL    HW117318   0.183   3.460   3.171
 5473SOL    HW217319   0.232   3.382   3.305
 5474SOL     OW17320   1.682   4.180   4.876
 5474SOL    HW117321   1.675   4.266   4.825
 5474SOL    HW217322   1.778   4.162   4.898
 5475SOL     OW17323   2.448   2.322   1.419
 5475SOL    HW117324   2.492   2.278   1.497
 5475SOL    HW217325   2.431   2.418   1.440
 5476SOL     OW17326   1.866   4.287   5.454
 5476SOL    HW117327   1.915   4.208   5.492
 5476SOL    HW217328   1.920   4.369   5.469
 5477SOL     OW17329   2.225   4.502   3.362
 5477SOL    HW117330   2.312   4.507   3.313
 5477SOL    HW217331   2.229   4.427   3.428
 5478SOL     OW17332   4.394   5.016   5.362
 5478SOL    HW117333   4.375   5.007   5.460
 5478SOL    HW217334   4.315   4.985   5.310
 5479SOL     OW17335   4.788   1.375   6.505
 5479SOL    HW117336   4.807   1.281   6.476
 5479SOL    HW217337   4.842   1.396   6.587
 5480SOL     OW17338   0.096   3.848   3.584
 5480SOL    HW117339   0.110   3.810   3.492
 5480SOL    HW217340   0.184   3.858   3.629
 5481SOL     OW17341   4.380   1.311   4.001
 5481SOL    HW117342   4.460   1.369   3.984
 5481SOL    HW217343   4.297   1.364   3.983
 5482SOL     OW17344   3.730   4.493   1.597
 5482SOL    HW117345   3.793   4.553   1.646
 5482SOL    HW217346   3.638   4.505   1.633
 5483SOL     OW17347   0.058   2.230   5.748
 5483SOL    HW117348   7.009   2.239   5.674
 5483SOL    HW217349   0.147   2.261   5.714
 5484SOL     OW17350   4.736   0.852   4.820
 5484SOL    HW117351   4.724   0.946   4.851
 5484SOL    HW217352   4.827   0.819   4.846
 5485SOL     OW17353   4.177   0.054   5.288
 5485SOL    HW117354   4.100   0.037   5.350
 5485SOL    HW217355   4.147   0.115   5.214
 5486SOL     OW17356   2.876   5.986   5.812
 5486SOL    HW117357   2.878   6.008   5.910
 5486SOL    HW217358   2.783   5.962   5.785
 5487SOL     OW17359   3.707   3.626   6.792
 5487SOL    HW117360   3.755   3.556   6.738
 5487SOL    HW217361   3.755   3.641   6.878
 5488SOL     OW17362   6.258   0.576   1.181
 5488SOL    HW117363   6.296   0.667   1.165
 5488SOL    HW217364   6.175   0.565   1.127
 5489SOL     OW17365   6.681   3.580   1.293
 5489SOL    HW117366   6.649   3.664   1.337
 5489SOL    HW217367   6.673   3.504   1.357
 5490SOL     OW17368   2.093   0.010   2.401
 5490SOL    HW117369   2.018   0.055   2.450
 5490SOL    HW217370   2.104   0.053   2.311
 5491SOL     OW17371   0.394   3.198   0.528
 5491SOL    HW117372   0.345   3.113   0.510
 5491SOL    HW217373   0.493   3.180   0.527
 5492SOL     OW17374   1.043   2.883   5.708
 5492SOL    HW117375   0.968   2.856   5.768
 5492SOL    HW217376   1.033   2.979   5.682
 5493SOL     OW17377   4.122   3.647   2.956
 5493SOL    HW117378   4.119   3.655   3.056
 5493SOL    HW217379   4.174   3.565   2.931
 5494SOL     OW17380   6.795   4.071   5.207
 5494SOL    HW117381   6.707   4.024   5.195
 5494SOL    HW217382   6.869   4.010   5.180
 5495SOL     OW17383   5.577   0.731   1.137
 5495SOL    HW117384   5.589   0.635   1.111
 5495SOL    HW217385   5.482   0.759   1.121
 5496SOL     OW17386   4.298   0.747   3.651
 5496SOL    HW117387   4.269   0.701   3.735
 5496SOL    HW217388   4.381   0.702   3.616
 5497SOL     OW17389   0.047   1.283   5.547
 5497SOL    HW117390   0.109   1.314   5.475
 5497SOL    HW217391   0.092   1.214   5.602
 5498SOL     OW17392   0.187   5.102   2.156
 5498SOL    HW117393   0.127   5.041   2.208
 5498SOL    HW217394   0.282   5.077   2.173
 5499SOL     OW17395   0.924   0.894   3.772
 5499SOL    HW117396   0.873   0.929   3.693
 5499SOL    HW217397   0.898   0.944   3.854
 5500SOL     OW17398   1.412   0.144   0.235
 5500SOL    HW117399   1.479   0.070   0.243
 5500SOL    HW217400   1.454   0.220   0.185
 5501SOL     OW17401   3.975   2.101   0.822
 5501SOL    HW117402   3.962   2.003   0.804
 5501SOL    HW217403   3.893   2.151   0.793
 5502SOL     OW17404   5.520   3.590   6.383
 5502SOL    HW117405   5.440   3.553   6.336
 5502SOL    HW217406   5.533   3.542   6.470
 5503SOL     OW17407   0.145   4.471   0.932
 5503SOL    HW117408   0.241   4.443   0.923
 5503SOL    HW217409   0.136   4.568   0.907
 5504SOL     OW17410   4.160   1.352   5.348
 5504SOL    HW117411   4.224   1.275   5.359
 5504SOL    HW217412   4.084   1.341   5.412
 5505SOL     OW17413   2.305   4.771   3.384
 5505SOL    HW117414   2.305   4.815   3.295
 5505SOL    HW217415   2.243   4.693   3.383
 5506SOL     OW17416   0.105   3.228   0.246
 5506SOL    HW117417   0.128   3.273   0.159
 5506SOL    HW217418   0.171   3.156   0.265
 5507SOL     OW17419   3.701   0.730   5.534
 5507SOL    HW117420   3.771   0.800   5.516
 5507SOL    HW217421   3.664   0.742   5.626
 5508SOL     OW17422   1.006   0.423   7.012
 5508SOL    HW117423   1.093   0.384   0.026
 5508SOL    HW217424   0.933   0.356   0.003
 5509SOL     OW17425   0.340   5.725   0.687
 5509SOL    HW117426   0.422   5.683   0.726
 5509SOL    HW217427   0.333   5.702   0.590
 5510SOL     OW17428   5.020   5.039   6.582
 5510SOL    HW117429   5.037   5.063   6.677
 5510SOL    HW217430   5.101   5.060   6.527
 5511SOL     OW17431   1.132   1.266   5.100
 5511SOL    HW117432   1.113   1.356   5.140
 5511SOL    HW217433   1.208   1.272   5.037
 5512SOL     OW17434   3.166   1.261   0.727
 5512SOL    HW117435   3.171   1.326   0.803
 5512SOL    HW217436   3.108   1.184   0.753
 5513SOL     OW17437   3.119   5.220   5.676
 5513SOL    HW117438   3.207   5.173   5.675
 5513SOL    HW217439   3.046   5.153   5.664
 5514SOL     OW17440   3.463   0.060   5.488
 5514SOL    HW117441   3.546   0.112   5.465
 5514SOL    HW217442   3.458   6.997   5.432
 5515SOL     OW17443   1.713   5.748   1.920
 5515SOL    HW117444   1.690   5.670   1.978
 5515SOL    HW217445   1.629   5.787   1.882
 5516SOL     OW17446   2.380   2.762   4.862
 5516SOL    HW117447   2.362   2.817   4.944
 5516SOL    HW217448   2.404   2.823   4.786
 5517SOL     OW17449   2.073   3.645   1.933
 5517SOL    HW117450   1.988   3.627   1.983
 5517SOL    HW217451   2.137   3.569   1.948
 5518SOL     OW17452   6.314   4.539   5.493
 5518SOL    HW117453   6.319   4.551   5.592
 5518SOL    HW217454   6.384   4.474   5.463
 5519SOL     OW17455   5.590   3.118   3.649
 5519SOL    HW117456   5.649   3.183   3.601
 5519SOL    HW217457   5.582   3.034   3.595
 5520SOL     OW17458   5.373   6.300   2.482
 5520SOL    HW117459   5.375   6.396   2.510
 5520SOL    HW217460   5.389   6.294   2.384
 5521SOL     OW17461   5.593   5.939   1.336
 5521SOL    HW117462   5.569   6.020   1.282
 5521SOL    HW217463   5.646   5.876   1.280
 5522SOL     OW17464   6.585   5.127   1.651
 5522SOL    HW117465   6.566   5.200   1.586
 5522SOL    HW217466   6.640   5.056   1.606
 5523SOL     OW17467   4.741   1.003   2.438
 5523SOL    HW117468   4.729   1.088   2.388
 5523SOL    HW217469   4.748   1.022   2.536
 5524SOL     OW17470   3.636   6.791   5.002
 5524SOL    HW117471   3.597   6.878   5.034
 5524SOL    HW217472   3.735   6.795   5.006
 5525SOL     OW17473   0.392   2.515   0.103
 5525SOL    HW117474   0.328   2.454   0.150
 5525SOL    HW217475   0.411   2.479   0.012
 5526SOL     OW17476   4.546   4.483   2.719
 5526SOL    HW117477   4.514   4.486   2.814
 5526SOL    HW217478   4.482   4.533   2.661
 5527SOL     OW17479   4.924   3.767   3.645
 5527SOL    HW117480   4.975   3.776   3.559
 5527SOL    HW217481   4.922   3.672   3.673
 5528SOL     OW17482   1.507   1.441   1.470
 5528SOL    HW117483   1.451   1.459   1.551
 5528SOL    HW217484   1.595   1.404   1.498
 5529SOL     OW17485   2.835   6.909   3.622
 5529SOL    HW117486   2.756   6.956   3.583
 5529SOL    HW217487   2.825   6.810   3.607
 5530SOL     OW17488   6.771   2.402   1.902
 5530SOL    HW117489   6.795   2.328   1.840
 5530SOL    HW217490   6.680   2.436   1.880
 5531SOL     OW17491   4.087   3.908   1.598
 5531SOL    HW117492   4.168   3.883   1.652
 5531SOL    HW217493   4.004   3.889   1.651
 5532SOL     OW17494   1.850   2.788   0.881
 5532SOL    HW117495   1.913   2.819   0.809
 5532SOL    HW217496   1.888   2.707   0.925
 5533SOL     OW17497   4.897   1.791   4.064
 5533SOL    HW117498   4.985   1.765   4.104
 5533SOL    HW217499   4.883   1.740   3.979
 5534SOL     OW17500   0.909   1.302   6.082
 5534SOL    HW117501   0.956   1.295   5.994
 5534SOL    HW217502   0.868   1.214   6.105
 5535SOL     OW17503   0.771   1.228   2.555
 5535SOL    HW117504   0.749   1.302   2.619
 5535SOL    HW217505   0.817   1.266   2.475
 5536SOL     OW17506   3.666   0.665   4.620
 5536SOL    HW117507   3.608   0.745   4.605
 5536SOL    HW217508   3.637   0.591   4.558
 5537SOL     OW17509   4.121   1.480   2.698
 5537SOL    HW117510   4.057   1.557   2.707
 5537SOL    HW217511   4.082   1.411   2.637
 5538SOL     OW17512   4.281   6.151   4.432
 5538SOL    HW117513   4.185   6.142   4.457
 5538SOL    HW217514   4.305   6.247   4.422
 5539SOL     OW17515   1.707   3.447   1.199
 5539SOL    HW117516   1.710   3.348   1.210
 5539SOL    HW217517   1.789   3.488   1.241
 5540SOL     OW17518   4.803   4.811   3.682
 5540SOL    HW117519   4.889   4.824   3.633
 5540SOL    HW217520   4.822   4.771   3.772
 5541SOL     OW17521   4.176   1.368   6.225
 5541SOL    HW117522   4.216   1.365   6.316
 5541SOL    HW217523   4.103   1.299   6.218
 5542SOL     OW17524   4.119   3.444   6.172
 5542SOL    HW117525   4.128   3.346   6.152
 5542SOL    HW217526   4.062   3.456   6.252
 5543SOL     OW17527   5.565   4.043   6.904
 5543SOL    HW117528   5.499   3.989   6.852
 5543SOL    HW217529   5.535   4.050   6.999
 5544SOL     OW17530   5.329   0.904   6.116
 5544SOL    HW117531   5.331   0.877   6.212
 5544SOL    HW217532   5.334   0.823   6.058
 5545SOL     OW17533   4.183   2.179   2.625
 5545SOL    HW117534   4.161   2.153   2.531
 5545SOL    HW217535   4.274   2.222   2.627
 5546SOL     OW17536   1.468   5.376   5.512
 5546SOL    HW117537   1.524   5.425   5.445
 5546SOL    HW217538   1.475   5.278   5.497
 5547SOL     OW17539   3.222   5.736   4.991
 5547SOL    HW117540   3.224   5.835   5.007
 5547SOL    HW217541   3.202   5.719   4.894
 5548SOL     OW17542   6.362   3.245   5.683
 5548SOL    HW117543   6.359   3.290   5.772
 5548SOL    HW217544   6.309   3.299   5.617
 5549SOL     OW17545   3.221   5.123   0.002
 5549SOL    HW117546   3.234   5.222   7.009
 5549SOL    HW217547   3.310   5.078   0.009
 5550SOL     OW17548   2.368   5.937   1.765
 5550SOL    HW117549   2.281   5.986   1.754
 5550SOL    HW217550   2.363   5.850   1.717
 5551SOL     OW17551   1.473   0.564   3.455
 5551SOL    HW117552   1.508   0.635   3.517
 5551SOL    HW217553   1.498   0.474   3.491
 5552SOL     OW17554   0.428   1.392   0.920
 5552SOL    HW117555   0.343   1.426   0.959
 5552SOL    HW217556   0.489   1.361   0.994
 5553SOL     OW17557   4.474   6.526   0.039
 5553SOL    HW117558   4.507   6.550   6.967
 5553SOL    HW217559   4.458   6.609   0.093
 5554SOL     OW17560   2.993   2.425   5.365
 5554SOL    HW117561   2.990   2.525   5.365
 5554SOL    HW217562   3.072   2.394   5.312
 5555SOL     OW17563   0.365   5.475   3.305
 5555SOL    HW117564   0.393   5.396   3.249
 5555SOL    HW217565   0.355   5.446   3.400
 5556SOL     OW17566   1.099   1.957   4.997
 5556SOL    HW117567   1.070   2.019   5.070
 5556SOL    HW217568   1.022   1.900   4.969
 5557SOL     OW17569   2.207   6.190   3.890
 5557SOL    HW117570   2.118   6.145   3.906
 5557SOL    HW217571   2.199   6.287   3.912
 5558SOL     OW17572   5.177   2.995   5.256
 5558SOL    HW117573   5.264   2.945   5.253
 5558SOL    HW217574   5.172   3.058   5.178
 5559SOL     OW17575   2.434   6.873   0.954
 5559SOL    HW117576   2.417   6.964   0.915
 5559SOL    HW217577   2.521   6.837   0.919
 5560SOL     OW17578   0.537   1.006   3.172
 5560SOL    HW117579   0.535   1.105   3.188
 5560SOL    HW217580   0.465   0.982   3.106
 5561SOL     OW17581   1.543   3.345   3.429
 5561SOL    HW117582   1.491   3.421   3.391
 5561SOL    HW217583   1.483   3.288   3.484
 5562SOL     OW17584   2.269   2.961   6.091
 5562SOL    HW117585   2.221   2.976   6.177
 5562SOL    HW217586   2.223   2.889   6.039
 5563SOL     OW17587   4.307   6.085   2.266
 5563SOL    HW117588   4.281   6.163   2.324
 5563SOL    HW217589   4.225   6.033   2.241
 5564SOL     OW17590   4.915   4.359   1.590
 5564SOL    HW117591   4.874   4.301   1.661
 5564SOL    HW217592   4.855   4.436   1.572
 5565SOL     OW17593   4.041   2.272   5.672
 5565SOL    HW117594   3.967   2.205   5.664
 5565SOL    HW217595   4.018   2.338   5.743
 5566SOL     OW17596   2.092   5.160   0.633
 5566SOL    HW117597   2.047   5.147   0.544
 5566SOL    HW217598   2.037   5.223   0.688
 5567SOL     OW17599   1.792   5.532   1.282
 5567SOL    HW117600   1.860   5.511   1.353
 5567SOL    HW217601   1.779   5.452   1.224
 5568SOL     OW17602   4.342   1.227   1.121
 5568SOL    HW117603   4.277   1.281   1.068
 5568SOL    HW217604   4.302   1.138   1.141
 5569SOL     OW17605   4.391   1.720   1.403
 5569SOL    HW117606   4.341   1.721   1.316
 5569SOL    HW217607   4.397   1.627   1.437
 5570SOL     OW17608   6.653   4.519   5.058
 5570SOL    HW117609   6.689   4.493   4.968
 5570SOL    HW217610   6.725   4.562   5.112
 5571SOL     OW17611   6.708   5.837   0.387
 5571SOL    HW117612   6.735   5.926   0.349
 5571SOL    HW217613   6.682   5.849   0.483
 5572SOL     OW17614   4.075   2.426   6.223
 5572SOL    HW117615   4.074   2.333   6.186
 5572SOL    HW217616   4.115   2.488   6.155
 5573SOL     OW17617   1.230   3.708   0.779
 5573SOL    HW117618   1.148   3.705   0.837
 5573SOL    HW217619   1.204   3.691   0.684
 5574SOL     OW17620   0.441   6.568   4.748
 5574SOL    HW117621   0.378   6.611   4.812
 5574SOL    HW217622   0.507   6.636   4.714
 5575SOL     OW17623   1.203   1.219   1.005
 5575SOL    HW117624   1.279   1.253   0.949
 5575SOL    HW217625   1.204   1.119   1.005
 5576SOL     OW17626   5.734   5.781   0.423
 5576SOL    HW117627   5.670   5.786   0.500
 5576SOL    HW217628   5.827   5.781   0.457
 5577SOL     OW17629   2.128   3.717   5.486
 5577SOL    HW117630   2.169   3.755   5.403
 5577SOL    HW217631   2.028   3.720   5.478
 5578SOL     OW17632   4.337   2.545   0.469
 5578SOL    HW117633   4.310   2.640   0.487
 5578SOL    HW217634   4.430   2.530   0.504
 5579SOL     OW17635   5.431   3.816   0.019
 5579SOL    HW117636   5.467   3.778   0.105
 5579SOL    HW217637   5.341   3.857   0.036
 5580SOL     OW17638   5.399   0.883   0.451
 5580SOL    HW117639   5.439   0.937   0.525
 5580SOL    HW217640   5.342   0.943   0.394
 5581SOL     OW17641   2.289   0.589   6.421
 5581SOL    HW117642   2.220   0.535   6.469
 5581SOL    HW217643   2.376   0.539   6.421
 5582SOL     OW17644   3.720   3.379   3.612
 5582SOL    HW117645   3.765   3.467   3.596
 5582SOL    HW217646   3.788   3.306   3.610
 5583SOL     OW17647   3.357   6.967   1.843
 5583SOL    HW117648   3.278   6.906   1.848
 5583SOL    HW217649   3.431   6.932   1.899
 5584SOL     OW17650   6.634   4.039   2.840
 5584SOL    HW117651   6.702   4.057   2.911
 5584SOL    HW217652   6.590   3.951   2.858
 5585SOL     OW17653   6.368   0.583   4.067
 5585SOL    HW117654   6.408   0.516   4.130
 5585SOL    HW217655   6.378   0.550   3.973
 5586SOL     OW17656   2.388   1.181   5.835
 5586SOL    HW117657   2.443   1.128   5.899
 5586SOL    HW217658   2.419   1.276   5.834
 5587SOL     OW17659   4.128   0.272   3.396
 5587SOL    HW117660   4.142   0.273   3.297
 5587SOL    HW217661   4.045   0.324   3.418
 5588SOL     OW17662   2.578   0.109   5.362
 5588SOL    HW117663   2.602   0.012   5.375
 5588SOL    HW217664   2.632   0.147   5.287
 5589SOL     OW17665   4.778   2.909   6.270
 5589SOL    HW117666   4.690   2.949   6.296
 5589SOL    HW217667   4.793   2.825   6.322
 5590SOL     OW17668   0.004   5.978   4.871
 5590SOL    HW117669   6.957   5.946   4.803
 5590SOL    HW217670   0.046   5.898   4.916
 5591SOL     OW17671   5.411   0.371   0.073
 5591SOL    HW117672   5.504   0.390   0.104
 5591SOL    HW217673   5.357   0.455   0.078
 5592SOL     OW17674   1.861   3.685   2.627
 5592SOL    HW117675   1.931   3.717   2.691
 5592SOL    HW217676   1.774   3.675   2.674
 5593SOL     OW17677   1.758   2.689   5.963
 5593SOL    HW117678   1.836   2.704   6.024
 5593SOL    HW217679   1.706   2.610   5.995
 5594SOL     OW17680   2.194   0.120   0.514
 5594SOL    HW117681   2.168   0.075   0.429
 5594SOL    HW217682   2.179   0.058   0.591
 5595SOL     OW17683   6.769   1.604   5.892
 5595SOL    HW117684   6.796   1.573   5.983
 5595SOL    HW217685   6.838   1.577   5.825
 5596SOL     OW17686   5.263   0.611   2.606
 5596SOL    HW117687   5.306   0.647   2.689
 5596SOL    HW217688   5.308   0.527   2.578
 5597SOL     OW17689   6.430   1.365   6.442
 5597SOL    HW117690   6.396   1.446   6.491
 5597SOL    HW217691   6.461   1.297   6.508
 5598SOL     OW17692   5.961   1.976   3.813
 5598SOL    HW117693   5.929   1.882   3.801
 5598SOL    HW217694   6.003   1.986   3.903
 5599SOL     OW17695   4.841   4.108   2.146
 5599SOL    HW117696   4.910   4.117   2.074
 5599SOL    HW217697   4.791   4.194   2.155
 5600SOL     OW17698   2.569   1.362   2.814
 5600SOL    HW117699   2.489   1.383   2.871
 5600SOL    HW217700   2.587   1.440   2.753
 5601SOL     OW17701   5.285   2.982   5.843
 5601SOL    HW117702   5.259   3.031   5.760
 5601SOL    HW217703   5.283   2.883   5.826
 5602SOL     OW17704   0.581   2.577   3.131
 5602SOL    HW117705   0.665   2.547   3.177
 5602SOL    HW217706   0.527   2.632   3.195
 5603SOL     OW17707   4.070   2.222   4.485
 5603SOL    HW117708   4.145   2.287   4.490
 5603SOL    HW217709   4.092   2.150   4.419
 5604SOL     OW17710   0.496   0.153   3.624
 5604SOL    HW117711   0.592   0.156   3.595
 5604SOL    HW217712   0.484   0.211   3.705
 5605SOL     OW17713   2.500   5.897   4.633
 5605SOL    HW117714   2.419   5.942   4.668
 5605SOL    HW217715   2.482   5.800   4.620
 5606SOL     OW17716   4.546   2.267   0.470
 5606SOL    HW117717   4.462   2.226   0.433
 5606SOL    HW217718   4.586   2.327   0.401
 5607SOL     OW17719   5.919   2.863   2.064
 5607SOL    HW117720   5.926   2.925   1.986
 5607SOL    HW217721   5.983   2.787   2.052
 5608SOL     OW17722   4.614   1.154   3.755
 5608SOL    HW117723   4.702   1.134   3.711
 5608SOL    HW217724   4.584   1.074   3.806
 5609SOL     OW17725   6.357   6.729   0.818
 5609SOL    HW117726   6.342   6.655   0.883
 5609SOL    HW217727   6.312   6.707   0.731
 5610SOL     OW17728   5.267   4.563   0.080
 5610SOL    HW117729   5.350   4.526   0.039
 5610SOL    HW217730   5.233   4.499   0.149
 5611SOL     OW17731   6.932   5.286   1.859
 5611SOL    HW117732   6.936   5.305   1.957
 5611SOL    HW217733   6.893   5.364   1.811
 5612SOL     OW17734   2.720   0.774   0.822
 5612SOL    HW117735   2.701   0.757   0.919
 5612SOL    HW217736   2.747   0.688   0.779
 5613SOL     OW17737   6.644   5.370   4.906
 5613SOL    HW117738   6.648   5.410   4.998
 5613SOL    HW217739   6.657   5.272   4.911
 5614SOL     OW17740   5.827   2.259   4.625
 5614SOL    HW117741   5.804   2.324   4.552
 5614SOL    HW217742   5.911   2.211   4.600
 5615SOL     OW17743   6.814   3.465   2.729
 5615SOL    HW117744   6.815   3.455   2.828
 5615SOL    HW217745   6.852   3.382   2.686
 5616SOL     OW17746   1.552   3.229   3.102
 5616SOL    HW117747   1.607   3.230   3.019
 5616SOL    HW217748   1.569   3.144   3.152
 5617SOL     OW17749   1.984   4.954   6.328
 5617SOL    HW117750   2.029   4.961   6.417
 5617SOL    HW217751   1.894   4.998   6.333
 5618SOL     OW17752   6.664   5.895   3.948
 5618SOL    HW117753   6.603   5.882   4.026
 5618SOL    HW217754   6.742   5.832   3.957
 5619SOL     OW17755   3.639   3.277   4.731
 5619SOL    HW117756   3.656   3.209   4.660
 5619SOL    HW217757   3.631   3.368   4.690
 5620SOL     OW17758   4.848   4.263   5.769
 5620SOL    HW117759   4.828   4.194   5.699
 5620SOL    HW217760   4.904   4.223   5.841
 5621SOL     OW17761   2.025   2.467   5.339
 5621SOL    HW117762   1.993   2.498   5.249
 5621SOL    HW217763   1.946   2.443   5.395
 5622SOL     OW17764   4.902   5.662   4.649
 5622SOL    HW117765   4.876   5.578   4.698
 5622SOL    HW217766   4.938   5.637   4.559
 5623SOL     OW17767   5.208   6.209   4.160
 5623SOL    HW117768   5.179   6.257   4.243
 5623SOL    HW217769   5.128   6.173   4.112
 5624SOL     OW17770   7.013   4.992   4.484
 5624SOL    HW117771   0.001   5.016   4.581
 5624SOL    HW217772   6.921   4.960   4.464
 5625SOL     OW17773   0.899   5.674   4.631
 5625SOL    HW117774   0.866   5.585   4.664
 5625SOL    HW217775   0.995   5.665   4.605
 5626SOL     OW17776   2.043   4.033   4.473
 5626SOL    HW117777   2.044   3.946   4.523
 5626SOL    HW217778   1.984   4.098   4.522
 5627SOL     OW17779   0.940   5.310   6.943
 5627SOL    HW117780   0.864   5.250   6.969
 5627SOL    HW217781   0.940   5.391   7.000
 5628SOL     OW17782   2.315   3.135   0.940
 5628SOL    HW117783   2.248   3.066   0.966
 5628SOL    HW217784   2.272   3.226   0.945
 5629SOL     OW17785   5.060   4.117   1.257
 5629SOL    HW117786   5.015   4.051   1.317
 5629SOL    HW217787   5.107   4.186   1.312
 5630SOL     OW17788   2.093   3.748   6.558
 5630SOL    HW117789   2.088   3.694   6.474
 5630SOL    HW217790   2.029   3.825   6.552
 5631SOL     OW17791   4.234   0.665   2.234
 5631SOL    HW117792   4.207   0.613   2.153
 5631SOL    HW217793   4.331   0.685   2.230
 5632SOL     OW17794   5.777   6.802   5.696
 5632SOL    HW117795   5.687   6.806   5.654
 5632SOL    HW217796   5.809   6.707   5.699
 5633SOL     OW17797   0.125   4.715   5.820
 5633SOL    HW117798   0.059   4.776   5.864
 5633SOL    HW217799   0.186   4.770   5.761
 5634SOL     OW17800   3.017   6.249   6.714
 5634SOL    HW117801   3.062   6.191   6.782
 5634SOL    HW217802   2.923   6.267   6.743
 5635SOL     OW17803   2.384   6.947   6.617
 5635SOL    HW117804   2.445   6.965   6.694
 5635SOL    HW217805   2.318   0.004   6.608
 5636SOL     OW17806   6.640   1.186   5.840
 5636SOL    HW117807   6.618   1.208   5.744
 5636SOL    HW217808   6.735   1.211   5.858
 5637SOL     OW17809   5.281   6.489   4.576
 5637SOL    HW117810   5.235   6.468   4.490
 5637SOL    HW217811   5.220   6.468   4.653
 5638SOL     OW17812   5.035   5.275   0.826
 5638SOL    HW117813   4.966   5.305   0.892
 5638SOL    HW217814   5.089   5.201   0.866
 5639SOL     OW17815   0.694   0.290   1.535
 5639SOL    HW117816   0.779   0.305   1.485
 5639SOL    HW217817   0.631   0.236   1.479
 5640SOL     OW17818   3.163   6.057   3.316
 5640SOL    HW117819   3.130   6.020   3.230
 5640SOL    HW217820   3.104   6.133   3.345
 5641SOL     OW17821   0.865   4.948   4.268
 5641SOL    HW117822   0.908   4.934   4.179
 5641SOL    HW217823   0.935   4.969   4.336
 5642SOL     OW17824   1.248   4.580   0.094
 5642SOL    HW117825   1.268   4.677   0.084
 5642SOL    HW217826   1.154   4.568   0.127
 5643SOL     OW17827   4.325   2.331   4.541
 5643SOL    HW117828   4.367   2.393   4.475
 5643SOL    HW217829   4.352   2.356   4.634
 5644SOL     OW17830   5.133   1.279   5.084
 5644SOL    HW117831   5.145   1.377   5.095
 5644SOL    HW217832   5.211   1.231   5.125
 5645SOL     OW17833   5.652   5.623   3.139
 5645SOL    HW117834   5.593   5.553   3.180
 5645SOL    HW217835   5.596   5.682   3.080
 5646SOL     OW17836   0.101   6.077   3.621
 5646SOL    HW117837   0.154   6.130   3.686
 5646SOL    HW217838   0.152   5.996   3.594
 5647SOL     OW17839   5.800   5.845   6.850
 5647SOL    HW117840   5.858   5.909   6.798
 5647SOL    HW217841   5.761   5.893   6.928
 5648SOL     OW17842   1.875   1.482   3.538
 5648SOL    HW117843   1.856   1.393   3.496
 5648SOL    HW217844   1.948   1.472   3.605
 5649SOL     OW17845   1.002   0.756   4.643
 5649SOL    HW117846   1.101   0.771   4.640
 5649SOL    HW217847   0.983   0.658   4.650
 5650SOL     OW17848   6.821   4.805   6.551
 5650SOL    HW117849   6.763   4.746   6.609
 5650SOL    HW217850   6.763   4.855   6.487
 5651SOL     OW17851   0.197   1.587   1.970
 5651SOL    HW117852   0.174   1.547   2.059
 5651SOL    HW217853   0.114   1.596   1.915
 5652SOL     OW17854   4.818   5.726   1.962
 5652SOL    HW117855   4.762   5.786   2.018
 5652SOL    HW217856   4.759   5.657   1.918
 5653SOL     OW17857   0.166   5.341   5.386
 5653SOL    HW117858   0.252   5.339   5.336
 5653SOL    HW217859   0.090   5.320   5.324
 5654SOL     OW17860   0.063   0.479   5.287
 5654SOL    HW117861   0.049   0.436   5.198
 5654SOL    HW217862   0.069   0.579   5.276
 5655SOL     OW17863   1.127   3.611   3.637
 5655SOL    HW117864   1.177   3.690   3.674
 5655SOL    HW217865   1.074   3.569   3.711
 5656SOL     OW17866   3.151   3.184   0.798
 5656SOL    HW117867   3.109   3.210   0.885
 5656SOL    HW217868   3.249   3.201   0.802
 5657SOL     OW17869   4.218   0.189   1.890
 5657SOL    HW117870   4.220   0.288   1.884
 5657SOL    HW217871   4.156   0.152   1.820
 5658SOL     OW17872   3.670   6.752   5.472
 5658SOL    HW117873   3.602   6.817   5.438
 5658SOL    HW217874   3.646   6.725   5.565
 5659SOL     OW17875   2.949   3.825   2.870
 5659SOL    HW117876   2.992   3.804   2.958
 5659SOL    HW217877   2.896   3.746   2.839
 5660SOL     OW17878   4.899   0.407   0.055
 5660SOL    HW117879   4.831   0.393   7.001
 5660SOL    HW217880   4.991   0.412   0.015
 5661SOL     OW17881   0.256   6.062   5.196
 5661SOL    HW117882   0.185   6.133   5.189
 5661SOL    HW217883   0.331   6.096   5.253
 5662SOL     OW17884   2.519   4.481   3.648
 5662SOL    HW117885   2.483   4.453   3.559
 5662SOL    HW217886   2.567   4.569   3.638
 5663SOL     OW17887   0.913   3.938   0.848
 5663SOL    HW117888   0.984   3.975   0.788
 5663SOL    HW217889   0.950   3.862   0.901
 5664SOL     OW17890   0.189   4.664   2.545
 5664SOL    HW117891   0.167   4.755   2.582
 5664SOL    HW217892   0.239   4.675   2.459
 5665SOL     OW17893   2.139   2.609   6.374
 5665SOL    HW117894   2.060   2.645   6.324
 5665SOL    HW217895   2.138   2.643   6.468
 5666SOL     OW17896   4.642   5.742   0.500
 5666SOL    HW117897   4.591   5.693   0.428
 5666SOL    HW217898   4.724   5.784   0.460
 5667SOL     OW17899   7.016   5.067   2.987
 5667SOL    HW117900   0.084   5.028   2.956
 5667SOL    HW217901   6.962   4.997   3.033
 5668SOL     OW17902   4.432   1.955   6.127
 5668SOL    HW117903   4.425   1.855   6.118
 5668SOL    HW217904   4.342   1.993   6.147
 5669SOL     OW17905   0.609   5.047   5.928
 5669SOL    HW117906   0.520   5.082   5.900
 5669SOL    HW217907   0.681   5.111   5.901
 5670SOL     OW17908   0.263   3.398   4.102
 5670SOL    HW117909   0.299   3.353   4.019
 5670SOL    HW217910   0.229   3.328   4.164
 5671SOL     OW17911   2.171   6.758   6.463
 5671SOL    HW117912   2.138   6.779   6.555
 5671SOL    HW217913   2.158   6.661   6.445
 5672SOL     OW17914   5.304   3.862   5.845
 5672SOL    HW117915   5.275   3.883   5.751
 5672SOL    HW217916   5.267   3.932   5.907
 5673SOL     OW17917   0.480   0.434   2.375
 5673SOL    HW117918   0.416   0.511   2.372
 5673SOL    HW217919   0.566   0.460   2.330
 5674SOL     OW17920   0.047   3.405   1.630
 5674SOL    HW117921   6.994   3.340   1.603
 5674SOL    HW217922   0.007   3.479   1.684
 5675SOL     OW17923   4.569   2.437   5.529
 5675SOL    HW117924   4.581   2.338   5.544
 5675SOL    HW217925   4.522   2.476   5.608
 5676SOL     OW17926   1.598   0.457   1.486
 5676SOL    HW117927   1.644   0.385   1.539
 5676SOL    HW217928   1.501   0.459   1.509
 5677SOL     OW17929   6.394   1.821   3.695
 5677SOL    HW117930   6.315   1.780   3.741
 5677SOL    HW217931   6.400   1.918   3.719
 5678SOL     OW17932   4.041   6.511   3.034
 5678SOL    HW117933   4.074   6.472   2.948
 5678SOL    HW217934   4.069   6.607   3.039
 5679SOL     OW17935   1.649   6.606   4.943
 5679SOL    HW117936   1.706   6.524   4.939
 5679SOL    HW217937   1.704   6.681   4.981
 5680SOL     OW17938   1.378   5.305   6.359
 5680SOL    HW117939   1.300   5.365   6.379
 5680SOL    HW217940   1.360   5.215   6.399
 5681SOL     OW17941   1.097   2.050   6.493
 5681SOL    HW117942   1.101   2.126   6.558
 5681SOL    HW217943   1.068   1.967   6.542
 5682SOL     OW17944   1.556   2.487   5.946
 5682SOL    HW117945   1.580   2.458   5.853
 5682SOL    HW217946   1.457   2.484   5.957
 5683SOL     OW17947   3.564   2.654   6.256
 5683SOL    HW117948   3.520   2.631   6.170
 5683SOL    HW217949   3.661   2.630   6.251
 5684SOL     OW17950   3.737   3.675   4.372
 5684SOL    HW117951   3.656   3.724   4.339
 5684SOL    HW217952   3.741   3.585   4.329
 5685SOL     OW17953   0.475   5.128   2.702
 5685SOL    HW117954   0.413   5.205   2.687
 5685SOL    HW217955   0.427   5.056   2.751
 5686SOL     OW17956   4.055   0.213   0.787
 5686SOL    HW117957   4.040   0.307   0.816
 5686SOL    HW217958   4.153   0.192   0.789
 5687SOL     OW17959   6.086   4.519   4.897
 5687SOL    HW117960   6.131   4.451   4.840
 5687SOL    HW217961   6.023   4.573   4.841
 5688SOL     OW17962   5.570   2.611   1.807
 5688SOL    HW117963   5.609   2.536   1.860
 5688SOL    HW217964   5.543   2.577   1.717
 5689SOL     OW17965   4.974   1.468   0.752
 5689SOL    HW117966   4.933   1.556   0.724
 5689SOL    HW217967   4.919   1.427   0.824
 5690SOL     OW17968   4.304   6.107   0.312
 5690SOL    HW117969   4.297   6.081   0.216
 5690SOL    HW217970   4.400   6.106   0.340
 5691SOL     OW17971   2.747   6.614   2.191
 5691SOL    HW117972   2.748   6.533   2.132
 5691SOL    HW217973   2.816   6.603   2.263
 5692SOL     OW17974   6.581   1.666   5.717
 5692SOL    HW117975   6.629   1.627   5.795
 5692SOL    HW217976   6.490   1.697   5.745
 5693SOL     OW17977   5.134   2.824   2.571
 5693SOL    HW117978   5.153   2.850   2.665
 5693SOL    HW217979   5.177   2.890   2.509
 5694SOL     OW17980   0.482   1.158   3.553
 5694SOL    HW117981   0.431   1.207   3.624
 5694SOL    HW217982   0.507   1.067   3.587
 5695SOL     OW17983   1.120   2.275   4.098
 5695SOL    HW117984   1.181   2.354   4.086
 5695SOL    HW217985   1.172   2.198   4.135
 5696SOL     OW17986   2.668   1.740   5.017
 5696SOL    HW117987   2.587   1.745   5.076
 5696SOL    HW217988   2.701   1.832   4.998
 5697SOL     OW17989   7.001   2.317   0.714
 5697SOL    HW117990   0.075   2.307   0.677
 5697SOL    HW217991   6.961   2.402   0.680
 5698SOL     OW17992   0.645   2.646   2.023
 5698SOL    HW117993   0.723   2.632   2.085
 5698SOL    HW217994   0.560   2.629   2.073
 5699SOL     OW17995   6.216   0.966   4.151
 5699SOL    HW117996   6.287   0.949   4.082
 5699SOL    HW217997   6.154   1.037   4.118
 5700SOL     OW17998   1.251   6.235   4.965
 5700SOL    HW117999   1.304   6.159   4.927
 5700SOL    HW218000   1.311   6.297   5.015
 5701SOL     OW18001   0.522   6.345   2.531
 5701SOL    HW118002   0.439   6.289   2.527
 5701SOL    HW218003   0.602   6.286   2.522
 5702SOL     OW18004   1.672   6.657   5.691
 5702SOL    HW118005   1.709   6.750   5.693
 5702SOL    HW218006   1.654   6.626   5.784
 5703SOL     OW18007   4.380   5.132   6.676
 5703SOL    HW118008   4.292   5.099   6.708
 5703SOL    HW218009   4.452   5.069   6.705
 5704SOL     OW18010   4.411   5.343   3.356
 5704SOL    HW118011   4.423   5.247   3.380
 5704SOL    HW218012   4.481   5.370   3.290
 5705SOL     OW18013   5.643   0.468   1.078
 5705SOL    HW118014   5.613   0.427   0.992
 5705SOL    HW218015   5.730   0.427   1.106
 5706SOL     OW18016   1.839   1.550   0.629
 5706SOL    HW118017   1.872   1.643   0.647
 5706SOL    HW218018   1.746   1.553   0.593
 5707SOL     OW18019   1.788   0.268   6.484
 5707SOL    HW118020   1.794   0.237   6.579
 5707SOL    HW218021   1.765   0.191   6.425
 5708SOL     OW18022   5.019   6.650   2.402
 5708SOL    HW118023   5.072   6.670   2.484
 5708SOL    HW218024   4.979   6.734   2.367
 5709SOL     OW18025   0.718   6.872   3.514
 5709SOL    HW118026   0.762   6.839   3.430
 5709SOL    HW218027   0.634   6.821   3.530
 5710SOL     OW18028   3.013   3.478   5.912
 5710SOL    HW118029   2.968   3.418   5.979
 5710SOL    HW218030   2.954   3.488   5.832
 5711SOL     OW18031   4.905   1.186   3.897
 5711SOL    HW118032   4.973   1.148   3.834
 5711SOL    HW218033   4.869   1.113   3.955
 5712SOL     OW18034   6.721   0.155   5.273
 5712SOL    HW118035   6.702   0.241   5.321
 5712SOL    HW218036   6.699   0.079   5.333
 5713SOL     OW18037   0.461   2.338   1.777
 5713SOL    HW118038   0.417   2.287   1.704
 5713SOL    HW218039   0.433   2.434   1.772
 5714SOL     OW18040   1.604   7.013   6.742
 5714SOL    HW118041   1.523   0.003   6.684
 5714SOL    HW218042   1.589   6.941   6.810
 5715SOL     OW18043   1.338   6.472   2.657
 5715SOL    HW118044   1.291   6.389   2.685
 5715SOL    HW218045   1.437   6.455   2.654
 5716SOL     OW18046   1.619   3.663   5.854
 5716SOL    HW118047   1.634   3.566   5.873
 5716SOL    HW218048   1.702   3.702   5.815
 5717SOL     OW18049   0.931   4.569   1.176
 5717SOL    HW118050   0.882   4.581   1.262
 5717SOL    HW218051   0.882   4.505   1.117
 5718SOL     OW18052   1.522   4.745   6.753
 5718SOL    HW118053   1.523   4.802   6.671
 5718SOL    HW218054   1.460   4.668   6.739
 5719SOL     OW18055   3.597   1.133   6.181
 5719SOL    HW118056   3.638   1.070   6.115
 5719SOL    HW218057   3.576   1.084   6.266
 5720SOL     OW18058   0.506   5.145   5.046
 5720SOL    HW118059   0.555   5.181   4.967
 5720SOL    HW218060   0.499   5.046   5.039
 5721SOL     OW18061   0.848   2.803   0.143
 5721SOL    HW118062   0.817   2.846   0.228
 5721SOL    HW218063   0.905   2.724   0.165
 5722SOL     OW18064   5.229   1.058   4.724
 5722SOL    HW118065   5.308   1.078   4.782
 5722SOL    HW218066   5.241   0.968   4.682
 5723SOL     OW18067   3.711   5.262   0.426
 5723SOL    HW118068   3.654   5.184   0.402
 5723SOL    HW218069   3.675   5.305   0.510
 5724SOL     OW18070   4.694   2.109   6.610
 5724SOL    HW118071   4.597   2.088   6.599
 5724SOL    HW218072   4.743   2.028   6.641
 5725SOL     OW18073   5.150   5.469   4.090
 5725SOL    HW118074   5.181   5.388   4.140
 5725SOL    HW218075   5.225   5.505   4.035
 5726SOL     OW18076   6.122   3.473   5.216
 5726SOL    HW118077   6.055   3.471   5.291
 5726SOL    HW218078   6.091   3.413   5.142
 5727SOL     OW18079   5.929   2.528   3.131
 5727SOL    HW118080   5.894   2.512   3.224
 5727SOL    HW218081   5.909   2.621   3.103
 5728SOL     OW18082   6.291   1.014   5.711
 5728SOL    HW118083   6.357   1.002   5.785
 5728SOL    HW218084   6.211   0.956   5.728
 5729SOL     OW18085   0.163   2.022   0.131
 5729SOL    HW118086   0.250   2.051   0.091
 5729SOL    HW218087   0.145   1.927   0.106
 5730SOL     OW18088   3.892   5.936   4.982
 5730SOL    HW118089   3.941   5.885   5.053
 5730SOL    HW218090   3.934   5.919   4.893
 5731SOL     OW18091   1.749   6.715   4.079
 5731SOL    HW118092   1.730   6.625   4.039
 5731SOL    HW218093   1.704   6.721   4.168
 5732SOL     OW18094   6.088   4.872   4.322
 5732SOL    HW118095   6.128   4.783   4.299
 5732SOL    HW218096   5.995   4.858   4.356
 5733SOL     OW18097   3.502   0.754   6.971
 5733SOL    HW118098   3.529   0.692   0.026
 5733SOL    HW218099   3.483   0.702   6.888
 5734SOL     OW18100   1.593   6.927   5.400
 5734SOL    HW118101   1.643   7.013   5.388
 5734SOL    HW218102   1.649   6.864   5.454
 5735SOL     OW18103   3.844   0.703   2.636
 5735SOL    HW118104   3.782   0.706   2.715
 5735SOL    HW218105   3.872   0.796   2.613
 5736SOL     OW18106   4.989   4.519   6.155
 5736SOL    HW118107   4.959   4.525   6.250
 5736SOL    HW218108   4.998   4.611   6.117
 5737SOL     OW18109   5.277   6.153   1.204
 5737SOL    HW118110   5.356   6.158   1.144
 5737SOL    HW218111   5.295   6.206   1.288
 5738SOL     OW18112   3.567   1.312   6.763
 5738SOL    HW118113   3.570   1.397   6.815
 5738SOL    HW218114   3.595   1.235   6.821
 5739SOL     OW18115   1.841   6.847   5.942
 5739SOL    HW118116   1.861   6.749   5.933
 5739SOL    HW218117   1.811   6.882   5.853
 5740SOL     OW18118   4.968   3.349   0.877
 5740SOL    HW118119   4.944   3.444   0.858
 5740SOL    HW218120   4.919   3.289   0.813
 5741SOL     OW18121   0.784   3.771   4.242
 5741SOL    HW118122   0.727   3.804   4.318
 5741SOL    HW218123   0.835   3.690   4.271
 5742SOL     OW18124   4.079   6.821   3.762
 5742SOL    HW118125   4.055   6.907   3.717
 5742SOL    HW218126   4.058   6.744   3.702
 5743SOL     OW18127   3.945   4.480   5.907
 5743SOL    HW118128   3.928   4.392   5.951
 5743SOL    HW218129   3.900   4.481   5.817
 5744SOL     OW18130   6.158   0.515   3.190
 5744SOL    HW118131   6.253   0.520   3.159
 5744SOL    HW218132   6.111   0.600   3.165
 5745SOL     OW18133   2.524   2.565   3.845
 5745SOL    HW118134   2.500   2.647   3.794
 5745SOL    HW218135   2.537   2.489   3.782
 5746SOL     OW18136   3.986   0.007   3.399
 5746SOL    HW118137   4.077   0.026   3.435
 5746SOL    HW218138   3.921   0.072   3.438
 5747SOL     OW18139   0.934   5.929   1.965
 5747SOL    HW118140   0.858   5.992   1.952
 5747SOL    HW218141   1.013   5.963   1.914
 5748SOL     OW18142   0.394   6.270   0.412
 5748SOL    HW118143   0.341   6.223   0.482
 5748SOL    HW218144   0.472   6.214   0.385
 5749SOL     OW18145   1.842   6.780   5.029
 5749SOL    HW118146   1.851   6.751   5.125
 5749SOL    HW218147   1.930   6.812   4.996
 5750SOL     OW18148   6.737   3.948   4.832
 5750SOL    HW118149   6.718   3.912   4.924
 5750SOL    HW218150   6.715   4.045   4.830
 5751SOL     OW18151   1.977   3.529   4.337
 5751SOL    HW118152   2.036   3.476   4.398
 5751SOL    HW218153   1.960   3.478   4.253
 5752SOL     OW18154   5.379   0.335   0.930
 5752SOL    HW118155   5.385   0.255   0.989
 5752SOL    HW218156   5.297   0.387   0.952
 5753SOL     OW18157   2.834   3.834   5.140
 5753SOL    HW118158   2.900   3.904   5.112
 5753SOL    HW218159   2.845   3.753   5.082
 5754SOL     OW18160   1.335   6.412   1.751
 5754SOL    HW118161   1.390   6.460   1.819
 5754SOL    HW218162   1.377   6.423   1.661
 5755SOL     OW18163   1.987   1.894   0.020
 5755SOL    HW118164   2.061   1.869   6.975
 5755SOL    HW218165   1.917   1.823   0.019
 5756SOL     OW18166   6.782   0.252   2.126
 5756SOL    HW118167   6.729   0.300   2.197
 5756SOL    HW218168   6.819   0.168   2.165
 5757SOL     OW18169   6.899   5.710   3.970
 5757SOL    HW118170   6.949   5.725   4.056
 5757SOL    HW218171   6.827   5.642   3.985
 5758SOL     OW18172   1.946   6.989   3.083
 5758SOL    HW118173   1.877   7.003   3.012
 5758SOL    HW218174   1.903   6.992   3.173
 5759SOL     OW18175   4.477   6.589   1.659
 5759SOL    HW118176   4.496   6.549   1.569
 5759SOL    HW218177   4.387   6.632   1.658
 5760SOL     OW18178   6.738   3.360   1.975
 5760SOL    HW118179   6.651   3.318   1.949
 5760SOL    HW218180   6.742   3.454   1.940
 5761SOL     OW18181   5.115   5.774   4.987
 5761SOL    HW118182   5.081   5.824   5.067
 5761SOL    HW218183   5.093   5.677   4.996
 5762SOL     OW18184   5.074   4.335   0.606
 5762SOL    HW118185   4.983   4.313   0.641
 5762SOL    HW218186   5.091   4.433   0.617
 5763SOL     OW18187   5.129   6.775   0.185
 5763SOL    HW118188   5.229   6.766   0.188
 5763SOL    HW218189   5.088   6.712   0.252
 5764SOL     OW18190   4.151   5.227   3.121
 5764SOL    HW118191   4.082   5.295   3.146
 5764SOL    HW218192   4.166   5.229   3.022
 5765SOL     OW18193   6.389   4.378   0.630
 5765SOL    HW118194   6.381   4.477   0.642
 5765SOL    HW218195   6.393   4.357   0.532
 5766SOL     OW18196   1.463   1.748   4.730
 5766SOL    HW118197   1.456   1.831   4.675
 5766SOL    HW218198   1.463   1.668   4.670
 5767SOL     OW18199   1.892   0.238   0.319
 5767SOL    HW118200   1.808   0.275   0.359
 5767SOL    HW218201   1.941   0.186   0.387
 5768SOL     OW18202   0.110   6.999   3.559
 5768SOL    HW118203   0.110   0.064   3.614
 5768SOL    HW218204   0.080   6.922   3.615
 5769SOL     OW18205   2.266   5.121   6.268
 5769SOL    HW118206   2.322   5.202   6.285
 5769SOL    HW218207   2.293   5.079   6.181
 5770SOL     OW18208   0.990   6.342   0.025
 5770SOL    HW118209   1.087   6.365   0.036
 5770SOL    HW218210   0.962   6.283   0.101
 5771SOL     OW18211   2.192   6.766   3.551
 5771SOL    HW118212   2.287   6.733   3.552
 5771SOL    HW218213   2.170   6.809   3.638
 5772SOL     OW18214   4.322   0.966   1.763
 5772SOL    HW118215   4.278   1.039   1.712
 5772SOL    HW218216   4.345   0.891   1.700
 5773SOL     OW18217   4.396   1.526   2.262
 5773SOL    HW118218   4.415   1.456   2.192
 5773SOL    HW218219   4.307   1.569   2.242
 5774SOL     OW18220   1.901   0.417   5.261
 5774SOL    HW118221   1.844   0.473   5.201
 5774SOL    HW218222   1.956   0.355   5.206
 5775SOL     OW18223   0.877   6.377   2.557
 5775SOL    HW118224   0.857   6.435   2.636
 5775SOL    HW218225   0.814   6.398   2.483
 5776SOL     OW18226   1.262   0.312   3.282
 5776SOL    HW118227   1.289   0.234   3.225
 5776SOL    HW218228   1.172   0.345   3.254
 5777SOL     OW18229   1.380   0.540   3.881
 5777SOL    HW118230   1.472   0.557   3.844
 5777SOL    HW218231   1.314   0.545   3.806
 5778SOL     OW18232   1.062   0.952   0.615
 5778SOL    HW118233   1.108   1.039   0.595
 5778SOL    HW218234   1.004   0.964   0.696
 5779SOL     OW18235   4.883   2.965   6.646
 5779SOL    HW118236   4.931   3.034   6.592
 5779SOL    HW218237   4.864   2.885   6.590
 5780SOL     OW18238   5.806   5.822   4.729
 5780SOL    HW118239   5.716   5.863   4.742
 5780SOL    HW218240   5.863   5.841   4.809
 5781SOL     OW18241   6.463   5.128   5.065
 5781SOL    HW118242   6.438   5.038   5.100
 5781SOL    HW218243   6.553   5.154   5.101
 5782SOL     OW18244   1.122   1.321   0.574
 5782SOL    HW118245   1.082   1.267   0.649
 5782SOL    HW218246   1.149   1.411   0.609
 5783SOL     OW18247   1.185   0.997   2.212
 5783SOL    HW118248   1.254   1.069   2.225
 5783SOL    HW218249   1.222   0.927   2.150
 5784SOL     OW18250   0.325   6.109   6.877
 5784SOL    HW118251   0.392   6.035   6.864
 5784SOL    HW218252   0.236   6.069   6.896
 5785SOL     OW18253   2.298   1.624   0.303
 5785SOL    HW118254   2.250   1.708   0.276
 5785SOL    HW218255   2.236   1.546   0.293
 5786SOL     OW18256   6.404   4.309   0.369
 5786SOL    HW118257   6.436   4.214   0.373
 5786SOL    HW218258   6.337   4.318   0.295
 5787SOL     OW18259   2.171   1.609   5.693
 5787SOL    HW118260   2.146   1.643   5.602
 5787SOL    HW218261   2.235   1.673   5.736
 5788SOL     OW18262   2.764   1.383   3.041
 5788SOL    HW118263   2.711   1.344   2.965
 5788SOL    HW218264   2.721   1.468   3.072
 5789SOL     OW18265   3.491   5.097   6.543
 5789SOL    HW118266   3.548   5.091   6.461
 5789SOL    HW218267   3.541   5.060   6.621
 5790SOL     OW18268   1.207   3.706   4.575
 5790SOL    HW118269   1.140   3.666   4.637
 5790SOL    HW218270   1.160   3.759   4.504
 5791SOL     OW18271   3.861   0.036   2.178
 5791SOL    HW118272   3.834   0.102   2.108
 5791SOL    HW218273   3.822   0.064   2.266
 5792SOL     OW18274   0.046   2.313   2.947
 5792SOL    HW118275   6.977   2.268   2.927
 5792SOL    HW218276   0.085   2.349   2.862
 5793SOL     OW18277   5.297   1.431   3.158
 5793SOL    HW118278   5.383   1.462   3.117
 5793SOL    HW218279   5.222   1.487   3.125
 5794SOL     OW18280   3.571   2.161   0.752
 5794SOL    HW118281   3.573   2.109   0.667
 5794SOL    HW218282   3.587   2.258   0.732
 5795SOL     OW18283   6.106   5.635   5.667
 5795SOL    HW118284   6.081   5.541   5.691
 5795SOL    HW218285   6.148   5.636   5.576
 5796SOL     OW18286   3.896   1.000   0.182
 5796SOL    HW118287   3.931   0.932   0.118
 5796SOL    HW218288   3.807   0.971   0.217
 5797SOL     OW18289   4.069   1.814   4.743
 5797SOL    HW118290   4.168   1.805   4.732
 5797SOL    HW218291   4.033   1.880   4.677
 5798SOL     OW18292   1.071   4.239   5.625
 5798SOL    HW118293   1.083   4.182   5.707
 5798SOL    HW218294   0.974   4.256   5.611
 5799SOL     OW18295   5.431   1.567   3.714
 5799SOL    HW118296   5.379   1.513   3.780
 5799SOL    HW218297   5.375   1.642   3.679
 5800SOL     OW18298   5.292   6.133   0.767
 5800SOL    HW118299   5.354   6.075   0.819
 5800SOL    HW218300   5.282   6.096   0.675
 5801SOL     OW18301   1.045   2.701   4.609
 5801SOL    HW118302   1.102   2.779   4.636
 5801SOL    HW218303   1.041   2.697   4.509
 5802SOL     OW18304   0.910   4.730   0.392
 5802SOL    HW118305   0.947   4.651   0.441
 5802SOL    HW218306   0.906   4.808   0.454
 5803SOL     OW18307   0.979   4.496   2.015
 5803SOL    HW118308   0.956   4.406   1.979
 5803SOL    HW218309   0.963   4.499   2.113
 5804SOL     OW18310   6.294   4.327   3.580
 5804SOL    HW118311   6.341   4.415   3.577
 5804SOL    HW218312   6.345   4.264   3.639
 5805SOL     OW18313   3.628   4.513   6.760
 5805SOL    HW118314   3.631   4.432   6.819
 5805SOL    HW218315   3.534   4.528   6.730
 5806SOL     OW18316   0.165   6.361   6.185
 5806SOL    HW118317   0.160   6.300   6.264
 5806SOL    HW218318   0.241   6.425   6.196
 5807SOL     OW18319   1.614   3.811   1.852
 5807SOL    HW118320   1.590   3.805   1.949
 5807SOL    HW218321   1.581   3.898   1.815
 5808SOL     OW18322   6.058   3.993   3.059
 5808SOL    HW118323   6.019   4.075   3.015
 5808SOL    HW218324   6.012   3.912   3.023
 5809SOL     OW18325   0.239   2.157   4.977
 5809SOL    HW118326   0.248   2.211   5.061
 5809SOL    HW218327   0.276   2.209   4.900
 5810SOL     OW18328   3.163   0.780   3.920
 5810SOL    HW118329   3.215   0.865   3.928
 5810SOL    HW218330   3.077   0.799   3.873
 5811SOL     OW18331   3.046   6.914   4.939
 5811SOL    HW118332   2.988   6.970   4.878
 5811SOL    HW218333   3.139   6.951   4.939
 5812SOL     OW18334   5.534   0.669   4.058
 5812SOL    HW118335   5.567   0.724   4.135
 5812SOL    HW218336   5.436   0.654   4.067
 5813SOL     OW18337   1.240   0.894   0.322
 5813SOL    HW118338   1.275   0.874   0.413
 5813SOL    HW218339   1.237   0.994   0.308
 5814SOL     OW18340   6.041   4.528   1.011
 5814SOL    HW118341   5.973   4.602   1.011
 5814SOL    HW218342   6.130   4.564   0.982
 5815SOL     OW18343   4.430   2.487   4.033
 5815SOL    HW118344   4.431   2.495   4.133
 5815SOL    HW218345   4.360   2.422   4.006
 5816SOL     OW18346   4.812   5.786   6.958
 5816SOL    HW118347   4.784   5.871   7.004
 5816SOL    HW218348   4.888   5.804   6.896
 5817SOL     OW18349   5.211   3.100   5.580
 5817SOL    HW118350   5.142   3.043   5.536
 5817SOL    HW218351   5.221   3.186   5.530
 5818SOL     OW18352   6.718   6.431   5.089
 5818SOL    HW118353   6.650   6.502   5.104
 5818SOL    HW218354   6.780   6.459   5.016
 5819SOL     OW18355   4.514   0.361   6.971
 5819SOL    HW118356   4.491   0.337   6.876
 5819SOL    HW218357   4.457   0.437   7.001
 5820SOL     OW18358   4.782   6.684   4.079
 5820SOL    HW118359   4.822   6.725   3.997
 5820SOL    HW218360   4.775   6.753   4.151
 5821SOL     OW18361   0.921   0.059   2.063
 5821SOL    HW118362   0.875   0.130   2.008
 5821SOL    HW218363   0.871   0.045   2.148
 5822SOL     OW18364   0.305   2.511   2.491
 5822SOL    HW118365   0.293   2.441   2.562
 5822SOL    HW218366   0.291   2.602   2.530
 5823SOL     OW18367   0.767   1.067   6.144
 5823SOL    HW118368   0.672   1.082   6.171
 5823SOL    HW218369   0.769   1.021   6.055
 5824SOL     OW18370   6.744   5.964   2.844
 5824SOL    HW118371   6.673   6.032   2.827
 5824SOL    HW218372   6.807   5.998   2.915
 5825SOL     OW18373   2.260   1.683   5.149
 5825SOL    HW118374   2.184   1.705   5.088
 5825SOL    HW218375   2.317   1.764   5.162
 5826SOL     OW18376   6.984   5.274   5.226
 5826SOL    HW118377   6.899   5.321   5.249
 5826SOL    HW218378   6.999   5.278   5.127
 5827SOL     OW18379   1.885   4.920   4.993
 5827SOL    HW118380   1.906   4.849   5.061
 5827SOL    HW218381   1.893   4.882   4.901
 5828SOL     OW18382   6.852   2.905   1.495
 5828SOL    HW118383   6.798   2.871   1.418
 5828SOL    HW218384   6.949   2.903   1.472
 5829SOL     OW18385   2.865   1.954   2.887
 5829SOL    HW118386   2.951   1.905   2.877
 5829SOL    HW218387   2.834   1.948   2.982
 5830SOL     OW18388   4.103   0.244   5.501
 5830SOL    HW118389   4.020   0.201   5.537
 5830SOL    HW218390   4.086   0.276   5.408
 5831SOL     OW18391   6.654   0.911   3.752
 5831SOL    HW118392   6.715   0.839   3.718
 5831SOL    HW218393   6.559   0.880   3.745
 5832SOL     OW18394   3.659   4.509   5.340
 5832SOL    HW118395   3.628   4.511   5.435
 5832SOL    HW218396   3.604   4.445   5.287
 5833SOL     OW18397   3.945   3.190   4.916
 5833SOL    HW118398   3.885   3.226   4.845
 5833SOL    HW218399   3.956   3.091   4.903
 5834SOL     OW18400   6.097   2.277   0.540
 5834SOL    HW118401   6.167   2.289   0.610
 5834SOL    HW218402   6.045   2.362   0.529
 5835SOL     OW18403   4.878   3.085   2.719
 5835SOL    HW118404   4.793   3.093   2.668
 5835SOL    HW218405   4.881   3.154   2.791
 5836SOL     OW18406   3.216   6.759   2.964
 5836SOL    HW118407   3.257   6.762   3.055
 5836SOL    HW218408   3.261   6.688   2.910
 5837SOL     OW18409   4.559   4.909   6.097
 5837SOL    HW118410   4.527   4.840   6.161
 5837SOL    HW218411   4.555   4.999   6.139
 5838SOL     OW18412   2.430   1.453   5.899
 5838SOL    HW118413   2.456   1.542   5.862
 5838SOL    HW218414   2.429   1.456   5.998
 5839SOL     OW18415   0.347   2.891   2.932
 5839SOL    HW118416   0.429   2.851   2.891
 5839SOL    HW218417   0.267   2.866   2.877
 5840SOL     OW18418   1.572   5.330   0.027
 5840SOL    HW118419   1.604   5.313   6.953
 5840SOL    HW218420   1.635   5.288   0.093
 5841SOL     OW18421   5.819   2.128   2.221
 5841SOL    HW118422   5.814   2.150   2.123
 5841SOL    HW218423   5.912   2.143   2.253
 5842SOL     OW18424   4.193   3.200   1.606
 5842SOL    HW118425   4.120   3.156   1.554
 5842SOL    HW218426   4.173   3.298   1.616
 5843SOL     OW18427   2.132   3.785   2.180
 5843SOL    HW118428   2.119   3.721   2.105
 5843SOL    HW218429   2.157   3.875   2.143
 5844SOL     OW18430   0.231   7.001   5.699
 5844SOL    HW118431   0.247   6.963   5.608
 5844SOL    HW218432   0.315   0.026   5.733
 5845SOL     OW18433   1.375   0.359   2.988
 5845SOL    HW118434   1.365   0.269   3.031
 5845SOL    HW218435   1.408   0.425   3.056
 5846SOL     OW18436   6.372   3.144   4.510
 5846SOL    HW118437   6.466   3.140   4.477
 5846SOL    HW218438   6.312   3.177   4.437
 5847SOL     OW18439   2.104   1.843   2.244
 5847SOL    HW118440   2.111   1.939   2.269
 5847SOL    HW218441   2.122   1.833   2.146
 5848SOL     OW18442   2.269   5.511   2.835
 5848SOL    HW118443   2.331   5.433   2.827
 5848SOL    HW218444   2.215   5.502   2.919
 5849SOL     OW18445   6.689   1.002   6.296
 5849SOL    HW118446   6.603   1.042   6.329
 5849SOL    HW218447   6.670   0.936   6.224
 5850SOL     OW18448   0.755   3.601   2.640
 5850SOL    HW118449   0.808   3.519   2.663
 5850SOL    HW218450   0.807   3.658   2.577
 5851SOL     OW18451   5.100   3.418   3.153
 5851SOL    HW118452   5.043   3.405   3.234
 5851SOL    HW218453   5.044   3.450   3.077
 5852SOL     OW18454   4.803   6.728   3.096
 5852SOL    HW118455   4.704   6.717   3.108
 5852SOL    HW218456   4.821   6.800   3.029
 5853SOL     OW18457   2.987   5.779   5.209
 5853SOL    HW118458   3.036   5.726   5.141
 5853SOL    HW218459   2.932   5.718   5.266
 5854SOL     OW18460   6.171   3.488   5.515
 5854SOL    HW118461   6.148   3.585   5.518
 5854SOL    HW218462   6.223   3.469   5.431
 5855SOL     OW18463   0.392   0.620   4.298
 5855SOL    HW118464   0.438   0.699   4.340
 5855SOL    HW218465   0.456   0.545   4.288
 5856SOL     OW18466   2.271   6.119   3.617
 5856SOL    HW118467   2.260   6.126   3.716
 5856SOL    HW218468   2.366   6.099   3.595
 5857SOL     OW18469   6.292   2.551   5.446
 5857SOL    HW118470   6.193   2.558   5.449
 5857SOL    HW218471   6.319   2.459   5.417
 5858SOL     OW18472   2.664   2.238   2.067
 5858SOL    HW118473   2.609   2.321   2.075
 5858SOL    HW218474   2.758   2.263   2.042
 5859SOL     OW18475   5.168   0.030   0.978
 5859SOL    HW118476   5.180   6.998   0.893
 5859SOL    HW218477   5.256   0.066   1.008
 5860SOL     OW18478   2.252   3.848   1.817
 5860SOL    HW118479   2.285   3.884   1.904
 5860SOL    HW218480   2.162   3.806   1.830
 5861SOL     OW18481   5.122   1.517   4.088
 5861SOL    HW118482   5.030   1.479   4.077
 5861SOL    HW218483   5.125   1.573   4.171
 5862SOL     OW18484   5.127   4.716   3.277
 5862SOL    HW118485   5.149   4.695   3.181
 5862SOL    HW218486   5.196   4.675   3.337
 5863SOL     OW18487   3.276   0.584   4.763
 5863SOL    HW118488   3.206   0.557   4.829
 5863SOL    HW218489   3.339   0.649   4.805
 5864SOL     OW18490   4.314   3.802   1.730
 5864SOL    HW118491   4.391   3.770   1.675
 5864SOL    HW218492   4.290   3.732   1.797
 5865SOL     OW18493   5.751   0.311   4.020
 5865SOL    HW118494   5.710   0.344   3.934
 5865SOL    HW218495   5.681   0.309   4.091
 5866SOL     OW18496   3.648   5.794   6.505
 5866SOL    HW118497   3.748   5.786   6.513
 5866SOL    HW218498   3.625   5.841   6.420
 5867SOL     OW18499   0.495   3.503   0.786
 5867SOL    HW118500   0.501   3.592   0.742
 5867SOL    HW218501   0.406   3.494   0.833
 5868SOL     OW18502   6.655   0.944   5.073
 5868SOL    HW118503   6.600   1.005   5.017
 5868SOL    HW218504   6.710   0.885   5.014
 5869SOL     OW18505   1.973   5.336   3.386
 5869SOL    HW118506   2.072   5.340   3.370
 5869SOL    HW218507   1.944   5.417   3.436
 5870SOL     OW18508   4.398   5.593   4.567
 5870SOL    HW118509   4.432   5.671   4.514
 5870SOL    HW218510   4.457   5.577   4.646
 5871SOL     OW18511   4.202   3.563   0.088
 5871SOL    HW118512   4.159   3.475   0.066
 5871SOL    HW218513   4.192   3.625   0.010
 5872SOL     OW18514   3.910   4.867   6.621
 5872SOL    HW118515   3.933   4.911   6.534
 5872SOL    HW218516   3.944   4.773   6.621
 5873SOL     OW18517   2.147   2.607   0.971
 5873SOL    HW118518   2.071   2.595   0.907
 5873SOL    HW218519   2.115   2.586   1.064
 5874SOL     OW18520   2.785   2.583   1.248
 5874SOL    HW118521   2.863   2.536   1.205
 5874SOL    HW218522   2.813   2.674   1.277
 5875SOL     OW18523   3.468   1.439   1.090
 5875SOL    HW118524   3.444   1.355   1.043
 5875SOL    HW218525   3.567   1.452   1.087
 5876SOL     OW18526   3.093   2.841   0.083
 5876SOL    HW118527   3.165   2.890   0.130
 5876SOL    HW218528   3.023   2.813   0.149
 5877SOL     OW18529   6.181   7.005   0.945
 5877SOL    HW118530   6.230   6.963   1.021
 5877SOL    HW218531   6.243   7.016   0.868
 5878SOL     OW18532   5.290   5.136   2.824
 5878SOL    HW118533   5.199   5.093   2.822
 5878SOL    HW218534   5.299   5.190   2.907
 5879SOL     OW18535   2.850   3.328   6.110
 5879SOL    HW118536   2.816   3.404   6.165
 5879SOL    HW218537   2.895   3.261   6.170
 5880SOL     OW18538   4.468   4.353   6.267
 5880SOL    HW118539   4.522   4.270   6.282
 5880SOL    HW218540   4.527   4.433   6.280
 5881SOL     OW18541   1.035   6.828   2.659
 5881SOL    HW118542   1.008   6.732   2.656
 5881SOL    HW218543   1.106   6.841   2.728
 5882SOL     OW18544   0.456   6.808   5.565
 5882SOL    HW118545   0.532   6.834   5.625
 5882SOL    HW218546   0.442   6.879   5.496
 5883SOL     OW18547   0.442   1.684   0.555
 5883SOL    HW118548   0.465   1.589   0.534
 5883SOL    HW218549   0.349   1.704   0.521
 5884SOL     OW18550   6.378   0.801   4.836
 5884SOL    HW118551   6.290   0.774   4.795
 5884SOL    HW218552   6.392   0.899   4.821
 5885SOL     OW18553   0.549   5.501   0.767
 5885SOL    HW118554   0.504   5.509   0.856
 5885SOL    HW218555   0.648   5.503   0.780
 5886SOL     OW18556   1.373   3.533   3.353
 5886SOL    HW118557   1.312   3.536   3.432
 5886SOL    HW218558   1.325   3.568   3.272
 5887SOL     OW18559   2.807   1.892   2.116
 5887SOL    HW118560   2.759   1.864   2.200
 5887SOL    HW218561   2.871   1.965   2.138
 5888SOL     OW18562   2.927   6.751   0.994
 5888SOL    HW118563   2.902   6.844   0.968
 5888SOL    HW218564   2.846   6.693   0.993
 5889SOL     OW18565   6.745   1.198   0.831
 5889SOL    HW118566   6.686   1.126   0.794
 5889SOL    HW218567   6.688   1.274   0.862
 5890SOL     OW18568   1.978   6.895   2.689
 5890SOL    HW118569   2.076   6.914   2.691
 5890SOL    HW218570   1.941   6.917   2.599
 5891SOL     OW18571   2.687   3.729   0.206
 5891SOL    HW118572   2.611   3.680   0.165
 5891SOL    HW218573   2.689   3.712   0.304
 5892SOL     OW18574   0.026   5.053   1.375
 5892SOL    HW118575   6.995   5.087   1.455
 5892SOL    HW218576   0.001   4.958   1.358
 5893SOL     OW18577   1.513   5.000   1.307
 5893SOL    HW118578   1.421   4.963   1.325
 5893SOL    HW218579   1.582   4.936   1.342
 5894SOL     OW18580   0.865   5.801   5.401
 5894SOL    HW118581   0.780   5.753   5.382
 5894SOL    HW218582   0.893   5.783   5.496
 5895SOL     OW18583   6.356   3.330   4.302
 5895SOL    HW118584   6.427   3.299   4.237
 5895SOL    HW218585   6.394   3.401   4.361
 5896SOL     OW18586   4.877   1.575   1.693
 5896SOL    HW118587   4.837   1.529   1.614
 5896SOL    HW218588   4.833   1.541   1.776
 5897SOL     OW18589   3.856   1.183   1.873
 5897SOL    HW118590   3.780   1.162   1.811
 5897SOL    HW218591   3.824   1.179   1.968
 5898SOL     OW18592   2.644   1.045   5.925
 5898SOL    HW118593   2.688   1.104   5.993
 5898SOL    HW218594   2.682   1.064   5.834
 5899SOL     OW18595   0.334   5.129   5.899
 5899SOL    HW118596   0.323   5.226   5.920
 5899SOL    HW218597   0.294   5.109   5.809
 5900SOL     OW18598   0.110   5.265   3.523
 5900SOL    HW118599   0.085   5.331   3.453
 5900SOL    HW218600   0.189   5.299   3.574
 5901SOL     OW18601   1.188   0.938   0.960
 5901SOL    HW118602   1.163   0.860   0.902
 5901SOL    HW218603   1.226   0.904   1.046
 5902SOL     OW18604   5.728   3.381   4.908
 5902SOL    HW118605   5.812   3.334   4.879
 5902SOL    HW218606   5.656   3.365   4.840
 5903SOL     OW18607   5.548   2.624   6.874
 5903SOL    HW118608   5.565   2.696   6.808
 5903SOL    HW218609   5.561   2.659   6.967
 5904SOL     OW18610   1.681   4.433   1.261
 5904SOL    HW118611   1.755   4.416   1.327
 5904SOL    HW218612   1.622   4.352   1.257
 5905SOL     OW18613   5.484   1.053   3.511
 5905SOL    HW118614   5.446   1.078   3.422
 5905SOL    HW218615   5.584   1.053   3.506
 5906SOL     OW18616   5.396   1.636   5.249
 5906SOL    HW118617   5.393   1.623   5.348
 5906SOL    HW218618   5.437   1.556   5.206
 5907SOL     OW18619   1.721   6.824   0.485
 5907SOL    HW118620   1.665   6.751   0.525
 5907SOL    HW218621   1.678   6.856   0.400
 5908SOL     OW18622   5.177   3.745   0.401
 5908SOL    HW118623   5.231   3.662   0.416
 5908SOL    HW218624   5.081   3.725   0.416
 5909SOL     OW18625   0.599   4.250   5.736
 5909SOL    HW118626   0.507   4.217   5.757
 5909SOL    HW218627   0.635   4.300   5.815
 5910SOL     OW18628   1.392   4.256   0.748
 5910SOL    HW118629   1.407   4.235   0.651
 5910SOL    HW218630   1.353   4.176   0.793
 5911SOL     OW18631   0.327   5.937   5.894
 5911SOL    HW118632   0.234   5.971   5.911
 5911SOL    HW218633   0.325   5.868   5.822
 5912SOL     OW18634   5.899   3.235   6.727
 5912SOL    HW118635   5.986   3.269   6.689
 5912SOL    HW218636   5.833   3.222   6.653
 5913SOL     OW18637   2.224   2.970   5.765
 5913SOL    HW118638   2.234   2.933   5.673
 5913SOL    HW218639   2.221   2.894   5.831
 5914SOL     OW18640   2.563   5.666   0.225
 5914SOL    HW118641   2.647   5.712   0.254
 5914SOL    HW218642   2.489   5.688   0.289
 5915SOL     OW18643   5.730   3.454   2.371
 5915SOL    HW118644   5.633   3.429   2.375
 5915SOL    HW218645   5.742   3.533   2.311
 5916SOL     OW18646   4.535   0.459   5.738
 5916SOL    HW118647   4.540   0.495   5.645
 5916SOL    HW218648   4.469   0.512   5.791
 5917SOL     OW18649   3.618   3.192   3.407
 5917SOL    HW118650   3.658   3.271   3.454
 5917SOL    HW218651   3.583   3.127   3.475
 5918SOL     OW18652   2.195   3.392   4.960
 5918SOL    HW118653   2.284   3.356   4.933
 5918SOL    HW218654   2.190   3.398   5.060
 5919SOL     OW18655   2.843   1.858   0.302
 5919SOL    HW118656   2.864   1.803   0.221
 5919SOL    HW218657   2.923   1.862   0.362
 5920SOL     OW18658   3.755   0.064   6.919
 5920SOL    HW118659   3.807   0.083   7.002
 5920SOL    HW218660   3.677   0.005   6.941
 5921SOL     OW18661   3.551   5.052   5.219
 5921SOL    HW118662   3.634   5.007   5.188
 5921SOL    HW218663   3.527   5.020   5.310
 5922SOL     OW18664   6.684   4.978   3.419
 5922SOL    HW118665   6.607   5.021   3.465
 5922SOL    HW218666   6.768   5.030   3.437
 5923SOL     OW18667   6.587   1.028   2.910
 5923SOL    HW118668   6.587   1.059   2.815
 5923SOL    HW218669   6.519   0.955   2.922
 5924SOL     OW18670   5.597   2.606   4.867
 5924SOL    HW118671   5.606   2.550   4.949
 5924SOL    HW218672   5.573   2.548   4.790
 5925SOL     OW18673   4.602   6.154   2.902
 5925SOL    HW118674   4.655   6.184   2.981
 5925SOL    HW218675   4.559   6.066   2.921
 5926SOL     OW18676   3.070   5.032   1.631
 5926SOL    HW118677   3.067   4.933   1.648
 5926SOL    HW218678   3.072   5.081   1.718
 5927SOL     OW18679   1.898   4.422   1.785
 5927SOL    HW118680   1.979   4.455   1.735
 5927SOL    HW218681   1.913   4.435   1.883
 5928SOL     OW18682   2.470   0.322   2.439
 5928SOL    HW118683   2.568   0.318   2.422
 5928SOL    HW218684   2.421   0.279   2.363
 5929SOL     OW18685   0.688   6.181   5.775
 5929SOL    HW118686   0.719   6.201   5.682
 5929SOL    HW218687   0.711   6.258   5.835
 5930SOL     OW18688   5.870   1.385   3.879
 5930SOL    HW118689   5.852   1.462   3.941
 5930SOL    HW218690   5.967   1.363   3.881
 5931SOL     OW18691   5.805   4.936   2.437
 5931SOL    HW118692   5.874   4.947   2.364
 5931SOL    HW218693   5.741   5.012   2.433
 5932SOL     OW18694   2.218   6.568   0.837
 5932SOL    HW118695   2.142   6.633   0.827
 5932SOL    HW218696   2.286   6.606   0.901
 5933SOL     OW18697   7.004   4.580   1.976
 5933SOL    HW118698   6.992   4.489   2.016
 5933SOL    HW218699   0.061   4.578   1.911
 5934SOL     OW18700   3.512   3.866   3.739
 5934SOL    HW118701   3.530   3.808   3.818
 5934SOL    HW218702   3.418   3.900   3.744
 5935SOL     OW18703   3.843   3.813   4.595
 5935SOL    HW118704   3.839   3.786   4.498
 5935SOL    HW218705   3.755   3.795   4.638
 5936SOL     OW18706   4.270   3.771   6.478
 5936SOL    HW118707   4.211   3.691   6.481
 5936SOL    HW218708   4.272   3.808   6.384
 5937SOL     OW18709   0.662   3.835   2.036
 5937SOL    HW118710   0.623   3.841   1.944
 5937SOL    HW218711   0.648   3.743   2.072
 5938SOL     OW18712   1.626   4.942   4.449
 5938SOL    HW118713   1.604   4.869   4.385
 5938SOL    HW218714   1.642   4.904   4.540
 5939SOL     OW18715   3.264   0.476   3.311
 5939SOL    HW118716   3.299   0.432   3.228
 5939SOL    HW218717   3.332   0.469   3.384
 5940SOL     OW18718   4.265   6.686   1.984
 5940SOL    HW118719   4.285   6.699   1.887
 5940SOL    HW218720   4.192   6.748   2.012
 5941SOL     OW18721   6.284   4.580   1.999
 5941SOL    HW118722   6.190   4.591   2.032
 5941SOL    HW218723   6.317   4.489   2.023
 5942SOL     OW18724   4.225   2.918   6.694
 5942SOL    HW118725   4.147   2.918   6.633
 5942SOL    HW218726   4.269   2.828   6.694
 5943SOL     OW18727   2.602   6.101   0.197
 5943SOL    HW118728   2.543   6.097   0.277
 5943SOL    HW218729   2.564   6.043   0.125
 5944SOL     OW18730   5.683   1.450   1.774
 5944SOL    HW118731   5.604   1.466   1.833
 5944SOL    HW218732   5.652   1.413   1.687
 5945SOL     OW18733   6.958   4.674   5.593
 5945SOL    HW118734   0.008   4.732   5.637
 5945SOL    HW218735   6.875   4.672   5.649
 5946SOL     OW18736   3.514   4.202   5.811
 5946SOL    HW118737   3.473   4.213   5.901
 5946SOL    HW218738   3.450   4.232   5.741
 5947SOL     OW18739   3.883   3.171   1.991
 5947SOL    HW118740   3.913   3.216   2.076
 5947SOL    HW218741   3.964   3.144   1.938
 5948SOL     OW18742   3.825   5.193   3.251
 5948SOL    HW118743   3.881   5.262   3.297
 5948SOL    HW218744   3.819   5.111   3.308
 5949SOL     OW18745   3.982   4.261   1.324
 5949SOL    HW118746   4.065   4.217   1.359
 5949SOL    HW218747   3.970   4.237   1.228
 5950SOL     OW18748   5.661   2.436   5.066
 5950SOL    HW118749   5.743   2.485   5.094
 5950SOL    HW218750   5.599   2.428   5.144
 5951SOL     OW18751   0.565   6.414   4.966
 5951SOL    HW118752   0.489   6.417   5.031
 5951SOL    HW218753   0.551   6.483   4.895
 5952SOL     OW18754   6.415   6.583   3.727
 5952SOL    HW118755   6.328   6.549   3.761
 5952SOL    HW218756   6.417   6.683   3.732
 5953SOL     OW18757   6.859   3.220   5.154
 5953SOL    HW118758   6.865   3.319   5.150
 5953SOL    HW218759   6.909   3.187   5.234
 5954SOL     OW18760   6.758   4.409   5.528
 5954SOL    HW118761   6.786   4.392   5.622
 5954SOL    HW218762   6.800   4.493   5.495
 5955SOL     OW18763   5.911   6.160   2.154
 5955SOL    HW118764   5.991   6.185   2.208
 5955SOL    HW218765   5.941   6.124   2.065
 5956SOL     OW18766   3.347   1.868   1.037
 5956SOL    HW118767   3.365   1.961   1.005
 5956SOL    HW218768   3.385   1.802   0.971
 5957SOL     OW18769   4.633   6.844   5.708
 5957SOL    HW118770   4.605   6.823   5.614
 5957SOL    HW218771   4.733   6.835   5.715
 5958SOL     OW18772   6.082   6.456   2.616
 5958SOL    HW118773   6.074   6.368   2.663
 5958SOL    HW218774   6.141   6.446   2.536
 5959SOL     OW18775   3.399   1.666   5.308
 5959SOL    HW118776   3.349   1.723   5.373
 5959SOL    HW218777   3.357   1.675   5.217
 5960SOL     OW18778   3.527   0.045   3.805
 5960SOL    HW118779   3.533   6.965   3.823
 5960SOL    HW218780   3.613   0.076   3.765
 5961SOL     OW18781   4.115   1.157   3.489
 5961SOL    HW118782   4.190   1.097   3.463
 5961SOL    HW218783   4.151   1.244   3.521
 5962SOL     OW18784   5.344   5.222   2.160
 5962SOL    HW118785   5.417   5.201   2.095
 5962SOL    HW218786   5.320   5.319   2.154
 5963SOL     OW18787   3.687   3.290   4.114
 5963SOL    HW118788   3.657   3.384   4.093
 5963SOL    HW218789   3.646   3.261   4.201
 5964SOL     OW18790   6.923   5.348   6.050
 5964SOL    HW118791   6.990   5.283   6.086
 5964SOL    HW218792   6.859   5.374   6.123
 5965SOL     OW18793   1.708   2.028   6.558
 5965SOL    HW118794   1.743   2.053   6.468
 5965SOL    HW218795   1.630   2.086   6.581
 5966SOL     OW18796   2.582   5.563   5.175
 5966SOL    HW118797   2.592   5.629   5.101
 5966SOL    HW218798   2.673   5.537   5.209
 5967SOL     OW18799   3.861   6.594   2.371
 5967SOL    HW118800   3.945   6.560   2.329
 5967SOL    HW218801   3.786   6.591   2.306
 5968SOL     OW18802   5.775   1.759   3.168
 5968SOL    HW118803   5.758   1.835   3.230
 5968SOL    HW218804   5.855   1.779   3.111
 5969SOL     OW18805   6.395   2.064   5.008
 5969SOL    HW118806   6.342   2.138   5.050
 5969SOL    HW218807   6.336   1.984   4.998
 5970SOL     OW18808   0.519   4.458   2.469
 5970SOL    HW118809   0.429   4.420   2.449
 5970SOL    HW218810   0.587   4.420   2.407
 5971SOL     OW18811   2.053   0.224   2.957
 5971SOL    HW118812   1.998   0.144   2.984
 5971SOL    HW218813   2.042   0.296   3.026
 5972SOL     OW18814   4.115   6.523   0.383
 5972SOL    HW118815   4.059   6.560   0.309
 5972SOL    HW218816   4.168   6.596   0.426
 5973SOL     OW18817   1.776   5.420   2.459
 5973SOL    HW118818   1.752   5.329   2.425
 5973SOL    HW218819   1.839   5.410   2.536
 5974SOL     OW18820   6.025   4.193   5.795
 5974SOL    HW118821   6.052   4.102   5.764
 5974SOL    HW218822   6.018   4.254   5.716
 5975SOL     OW18823   3.995   2.376   1.108
 5975SOL    HW118824   3.904   2.346   1.135
 5975SOL    HW218825   4.021   2.457   1.161
 5976SOL     OW18826   2.906   3.390   5.031
 5976SOL    HW118827   2.891   3.421   5.125
 5976SOL    HW218828   2.835   3.324   5.006
 5977SOL     OW18829   1.168   4.649   1.365
 5977SOL    HW118830   1.094   4.617   1.306
 5977SOL    HW218831   1.178   4.748   1.354
 5978SOL     OW18832   5.836   4.619   2.708
 5978SOL    HW118833   5.773   4.682   2.752
 5978SOL    HW218834   5.910   4.596   2.771
 5979SOL     OW18835   6.900   1.081   3.457
 5979SOL    HW118836   6.931   1.129   3.375
 5979SOL    HW218837   6.966   1.009   3.479
 5980SOL     OW18838   4.023   4.544   6.814
 5980SOL    HW118839   4.087   4.615   6.840
 5980SOL    HW218840   4.063   4.454   6.830
 5981SOL     OW18841   6.934   1.883   1.782
 5981SOL    HW118842   0.013   1.873   1.801
 5981SOL    HW218843   6.911   1.836   1.697
 5982SOL     OW18844   6.017   1.581   6.451
 5982SOL    HW118845   5.946   1.607   6.385
 5982SOL    HW218846   6.022   1.482   6.458
 5983SOL     OW18847   2.283   1.647   4.356
 5983SOL    HW118848   2.186   1.628   4.370
 5983SOL    HW218849   2.303   1.741   4.385
 5984SOL     OW18850   0.325   0.306   4.755
 5984SOL    HW118851   0.318   0.291   4.656
 5984SOL    HW218852   0.266   0.383   4.781
 5985SOL     OW18853   5.328   2.619   4.091
 5985SOL    HW118854   5.350   2.545   4.026
 5985SOL    HW218855   5.374   2.601   4.178
 5986SOL     OW18856   3.103   3.149   4.343
 5986SOL    HW118857   3.066   3.184   4.430
 5986SOL    HW218858   3.171   3.212   4.308
 5987SOL     OW18859   4.228   0.878   5.019
 5987SOL    HW118860   4.320   0.886   4.980
 5987SOL    HW218861   4.227   0.918   5.111
 5988SOL     OW18862   4.150   6.909   4.603
 5988SOL    HW118863   4.099   6.840   4.552
 5988SOL    HW218864   4.139   6.998   4.559
 5989SOL     OW18865   2.289   6.297   6.728
 5989SOL    HW118866   2.339   6.362   6.671
 5989SOL    HW218867   2.264   6.217   6.673
 5990SOL     OW18868   3.947   4.146   0.790
 5990SOL    HW118869   4.043   4.147   0.762
 5990SOL    HW218870   3.903   4.231   0.763
 5991SOL     OW18871   3.988   5.089   4.839
 5991SOL    HW118872   4.035   5.021   4.784
 5991SOL    HW218873   3.932   5.147   4.780
 5992SOL     OW18874   3.664   0.545   4.209
 5992SOL    HW118875   3.567   0.524   4.193
 5992SOL    HW218876   3.690   0.518   4.301
 5993SOL     OW18877   3.648   6.716   6.059
 5993SOL    HW118878   3.686   6.627   6.035
 5993SOL    HW218879   3.599   6.754   5.980
 5994SOL     OW18880   6.156   2.174   1.682
 5994SOL    HW118881   6.142   2.112   1.760
 5994SOL    HW218882   6.238   2.229   1.697
 5995SOL     OW18883   0.080   5.321   1.534
 5995SOL    HW118884   0.008   5.263   1.574
 5995SOL    HW218885   0.135   5.360   1.607
 5996SOL     OW18886   0.445   6.074   6.319
 5996SOL    HW118887   0.518   6.113   6.374
 5996SOL    HW218888   0.446   5.974   6.328
 5997SOL     OW18889   0.492   6.787   2.337
 5997SOL    HW118890   0.463   6.852   2.266
 5997SOL    HW218891   0.414   6.730   2.363
 5998SOL     OW18892   5.550   2.307   2.673
 5998SOL    HW118893   5.487   2.376   2.636
 5998SOL    HW218894   5.600   2.265   2.597
 5999SOL     OW18895   1.154   2.185   3.123
 5999SOL    HW118896   1.077   2.216   3.068
 5999SOL    HW218897   1.183   2.094   3.092
 6000SOL     OW18898   3.972   5.328   2.139
 6000SOL    HW118899   3.885   5.312   2.092
 6000SOL    HW218900   3.957   5.389   2.217
 6001SOL     OW18901   0.429   3.691   6.609
 6001SOL    HW118902   0.520   3.691   6.651
 6001SOL    HW218903   0.381   3.775   6.634
 6002SOL     OW18904   6.982   6.670   1.349
 6002SOL    HW118905   7.011   6.581   1.314
 6002SOL    HW218906   0.043   6.729   1.361
 6003SOL     OW18907   5.949   3.241   4.859
 6003SOL    HW118908   5.971   3.247   4.956
 6003SOL    HW218909   6.033   3.232   4.806
 6004SOL     OW18910   0.348   3.895   3.712
 6004SOL    HW118911   0.402   3.811   3.717
 6004SOL    HW218912   0.363   3.939   3.623
 6005SOL     OW18913   4.150   4.973   3.948
 6005SOL    HW118914   4.217   5.017   3.889
 6005SOL    HW218915   4.065   4.957   3.897
 6006SOL     OW18916   3.733   0.111   6.644
 6006SOL    HW118917   3.643   0.094   6.603
 6006SOL    HW218918   3.735   0.073   6.736
 6007SOL     OW18919   4.969   2.769   3.604
 6007SOL    HW118920   4.982   2.819   3.690
 6007SOL    HW218921   4.893   2.810   3.554
 6008SOL     OW18922   3.016   5.473   5.727
 6008SOL    HW118923   3.026   5.488   5.825
 6008SOL    HW218924   3.075   5.396   5.700
 6009SOL     OW18925   2.754   1.508   5.131
 6009SOL    HW118926   2.718   1.419   5.101
 6009SOL    HW218927   2.723   1.579   5.069
 6010SOL     OW18928   2.230   4.459   1.990
 6010SOL    HW118929   2.222   4.502   2.080
 6010SOL    HW218930   2.250   4.529   1.921
 6011SOL     OW18931   5.530   2.378   1.931
 6011SOL    HW118932   5.434   2.400   1.913
 6011SOL    HW218933   5.564   2.318   1.859
 6012SOL     OW18934   0.011   2.097   0.453
 6012SOL    HW118935   7.013   2.108   0.551
 6012SOL    HW218936   6.963   2.032   0.415
 6013SOL     OW18937   5.968   1.541   2.466
 6013SOL    HW118938   5.983   1.446   2.492
 6013SOL    HW218939   5.926   1.545   2.376
 6014SOL     OW18940   5.074   2.045   0.724
 6014SOL    HW118941   5.051   2.085   0.813
 6014SOL    HW218942   5.169   2.066   0.701
 6015SOL     OW18943   5.984   2.550   5.882
 6015SOL    HW118944   6.001   2.626   5.819
 6015SOL    HW218945   5.993   2.581   5.976
 6016SOL     OW18946   0.914   1.114   5.733
 6016SOL    HW118947   0.914   1.069   5.822
 6016SOL    HW218948   0.995   1.087   5.681
 6017SOL     OW18949   5.904   5.465   2.536
 6017SOL    HW118950   5.814   5.434   2.506
 6017SOL    HW218951   5.903   5.480   2.635
 6018SOL     OW18952   3.515   2.845   0.067
 6018SOL    HW118953   3.521   2.930   0.118
 6018SOL    HW218954   3.467   2.861   6.999
 6019SOL     OW18955   4.541   1.820   3.799
 6019SOL    HW118956   4.612   1.889   3.785
 6019SOL    HW218957   4.562   1.739   3.744
 6020SOL     OW18958   2.093   6.747   1.572
 6020SOL    HW118959   2.062   6.680   1.639
 6020SOL    HW218960   2.180   6.786   1.601
 6021SOL     OW18961   4.572   0.037   2.746
 6021SOL    HW118962   4.520   0.123   2.754
 6021SOL    HW218963   4.594   0.003   2.837
 6022SOL     OW18964   4.715   0.740   4.493
 6022SOL    HW118965   4.690   0.832   4.525
 6022SOL    HW218966   4.754   0.688   4.568
 6023SOL     OW18967   6.625   1.585   3.232
 6023SOL    HW118968   6.536   1.573   3.274
 6023SOL    HW218969   6.669   1.666   3.271
 6024SOL     OW18970   0.476   4.759   2.519
 6024SOL    HW118971   0.506   4.789   2.610
 6024SOL    HW218972   0.473   4.659   2.516
 6025SOL     OW18973   4.580   0.438   1.981
 6025SOL    HW118974   4.549   0.391   2.064
 6025SOL    HW218975   4.504   0.445   1.916
 6026SOL     OW18976   0.630   4.624   4.595
 6026SOL    HW118977   0.581   4.553   4.545
 6026SOL    HW218978   0.726   4.623   4.568
 6027SOL     OW18979   1.848   3.816   5.983
 6027SOL    HW118980   1.826   3.852   5.892
 6027SOL    HW218981   1.908   3.737   5.974
 6028SOL     OW18982   0.861   4.015   0.381
 6028SOL    HW118983   0.765   3.988   0.371
 6028SOL    HW218984   0.865   4.110   0.414
 6029SOL     OW18985   2.020   6.622   0.005
 6029SOL    HW118986   1.993   6.540   6.972
 6029SOL    HW218987   2.109   6.607   0.048
 6030SOL     OW18988   2.427   0.786   3.093
 6030SOL    HW118989   2.369   0.824   3.021
 6030SOL    HW218990   2.413   0.687   3.097
 6031SOL     OW18991   4.195   5.085   5.101
 6031SOL    HW118992   4.224   5.139   5.179
 6031SOL    HW218993   4.109   5.121   5.065
 6032SOL     OW18994   1.627   3.306   2.305
 6032SOL    HW118995   1.621   3.400   2.270
 6032SOL    HW218996   1.604   3.242   2.231
 6033SOL     OW18997   1.866   2.570   2.961
 6033SOL    HW118998   1.920   2.583   3.044
 6033SOL    HW218999   1.792   2.505   2.978
 6034SOL     OW19000   2.181   4.750   4.467
 6034SOL    HW119001   2.215   4.749   4.373
 6034SOL    HW219002   2.148   4.659   4.492
 6035SOL     OW19003   6.045   1.086   3.830
 6035SOL    HW119004   5.999   1.008   3.872
 6035SOL    HW219005   6.013   1.171   3.874
 6036SOL     OW19006   0.409   0.098   4.900
 6036SOL    HW119007   0.386   0.178   4.846
 6036SOL    HW219008   0.327   0.042   4.914
 6037SOL     OW19009   5.092   5.437   6.534
 6037SOL    HW119010   5.080   5.526   6.490
 6037SOL    HW219011   5.176   5.438   6.590
 6038SOL     OW19012   0.629   3.138   5.989
 6038SOL    HW119013   0.707   3.146   6.051
 6038SOL    HW219014   0.617   3.225   5.940
 6039SOL     OW19015   3.318   3.650   3.045
 6039SOL    HW119016   3.371   3.623   3.125
 6039SOL    HW219017   3.278   3.740   3.060
 6040SOL     OW19018   0.185   1.629   6.586
 6040SOL    HW119019   0.179   1.541   6.540
 6040SOL    HW219020   0.185   1.615   6.685
 6041SOL     OW19021   1.514   1.432   6.407
 6041SOL    HW119022   1.536   1.503   6.474
 6041SOL    HW219023   1.593   1.415   6.349
 6042SOL     OW19024   5.676   5.109   2.165
 6042SOL    HW119025   5.749   5.042   2.167
 6042SOL    HW219026   5.633   5.115   2.255
 6043SOL     OW19027   1.245   4.607   5.031
 6043SOL    HW119028   1.205   4.691   4.995
 6043SOL    HW219029   1.328   4.628   5.082
 6044SOL     OW19030   0.047   1.824   0.860
 6044SOL    HW119031   0.045   1.868   0.770
 6044SOL    HW219032   0.140   1.793   0.879
 6045SOL     OW19033   5.205   5.719   0.708
 6045SOL    HW119034   5.188   5.789   0.778
 6045SOL    HW219035   5.301   5.722   0.680
 6046SOL     OW19036   3.194   2.338   0.803
 6046SOL    HW119037   3.269   2.373   0.859
 6046SOL    HW219038   3.171   2.245   0.832
 6047SOL     OW19039   6.570   1.463   3.755
 6047SOL    HW119040   6.594   1.476   3.659
 6047SOL    HW219041   6.536   1.370   3.769
 6048SOL     OW19042   4.495   0.125   3.422
 6048SOL    HW119043   4.425   0.111   3.491
 6048SOL    HW219044   4.586   0.119   3.464
 6049SOL     OW19045   5.030   3.145   6.499
 6049SOL    HW119046   5.042   3.177   6.593
 6049SOL    HW219047   5.054   3.218   6.435
 6050SOL     OW19048   4.312   4.082   5.944
 6050SOL    HW119049   4.359   4.068   5.857
 6050SOL    HW219050   4.287   4.178   5.954
 6051SOL     OW19051   2.223   2.241   3.066
 6051SOL    HW119052   2.309   2.213   3.022
 6051SOL    HW219053   2.166   2.289   2.999
 6052SOL     OW19054   6.582   0.196   0.363
 6052SOL    HW119055   6.637   0.182   0.445
 6052SOL    HW219056   6.562   0.107   0.321
 6053SOL     OW19057   3.373   0.391   7.015
 6053SOL    HW119058   3.455   0.338   0.017
 6053SOL    HW219059   3.301   0.330   6.981
 6054SOL     OW19060   2.363   4.060   0.955
 6054SOL    HW119061   2.460   4.066   0.935
 6054SOL    HW219062   2.313   4.030   0.874
 6055SOL     OW19063   5.452   0.787   5.462
 6055SOL    HW119064   5.404   0.704   5.491
 6055SOL    HW219065   5.495   0.831   5.541
 6056SOL     OW19066   4.470   1.739   5.258
 6056SOL    HW119067   4.381   1.717   5.298
 6056SOL    HW219068   4.457   1.766   5.162
 6057SOL     OW19069   4.376   1.769   4.710
 6057SOL    HW119070   4.378   1.694   4.644
 6057SOL    HW219071   4.367   1.856   4.662
 6058SOL     OW19072   5.598   2.904   3.191
 6058SOL    HW119073   5.696   2.895   3.205
 6058SOL    HW219074   5.561   2.815   3.162
 6059SOL     OW19075   4.451   5.688   5.957
 6059SOL    HW119076   4.357   5.711   5.984
 6059SOL    HW219077   4.449   5.611   5.894
 6060SOL     OW19078   3.511   3.956   5.712
 6060SOL    HW119079   3.509   4.054   5.734
 6060SOL    HW219080   3.606   3.925   5.708
 6061SOL     OW19081   3.341   2.841   0.543
 6061SOL    HW119082   3.247   2.820   0.569
 6061SOL    HW219083   3.355   2.819   0.447
 6062SOL     OW19084   2.479   1.396   4.672
 6062SOL    HW119085   2.539   1.444   4.735
 6062SOL    HW219086   2.533   1.331   4.617
 6063SOL     OW19087   3.898   1.250   6.527
 6063SOL    HW119088   3.934   1.157   6.518
 6063SOL    HW219089   3.871   1.267   6.622
 6064SOL     OW19090   2.298   5.503   2.559
 6064SOL    HW119091   2.288   5.530   2.655
 6064SOL    HW219092   2.320   5.405   2.554
 6065SOL     OW19093   6.261   6.612   1.068
 6065SOL    HW119094   6.244   6.598   1.165
 6065SOL    HW219095   6.338   6.556   1.039
 6066SOL     OW19096   4.605   1.523   1.155
 6066SOL    HW119097   4.609   1.623   1.159
 6066SOL    HW219098   4.555   1.489   1.235
 6067SOL     OW19099   6.598   2.003   6.604
 6067SOL    HW119100   6.640   2.093   6.594
 6067SOL    HW219101   6.550   1.998   6.691
 6068SOL     OW19102   5.575   3.318   4.701
 6068SOL    HW119103   5.476   3.308   4.716
 6068SOL    HW219104   5.591   3.380   4.625
 6069SOL     OW19105   6.509   3.565   6.345
 6069SOL    HW119106   6.582   3.501   6.322
 6069SOL    HW219107   6.470   3.603   6.261
 6070SOL     OW19108   2.991   1.890   6.415
 6070SOL    HW119109   3.006   1.800   6.372
 6070SOL    HW219110   2.894   1.914   6.407
 6071SOL     OW19111   4.656   6.001   5.829
 6071SOL    HW119112   4.641   6.099   5.832
 6071SOL    HW219113   4.645   5.967   5.736
 6072SOL     OW19114   1.053   1.051   1.786
 6072SOL    HW119115   1.055   1.119   1.860
 6072SOL    HW219116   1.093   1.091   1.704
 6073SOL     OW19117   6.394   3.123   0.756
 6073SOL    HW119118   6.457   3.099   0.830
 6073SOL    HW219119   6.439   3.186   0.693
 6074SOL     OW19120   1.207   6.769   4.457
 6074SOL    HW119121   1.129   6.716   4.424
 6074SOL    HW219122   1.290   6.715   4.448
 6075SOL     OW19123   6.551   2.962   6.642
 6075SOL    HW119124   6.544   2.891   6.571
 6075SOL    HW219125   6.513   2.927   6.728
 6076SOL     OW19126   2.322   0.009   5.009
 6076SOL    HW119127   2.331   6.970   4.928
 6076SOL    HW219128   2.408   0.059   5.025
 6077SOL     OW19129   4.999   5.757   2.583
 6077SOL    HW119130   5.017   5.660   2.567
 6077SOL    HW219131   5.086   5.806   2.593
 6078SOL     OW19132   3.490   4.942   2.542
 6078SOL    HW119133   3.499   4.901   2.451
 6078SOL    HW219134   3.570   4.919   2.597
 6079SOL     OW19135   3.288   3.766   6.632
 6079SOL    HW119136   3.324   3.811   6.550
 6079SOL    HW219137   3.331   3.677   6.642
 6080SOL     OW19138   0.226   1.541   0.739
 6080SOL    HW119139   0.269   1.582   0.819
 6080SOL    HW219140   0.296   1.495   0.684
 6081SOL     OW19141   6.479   3.820   4.252
 6081SOL    HW119142   6.558   3.759   4.257
 6081SOL    HW219143   6.400   3.769   4.218
 6082SOL     OW19144   3.752   0.463   3.268
 6082SOL    HW119145   3.842   0.492   3.235
 6082SOL    HW219146   3.692   0.445   3.189
 6083SOL     OW19147   0.821   5.590   6.002
 6083SOL    HW119148   0.755   5.604   6.076
 6083SOL    HW219149   0.819   5.668   5.940
 6084SOL     OW19150   6.841   5.375   4.393
 6084SOL    HW119151   6.811   5.322   4.314
 6084SOL    HW219152   6.786   5.350   4.473
 6085SOL     OW19153   6.672   3.991   0.079
 6085SOL    HW119154   6.601   4.045   0.035
 6085SOL    HW219155   6.693   3.911   0.024
 6086SOL     OW19156   3.670   1.272   4.697
 6086SOL    HW119157   3.737   1.251   4.768
 6086SOL    HW219158   3.717   1.293   4.612
 6087SOL     OW19159   5.147   6.992   6.682
 6087SOL    HW119160   5.063   6.961   6.637
 6087SOL    HW219161   5.226   6.952   6.637
 6088SOL     OW19162   0.164   6.283   4.584
 6088SOL    HW119163   0.200   6.294   4.491
 6088SOL    HW219164   0.227   6.229   4.638
 6089SOL     OW19165   0.590   3.860   1.785
 6089SOL    HW119166   0.605   3.958   1.772
 6089SOL    HW219167   0.495   3.838   1.765
 6090SOL     OW19168   0.487   6.306   6.187
 6090SOL    HW119169   0.517   6.298   6.092
 6090SOL    HW219170   0.435   6.225   6.213
 6091SOL     OW19171   0.726   1.344   2.120
 6091SOL    HW119172   0.734   1.258   2.070
 6091SOL    HW219173   0.771   1.335   2.209
 6092SOL     OW19174   2.903   0.550   3.174
 6092SOL    HW119175   2.896   0.450   3.176
 6092SOL    HW219176   2.962   0.579   3.099
 6093SOL     OW19177   1.732   2.822   2.168
 6093SOL    HW119178   1.683   2.779   2.244
 6093SOL    HW219179   1.790   2.896   2.202
 6094SOL     OW19180   2.166   1.571   1.632
 6094SOL    HW119181   2.070   1.581   1.608
 6094SOL    HW219182   2.203   1.489   1.587
 6095SOL     OW19183   4.799   3.225   6.963
 6095SOL    HW119184   4.884   3.177   6.986
 6095SOL    HW219185   4.818   3.323   6.954
 6096SOL     OW19186   5.892   0.741   3.998
 6096SOL    HW119187   5.817   0.768   4.058
 6096SOL    HW219188   5.857   0.722   3.907
 6097SOL     OW19189   2.359   0.533   3.054
 6097SOL    HW119190   2.312   0.485   3.129
 6097SOL    HW219191   2.431   0.474   3.017
 6098SOL     OW19192   1.593   2.053   5.623
 6098SOL    HW119193   1.553   1.961   5.628
 6098SOL    HW219194   1.635   2.075   5.711
 6099SOL     OW19195   5.466   5.849   5.523
 6099SOL    HW119196   5.452   5.836   5.621
 6099SOL    HW219197   5.385   5.818   5.474
 6100SOL     OW19198   5.935   3.332   6.257
 6100SOL    HW119199   5.942   3.373   6.166
 6100SOL    HW219200   5.964   3.236   6.253
 6101SOL     OW19201   6.718   1.841   5.984
 6101SOL    HW119202   6.743   1.846   6.080
 6101SOL    HW219203   6.751   1.755   5.945
 6102SOL     OW19204   3.387   1.290   4.441
 6102SOL    HW119205   3.352   1.204   4.406
 6102SOL    HW219206   3.366   1.298   4.538
 6103SOL     OW19207   0.270   0.505   3.854
 6103SOL    HW119208   0.266   0.568   3.777
 6103SOL    HW219209   0.187   0.516   3.910
 6104SOL     OW19210   6.173   2.129   6.690
 6104SOL    HW119211   6.202   2.086   6.776
 6104SOL    HW219212   6.105   2.200   6.710
 6105SOL     OW19213   3.356   6.317   5.254
 6105SOL    HW119214   3.453   6.322   5.277
 6105SOL    HW219215   3.322   6.224   5.272
 6106SOL     OW19216   2.536   4.822   6.438
 6106SOL    HW119217   2.440   4.807   6.463
 6106SOL    HW219218   2.594   4.763   6.494
 6107SOL     OW19219   2.158   4.771   4.033
 6107SOL    HW119220   2.177   4.698   3.967
 6107SOL    HW219221   2.111   4.847   3.987
 6108SOL     OW19222   0.695   1.977   3.319
 6108SOL    HW119223   0.772   1.927   3.279
 6108SOL    HW219224   0.624   1.912   3.346
 6109SOL     OW19225   5.348   2.792   0.051
 6109SOL    HW119226   5.259   2.792   0.006
 6109SOL    HW219227   5.391   2.703   0.039
 6110SOL     OW19228   2.530   2.633   6.439
 6110SOL    HW119229   2.533   2.569   6.362
 6110SOL    HW219230   2.471   2.710   6.415
 6111SOL     OW19231   1.225   4.984   2.857
 6111SOL    HW119232   1.171   4.946   2.932
 6111SOL    HW219233   1.267   4.909   2.805
 6112SOL     OW19234   1.886   2.312   2.603
 6112SOL    HW119235   1.812   2.282   2.664
 6112SOL    HW219236   1.904   2.241   2.535
 6113SOL     OW19237   0.832   0.899   5.930
 6113SOL    HW119238   0.820   0.867   5.835
 6113SOL    HW219239   0.801   0.828   5.993
 6114SOL     OW19240   5.032   5.355   0.370
 6114SOL    HW119241   5.102   5.302   0.323
 6114SOL    HW219242   5.056   5.452   0.367
 6115SOL     OW19243   4.743   5.198   3.414
 6115SOL    HW119244   4.760   5.163   3.507
 6115SOL    HW219245   4.770   5.294   3.409
 6116SOL     OW19246   3.117   1.367   1.340
 6116SOL    HW119247   3.067   1.453   1.333
 6116SOL    HW219248   3.090   1.320   1.425
 6117SOL     OW19249   6.054   0.132   4.741
 6117SOL    HW119250   6.023   0.131   4.836
 6117SOL    HW219251   6.139   0.185   4.733
 6118SOL     OW19252   0.087   2.201   1.808
 6118SOL    HW119253   0.127   2.118   1.848
 6118SOL    HW219254   0.123   2.281   1.856
 6119SOL     OW19255   0.320   4.492   4.885
 6119SOL    HW119256   0.241   4.431   4.880
 6119SOL    HW219257   0.319   4.542   4.971
 6120SOL     OW19258   2.922   6.977   3.878
 6120SOL    HW119259   2.899   6.966   3.781
 6120SOL    HW219260   2.999   0.023   3.886
 6121SOL     OW19261   0.033   2.781   4.300
 6121SOL    HW119262   0.103   2.778   4.372
 6121SOL    HW219263   6.968   2.736   4.333
 6122SOL     OW19264   3.775   6.504   2.629
 6122SOL    HW119265   3.792   6.551   2.543
 6122SOL    HW219266   3.844   6.434   2.643
 6123SOL     OW19267   0.018   0.888   1.602
 6123SOL    HW119268   0.096   0.829   1.586
 6123SOL    HW219269   0.016   0.916   1.699
 6124SOL     OW19270   3.580   6.505   5.235
 6124SOL    HW119271   3.493   6.551   5.253
 6124SOL    HW219272   3.645   6.570   5.197
 6125SOL     OW19273   2.502   5.685   1.035
 6125SOL    HW119274   2.531   5.589   1.039
 6125SOL    HW219275   2.582   5.745   1.039
 6126SOL     OW19276   5.085   5.940   4.302
 6126SOL    HW119277   5.166   5.884   4.314
 6126SOL    HW219278   5.056   5.977   4.391
 6127SOL     OW19279   2.457   6.945   1.308
 6127SOL    HW119280   2.483   6.953   1.405
 6127SOL    HW219281   2.508   6.871   1.266
 6128SOL     OW19282   6.844   3.138   0.305
 6128SOL    HW119283   6.828   3.111   0.400
 6128SOL    HW219284   6.939   3.164   0.293
 6129SOL     OW19285   6.520   3.816   2.929
 6129SOL    HW119286   6.472   3.729   2.915
 6129SOL    HW219287   6.602   3.801   2.983
 6130SOL     OW19288   6.627   3.313   4.582
 6130SOL    HW119289   6.659   3.278   4.494
 6130SOL    HW219290   6.662   3.255   4.656
 6131SOL     OW19291   6.806   1.292   5.413
 6131SOL    HW119292   6.789   1.197   5.385
 6131SOL    HW219293   6.896   1.298   5.456
 6132SOL     OW19294   3.682   1.082   1.003
 6132SOL    HW119295   3.681   0.989   1.042
 6132SOL    HW219296   3.609   1.090   0.935
 6133SOL     OW19297   0.326   3.127   2.416
 6133SOL    HW119298   0.424   3.146   2.411
 6133SOL    HW219299   0.275   3.207   2.385
 6134SOL     OW19300   3.805   3.175   6.552
 6134SOL    HW119301   3.856   3.103   6.599
 6134SOL    HW219302   3.775   3.142   6.463
 6135SOL     OW19303   6.801   0.336   1.866
 6135SOL    HW119304   6.790   0.348   1.964
 6135SOL    HW219305   6.899   0.328   1.844
 6136SOL     OW19306   0.538   1.194   2.440
 6136SOL    HW119307   0.526   1.096   2.452
 6136SOL    HW219308   0.625   1.222   2.479
 6137SOL     OW19309   3.766   1.072   5.932
 6137SOL    HW119310   3.789   1.166   5.956
 6137SOL    HW219311   3.823   1.042   5.855
 6138SOL     OW19312   3.428   6.778   2.706
 6138SOL    HW119313   3.339   6.744   2.678
 6138SOL    HW219314   3.484   6.703   2.741
 6139SOL     OW19315   2.060   3.256   5.495
 6139SOL    HW119316   1.976   3.242   5.442
 6139SOL    HW219317   2.136   3.274   5.433
 6140SOL     OW19318   0.500   6.919   1.968
 6140SOL    HW119319   0.445   6.932   2.050
 6140SOL    HW219320   0.512   6.821   1.951
 6141SOL     OW19321   6.420   6.274   4.573
 6141SOL    HW119322   6.443   6.361   4.530
 6141SOL    HW219323   6.349   6.289   4.642
 6142SOL     OW19324   6.910   5.134   0.547
 6142SOL    HW119325   6.902   5.034   0.554
 6142SOL    HW219326   6.852   5.167   0.473
 6143SOL     OW19327   6.032   4.771   6.232
 6143SOL    HW119328   6.012   4.677   6.206
 6143SOL    HW219329   6.088   4.814   6.161
 6144SOL     OW19330   6.918   4.252   2.800
 6144SOL    HW119331   6.966   4.176   2.845
 6144SOL    HW219332   6.983   4.304   2.744
 6145SOL     OW19333   5.002   5.749   3.838
 6145SOL    HW119334   4.913   5.790   3.856
 6145SOL    HW219335   5.063   5.818   3.800
 6146SOL     OW19336   4.436   1.339   3.668
 6146SOL    HW119337   4.502   1.272   3.702
 6146SOL    HW219338   4.419   1.321   3.571
 6147SOL     OW19339   1.801   5.011   2.914
 6147SOL    HW119340   1.887   4.978   2.952
 6147SOL    HW219341   1.724   4.964   2.959
 6148SOL     OW19342   6.885   6.592   4.486
 6148SOL    HW119343   6.873   6.556   4.394
 6148SOL    HW219344   6.800   6.636   4.516
 6149SOL     OW19345   3.849   4.891   3.571
 6149SOL    HW119346   3.863   4.828   3.495
 6149SOL    HW219347   3.898   4.976   3.554
 6150SOL     OW19348   4.543   5.338   6.712
 6150SOL    HW119349   4.491   5.260   6.675
 6150SOL    HW219350   4.596   5.309   6.791
 6151SOL     OW19351   6.050   3.209   5.109
 6151SOL    HW119352   6.138   3.161   5.109
 6151SOL    HW219353   6.015   3.215   5.202
 6152SOL     OW19354   5.386   5.027   6.035
 6152SOL    HW119355   5.370   4.961   5.961
 6152SOL    HW219356   5.437   4.983   6.109
 6153SOL     OW19357   4.696   4.148   1.495
 6153SOL    HW119358   4.666   4.242   1.476
 6153SOL    HW219359   4.646   4.085   1.436
 6154SOL     OW19360   5.454   1.504   1.884
 6154SOL    HW119361   5.408   1.543   1.963
 6154SOL    HW219362   5.414   1.542   1.800
 6155SOL     OW19363   1.037   3.406   4.464
 6155SOL    HW119364   1.134   3.411   4.490
 6155SOL    HW219365   1.030   3.379   4.368
 6156SOL     OW19366   4.650   6.331   2.670
 6156SOL    HW119367   4.744   6.366   2.679
 6156SOL    HW219368   4.630   6.270   2.747
 6157SOL     OW19369   1.670   2.672   3.470
 6157SOL    HW119370   1.695   2.592   3.525
 6157SOL    HW219371   1.625   2.740   3.528
 6158SOL     OW19372   4.484   0.850   6.635
 6158SOL    HW119373   4.485   0.947   6.660
 6158SOL    HW219374   4.494   0.840   6.536
 6159SOL     OW19375   5.124   1.692   0.321
 6159SOL    HW119376   5.140   1.638   0.403
 6159SOL    HW219377   5.135   1.789   0.342
 6160SOL     OW19378   5.475   5.778   0.639
 6160SOL    HW119379   5.434   5.777   0.548
 6160SOL    HW219380   5.489   5.683   0.670
 6161SOL     OW19381   6.096   1.567   5.461
 6161SOL    HW119382   6.069   1.661   5.439
 6161SOL    HW219383   6.086   1.552   5.559
 6162SOL     OW19384   1.020   4.825   4.645
 6162SOL    HW119385   1.057   4.875   4.567
 6162SOL    HW219386   0.964   4.749   4.613
 6163SOL     OW19387   5.371   5.145   1.002
 6163SOL    HW119388   5.370   5.243   0.984
 6163SOL    HW219389   5.306   5.123   1.075
 6164SOL     OW19390   2.198   2.431   1.630
 6164SOL    HW119391   2.217   2.341   1.590
 6164SOL    HW219392   2.268   2.451   1.699
 6165SOL     OW19393   3.799   6.005   6.996
 6165SOL    HW119394   3.783   5.951   0.060
 6165SOL    HW219395   3.841   6.092   0.002
 6166SOL     OW19396   2.948   0.960   6.016
 6166SOL    HW119397   2.925   0.932   5.923
 6166SOL    HW219398   2.898   1.043   6.040
 6167SOL     OW19399   0.880   4.913   2.587
 6167SOL    HW119400   0.954   4.958   2.536
 6167SOL    HW219401   0.916   4.879   2.674
 6168SOL     OW19402   0.459   3.470   1.400
 6168SOL    HW119403   0.538   3.422   1.361
 6168SOL    HW219404   0.455   3.563   1.364
 6169SOL     OW19405   1.855   3.358   1.672
 6169SOL    HW119406   1.911   3.431   1.631
 6169SOL    HW219407   1.889   3.336   1.763
 6170SOL     OW19408   0.443   3.442   5.276
 6170SOL    HW119409   0.398   3.393   5.201
 6170SOL    HW219410   0.409   3.407   5.363
 6171SOL     OW19411   0.696   0.852   0.635
 6171SOL    HW119412   0.659   0.849   0.542
 6171SOL    HW219413   0.654   0.928   0.685
 6172SOL     OW19414   1.305   2.553   3.130
 6172SOL    HW119415   1.251   2.564   3.214
 6172SOL    HW219416   1.387   2.608   3.135
 6173SOL     OW19417   6.807   5.691   3.122
 6173SOL    HW119418   6.887   5.725   3.074
 6173SOL    HW219419   6.736   5.665   3.056
 6174SOL     OW19420   5.062   4.888   2.835
 6174SOL    HW119421   5.037   4.882   2.739
 6174SOL    HW219422   5.010   4.962   2.878
 6175SOL     OW19423   3.489   0.417   4.944
 6175SOL    HW119424   3.428   0.466   4.881
 6175SOL    HW219425   3.575   0.395   4.898
 6176SOL     OW19426   4.440   3.454   5.334
 6176SOL    HW119427   4.514   3.512   5.298
 6176SOL    HW219428   4.365   3.451   5.268
 6177SOL     OW19429   6.110   1.853   1.683
 6177SOL    HW119430   6.208   1.843   1.701
 6177SOL    HW219431   6.060   1.850   1.770
 6178SOL     OW19432   4.887   3.673   1.808
 6178SOL    HW119433   4.868   3.576   1.826
 6178SOL    HW219434   4.801   3.722   1.796
 6179SOL     OW19435   6.566   4.731   1.796
 6179SOL    HW119436   6.493   4.791   1.827
 6179SOL    HW219437   6.639   4.729   1.864
 6180SOL     OW19438   3.050   4.790   0.669
 6180SOL    HW119439   3.029   4.704   0.716
 6180SOL    HW219440   3.014   4.867   0.722
 6181SOL     OW19441   5.231   5.468   6.236
 6181SOL    HW119442   5.187   5.437   6.151
 6181SOL    HW219443   5.160   5.486   6.304
 6182SOL     OW19444   3.590   3.097   0.173
 6182SOL    HW119445   3.548   3.172   0.121
 6182SOL    HW219446   3.680   3.076   0.135
 6183SOL     OW19447   1.445   2.312   1.032
 6183SOL    HW119448   1.419   2.225   0.990
 6183SOL    HW219449   1.543   2.325   1.023
 6184SOL     OW19450   2.965   0.659   5.747
 6184SOL    HW119451   2.982   0.574   5.797
 6184SOL    HW219452   2.884   0.704   5.784
 6185SOL     OW19453   3.109   3.114   5.560
 6185SOL    HW119454   3.186   3.153   5.509
 6185SOL    HW219455   3.125   3.125   5.658
 6186SOL     OW19456   6.874   1.820   1.515
 6186SOL    HW119457   6.800   1.880   1.483
 6186SOL    HW219458   6.957   1.838   1.462
 6187SOL     OW19459   4.770   2.191   5.212
 6187SOL    HW119460   4.738   2.121   5.276
 6187SOL    HW219461   4.825   2.148   5.140
 6188SOL     OW19462   1.984   1.385   5.445
 6188SOL    HW119463   1.899   1.423   5.481
 6188SOL    HW219464   1.965   1.335   5.361
 6189SOL     OW19465   3.898   5.468   2.368
 6189SOL    HW119466   3.816   5.501   2.414
 6189SOL    HW219467   3.937   5.392   2.419
 6190SOL     OW19468   6.312   3.416   5.917
 6190SOL    HW119469   6.295   3.334   5.973
 6190SOL    HW219470   6.240   3.483   5.934
 6191SOL     OW19471   2.487   3.521   6.150
 6191SOL    HW119472   2.518   3.615   6.161
 6191SOL    HW219473   2.537   3.478   6.075
 6192SOL     OW19474   2.343   1.395   6.790
 6192SOL    HW119475   2.376   1.302   6.773
 6192SOL    HW219476   2.320   1.438   6.703
 6193SOL     OW19477   5.316   4.902   0.223
 6193SOL    HW119478   5.374   4.837   0.174
 6193SOL    HW219479   5.220   4.875   0.214
 6194SOL     OW19480   6.601   1.007   6.975
 6194SOL    HW119481   6.504   1.010   6.998
 6194SOL    HW219482   6.651   0.957   0.028
 6195SOL     OW19483   5.762   0.500   4.943
 6195SOL    HW119484   5.854   0.470   4.917
 6195SOL    HW219485   5.759   0.599   4.946
 6196SOL     OW19486   5.171   4.355   2.684
 6196SOL    HW119487   5.243   4.309   2.735
 6196SOL    HW219488   5.207   4.386   2.596
 6197SOL     OW19489   2.506   5.459   1.872
 6197SOL    HW119490   2.600   5.476   1.843
 6197SOL    HW219491   2.486   5.362   1.867
 6198SOL     OW19492   5.484   6.592   6.036
 6198SOL    HW119493   5.421   6.546   6.098
 6198SOL    HW219494   5.576   6.590   6.075
 6199SOL     OW19495   0.371   0.452   0.546
 6199SOL    HW119496   0.466   0.438   0.520
 6199SOL    HW219497   0.319   0.483   0.467
 6200SOL     OW19498   1.423   1.110   2.512
 6200SOL    HW119499   1.410   1.137   2.417
 6200SOL    HW219500   1.474   1.024   2.516
 6201SOL     OW19501   6.879   4.488   3.929
 6201SOL    HW119502   6.882   4.545   4.011
 6201SOL    HW219503   6.965   4.437   3.920
 6202SOL     OW19504   5.844   1.865   3.582
 6202SOL    HW119505   5.934   1.878   3.624
 6202SOL    HW219506   5.803   1.780   3.616
 6203SOL     OW19507   6.694   5.774   1.773
 6203SOL    HW119508   6.611   5.727   1.802
 6203SOL    HW219509   6.747   5.801   1.853
 6204SOL     OW19510   1.210   6.154   4.701
 6204SOL    HW119511   1.139   6.087   4.726
 6204SOL    HW219512   1.217   6.223   4.773
 6205SOL     OW19513   4.648   4.790   2.388
 6205SOL    HW119514   4.711   4.720   2.422
 6205SOL    HW219515   4.578   4.747   2.331
 6206SOL     OW19516   4.875   1.682   3.814
 6206SOL    HW119517   4.840   1.740   3.740
 6206SOL    HW219518   4.877   1.587   3.784
 6207SOL     OW19519   1.277   5.759   4.377
 6207SOL    HW119520   1.327   5.737   4.293
 6207SOL    HW219521   1.315   5.842   4.418
 6208SOL     OW19522   3.726   2.785   5.952
 6208SOL    HW119523   3.648   2.748   5.901
 6208SOL    HW219524   3.699   2.869   5.998
 6209SOL     OW19525   3.623   4.247   1.041
 6209SOL    HW119526   3.651   4.341   1.061
 6209SOL    HW219527   3.625   4.194   1.126
 6210SOL     OW19528   4.883   3.387   3.345
 6210SOL    HW119529   4.804   3.440   3.315
 6210SOL    HW219530   4.859   3.331   3.424
 6211SOL     OW19531   4.521   5.448   4.819
 6211SOL    HW119532   4.465   5.482   4.895
 6211SOL    HW219533   4.539   5.351   4.832
 6212SOL     OW19534   2.591   5.066   5.374
 6212SOL    HW119535   2.612   5.163   5.386
 6212SOL    HW219536   2.675   5.016   5.352
 6213SOL     OW19537   4.933   6.672   0.422
 6213SOL    HW119538   5.026   6.690   0.456
 6213SOL    HW219539   4.915   6.574   0.425
 6214SOL     OW19540   5.914   5.841   5.045
 6214SOL    HW119541   5.948   5.752   5.015
 6214SOL    HW219542   5.926   5.848   5.145
 6215SOL     OW19543   5.077   3.239   6.141
 6215SOL    HW119544   5.020   3.299   6.197
 6215SOL    HW219545   5.040   3.146   6.142
 6216SOL     OW19546   5.844   2.804   3.288
 6216SOL    HW119547   5.815   2.856   3.368
 6216SOL    HW219548   5.865   2.710   3.316
 6217SOL     OW19549   0.862   5.322   2.787
 6217SOL    HW119550   0.813   5.253   2.734
 6217SOL    HW219551   0.861   5.409   2.737
 6218SOL     OW19552   5.080   5.850   0.124
 6218SOL    HW119553   5.007   5.919   0.132
 6218SOL    HW219554   5.167   5.892   0.149
 6219SOL     OW19555   1.070   1.037   4.969
 6219SOL    HW119556   1.021   1.071   4.888
 6219SOL    HW219557   1.071   1.108   5.039
 6220SOL     OW19558   3.612   0.319   0.645
 6220SOL    HW119559   3.649   0.406   0.677
 6220SOL    HW219560   3.544   0.285   0.710
 6221SOL     OW19561   6.768   6.253   6.435
 6221SOL    HW119562   6.772   6.323   6.506
 6221SOL    HW219563   6.690   6.271   6.375
 6222SOL     OW19564   5.737   1.053   2.005
 6222SOL    HW119565   5.772   1.083   1.917
 6222SOL    HW219566   5.812   1.018   2.061
 6223SOL     OW19567   0.652   4.977   3.957
 6223SOL    HW119568   0.570   5.013   3.912
 6223SOL    HW219569   0.694   4.907   3.899
 6224SOL     OW19570   4.144   1.344   6.708
 6224SOL    HW119571   4.057   1.349   6.757
 6224SOL    HW219572   4.149   1.258   6.658
 6225SOL     OW19573   4.026   0.863   6.974
 6225SOL    HW119574   4.044   0.765   6.981
 6225SOL    HW219575   4.083   0.902   6.902
 6226SOL     OW19576   1.361   1.617   4.069
 6226SOL    HW119577   1.329   1.620   3.974
 6226SOL    HW219578   1.306   1.681   4.124
 6227SOL     OW19579   3.084   4.664   5.662
 6227SOL    HW119580   3.006   4.644   5.602
 6227SOL    HW219581   3.049   4.691   5.752
 6228SOL     OW19582   2.159   2.339   3.491
 6228SOL    HW119583   2.159   2.433   3.526
 6228SOL    HW219584   2.129   2.276   3.562
 6229SOL     OW19585   0.135   3.399   4.755
 6229SOL    HW119586   0.082   3.454   4.690
 6229SOL    HW219587   0.099   3.413   4.847
 6230SOL     OW19588   0.130   1.692   2.596
 6230SOL    HW119589   0.180   1.772   2.564
 6230SOL    HW219590   0.070   1.659   2.522
 6231SOL     OW19591   5.450   4.538   0.842
 6231SOL    HW119592   5.384   4.554   0.915
 6231SOL    HW219593   5.430   4.597   0.764
 6232SOL     OW19594   5.597   0.501   0.328
 6232SOL    HW119595   5.636   0.586   0.364
 6232SOL    HW219596   5.533   0.463   0.395
 6233SOL     OW19597   0.518   3.493   2.481
 6233SOL    HW119598   0.596   3.552   2.501
 6233SOL    HW219599   0.545   3.424   2.414
 6234SOL     OW19600   0.324   0.172   4.517
 6234SOL    HW119601   0.327   0.072   4.527
 6234SOL    HW219602   0.371   0.199   4.434
 6235SOL     OW19603   6.667   1.052   2.489
 6235SOL    HW119604   6.690   1.146   2.465
 6235SOL    HW219605   6.750   1.005   2.520
 6236SOL     OW19606   0.612   4.649   1.009
 6236SOL    HW119607   0.666   4.566   0.998
 6236SOL    HW219608   0.657   4.710   1.074
 6237SOL     OW19609   3.604   0.008   0.625
 6237SOL    HW119610   3.522   6.980   0.593
 6237SOL    HW219611   3.580   0.097   0.664
 6238SOL     OW19612   3.006   6.511   3.975
 6238SOL    HW119613   2.924   6.532   4.028
 6238SOL    HW219614   3.006   6.413   3.952
 6239SOL     OW19615   4.583   0.260   2.441
 6239SOL    HW119616   4.557   0.354   2.464
 6239SOL    HW219617   4.661   0.232   2.496
 6240SOL     OW19618   3.197   3.105   4.927
 6240SOL    HW119619   3.234   3.075   4.839
 6240SOL    HW219620   3.152   3.194   4.915
 6241SOL     OW19621   3.052   6.734   3.832
 6241SOL    HW119622   3.026   6.651   3.881
 6241SOL    HW219623   2.988   6.808   3.855
 6242SOL     OW19624   3.250   1.976   2.664
 6242SOL    HW119625   3.216   2.051   2.608
 6242SOL    HW219626   3.214   1.984   2.757
 6243SOL     OW19627   5.899   1.230   6.178
 6243SOL    HW119628   5.918   1.203   6.084
 6243SOL    HW219629   5.985   1.241   6.228
 6244SOL     OW19630   4.415   4.906   3.258
 6244SOL    HW119631   4.417   4.934   3.163
 6244SOL    HW219632   4.509   4.895   3.292
 6245SOL     OW19633   1.364   4.777   2.635
 6245SOL    HW119634   1.456   4.737   2.636
 6245SOL    HW219635   1.296   4.706   2.654
 6246SOL     OW19636   1.250   6.859   4.714
 6246SOL    HW119637   1.223   6.832   4.621
 6246SOL    HW219638   1.317   6.794   4.749
 6247SOL     OW19639   7.007   5.343   3.779
 6247SOL    HW119640   0.035   5.306   3.698
 6247SOL    HW219641   6.938   5.408   3.750
 6248SOL     OW19642   4.174   2.555   6.610
 6248SOL    HW119643   4.076   2.561   6.593
 6248SOL    HW219644   4.223   2.578   6.526
 6249SOL     OW19645   0.099   2.884   1.396
 6249SOL    HW119646   0.124   2.872   1.492
 6249SOL    HW219647   0.120   2.800   1.345
 6250SOL     OW19648   6.692   6.774   0.738
 6250SOL    HW119649   6.735   6.741   0.821
 6250SOL    HW219650   6.644   6.860   0.757
 6251SOL     OW19651   3.079   0.000   4.401
 6251SOL    HW119652   2.995   6.972   4.429
 6251SOL    HW219653   3.081   0.008   4.301
 6252SOL     OW19654   2.758   5.624   6.990
 6252SOL    HW119655   2.762   5.668   0.062
 6252SOL    HW219656   2.665   5.592   6.972
 6253SOL     OW19657   3.010   5.012   4.478
 6253SOL    HW119658   2.922   4.967   4.458
 6253SOL    HW219659   3.018   5.025   4.577
 6254SOL     OW19660   6.986   5.516   0.725
 6254SOL    HW119661   6.981   5.418   0.744
 6254SOL    HW219662   6.970   5.532   0.628
 6255SOL     OW19663   1.525   1.899   1.270
 6255SOL    HW119664   1.453   1.909   1.201
 6255SOL    HW219665   1.560   1.806   1.267
 6256SOL     OW19666   4.705   5.619   2.649
 6256SOL    HW119667   4.647   5.632   2.729
 6256SOL    HW219668   4.668   5.669   2.571
 6257SOL     OW19669   4.364   3.922   0.564
 6257SOL    HW119670   4.380   3.827   0.540
 6257SOL    HW219671   4.434   3.954   0.627
 6258SOL     OW19672   4.434   0.160   5.902
 6258SOL    HW119673   4.430   0.146   5.803
 6258SOL    HW219674   4.358   0.218   5.931
 6259SOL     OW19675   2.070   6.784   5.593
 6259SOL    HW119676   2.140   6.853   5.612
 6259SOL    HW219677   2.106   6.718   5.527
 6260SOL     OW19678   1.647   0.381   0.353
 6260SOL    HW119679   1.712   0.456   0.362
 6260SOL    HW219680   1.581   0.402   0.281
 6261SOL     OW19681   4.640   6.882   1.180
 6261SOL    HW119682   4.569   6.817   1.151
 6261SOL    HW219683   4.675   6.855   1.270
 6262SOL     OW19684   6.358   6.524   2.219
 6262SOL    HW119685   6.316   6.452   2.273
 6262SOL    HW219686   6.441   6.490   2.175
 6263SOL     OW19687   0.369   6.897   4.521
 6263SOL    HW119688   0.339   6.875   4.428
 6263SOL    HW219689   0.469   6.890   4.526
 6264SOL     OW19690   0.215   6.906   1.088
 6264SOL    HW119691   0.310   6.893   1.062
 6264SOL    HW219692   0.207   6.901   1.188
 6265SOL     OW19693   3.984   2.650   0.617
 6265SOL    HW119694   3.888   2.662   0.642
 6265SOL    HW219695   4.021   2.571   0.666
 6266SOL     OW19696   3.254   5.349   3.213
 6266SOL    HW119697   3.346   5.309   3.218
 6266SOL    HW219698   3.186   5.279   3.236
 6267SOL     OW19699   1.072   6.384   5.602
 6267SOL    HW119700   1.028   6.457   5.550
 6267SOL    HW219701   1.051   6.394   5.699
 6268SOL     OW19702   3.635   0.357   1.771
 6268SOL    HW119703   3.591   0.279   1.726
 6268SOL    HW219704   3.712   0.388   1.716
 6269SOL     OW19705   5.576   6.568   1.270
 6269SOL    HW119706   5.652   6.632   1.257
 6269SOL    HW219707   5.604   6.495   1.332
 6270SOL     OW19708   1.433   6.164   7.018
 6270SOL    HW119709   1.485   6.238   6.976
 6270SOL    HW219710   1.362   6.133   6.955
 6271SOL     OW19711   5.930   3.266   7.010
 6271SOL    HW119712   5.974   3.181   0.023
 6271SOL    HW219713   5.915   3.261   6.912
 6272SOL     OW19714   5.673   0.183   6.894
 6272SOL    HW119715   5.581   0.214   6.871
 6272SOL    HW219716   5.692   0.097   6.847
 6273SOL     OW19717   6.970   6.585   2.469
 6273SOL    HW119718   0.035   6.624   2.431
 6273SOL    HW219719   6.944   6.634   2.552
 6274SOL     OW19720   3.267   6.227   4.657
 6274SOL    HW119721   3.194   6.287   4.691
 6274SOL    HW219722   3.354   6.276   4.655
 6275SOL     OW19723   2.060   5.751   0.622
 6275SOL    HW119724   2.076   5.698   0.706
 6275SOL    HW219725   2.046   5.688   0.545
 6276SOL     OW19726   2.295   5.670   3.561
 6276SOL    HW119727   2.297   5.572   3.580
 6276SOL    HW219728   2.293   5.685   3.462
 6277SOL     OW19729   5.320   2.844   1.594
 6277SOL    HW119730   5.335   2.769   1.529
 6277SOL    HW219731   5.245   2.820   1.656
 6278SOL     OW19732   3.194   0.098   5.372
 6278SOL    HW119733   3.164   0.002   5.371
 6278SOL    HW219734   3.284   0.104   5.416
 6279SOL     OW19735   3.647   5.926   1.256
 6279SOL    HW119736   3.723   5.927   1.191
 6279SOL    HW219737   3.561   5.937   1.206
 6280SOL     OW19738   6.458   1.724   6.782
 6280SOL    HW119739   6.457   1.650   6.849
 6280SOL    HW219740   6.500   1.806   6.822
 6281SOL     OW19741   5.909   4.121   4.692
 6281SOL    HW119742   5.894   4.042   4.632
 6281SOL    HW219743   5.853   4.111   4.774
 6282SOL     OW19744   0.349   3.493   6.378
 6282SOL    HW119745   0.280   3.512   6.448
 6282SOL    HW219746   0.323   3.538   6.292
 6283SOL     OW19747   1.055   5.833   5.201
 6283SOL    HW119748   0.994   5.843   5.279
 6283SOL    HW219749   1.002   5.824   5.117
 6284SOL     OW19750   2.012   4.108   6.882
 6284SOL    HW119751   1.991   4.114   6.785
 6284SOL    HW219752   1.938   4.149   6.935
 6285SOL     OW19753   1.858   3.413   2.802
 6285SOL    HW119754   1.814   3.324   2.809
 6285SOL    HW219755   1.905   3.421   2.714
 6286SOL     OW19756   0.803   3.400   4.617
 6286SOL    HW119757   0.787   3.301   4.612
 6286SOL    HW219758   0.893   3.420   4.578
 6287SOL     OW19759   4.255   4.817   5.117
 6287SOL    HW119760   4.236   4.912   5.093
 6287SOL    HW219761   4.178   4.780   5.170
 6288SOL     OW19762   3.829   3.270   6.192
 6288SOL    HW119763   3.784   3.184   6.213
 6288SOL    HW219764   3.761   3.341   6.177
 6289SOL     OW19765   2.688   4.324   6.623
 6289SOL    HW119766   2.770   4.351   6.674
 6289SOL    HW219767   2.685   4.225   6.615
 6290SOL     OW19768   6.013   5.416   5.824
 6290SOL    HW119769   6.104   5.389   5.854
 6290SOL    HW219770   5.944   5.360   5.870
 6291SOL     OW19771   3.438   3.321   3.032
 6291SOL    HW119772   3.364   3.388   3.027
 6291SOL    HW219773   3.469   3.298   2.940
 6292SOL     OW19774   2.114   2.877   4.233
 6292SOL    HW119775   2.184   2.859   4.301
 6292SOL    HW219776   2.035   2.819   4.249
 6293SOL     OW19777   5.276   1.038   6.861
 6293SOL    HW119778   5.322   1.081   6.784
 6293SOL    HW219779   5.345   1.007   6.927
 6294SOL     OW19780   3.041   1.178   4.100
 6294SOL    HW119781   3.043   1.126   4.015
 6294SOL    HW219782   2.990   1.263   4.086
 6295SOL     OW19783   5.604   4.580   5.259
 6295SOL    HW119784   5.561   4.654   5.207
 6295SOL    HW219785   5.699   4.571   5.232
 6296SOL     OW19786   0.315   3.163   6.488
 6296SOL    HW119787   0.343   3.067   6.486
 6296SOL    HW219788   0.343   3.206   6.402
 6297SOL     OW19789   6.455   0.455   4.617
 6297SOL    HW119790   6.430   0.393   4.543
 6297SOL    HW219791   6.537   0.421   4.663
 6298SOL     OW19792   5.589   4.442   6.797
 6298SOL    HW119793   5.499   4.399   6.792
 6298SOL    HW219794   5.658   4.378   6.763
 6299SOL     OW19795   4.728   2.862   3.219
 6299SOL    HW119796   4.654   2.876   3.153
 6299SOL    HW219797   4.798   2.932   3.206
 6300SOL     OW19798   3.952   1.201   6.201
 6300SOL    HW119799   3.852   1.201   6.210
 6300SOL    HW219800   3.989   1.121   6.249
 6301SOL     OW19801   3.200   6.686   6.725
 6301SOL    HW119802   3.295   6.672   6.754
 6301SOL    HW219803   3.194   6.683   6.626
 6302SOL     OW19804   2.565   0.412   5.705
 6302SOL    HW119805   2.601   0.477   5.638
 6302SOL    HW219806   2.598   0.320   5.683
 6303SOL     OW19807   0.792   6.413   6.210
 6303SOL    HW119808   0.766   6.317   6.199
 6303SOL    HW219809   0.890   6.423   6.192
 6304SOL     OW19810   4.425   1.113   3.107
 6304SOL    HW119811   4.497   1.096   3.040
 6304SOL    HW219812   4.390   1.026   3.142
 6305SOL     OW19813   0.410   5.717   5.316
 6305SOL    HW119814   0.440   5.628   5.348
 6305SOL    HW219815   0.310   5.723   5.323
 6306SOL     OW19816   6.944   4.622   4.256
 6306SOL    HW119817   6.974   4.531   4.226
 6306SOL    HW219818   0.005   4.681   4.268
 6307SOL     OW19819   4.079   3.762   3.664
 6307SOL    HW119820   4.097   3.780   3.760
 6307SOL    HW219821   4.057   3.847   3.617
 6308SOL     OW19822   0.345   2.604   6.447
 6308SOL    HW119823   0.420   2.541   6.426
 6308SOL    HW219824   0.259   2.565   6.415
 6309SOL     OW19825   1.185   6.613   4.951
 6309SOL    HW119826   1.208   6.574   4.862
 6309SOL    HW219827   1.236   6.699   4.964
 6310SOL     OW19828   1.830   6.619   3.166
 6310SOL    HW119829   1.896   6.665   3.225
 6310SOL    HW219830   1.879   6.561   3.100
 6311SOL     OW19831   5.755   1.350   5.883
 6311SOL    HW119832   5.801   1.408   5.951
 6311SOL    HW219833   5.819   1.281   5.849
 6312SOL     OW19834   3.403   6.386   6.755
 6312SOL    HW119835   3.409   6.294   6.718
 6312SOL    HW219836   3.478   6.442   6.721
 6313SOL     OW19837   4.880   6.437   3.151
 6313SOL    HW119838   4.941   6.474   3.221
 6313SOL    HW219839   4.811   6.506   3.128
 6314SOL     OW19840   2.892   0.191   1.568
 6314SOL    HW119841   2.862   0.230   1.655
 6314SOL    HW219842   2.820   0.204   1.500
 6315SOL     OW19843   1.767   3.142   4.217
 6315SOL    HW119844   1.840   3.113   4.157
 6315SOL    HW219845   1.805   3.180   4.301
 6316SOL     OW19846   5.326   2.067   5.168
 6316SOL    HW119847   5.279   2.033   5.250
 6316SOL    HW219848   5.278   2.147   5.133
 6317SOL     OW19849   4.981   4.669   2.029
 6317SOL    HW119850   5.004   4.626   2.116
 6317SOL    HW219851   5.049   4.740   2.008
 6318SOL     OW19852   6.421   0.621   6.433
 6318SOL    HW119853   6.426   0.609   6.333
 6318SOL    HW219854   6.486   0.690   6.462
 6319SOL     OW19855   5.521   2.968   4.526
 6319SOL    HW119856   5.591   2.994   4.592
 6319SOL    HW219857   5.432   2.964   4.572
 6320SOL     OW19858   0.404   0.919   3.909
 6320SOL    HW119859   0.466   0.965   3.973
 6320SOL    HW219860   0.367   0.836   3.951
 6321SOL     OW19861   5.610   2.180   0.596
 6321SOL    HW119862   5.654   2.195   0.685
 6321SOL    HW219863   5.679   2.161   0.527
 6322SOL     OW19864   1.893   0.620   0.878
 6322SOL    HW119865   1.906   0.715   0.848
 6322SOL    HW219866   1.969   0.594   0.938
 6323SOL     OW19867   2.740   2.967   1.009
 6323SOL    HW119868   2.840   2.964   1.008
 6323SOL    HW219869   2.704   2.875   0.996
 6324SOL     OW19870   4.734   1.451   0.924
 6324SOL    HW119871   4.685   1.460   0.838
 6324SOL    HW219872   4.681   1.495   0.997
 6325SOL     OW19873   1.705   2.431   2.331
 6325SOL    HW119874   1.681   2.506   2.270
 6325SOL    HW219875   1.768   2.464   2.402
 6326SOL     OW19876   5.020   5.234   5.874
 6326SOL    HW119877   5.009   5.148   5.823
 6326SOL    HW219878   5.103   5.229   5.929
 6327SOL     OW19879   0.183   2.238   3.760
 6327SOL    HW119880   0.165   2.226   3.663
 6327SOL    HW219881   0.114   2.298   3.800
 6328SOL     OW19882   4.505   3.216   5.986
 6328SOL    HW119883   4.467   3.307   5.971
 6328SOL    HW219884   4.542   3.181   5.900
 6329SOL     OW19885   1.566   2.715   5.505
 6329SOL    HW119886   1.635   2.694   5.437
 6329SOL    HW219887   1.605   2.772   5.577
 6330SOL     OW19888   6.539   1.222   3.171
 6330SOL    HW119889   6.500   1.270   3.249
 6330SOL    HW219890   6.639   1.232   3.172
 6331SOL     OW19891   6.641   3.092   4.407
 6331SOL    HW119892   6.664   3.022   4.474
 6331SOL    HW219893   6.627   3.050   4.318
 6332SOL     OW19894   1.943   1.740   1.244
 6332SOL    HW119895   1.891   1.699   1.169
 6332SOL    HW219896   2.028   1.690   1.258
 6333SOL     OW19897   5.060   0.441   0.384
 6333SOL    HW119898   4.983   0.381   0.363
 6333SOL    HW219899   5.038   0.496   0.464
 6334SOL     OW19900   3.050   1.774   2.359
 6334SOL    HW119901   2.983   1.701   2.376
 6334SOL    HW219902   3.008   1.863   2.378
 6335SOL     OW19903   5.762   0.775   0.392
 6335SOL    HW119904   5.855   0.780   0.355
 6335SOL    HW219905   5.766   0.774   0.492
 6336SOL     OW19906   0.218   3.757   6.041
 6336SOL    HW119907   0.197   3.715   5.953
 6336SOL    HW219908   0.316   3.751   6.059
 6337SOL     OW19909   4.184   5.440   4.925
 6337SOL    HW119910   4.239   5.409   5.003
 6337SOL    HW219911   4.095   5.395   4.928
 6338SOL     OW19912   2.998   1.995   3.991
 6338SOL    HW119913   2.939   1.956   4.062
 6338SOL    HW219914   3.076   2.040   4.034
 6339SOL     OW19915   1.123   4.224   2.817
 6339SOL    HW119916   1.191   4.255   2.884
 6339SOL    HW219917   1.154   4.245   2.725
 6340SOL     OW19918   2.358   3.994   1.439
 6340SOL    HW119919   2.447   4.037   1.450
 6340SOL    HW219920   2.311   3.993   1.528
 6341SOL     OW19921   1.189   4.544   4.451
 6341SOL    HW119922   1.232   4.625   4.491
 6341SOL    HW219923   1.098   4.568   4.418
 6342SOL     OW19924   1.795   1.045   1.986
 6342SOL    HW119925   1.722   1.034   1.919
 6342SOL    HW219926   1.805   0.962   2.040
 6343SOL     OW19927   2.954   6.046   0.606
 6343SOL    HW119928   2.984   5.983   0.678
 6343SOL    HW219929   3.006   6.132   0.613
 6344SOL     OW19930   5.883   2.556   3.398
 6344SOL    HW119931   5.862   2.547   3.496
 6344SOL    HW219932   5.967   2.506   3.378
 6345SOL     OW19933   5.521   3.495   1.707
 6345SOL    HW119934   5.516   3.542   1.618
 6345SOL    HW219935   5.608   3.516   1.751
 6346SOL     OW19936   0.657   4.351   6.007
 6346SOL    HW119937   0.678   4.283   6.078
 6346SOL    HW219938   0.714   4.432   6.021
 6347SOL     OW19939   2.777   2.329   2.667
 6347SOL    HW119940   2.816   2.320   2.575
 6347SOL    HW219941   2.740   2.421   2.678
 6348SOL     OW19942   0.357   1.653   5.967
 6348SOL    HW119943   0.350   1.611   5.877
 6348SOL    HW219944   0.454   1.663   5.992
 6349SOL     OW19945   0.614   0.368   0.782
 6349SOL    HW119946   0.578   0.461   0.774
 6349SOL    HW219947   0.596   0.318   0.697
 6350SOL     OW19948   0.615   4.556   2.088
 6350SOL    HW119949   0.654   4.618   2.156
 6350SOL    HW219950   0.548   4.605   2.033
 6351SOL     OW19951   6.513   3.684   3.635
 6351SOL    HW119952   6.458   3.765   3.655
 6351SOL    HW219953   6.507   3.620   3.712
 6352SOL     OW19954   2.479   0.236   4.431
 6352SOL    HW119955   2.457   0.150   4.384
 6352SOL    HW219956   2.576   0.237   4.453
 6353SOL     OW19957   2.206   6.092   6.553
 6353SOL    HW119958   2.172   6.001   6.578
 6353SOL    HW219959   2.236   6.092   6.458
 6354SOL     OW19960   5.198   4.514   3.076
 6354SOL    HW119961   5.233   4.424   3.050
 6354SOL    HW219962   5.269   4.583   3.059
 6355SOL     OW19963   2.750   4.426   0.453
 6355SOL    HW119964   2.725   4.358   0.384
 6355SOL    HW219965   2.740   4.387   0.544
 6356SOL     OW19966   4.893   5.278   6.489
 6356SOL    HW119967   4.925   5.186   6.511
 6356SOL    HW219968   4.969   5.343   6.499
 6357SOL     OW19969   5.889   2.266   1.695
 6357SOL    HW119970   5.894   2.352   1.645
 6357SOL    HW219971   5.980   2.227   1.705
 6358SOL     OW19972   1.388   1.911   6.800
 6358SOL    HW119973   1.436   1.833   6.839
 6358SOL    HW219974   1.414   1.923   6.704
 6359SOL     OW19975   5.716   6.443   0.730
 6359SOL    HW119976   5.728   6.528   0.781
 6359SOL    HW219977   5.618   6.424   0.720
 6360SOL     OW19978   0.155   2.635   3.626
 6360SOL    HW119979   0.151   2.536   3.614
 6360SOL    HW219980   0.133   2.680   3.539
 6361SOL     OW19981   0.208   0.611   0.001
 6361SOL    HW119982   0.270   0.629   6.944
 6361SOL    HW219983   0.147   0.689   0.015
 6362SOL     OW19984   0.859   5.524   6.659
 6362SOL    HW119985   0.916   5.606   6.653
 6362SOL    HW219986   0.768   5.548   6.694
 6363SOL     OW19987   2.543   4.990   3.325
 6363SOL    HW119988   2.444   4.975   3.320
 6363SOL    HW219989   2.570   5.061   3.260
 6364SOL     OW19990   2.543   2.074   5.018
 6364SOL    HW119991   2.567   2.159   4.971
 6364SOL    HW219992   2.574   2.079   5.114
 6365SOL     OW19993   5.939   6.110   4.158
 6365SOL    HW119994   5.876   6.184   4.136
 6365SOL    HW219995   5.896   6.049   4.225
 6366SOL     OW19996   6.051   6.411   4.931
 6366SOL    HW119997   6.067   6.436   5.027
 6366SOL    HW219998   5.952   6.407   4.914
 6367SOL     OW19999   3.432   2.078   3.288
 6367SOL    HW120000   3.339   2.115   3.289
 6367SOL    HW220001   3.482   2.109   3.369
 6368SOL     OW20002   4.797   4.010   3.724
 6368SOL    HW120003   4.807   3.983   3.820
 6368SOL    HW220004   4.836   3.939   3.666
 6369SOL     OW20005   3.410   6.286   6.114
 6369SOL    HW120006   3.385   6.381   6.133
 6369SOL    HW220007   3.345   6.224   6.158
 6370SOL     OW20008   5.137   3.991   3.730
 6370SOL    HW120009   5.072   4.066   3.721
 6370SOL    HW220010   5.091   3.904   3.710
 6371SOL     OW20011   5.134   4.275   1.452
 6371SOL    HW120012   5.058   4.308   1.508
 6371SOL    HW220013   5.185   4.206   1.503
 6372SOL     OW20014   0.327   1.035   2.970
 6372SOL    HW120015   0.234   1.064   2.991
 6372SOL    HW220016   0.355   1.074   2.882
 6373SOL     OW20017   5.653   4.612   1.077
 6373SOL    HW120018   5.689   4.523   1.106
 6373SOL    HW220019   5.729   4.671   1.051
 6374SOL     OW20020   4.975   2.846   0.195
 6374SOL    HW120021   4.897   2.896   0.232
 6374SOL    HW220022   5.055   2.861   0.253
 6375SOL     OW20023   6.819   2.957   2.579
 6375SOL    HW120024   6.742   2.894   2.565
 6375SOL    HW220025   6.882   2.949   2.503
 6376SOL     OW20026   3.910   1.273   5.445
 6376SOL    HW120027   3.841   1.250   5.513
 6376SOL    HW220028   3.868   1.328   5.372
 6377SOL     OW20029   6.987   0.138   6.915
 6377SOL    HW120030   0.002   0.190   6.993
 6377SOL    HW220031   6.954   0.200   6.845
 6378SOL     OW20032   5.801   5.553   2.832
 6378SOL    HW120033   5.720   5.596   2.792
 6378SOL    HW220034   5.854   5.622   2.881
 6379SOL     OW20035   2.037   5.726   6.149
 6379SOL    HW120036   2.022   5.701   6.054
 6379SOL    HW220037   1.969   5.681   6.207
 6380SOL     OW20038   1.053   3.189   4.962
 6380SOL    HW120039   1.119   3.176   5.036
 6380SOL    HW220040   1.097   3.239   4.887
 6381SOL     OW20041   4.491   3.170   0.398
 6381SOL    HW120042   4.403   3.199   0.434
 6381SOL    HW220043   4.482   3.080   0.356
 6382SOL     OW20044   2.684   1.928   1.334
 6382SOL    HW120045   2.776   1.905   1.366
 6382SOL    HW220046   2.683   2.022   1.300
 6383SOL     OW20047   2.037   2.633   2.744
 6383SOL    HW120048   2.019   2.722   2.703
 6383SOL    HW220049   1.962   2.608   2.804
 6384SOL     OW20050   6.249   2.607   2.271
 6384SOL    HW120051   6.285   2.532   2.216
 6384SOL    HW220052   6.319   2.677   2.283
 6385SOL     OW20053   0.657   3.494   1.129
 6385SOL    HW120054   0.673   3.457   1.037
 6385SOL    HW220055   0.657   3.420   1.196
 6386SOL     OW20056   1.761   3.582   0.675
 6386SOL    HW120057   1.719   3.591   0.766
 6386SOL    HW220058   1.693   3.605   0.605
 6387SOL     OW20059   6.249   1.159   0.290
 6387SOL    HW120060   6.197   1.168   0.374
 6387SOL    HW220061   6.228   1.237   0.229
 6388SOL     OW20062   6.165   5.266   2.692
 6388SOL    HW120063   6.083   5.217   2.720
 6388SOL    HW220064   6.153   5.303   2.601
 6389SOL     OW20065   1.639   6.993   0.144
 6389SOL    HW120066   1.665   6.978   0.049
 6389SOL    HW220067   1.608   6.907   0.185
 6390SOL     OW20068   5.949   0.790   7.008
 6390SOL    HW120069   6.014   0.852   6.965
 6390SOL    HW220070   5.881   0.761   6.940
 6391SOL     OW20071   1.123   0.839   5.169
 6391SOL    HW120072   1.095   0.915   5.110
 6391SOL    HW220073   1.149   0.761   5.112
 6392SOL     OW20074   2.937   5.400   3.189
 6392SOL    HW120075   2.946   5.493   3.223
 6392SOL    HW220076   2.972   5.395   3.096
 6393SOL     OW20077   5.659   6.868   1.536
 6393SOL    HW120078   5.667   6.882   1.437
 6393SOL    HW220079   5.711   6.939   1.583
 6394SOL     OW20080   0.745   4.893   0.819
 6394SOL    HW120081   0.735   4.988   0.847
 6394SOL    HW220082   0.799   4.843   0.888
 6395SOL     OW20083   0.890   4.490   2.992
 6395SOL    HW120084   0.800   4.453   2.968
 6395SOL    HW220085   0.936   4.428   3.055
 6396SOL     OW20086   6.327   3.656   0.495
 6396SOL    HW120087   6.239   3.683   0.456
 6396SOL    HW220088   6.315   3.571   0.546
 6397SOL     OW20089   5.546   2.408   3.018
 6397SOL    HW120090   5.629   2.426   2.964
 6397SOL    HW220091   5.555   2.320   3.063
 6398SOL     OW20092   0.801   6.110   1.054
 6398SOL    HW120093   0.835   6.038   0.994
 6398SOL    HW220094   0.872   6.179   1.067
 6399SOL     OW20095   2.242   6.967   6.297
 6399SOL    HW120096   2.163   0.010   6.293
 6399SOL    HW220097   2.222   6.892   6.361
 6400SOL     OW20098   1.582   5.775   2.725
 6400SOL    HW120099   1.528   5.847   2.681
 6400SOL    HW220100   1.678   5.787   2.703
 6401SOL     OW20101   3.869   4.918   2.937
 6401SOL    HW120102   3.943   4.901   2.872
 6401SOL    HW220103   3.841   5.014   2.931
 6402SOL     OW20104   1.915   4.637   4.303
 6402SOL    HW120105   1.904   4.649   4.204
 6402SOL    HW220106   1.971   4.712   4.339
 6403SOL     OW20107   5.159   6.289   4.927
 6403SOL    HW120108   5.074   6.243   4.901
 6403SOL    HW220109   5.145   6.388   4.924
 6404SOL     OW20110   3.446   0.890   2.494
 6404SOL    HW120111   3.532   0.901   2.445
 6404SOL    HW220112   3.392   0.817   2.452
 6405SOL     OW20113   5.328   1.186   2.890
 6405SOL    HW120114   5.414   1.236   2.895
 6405SOL    HW220115   5.253   1.246   2.916
 6406SOL     OW20116   1.279   2.824   2.704
 6406SOL    HW120117   1.289   2.870   2.616
 6406SOL    HW220118   1.305   2.886   2.778
 6407SOL     OW20119   2.462   6.464   3.590
 6407SOL    HW120120   2.507   6.406   3.522
 6407SOL    HW220121   2.453   6.557   3.554
 6408SOL     OW20122   6.998   0.556   0.626
 6408SOL    HW120123   6.934   0.516   0.561
 6408SOL    HW220124   0.023   0.483   0.679
 6409SOL     OW20125   6.333   4.811   3.509
 6409SOL    HW120126   6.377   4.886   3.559
 6409SOL    HW220127   6.247   4.787   3.554
 6410SOL     OW20128   2.984   1.262   5.613
 6410SOL    HW120129   2.978   1.354   5.573
 6410SOL    HW220130   3.065   1.216   5.577
 6411SOL     OW20131   0.154   2.748   2.510
 6411SOL    HW120132   0.197   2.822   2.562
 6411SOL    HW220133   0.077   2.711   2.562
 6412SOL     OW20134   3.519   0.542   6.809
 6412SOL    HW120135   3.602   0.500   6.772
 6412SOL    HW220136   3.465   0.474   6.857
 6413SOL     OW20137   4.039   4.899   4.184
 6413SOL    HW120138   4.089   4.919   4.100
 6413SOL    HW220139   4.068   4.810   4.220
 6414SOL     OW20140   0.877   0.088   6.796
 6414SOL    HW120141   0.947   0.153   6.827
 6414SOL    HW220142   0.826   0.128   6.720
 6415SOL     OW20143   1.346   2.882   3.359
 6415SOL    HW120144   1.256   2.879   3.403
 6415SOL    HW220145   1.342   2.941   3.278
 6416SOL     OW20146   2.841   0.213   6.363
 6416SOL    HW120147   2.820   0.309   6.379
 6416SOL    HW220148   2.936   0.195   6.388
 6417SOL     OW20149   4.849   1.835   1.067
 6417SOL    HW120150   4.829   1.835   0.969
 6417SOL    HW220151   4.932   1.782   1.085
 6418SOL     OW20152   4.169   4.855   1.402
 6418SOL    HW120153   4.136   4.784   1.340
 6418SOL    HW220154   4.232   4.915   1.353
 6419SOL     OW20155   0.911   6.666   6.862
 6419SOL    HW120156   0.899   6.587   6.922
 6419SOL    HW220157   0.896   6.639   6.767
 6420SOL     OW20158   1.524   3.437   3.820
 6420SOL    HW120159   1.619   3.426   3.791
 6420SOL    HW220160   1.464   3.424   3.741
 6421SOL     OW20161   5.006   0.068   1.363
 6421SOL    HW120162   5.057   0.143   1.321
 6421SOL    HW220163   5.068   0.013   1.419
 6422SOL     OW20164   0.007   2.846   4.793
 6422SOL    HW120165   7.011   2.917   4.861
 6422SOL    HW220166   6.957   2.855   4.720
 6423SOL     OW20167   2.331   4.700   4.231
 6423SOL    HW120168   2.252   4.684   4.172
 6423SOL    HW220169   2.377   4.784   4.202
 6424SOL     OW20170   0.594   3.539   4.824
 6424SOL    HW120171   0.647   3.479   4.763
 6424SOL    HW220172   0.586   3.497   4.914
 6425SOL     OW20173   0.047   6.028   2.737
 6425SOL    HW120174   0.074   6.122   2.756
 6425SOL    HW220175   0.123   5.966   2.761
 6426SOL     OW20176   4.574   4.423   4.803
 6426SOL    HW120177   4.511   4.450   4.731
 6426SOL    HW220178   4.540   4.455   4.891
 6427SOL     OW20179   3.132   3.210   3.754
 6427SOL    HW120180   3.095   3.159   3.677
 6427SOL    HW220181   3.062   3.219   3.825
 6428SOL     OW20182   4.902   2.620   0.038
 6428SOL    HW120183   4.811   2.630   7.018
 6428SOL    HW220184   4.917   2.690   0.108
 6429SOL     OW20185   2.436   0.697   4.972
 6429SOL    HW120186   2.501   0.767   4.944
 6429SOL    HW220187   2.357   0.699   4.910
 6430SOL     OW20188   6.980   0.752   5.273
 6430SOL    HW120189   6.892   0.752   5.322
 6430SOL    HW220190   0.019   0.826   5.309
 6431SOL     OW20191   4.479   5.505   2.789
 6431SOL    HW120192   4.427   5.472   2.869
 6431SOL    HW220193   4.417   5.549   2.725
 6432SOL     OW20194   3.288   4.560   6.638
 6432SOL    HW120195   3.262   4.609   6.721
 6432SOL    HW220196   3.239   4.472   6.634
 6433SOL     OW20197   2.724   5.585   6.621
 6433SOL    HW120198   2.788   5.509   6.635
 6433SOL    HW220199   2.688   5.614   6.710
 6434SOL     OW20200   3.006   5.852   6.223
 6434SOL    HW120201   2.917   5.822   6.190
 6434SOL    HW220202   3.075   5.784   6.200
 6435SOL     OW20203   5.530   0.262   0.699
 6435SOL    HW120204   5.498   0.310   0.780
 6435SOL    HW220205   5.550   0.167   0.723
 6436SOL     OW20206   0.640   4.211   3.874
 6436SOL    HW120207   0.544   4.229   3.851
 6436SOL    HW220208   0.646   4.185   3.971
 6437SOL     OW20209   0.785   1.137   5.504
 6437SOL    HW120210   0.833   1.131   5.591
 6437SOL    HW220211   0.833   1.199   5.443
 6438SOL     OW20212   0.516   5.902   6.812
 6438SOL    HW120213   0.569   5.878   6.894
 6438SOL    HW220214   0.459   5.824   6.785
 6439SOL     OW20215   5.816   1.066   3.527
 6439SOL    HW120216   5.780   1.158   3.547
 6439SOL    HW220217   5.838   1.020   3.613
 6440SOL     OW20218   2.098   0.766   5.896
 6440SOL    HW120219   2.073   0.849   5.947
 6440SOL    HW220220   2.160   0.790   5.821
 6441SOL     OW20221   0.498   0.429   3.268
 6441SOL    HW120222   0.459   0.490   3.200
 6441SOL    HW220223   0.436   0.424   3.347
 6442SOL     OW20224   2.387   2.113   5.365
 6442SOL    HW120225   2.387   2.021   5.403
 6442SOL    HW220226   2.308   2.124   5.305
 6443SOL     OW20227   4.177   2.087   0.644
 6443SOL    HW120228   4.117   2.081   0.723
 6443SOL    HW220229   4.249   2.154   0.662
 6444SOL     OW20230   0.152   2.674   5.521
 6444SOL    HW120231   0.126   2.655   5.616
 6444SOL    HW220232   0.241   2.632   5.501
 6445SOL     OW20233   3.009   3.607   3.169
 6445SOL    HW120234   3.078   3.566   3.228
 6445SOL    HW220235   2.961   3.535   3.119
 6446SOL     OW20236   1.902   1.484   6.646
 6446SOL    HW120237   1.863   1.555   6.587
 6446SOL    HW220238   1.898   1.396   6.598
 6447SOL     OW20239   6.404   4.389   1.098
 6447SOL    HW120240   6.391   4.346   1.009
 6447SOL    HW220241   6.494   4.364   1.134
 6448SOL     OW20242   4.616   5.484   2.071
 6448SOL    HW120243   4.681   5.462   2.143
 6448SOL    HW220244   4.665   5.513   1.989
 6449SOL     OW20245   2.770   5.499   1.793
 6449SOL    HW120246   2.757   5.451   1.706
 6449SOL    HW220247   2.820   5.584   1.777
 6450SOL     OW20248   0.752   4.227   1.276
 6450SOL    HW120249   0.763   4.175   1.192
 6450SOL    HW220250   0.657   4.222   1.306
 6451SOL     OW20251   3.374   2.429   0.572
 6451SOL    HW120252   3.341   2.503   0.630
 6451SOL    HW220253   3.308   2.353   0.575
 6452SOL     OW20254   5.475   3.665   3.413
 6452SOL    HW120255   5.475   3.640   3.316
 6452SOL    HW220256   5.544   3.611   3.461
 6453SOL     OW20257   3.650   6.968   1.393
 6453SOL    HW120258   3.629   6.967   1.296
 6453SOL    HW220259   3.735   0.000   1.409
 6454SOL     OW20260   6.574   2.268   2.639
 6454SOL    HW120261   6.477   2.248   2.645
 6454SOL    HW220262   6.626   2.182   2.637
 6455SOL     OW20263   6.814   4.089   3.051
 6455SOL    HW120264   6.895   4.054   3.005
 6455SOL    HW220265   6.830   4.184   3.079
 6456SOL     OW20266   0.335   1.378   2.809
 6456SOL    HW120267   0.421   1.331   2.829
 6456SOL    HW220268   0.307   1.358   2.715
 6457SOL     OW20269   4.774   6.873   1.412
 6457SOL    HW120270   4.787   6.787   1.462
 6457SOL    HW220271   4.857   6.929   1.420
 6458SOL     OW20272   0.940   4.958   3.602
 6458SOL    HW120273   1.015   4.892   3.597
 6458SOL    HW220274   0.853   4.909   3.598
 6459SOL     OW20275   6.287   2.433   3.117
 6459SOL    HW120276   6.272   2.463   3.024
 6459SOL    HW220277   6.269   2.334   3.124
 6460SOL     OW20278   6.883   5.993   5.295
 6460SOL    HW120279   6.948   6.051   5.245
 6460SOL    HW220280   6.790   6.010   5.262
 6461SOL     OW20281   3.199   4.332   0.550
 6461SOL    HW120282   3.211   4.373   0.459
 6461SOL    HW220283   3.229   4.398   0.620
 6462SOL     OW20284   1.704   3.823   5.115
 6462SOL    HW120285   1.714   3.768   5.032
 6462SOL    HW220286   1.661   3.910   5.092
 6463SOL     OW20287   4.658   1.177   0.984
 6463SOL    HW120288   4.720   1.249   0.952
 6463SOL    HW220289   4.598   1.213   1.055
 6464SOL     OW20290   0.929   6.393   4.260
 6464SOL    HW120291   0.909   6.319   4.325
 6464SOL    HW220292   0.989   6.359   4.188
 6465SOL     OW20293   5.404   3.004   2.596
 6465SOL    HW120294   5.369   3.097   2.607
 6465SOL    HW220295   5.393   2.953   2.682
 6466SOL     OW20296   6.815   3.622   6.701
 6466SOL    HW120297   6.818   3.540   6.759
 6466SOL    HW220298   6.801   3.595   6.606
 6467SOL     OW20299   3.214   0.590   0.666
 6467SOL    HW120300   3.235   0.683   0.636
 6467SOL    HW220301   3.165   0.541   0.594
 6468SOL     OW20302   3.663   0.012   0.283
 6468SOL    HW120303   3.627   6.937   0.284
 6468SOL    HW220304   3.725   0.022   0.205
 6469SOL     OW20305   3.247   1.818   3.572
 6469SOL    HW120306   3.251   1.836   3.671
 6469SOL    HW220307   3.223   1.722   3.557
 6470SOL     OW20308   0.052   2.578   6.650
 6470SOL    HW120309   0.129   2.559   6.711
 6470SOL    HW220310   0.027   2.674   6.657
 6471SOL     OW20311   0.159   6.234   4.903
 6471SOL    HW120312   0.246   6.209   4.861
 6471SOL    HW220313   0.102   6.152   4.913
 6472SOL     OW20314   0.133   6.183   2.324
 6472SOL    HW120315   0.043   6.141   2.336
 6472SOL    HW220316   0.157   6.182   2.227
 6473SOL     OW20317   1.852   1.345   3.857
 6473SOL    HW120318   1.912   1.268   3.878
 6473SOL    HW220319   1.906   1.421   3.821
 6474SOL     OW20320   3.449   5.368   4.636
 6474SOL    HW120321   3.428   5.342   4.541
 6474SOL    HW220322   3.520   5.438   4.636
 6475SOL     OW20323   5.666   5.416   3.378
 6475SOL    HW120324   5.655   5.326   3.336
 6475SOL    HW220325   5.753   5.420   3.427
 6476SOL     OW20326   3.746   2.373   6.612
 6476SOL    HW120327   3.703   2.378   6.702
 6476SOL    HW220328   3.829   2.318   6.618
 6477SOL     OW20329   0.093   6.158   1.085
 6477SOL    HW120330   0.105   6.073   1.034
 6477SOL    HW220331   0.157   6.226   1.052
 6478SOL     OW20332   2.906   5.724   1.744
 6478SOL    HW120333   3.000   5.720   1.777
 6478SOL    HW220334   2.902   5.778   1.659
 6479SOL     OW20335   3.132   5.693   4.190
 6479SOL    HW120336   3.207   5.634   4.222
 6479SOL    HW220337   3.045   5.649   4.210
 6480SOL     OW20338   3.231   0.835   6.504
 6480SOL    HW120339   3.311   0.895   6.501
 6480SOL    HW220340   3.183   0.849   6.590
 6481SOL     OW20341   3.184   2.455   1.717
 6481SOL    HW120342   3.099   2.469   1.768
 6481SOL    HW220343   3.173   2.489   1.624
 6482SOL     OW20344   6.667   3.071   5.047
 6482SOL    HW120345   6.745   3.117   5.091
 6482SOL    HW220346   6.583   3.120   5.069
 6483SOL     OW20347   1.593   5.409   4.670
 6483SOL    HW120348   1.617   5.322   4.711
 6483SOL    HW220349   1.501   5.403   4.630
 6484SOL     OW20350   2.935   1.056   3.855
 6484SOL    HW120351   2.959   1.125   3.787
 6484SOL    HW220352   2.928   0.966   3.811
 6485SOL     OW20353   2.012   6.548   4.783
 6485SOL    HW120354   2.090   6.563   4.843
 6485SOL    HW220355   1.940   6.500   4.834
 6486SOL     OW20356   1.579   5.316   3.299
 6486SOL    HW120357   1.645   5.275   3.236
 6486SOL    HW220358   1.492   5.268   3.290
 6487SOL     OW20359   0.470   5.443   4.546
 6487SOL    HW120360   0.437   5.406   4.459
 6487SOL    HW220361   0.441   5.383   4.621
 6488SOL     OW20362   5.124   5.152   4.605
 6488SOL    HW120363   5.069   5.128   4.525
 6488SOL    HW220364   5.078   5.225   4.656
 6489SOL     OW20365   3.961   3.385   6.400
 6489SOL    HW120366   3.919   3.391   6.490
 6489SOL    HW220367   3.907   3.323   6.342
 6490SOL     OW20368   1.655   1.331   6.926
 6490SOL    HW120369   1.612   1.374   7.006
 6490SOL    HW220370   1.745   1.371   6.910
 6491SOL     OW20371   1.537   0.070   1.286
 6491SOL    HW120372   1.498   6.998   1.296
 6491SOL    HW220373   1.587   0.076   1.199
 6492SOL     OW20374   3.076   4.023   4.573
 6492SOL    HW120375   3.108   4.094   4.511
 6492SOL    HW220376   3.080   4.056   4.667
 6493SOL     OW20377   1.980   4.327   6.090
 6493SOL    HW120378   1.943   4.403   6.144
 6493SOL    HW220379   1.942   4.241   6.123
 6494SOL     OW20380   6.062   6.446   2.090
 6494SOL    HW120381   6.004   6.432   2.009
 6494SOL    HW220382   6.008   6.485   2.164
 6495SOL     OW20383   0.023   0.044   4.180
 6495SOL    HW120384   7.003   6.972   4.196
 6495SOL    HW220385   0.115   0.036   4.140
 6496SOL     OW20386   4.655   6.608   2.291
 6496SOL    HW120387   4.634   6.656   2.205
 6496SOL    HW220388   4.748   6.572   2.287
 6497SOL     OW20389   0.779   1.255   0.895
 6497SOL    HW120390   0.767   1.322   0.821
 6497SOL    HW220391   0.705   1.266   0.962
 6498SOL     OW20392   0.902   4.623   4.475
 6498SOL    HW120393   0.884   4.615   4.377
 6498SOL    HW220394   0.924   4.533   4.512
 6499SOL     OW20395   5.852   4.424   4.015
 6499SOL    HW120396   5.883   4.403   3.922
 6499SOL    HW220397   5.790   4.353   4.046
 6500SOL     OW20398   1.002   3.610   2.482
 6500SOL    HW120399   0.965   3.518   2.485
 6500SOL    HW220400   1.102   3.607   2.479
 6501SOL     OW20401   6.667   2.003   1.034
 6501SOL    HW120402   6.619   2.091   1.036
 6501SOL    HW220403   6.759   2.016   0.998
 6502SOL     OW20404   6.018   4.106   1.261
 6502SOL    HW120405   5.924   4.107   1.228
 6502SOL    HW220406   6.054   4.012   1.256
 6503SOL     OW20407   6.530   3.015   5.785
 6503SOL    HW120408   6.522   2.922   5.748
 6503SOL    HW220409   6.486   3.079   5.723
 6504SOL     OW20410   4.516   6.628   6.770
 6504SOL    HW120411   4.616   6.629   6.779
 6504SOL    HW220412   4.487   6.710   6.721
 6505SOL     OW20413   5.629   6.108   6.994
 6505SOL    HW120414   5.666   6.180   6.936
 6505SOL    HW220415   5.543   6.139   0.017
 6506SOL     OW20416   0.203   3.001   3.459
 6506SOL    HW120417   0.267   2.942   3.507
 6506SOL    HW220418   0.150   2.946   3.393
 6507SOL     OW20419   3.122   5.614   6.562
 6507SOL    HW120420   3.187   5.669   6.510
 6507SOL    HW220421   3.053   5.577   6.501
 6508SOL     OW20422   1.174   6.671   1.642
 6508SOL    HW120423   1.210   6.762   1.663
 6508SOL    HW220424   1.140   6.628   1.726
 6509SOL     OW20425   3.653   1.521   5.804
 6509SOL    HW120426   3.698   1.545   5.890
 6509SOL    HW220427   3.579   1.456   5.823
 6510SOL     OW20428   4.421   5.831   5.443
 6510SOL    HW120429   4.494   5.870   5.499
 6510SOL    HW220430   4.459   5.758   5.385
 6511SOL     OW20431   3.947   1.515   6.458
 6511SOL    HW120432   3.854   1.535   6.488
 6511SOL    HW220433   3.971   1.422   6.485
 6512SOL     OW20434   2.806   0.956   1.906
 6512SOL    HW120435   2.865   0.928   1.831
 6512SOL    HW220436   2.807   1.056   1.914
 6513SOL     OW20437   2.588   5.681   4.916
 6513SOL    HW120438   2.629   5.773   4.914
 6513SOL    HW220439   2.629   5.625   4.844
 6514SOL     OW20440   5.626   0.433   5.154
 6514SOL    HW120441   5.693   0.447   5.081
 6514SOL    HW220442   5.548   0.494   5.139
 6515SOL     OW20443   2.170   4.986   2.149
 6515SOL    HW120444   2.111   4.920   2.103
 6515SOL    HW220445   2.135   5.003   2.242
 6516SOL     OW20446   0.377   3.138   1.801
 6516SOL    HW120447   0.384   3.208   1.730
 6516SOL    HW220448   0.328   3.176   1.879
 6517SOL     OW20449   6.844   2.407   6.722
 6517SOL    HW120450   6.839   2.449   6.813
 6517SOL    HW220451   6.922   2.444   6.673
 6518SOL     OW20452   0.204   1.075   2.542
 6518SOL    HW120453   0.296   1.037   2.544
 6518SOL    HW220454   0.144   1.015   2.490
 6519SOL     OW20455   1.053   1.115   3.021
 6519SOL    HW120456   1.002   1.114   2.935
 6519SOL    HW220457   1.005   1.171   3.088
 6520SOL     OW20458   6.898   5.679   6.829
 6520SOL    HW120459   6.931   5.692   6.735
 6520SOL    HW220460   6.932   5.592   6.865
 6521SOL     OW20461   1.515   3.112   3.667
 6521SOL    HW120462   1.509   3.015   3.643
 6521SOL    HW220463   1.437   3.138   3.724
 6522SOL     OW20464   2.885   3.726   5.599
 6522SOL    HW120465   2.951   3.713   5.524
 6522SOL    HW220466   2.912   3.806   5.652
 6523SOL     OW20467   6.005   0.795   0.261
 6523SOL    HW120468   6.104   0.789   0.257
 6523SOL    HW220469   5.968   0.801   0.168
 6524SOL     OW20470   2.933   2.094   1.826
 6524SOL    HW120471   2.914   2.176   1.880
 6524SOL    HW220472   2.928   2.115   1.729
 6525SOL     OW20473   1.637   5.358   3.819
 6525SOL    HW120474   1.659   5.290   3.890
 6525SOL    HW220475   1.538   5.374   3.819
 6526SOL     OW20476   6.959   0.103   1.085
 6526SOL    HW120477   6.861   0.118   1.081
 6526SOL    HW220478   6.981   0.048   1.166
 6527SOL     OW20479   0.708   2.848   0.683
 6527SOL    HW120480   0.655   2.772   0.719
 6527SOL    HW220481   0.650   2.906   0.626
 6528SOL     OW20482   6.168   1.303   5.709
 6528SOL    HW120483   6.232   1.232   5.739
 6528SOL    HW220484   6.189   1.329   5.615
 6529SOL     OW20485   0.155   1.510   2.225
 6529SOL    HW120486   0.132   1.598   2.267
 6529SOL    HW220487   0.215   1.458   2.285
 6530SOL     OW20488   0.867   2.715   2.369
 6530SOL    HW120489   0.918   2.693   2.286
 6530SOL    HW220490   0.769   2.720   2.348
 6531SOL     OW20491   4.245   3.113   5.806
 6531SOL    HW120492   4.345   3.119   5.807
 6531SOL    HW220493   4.215   3.074   5.719
 6532SOL     OW20494   1.496   0.739   0.823
 6532SOL    HW120495   1.528   0.780   0.909
 6532SOL    HW220496   1.536   0.648   0.813
 6533SOL     OW20497   4.509   4.373   6.887
 6533SOL    HW120498   4.608   4.388   6.889
 6533SOL    HW220499   4.485   4.299   6.949
 6534SOL     OW20500   5.741   4.598   2.126
 6534SOL    HW120501   5.696   4.509   2.129
 6534SOL    HW220502   5.735   4.642   2.216
 6535SOL     OW20503   5.745   3.667   4.750
 6535SOL    HW120504   5.710   3.608   4.677
 6535SOL    HW220505   5.837   3.637   4.776
 6536SOL     OW20506   0.430   2.091   5.507
 6536SOL    HW120507   0.338   2.113   5.474
 6536SOL    HW220508   0.462   2.006   5.465
 6537SOL     OW20509   6.180   4.402   5.132
 6537SOL    HW120510   6.105   4.412   5.197
 6537SOL    HW220511   6.149   4.426   5.040
 6538SOL     OW20512   2.179   3.819   5.223
 6538SOL    HW120513   2.140   3.789   5.136
 6538SOL    HW220514   2.264   3.869   5.206
 6539SOL     OW20515   5.688   0.972   6.786
 6539SOL    HW120516   5.696   0.873   6.776
 6539SOL    HW220517   5.687   1.015   6.696
 6540SOL     OW20518   3.731   2.537   5.376
 6540SOL    HW120519   3.741   2.593   5.458
 6540SOL    HW220520   3.819   2.495   5.354
 6541SOL     OW20521   5.693   2.102   5.559
 6541SOL    HW120522   5.766   2.108   5.491
 6541SOL    HW220523   5.604   2.109   5.513
 6542SOL     OW20524   1.394   3.517   4.621
 6542SOL    HW120525   1.479   3.568   4.628
 6542SOL    HW220526   1.317   3.581   4.613
 6543SOL     OW20527   3.367   2.130   5.159
 6543SOL    HW120528   3.402   2.185   5.235
 6543SOL    HW220529   3.283   2.171   5.124
 6544SOL     OW20530   0.206   6.926   1.866
 6544SOL    HW120531   0.166   6.869   1.937
 6544SOL    HW220532   0.281   6.980   1.905
 6545SOL     OW20533   4.426   6.673   1.133
 6545SOL    HW120534   4.373   6.592   1.158
 6545SOL    HW220535   4.364   6.750   1.117
 6546SOL     OW20536   4.896   4.694   6.374
 6546SOL    HW120537   4.954   4.725   6.449
 6546SOL    HW220538   4.898   4.761   6.300
 6547SOL     OW20539   5.340   6.632   6.361
 6547SOL    HW120540   5.253   6.628   6.410
 6547SOL    HW220541   5.350   6.552   6.303
 6548SOL     OW20542   1.020   2.591   6.281
 6548SOL    HW120543   0.935   2.601   6.332
 6548SOL    HW220544   1.018   2.649   6.200
 6549SOL     OW20545   4.607   6.832   1.702
 6549SOL    HW120546   4.555   6.883   1.634
 6549SOL    HW220547   4.568   6.740   1.712
 6550SOL     OW20548   6.523   0.259   3.246
 6550SOL    HW120549   6.454   0.244   3.317
 6550SOL    HW220550   6.614   0.250   3.286
 6551SOL     OW20551   3.131   3.317   1.657
 6551SOL    HW120552   3.059   3.293   1.591
 6551SOL    HW220553   3.177   3.401   1.627
 6552SOL     OW20554   1.645   6.504   0.330
 6552SOL    HW120555   1.642   6.413   0.289
 6552SOL    HW220556   1.738   6.524   0.361
 6553SOL     OW20557   6.970   1.788   2.875
 6553SOL    HW120558   7.001   1.866   2.820
 6553SOL    HW220559   0.016   1.712   2.864
 6554SOL     OW20560   3.087   1.130   4.597
 6554SOL    HW120561   3.122   1.096   4.510
 6554SOL    HW220562   3.134   1.083   4.672
 6555SOL     OW20563   6.710   1.983   4.593
 6555SOL    HW120564   6.748   2.069   4.560
 6555SOL    HW220565   6.621   2.000   4.637
 6556SOL     OW20566   5.781   3.165   3.264
 6556SOL    HW120567   5.686   3.154   3.293
 6556SOL    HW220568   5.839   3.180   3.343
 6557SOL     OW20569   1.435   6.880   2.517
 6557SOL    HW120570   1.361   6.909   2.456
 6557SOL    HW220571   1.397   6.858   2.607
 6558SOL     OW20572   5.873   5.176   0.163
 6558SOL    HW120573   5.947   5.243   0.171
 6558SOL    HW220574   5.898   5.092   0.211
 6559SOL     OW20575   0.071   3.837   6.637
 6559SOL    HW120576   0.024   3.925   6.629
 6559SOL    HW220577   0.031   3.783   6.711
 6560SOL     OW20578   4.118   4.707   0.189
 6560SOL    HW120579   4.075   4.769   0.253
 6560SOL    HW220580   4.063   4.700   0.106
 6561SOL     OW20581   3.911   4.733   7.013
 6561SOL    HW120582   3.868   4.715   6.925
 6561SOL    HW220583   3.839   4.753   0.062
 6562SOL     OW20584   5.728   2.625   0.783
 6562SOL    HW120585   5.810   2.658   0.736
 6562SOL    HW220586   5.648   2.640   0.724
 6563SOL     OW20587   5.239   0.403   5.453
 6563SOL    HW120588   5.309   0.465   5.485
 6563SOL    HW220589   5.161   0.404   5.516
 6564SOL     OW20590   6.518   3.939   2.279
 6564SOL    HW120591   6.521   3.942   2.379
 6564SOL    HW220592   6.513   4.032   2.243
 6565SOL     OW20593   5.930   0.074   2.358
 6565SOL    HW120594   5.956   7.000   2.331
 6565SOL    HW220595   5.944   0.086   2.456
 6566SOL     OW20596   3.611   5.395   1.977
 6566SOL    HW120597   3.576   5.430   2.064
 6566SOL    HW220598   3.657   5.307   1.992
 6567SOL     OW20599   4.495   0.571   1.445
 6567SOL    HW120600   4.516   0.597   1.350
 6567SOL    HW220601   4.576   0.529   1.486
 6568SOL     OW20602   3.765   1.157   2.113
 6568SOL    HW120603   3.669   1.147   2.137
 6568SOL    HW220604   3.822   1.137   2.193
 6569SOL     OW20605   0.917   2.787   6.062
 6569SOL    HW120606   0.850   2.795   6.135
 6569SOL    HW220607   0.875   2.810   5.974
 6570SOL     OW20608   4.253   0.561   2.522
 6570SOL    HW120609   4.224   0.469   2.494
 6570SOL    HW220610   4.273   0.616   2.441
 6571SOL     OW20611   2.336   5.186   3.024
 6571SOL    HW120612   2.361   5.213   2.932
 6571SOL    HW220613   2.314   5.268   3.078
 6572SOL     OW20614   0.518   4.496   4.168
 6572SOL    HW120615   0.500   4.594   4.177
 6572SOL    HW220616   0.609   4.483   4.128
 6573SOL     OW20617   1.663   0.678   3.229
 6573SOL    HW120618   1.577   0.639   3.261
 6573SOL    HW220619   1.674   0.770   3.266
 6574SOL     OW20620   2.625   6.363   3.412
 6574SOL    HW120621   2.683   6.435   3.372
 6574SOL    HW220622   2.575   6.316   3.340
 6575SOL     OW20623   0.101   6.993   2.841
 6575SOL    HW120624   0.140   6.999   2.932
 6575SOL    HW220625   0.097   6.897   2.813
 6576SOL     OW20626   3.400   5.105   0.241
 6576SOL    HW120627   3.410   5.201   0.269
 6576SOL    HW220628   3.303   5.083   0.235
 6577SOL     OW20629   2.184   2.604   3.545
 6577SOL    HW120630   2.227   2.653   3.469
 6577SOL    HW220631   2.214   2.643   3.632
 6578SOL     OW20632   1.045   5.360   1.292
 6578SOL    HW120633   0.996   5.283   1.334
 6578SOL    HW220634   1.130   5.327   1.252
 6579SOL     OW20635   0.195   1.813   4.362
 6579SOL    HW120636   0.143   1.822   4.277
 6579SOL    HW220637   0.226   1.903   4.392
 6580SOL     OW20638   0.916   0.283   0.364
 6580SOL    HW120639   1.014   0.298   0.350
 6580SOL    HW220640   0.900   0.186   0.383
 6581SOL     OW20641   1.318   0.876   0.590
 6581SOL    HW120642   1.220   0.889   0.578
 6581SOL    HW220643   1.340   0.877   0.687
 6582SOL     OW20644   6.909   0.603   2.943
 6582SOL    HW120645   6.898   0.567   2.850
 6582SOL    HW220646   6.857   0.688   2.953
 6583SOL     OW20647   4.591   6.936   5.965
 6583SOL    HW120648   4.602   6.898   5.874
 6583SOL    HW220649   4.547   0.008   5.959
 6584SOL     OW20650   3.721   2.346   1.159
 6584SOL    HW120651   3.707   2.251   1.133
 6584SOL    HW220652   3.633   2.393   1.165
 6585SOL     OW20653   6.634   0.170   0.632
 6585SOL    HW120654   6.598   0.103   0.697
 6585SOL    HW220655   6.669   0.249   0.682
 6586SOL     OW20656   6.674   2.388   6.263
 6586SOL    HW120657   6.660   2.432   6.352
 6586SOL    HW220658   6.625   2.301   6.261
 6587SOL     OW20659   1.638   4.207   5.980
 6587SOL    HW120660   1.730   4.167   5.985
 6587SOL    HW220661   1.585   4.159   5.910
 6588SOL     OW20662   0.302   3.474   0.494
 6588SOL    HW120663   0.345   3.384   0.500
 6588SOL    HW220664   0.370   3.546   0.509
 6589SOL     OW20665   5.865   0.719   1.510
 6589SOL    HW120666   5.873   0.771   1.595
 6589SOL    HW220667   5.803   0.766   1.447
 6590SOL     OW20668   0.816   0.556   4.415
 6590SOL    HW120669   0.735   0.503   4.390
 6590SOL    HW220670   0.832   0.627   4.347
 6591SOL     OW20671   5.039   5.548   4.359
 6591SOL    HW120672   5.132   5.578   4.378
 6591SOL    HW220673   4.995   5.611   4.296
 6592SOL     OW20674   4.935   0.413   3.128
 6592SOL    HW120675   4.862   0.359   3.169
 6592SOL    HW220676   4.897   0.487   3.073
 6593SOL     OW20677   2.881   2.211   2.378
 6593SOL    HW120678   2.802   2.270   2.361
 6593SOL    HW220679   2.906   2.164   2.294
 6594SOL     OW20680   3.733   1.879   6.343
 6594SOL    HW120681   3.642   1.839   6.335
 6594SOL    HW220682   3.728   1.977   6.326
 6595SOL     OW20683   1.788   2.556   4.498
 6595SOL    HW120684   1.702   2.530   4.453
 6595SOL    HW220685   1.801   2.501   4.581
 6596SOL     OW20686   4.843   5.949   3.044
 6596SOL    HW120687   4.802   6.037   3.071
 6596SOL    HW220688   4.827   5.934   2.947
 6597SOL     OW20689   1.364   5.068   1.603
 6597SOL    HW120690   1.311   5.037   1.682
 6597SOL    HW220691   1.333   5.160   1.576
 6598SOL     OW20692   1.931   4.606   3.821
 6598SOL    HW120693   2.027   4.629   3.803
 6598SOL    HW220694   1.886   4.581   3.735
 6599SOL     OW20695   5.855   5.572   6.471
 6599SOL    HW120696   5.878   5.657   6.423
 6599SOL    HW220697   5.844   5.498   6.405
 6600SOL     OW20698   4.636   0.483   4.759
 6600SOL    HW120699   4.544   0.462   4.728
 6600SOL    HW220700   4.703   0.438   4.700
 6601SOL     OW20701   0.914   2.784   3.245
 6601SOL    HW120702   0.835   2.831   3.206
 6601SOL    HW220703   0.890   2.690   3.267
 6602SOL     OW20704   2.693   0.133   1.398
 6602SOL    HW120705   2.628   0.072   1.445
 6602SOL    HW220706   2.764   0.078   1.354
 6603SOL     OW20707   0.591   3.340   4.030
 6603SOL    HW120708   0.596   3.403   4.107
 6603SOL    HW220709   0.593   3.392   3.944
 6604SOL     OW20710   2.460   0.255   2.013
 6604SOL    HW120711   2.406   0.279   2.094
 6604SOL    HW220712   2.536   0.319   2.004
 6605SOL     OW20713   5.878   5.454   2.008
 6605SOL    HW120714   5.955   5.515   2.023
 6605SOL    HW220715   5.827   5.442   2.093
 6606SOL     OW20716   1.271   3.838   3.001
 6606SOL    HW120717   1.199   3.907   3.007
 6606SOL    HW220718   1.251   3.775   2.926
 6607SOL     OW20719   6.235   4.861   3.914
 6607SOL    HW120720   6.182   4.939   3.880
 6607SOL    HW220721   6.289   4.822   3.839
 6608SOL     OW20722   6.620   6.924   0.263
 6608SOL    HW120723   6.688   6.852   0.274
 6608SOL    HW220724   6.627   6.961   0.170
 6609SOL     OW20725   4.400   1.677   6.500
 6609SOL    HW120726   4.362   1.728   6.577
 6609SOL    HW220727   4.499   1.691   6.496
 6610SOL     OW20728   2.017   6.213   0.424
 6610SOL    HW120729   1.993   6.283   0.491
 6610SOL    HW220730   2.105   6.236   0.383
 6611SOL     OW20731   5.236   2.549   3.773
 6611SOL    HW120732   5.292   2.498   3.707
 6611SOL    HW220733   5.193   2.485   3.836
 6612SOL     OW20734   6.217   2.072   6.439
 6612SOL    HW120735   6.189   2.095   6.532
 6612SOL    HW220736   6.301   2.121   6.416
 6613SOL     OW20737   5.450   0.632   6.229
 6613SOL    HW120738   5.386   0.612   6.303
 6613SOL    HW220739   5.523   0.691   6.263
 6614SOL     OW20740   4.584   6.164   1.132
 6614SOL    HW120741   4.503   6.164   1.191
 6614SOL    HW220742   4.642   6.243   1.153
 6615SOL     OW20743   3.043   5.358   0.392
 6615SOL    HW120744   2.971   5.421   0.419
 6615SOL    HW220745   3.005   5.266   0.381
 6616SOL     OW20746   4.207   0.020   6.450
 6616SOL    HW120747   4.188   0.001   6.354
 6616SOL    HW220748   4.231   0.116   6.461
 6617SOL     OW20749   4.205   6.881   3.497
 6617SOL    HW120750   4.281   6.820   3.520
 6617SOL    HW220751   4.150   6.839   3.424
 6618SOL     OW20752   0.914   1.131   2.799
 6618SOL    HW120753   0.962   1.186   2.731
 6618SOL    HW220754   0.882   1.046   2.757
 6619SOL     OW20755   4.589   0.117   4.025
 6619SOL    HW120756   4.635   0.060   3.957
 6619SOL    HW220757   4.645   0.119   4.108
 6620SOL     OW20758   1.514   3.826   3.379
 6620SOL    HW120759   1.489   3.800   3.472
 6620SOL    HW220760   1.536   3.744   3.326
 6621SOL     OW20761   3.605   3.255   5.010
 6621SOL    HW120762   3.602   3.293   4.918
 6621SOL    HW220763   3.650   3.165   5.008
 6622SOL     OW20764   5.735   5.689   1.351
 6622SOL    HW120765   5.775   5.743   1.277
 6622SOL    HW220766   5.806   5.660   1.414
 6623SOL     OW20767   3.618   4.109   4.705
 6623SOL    HW120768   3.717   4.097   4.701
 6623SOL    HW220769   3.591   4.135   4.798
 6624SOL     OW20770   0.978   2.922   4.864
 6624SOL    HW120771   1.051   2.907   4.797
 6624SOL    HW220772   0.981   3.017   4.895
 6625SOL     OW20773   6.309   2.648   5.740
 6625SOL    HW120774   6.361   2.692   5.667
 6625SOL    HW220775   6.223   2.697   5.754
 6626SOL     OW20776   3.268   0.057   4.882
 6626SOL    HW120777   3.284   0.129   4.950
 6626SOL    HW220778   3.347   0.050   4.821
 6627SOL     OW20779   1.451   6.079   4.373
 6627SOL    HW120780   1.388   6.131   4.316
 6627SOL    HW220781   1.532   6.135   4.392
 6628SOL     OW20782   5.209   5.807   4.048
 6628SOL    HW120783   5.224   5.843   3.956
 6628SOL    HW220784   5.111   5.799   4.065
 6629SOL     OW20785   5.006   5.295   6.992
 6629SOL    HW120786   4.961   5.221   0.023
 6629SOL    HW220787   4.969   5.383   0.004
 6630SOL     OW20788   3.303   1.380   1.845
 6630SOL    HW120789   3.227   1.444   1.837
 6630SOL    HW220790   3.278   1.307   1.909
 6631SOL     OW20791   1.371   5.549   5.210
 6631SOL    HW120792   1.426   5.632   5.201
 6631SOL    HW220793   1.429   5.469   5.196
 6632SOL     OW20794   1.284   0.852   1.230
 6632SOL    HW120795   1.220   0.873   1.304
 6632SOL    HW220796   1.333   0.767   1.252
 6633SOL     OW20797   3.005   5.058   6.195
 6633SOL    HW120798   3.039   5.063   6.101
 6633SOL    HW220799   2.993   4.962   6.222
 6634SOL     OW20800   4.992   2.150   5.497
 6634SOL    HW120801   4.913   2.177   5.551
 6634SOL    HW220802   4.962   2.092   5.420
 6635SOL     OW20803   4.627   4.331   2.516
 6635SOL    HW120804   4.585   4.366   2.600
 6635SOL    HW220805   4.661   4.238   2.532
 6636SOL     OW20806   2.913   0.776   2.161
 6636SOL    HW120807   2.916   0.808   2.067
 6636SOL    HW220808   2.897   0.854   2.222
 6637SOL     OW20809   1.830   0.436   0.670
 6637SOL    HW120810   1.765   0.362   0.686
 6637SOL    HW220811   1.837   0.493   0.753
 6638SOL     OW20812   2.951   3.258   3.458
 6638SOL    HW120813   2.900   3.179   3.493
 6638SOL    HW220814   2.947   3.332   3.526
 6639SOL     OW20815   3.837   2.945   0.157
 6639SOL    HW120816   3.901   2.952   0.080
 6639SOL    HW220817   3.848   2.855   0.200
 6640SOL     OW20818   0.288   2.306   5.219
 6640SOL    HW120819   0.379   2.281   5.254
 6640SOL    HW220820   0.279   2.406   5.219
 6641SOL     OW20821   3.789   1.979   1.244
 6641SOL    HW120822   3.691   1.981   1.228
 6641SOL    HW220823   3.824   1.887   1.226
 6642SOL     OW20824   1.776   5.025   7.010
 6642SOL    HW120825   1.777   5.066   6.918
 6642SOL    HW220826   1.851   5.063   0.046
 6643SOL     OW20827   5.720   6.654   0.352
 6643SOL    HW120828   5.741   6.723   0.283
 6643SOL    HW220829   5.716   6.696   0.442
 6644SOL     OW20830   1.930   6.601   2.703
 6644SOL    HW120831   2.003   6.611   2.771
 6644SOL    HW220832   1.878   6.686   2.697
 6645SOL     OW20833   5.805   2.662   1.041
 6645SOL    HW120834   5.813   2.570   1.079
 6645SOL    HW220835   5.768   2.656   0.948
 6646SOL     OW20836   4.084   0.783   6.589
 6646SOL    HW120837   4.136   0.834   6.657
 6646SOL    HW220838   4.137   0.704   6.559
 6647SOL     OW20839   4.422   5.339   1.253
 6647SOL    HW120840   4.465   5.427   1.272
 6647SOL    HW220841   4.401   5.293   1.340
 6648SOL     OW20842   3.826   6.138   4.689
 6648SOL    HW120843   3.782   6.053   4.658
 6648SOL    HW220844   3.893   6.167   4.622
 6649SOL     OW20845   5.841   2.946   6.434
 6649SOL    HW120846   5.784   3.027   6.451
 6649SOL    HW220847   5.816   2.905   6.347
 6650SOL     OW20848   4.010   0.663   5.021
 6650SOL    HW120849   4.092   0.713   4.993
 6650SOL    HW220850   3.942   0.666   4.948
 6651SOL     OW20851   1.334   1.644   0.117
 6651SOL    HW120852   1.243   1.606   0.102
 6651SOL    HW220853   1.401   1.570   0.120
 6652SOL     OW20854   0.712   4.544   0.045
 6652SOL    HW120855   0.644   4.564   6.993
 6652SOL    HW220856   0.683   4.584   0.132
 6653SOL     OW20857   5.171   2.938   0.359
 6653SOL    HW120858   5.140   3.033   0.372
 6653SOL    HW220859   5.254   2.938   0.303
 6654SOL     OW20860   0.348   4.871   2.829
 6654SOL    HW120861   0.268   4.897   2.775
 6654SOL    HW220862   0.336   4.900   2.923
 6655SOL     OW20863   0.135   6.247   2.040
 6655SOL    HW120864   0.177   6.170   1.991
 6655SOL    HW220865   0.062   6.286   1.984
 6656SOL     OW20866   4.499   1.837   2.593
 6656SOL    HW120867   4.444   1.790   2.663
 6656SOL    HW220868   4.448   1.840   2.507
 6657SOL     OW20869   5.431   2.356   4.728
 6657SOL    HW120870   5.494   2.294   4.775
 6657SOL    HW220871   5.362   2.390   4.792
 6658SOL     OW20872   6.697   0.741   5.356
 6658SOL    HW120873   6.698   0.782   5.447
 6658SOL    HW220874   6.607   0.755   5.315
 6659SOL     OW20875   1.338   4.654   1.613
 6659SOL    HW120876   1.271   4.650   1.539
 6659SOL    HW220877   1.321   4.734   1.670
 6660SOL     OW20878   1.472   5.096   2.192
 6660SOL    HW120879   1.532   5.054   2.124
 6660SOL    HW220880   1.433   5.180   2.154
 6661SOL     OW20881   2.821   7.004   4.656
 6661SOL    HW120882   2.906   0.032   4.679
 6661SOL    HW220883   2.763   6.998   4.737
 6662SOL     OW20884   1.563   0.180   1.575
 6662SOL    HW120885   1.649   0.142   1.610
 6662SOL    HW220886   1.534   0.128   1.495
 6663SOL     OW20887   0.947   5.978   5.661
 6663SOL    HW120888   0.928   6.030   5.745
 6663SOL    HW220889   0.984   6.040   5.592
 6664SOL     OW20890   2.335   0.413   1.730
 6664SOL    HW120891   2.292   0.441   1.644
 6664SOL    HW220892   2.429   0.384   1.713
 6665SOL     OW20893   2.239   6.564   5.952
 6665SOL    HW120894   2.328   6.591   5.916
 6665SOL    HW220895   2.229   6.598   6.046
 6666SOL     OW20896   6.659   5.755   5.049
 6666SOL    HW120897   6.717   5.741   5.129
 6666SOL    HW220898   6.564   5.765   5.078
 6667SOL     OW20899   6.733   6.711   5.923
 6667SOL    HW120900   6.761   6.710   5.826
 6667SOL    HW220901   6.633   6.713   5.929
 6668SOL     OW20902   6.583   6.093   1.247
 6668SOL    HW120903   6.668   6.144   1.233
 6668SOL    HW220904   6.589   6.043   1.334
 6669SOL     OW20905   3.363   1.818   1.658
 6669SOL    HW120906   3.454   1.829   1.619
 6669SOL    HW220907   3.330   1.907   1.690
 6670SOL     OW20908   3.020   1.456   6.994
 6670SOL    HW120909   3.086   1.475   6.921
 6670SOL    HW220910   2.927   1.462   6.957
 6671SOL     OW20911   4.857   6.599   1.060
 6671SOL    HW120912   4.786   6.652   1.014
 6671SOL    HW220913   4.908   6.658   1.123
 6672SOL     OW20914   1.624   2.330   0.601
 6672SOL    HW120915   1.680   2.413   0.603
 6672SOL    HW220916   1.637   2.279   0.687
 6673SOL     OW20917   5.388   3.791   4.371
 6673SOL    HW120918   5.384   3.788   4.471
 6673SOL    HW220919   5.397   3.697   4.336
 6674SOL     OW20920   0.406   2.894   6.485
 6674SOL    HW120921   0.373   2.802   6.461
 6674SOL    HW220922   0.491   2.913   6.435
 6675SOL     OW20923   4.295   2.144   0.207
 6675SOL    HW120924   4.277   2.243   0.214
 6675SOL    HW220925   4.331   2.124   0.116
 6676SOL     OW20926   1.500   4.218   2.537
 6676SOL    HW120927   1.401   4.234   2.528
 6676SOL    HW220928   1.535   4.274   2.612
 6677SOL     OW20929   0.596   0.849   6.917
 6677SOL    HW120930   0.640   0.773   6.964
 6677SOL    HW220931   0.664   0.902   6.868
 6678SOL     OW20932   1.441   3.880   0.645
 6678SOL    HW120933   1.505   3.875   0.721
 6678SOL    HW220934   1.358   3.828   0.667
 6679SOL     OW20935   3.494   0.704   3.733
 6679SOL    HW120936   3.462   0.787   3.687
 6679SOL    HW220937   3.532   0.728   3.822
 6680SOL     OW20938   4.794   6.515   0.146
 6680SOL    HW120939   4.771   6.558   0.059
 6680SOL    HW220940   4.715   6.465   0.180
 6681SOL     OW20941   4.768   5.511   1.808
 6681SOL    HW120942   4.857   5.478   1.778
 6681SOL    HW220943   4.702   5.502   1.733
 6682SOL     OW20944   2.717   4.635   6.618
 6682SOL    HW120945   2.666   4.654   6.702
 6682SOL    HW220946   2.763   4.547   6.626
 6683SOL     OW20947   6.135   3.190   5.961
 6683SOL    HW120948   6.079   3.159   6.038
 6683SOL    HW220949   6.082   3.185   5.877
 6684SOL     OW20950   3.437   6.724   2.312
 6684SOL    HW120951   3.533   6.748   2.300
 6684SOL    HW220952   3.401   6.683   2.228
 6685SOL     OW20953   4.204   3.093   6.437
 6685SOL    HW120954   4.261   3.120   6.515
 6685SOL    HW220955   4.239   3.135   6.354
 6686SOL     OW20956   6.177   5.578   2.988
 6686SOL    HW120957   6.118   5.514   3.037
 6686SOL    HW220958   6.201   5.539   2.898
 6687SOL     OW20959   0.133   2.154   1.056
 6687SOL    HW120960   0.099   2.145   1.150
 6687SOL    HW220961   0.181   2.241   1.046
 6688SOL     OW20962   4.184   4.138   0.595
 6688SOL    HW120963   4.239   4.207   0.643
 6688SOL    HW220964   4.232   4.051   0.595
 6689SOL     OW20965   4.400   4.049   5.686
 6689SOL    HW120966   4.410   3.961   5.639
 6689SOL    HW220967   4.439   4.122   5.629
 6690SOL     OW20968   1.283   6.806   6.666
 6690SOL    HW120969   1.205   6.850   6.710
 6690SOL    HW220970   1.338   6.875   6.619
 6691SOL     OW20971   1.228   0.472   2.514
 6691SOL    HW120972   1.272   0.553   2.553
 6691SOL    HW220973   1.266   0.454   2.423
 6692SOL     OW20974   4.175   4.126   1.448
 6692SOL    HW120975   4.139   4.056   1.510
 6692SOL    HW220976   4.258   4.166   1.486
 6693SOL     OW20977   4.589   1.692   4.401
 6693SOL    HW120978   4.671   1.642   4.373
 6693SOL    HW220979   4.581   1.776   4.348
 6694SOL     OW20980   3.530   5.307   1.483
 6694SOL    HW120981   3.567   5.388   1.529
 6694SOL    HW220982   3.534   5.319   1.384
 6695SOL     OW20983   2.400   1.848   0.054
 6695SOL    HW120984   2.471   1.895   0.107
 6695SOL    HW220985   2.436   1.763   0.017
 6696SOL     OW20986   4.019   3.768   3.969
 6696SOL    HW120987   4.092   3.779   4.037
 6696SOL    HW220988   3.993   3.671   3.964
 6697SOL     OW20989   5.453   2.577   2.664
 6697SOL    HW120990   5.386   2.576   2.590
 6697SOL    HW220991   5.511   2.658   2.654
 6698SOL     OW20992   2.966   3.290   1.420
 6698SOL    HW120993   2.943   3.379   1.381
 6698SOL    HW220994   2.912   3.219   1.375
 6699SOL     OW20995   1.758   5.540   5.871
 6699SOL    HW120996   1.719   5.494   5.791
 6699SOL    HW220997   1.809   5.473   5.925
 6700SOL     OW20998   5.827   0.645   0.654
 6700SOL    HW120999   5.749   0.612   0.708
 6700SOL    HW221000   5.843   0.582   0.578
 6701SOL     OW21001   5.919   6.967   1.697
 6701SOL    HW121002   6.011   6.930   1.711
 6701SOL    HW221003   5.916   7.014   1.609
 6702SOL     OW21004   2.170   2.202   1.451
 6702SOL    HW121005   2.227   2.249   1.383
 6702SOL    HW221006   2.110   2.137   1.405
 6703SOL     OW21007   1.094   0.923   6.628
 6703SOL    HW121008   1.128   0.865   6.702
 6703SOL    HW221009   1.037   0.869   6.566
 6704SOL     OW21010   3.641   1.072   4.379
 6704SOL    HW121011   3.727   1.044   4.421
 6704SOL    HW221012   3.617   1.164   4.408
 6705SOL     OW21013   5.957   3.049   0.826
 6705SOL    HW121014   5.863   3.021   0.805
 6705SOL    HW221015   6.019   2.971   0.816
 6706SOL     OW21016   1.481   5.857   0.918
 6706SOL    HW121017   1.414   5.881   0.848
 6706SOL    HW221018   1.438   5.795   0.984
 6707SOL     OW21019   4.970   0.392   2.335
 6707SOL    HW121020   4.985   0.429   2.427
 6707SOL    HW221021   5.042   0.326   2.313
 6708SOL     OW21022   6.006   4.867   1.912
 6708SOL    HW121023   5.994   4.949   1.968
 6708SOL    HW221024   6.014   4.893   1.816
 6709SOL     OW21025   0.972   4.470   2.716
 6709SOL    HW121026   0.987   4.399   2.647
 6709SOL    HW221027   0.936   4.428   2.799
 6710SOL     OW21028   4.780   1.538   1.947
 6710SOL    HW121029   4.745   1.444   1.937
 6710SOL    HW221030   4.834   1.545   2.031
 6711SOL     OW21031   4.865   6.591   5.939
 6711SOL    HW121032   4.855   6.505   5.989
 6711SOL    HW221033   4.813   6.586   5.854
 6712SOL     OW21034   5.850   3.560   0.913
 6712SOL    HW121035   5.931   3.504   0.897
 6712SOL    HW221036   5.858   3.647   0.863
 6713SOL     OW21037   1.277   1.247   3.254
 6713SOL    HW121038   1.266   1.214   3.348
 6713SOL    HW221039   1.198   1.305   3.230
 6714SOL     OW21040   5.879   1.181   0.792
 6714SOL    HW121041   5.941   1.151   0.864
 6714SOL    HW221042   5.828   1.103   0.757
 6715SOL     OW21043   1.610   0.974   1.506
 6715SOL    HW121044   1.572   1.001   1.417
 6715SOL    HW221045   1.540   0.984   1.576
 6716SOL     OW21046   6.394   5.671   2.456
 6716SOL    HW121047   6.486   5.633   2.448
 6716SOL    HW221048   6.327   5.598   2.442
 6717SOL     OW21049   2.545   2.248   6.476
 6717SOL    HW121050   2.644   2.234   6.486
 6717SOL    HW221051   2.528   2.310   6.400
 6718SOL     OW21052   4.648   1.585   0.690
 6718SOL    HW121053   4.669   1.559   0.595
 6718SOL    HW221054   4.607   1.676   0.692
 6719SOL     OW21055   1.922   6.524   0.295
 6719SOL    HW121056   1.929   6.475   0.209
 6719SOL    HW221057   2.013   6.555   0.323
 6720SOL     OW21058   2.822   0.816   5.101
 6720SOL    HW121059   2.751   0.870   5.147
 6720SOL    HW221060   2.895   0.876   5.071
 6721SOL     OW21061   6.987   0.167   0.744
 6721SOL    HW121062   6.994   0.079   0.792
 6721SOL    HW221063   6.910   0.219   0.781
 6722SOL     OW21064   0.546   2.544   0.447
 6722SOL    HW121065   0.589   2.582   0.366
 6722SOL    HW221066   0.606   2.474   0.487
 6723SOL     OW21067   2.057   0.289   6.849
 6723SOL    HW121068   2.136   0.255   6.900
 6723SOL    HW221069   2.026   0.375   6.890
 6724SOL     OW21070   2.477   2.422   6.252
 6724SOL    HW121071   2.499   2.477   6.171
 6724SOL    HW221072   2.379   2.404   6.254
 6725SOL     OW21073   5.880   3.048   3.036
 6725SOL    HW121074   5.953   3.107   3.000
 6725SOL    HW221075   5.844   3.088   3.120
 6726SOL     OW21076   0.294   2.048   4.728
 6726SOL    HW121077   0.294   2.124   4.662
 6726SOL    HW221078   0.204   2.040   4.770
 6727SOL     OW21079   1.103   4.093   5.854
 6727SOL    HW121080   1.068   4.086   5.947
 6727SOL    HW221081   1.057   4.025   5.797
 6728SOL     OW21082   3.771   1.893   3.309
 6728SOL    HW121083   3.769   1.859   3.215
 6728SOL    HW221084   3.687   1.865   3.356
 6729SOL     OW21085   6.739   2.173   6.889
 6729SOL    HW121086   6.716   2.216   6.976
 6729SOL    HW221087   6.802   2.231   6.838
 6730SOL     OW21088   1.428   0.627   1.319
 6730SOL    HW121089   1.521   0.640   1.352
 6730SOL    HW221090   1.396   0.535   1.342
 6731SOL     OW21091   1.846   6.192   0.991
 6731SOL    HW121092   1.769   6.132   0.968
 6731SOL    HW221093   1.930   6.154   0.953
 6732SOL     OW21094   5.312   4.307   4.377
 6732SOL    HW121095   5.394   4.314   4.433
 6732SOL    HW221096   5.297   4.211   4.351
 6733SOL     OW21097   3.858   5.167   6.659
 6733SOL    HW121098   3.899   5.200   6.744
 6733SOL    HW221099   3.844   5.068   6.665
 6734SOL     OW21100   5.453   2.105   5.473
 6734SOL    HW121101   5.409   2.017   5.456
 6734SOL    HW221102   5.385   2.171   5.505
 6735SOL     OW21103   5.869   4.041   4.168
 6735SOL    HW121104   5.780   4.083   4.154
 6735SOL    HW221105   5.927   4.103   4.221
 6736SOL     OW21106   3.075   4.166   6.820
 6736SOL    HW121107   3.111   4.073   6.827
 6736SOL    HW221108   2.987   4.171   6.867
 6737SOL     OW21109   0.595   2.765   0.990
 6737SOL    HW121110   0.594   2.860   0.958
 6737SOL    HW221111   0.525   2.753   1.060
 6738SOL     OW21112   1.643   5.827   3.738
 6738SOL    HW121113   1.724   5.885   3.731
 6738SOL    HW221114   1.647   5.775   3.824
 6739SOL     OW21115   6.501   6.149   3.752
 6739SOL    HW121116   6.404   6.164   3.729
 6739SOL    HW221117   6.509   6.131   3.850
 6740SOL     OW21118   6.448   6.568   4.520
 6740SOL    HW121119   6.536   6.601   4.554
 6740SOL    HW221120   6.374   6.616   4.566
 6741SOL     OW21121   4.056   2.203   6.035
 6741SOL    HW121122   3.970   2.154   6.023
 6741SOL    HW221123   4.120   2.146   6.087
 6742SOL     OW21124   5.876   5.705   3.584
 6742SOL    HW121125   5.873   5.640   3.660
 6742SOL    HW221126   5.788   5.705   3.536
 6743SOL     OW21127   3.828   4.010   6.658
 6743SOL    HW121128   3.750   3.979   6.712
 6743SOL    HW221129   3.911   3.962   6.687
 6744SOL     OW21130   0.039   6.323   5.931
 6744SOL    HW121131   0.088   6.337   6.017
 6744SOL    HW221132   0.083   6.249   5.880
 6745SOL     OW21133   6.896   5.996   3.727
 6745SOL    HW121134   6.811   6.038   3.694
 6745SOL    HW221135   6.969   6.012   3.661
 6746SOL     OW21136   1.631   0.908   2.554
 6746SOL    HW121137   1.639   0.892   2.652
 6746SOL    HW221138   1.676   0.995   2.531
 6747SOL     OW21139   5.950   6.703   6.349
 6747SOL    HW121140   6.026   6.715   6.286
 6747SOL    HW221141   5.947   6.779   6.413
 6748SOL     OW21142   2.661   1.963   3.760
 6748SOL    HW121143   2.650   1.871   3.723
 6748SOL    HW221144   2.755   1.994   3.747
 6749SOL     OW21145   3.994   4.439   0.933
 6749SOL    HW121146   4.089   4.468   0.946
 6749SOL    HW221147   3.956   4.410   1.020
 6750SOL     OW21148   2.897   1.639   3.899
 6750SOL    HW121149   2.849   1.622   3.813
 6750SOL    HW221150   2.838   1.691   3.961
 6751SOL     OW21151   4.827   0.698   3.368
 6751SOL    HW121152   4.917   0.737   3.352
 6751SOL    HW221153   4.826   0.602   3.341
 6752SOL     OW21154   1.813   0.143   4.073
 6752SOL    HW121155   1.864   0.072   4.023
 6752SOL    HW221156   1.776   0.210   4.008
 6753SOL     OW21157   3.222   1.953   5.826
 6753SOL    HW121158   3.146   1.892   5.805
 6753SOL    HW221159   3.309   1.905   5.811
 6754SOL     OW21160   6.070   0.826   1.359
 6754SOL    HW121161   6.000   0.784   1.417
 6754SOL    HW221162   6.075   0.777   1.272
 6755SOL     OW21163   3.467   4.151   1.312
 6755SOL    HW121164   3.557   4.169   1.352
 6755SOL    HW221165   3.413   4.235   1.311
 6756SOL     OW21166   3.744   0.428   5.534
 6756SOL    HW121167   3.735   0.527   5.537
 6756SOL    HW221168   3.841   0.403   5.538
 6757SOL     OW21169   4.126   1.457   1.636
 6757SOL    HW121170   4.037   1.422   1.604
 6757SOL    HW221171   4.111   1.521   1.712
 6758SOL     OW21172   6.202   3.306   1.751
 6758SOL    HW121173   6.257   3.231   1.714
 6758SOL    HW221174   6.109   3.301   1.715
 6759SOL     OW21175   6.841   3.090   2.949
 6759SOL    HW121176   6.779   3.042   3.011
 6759SOL    HW221177   6.935   3.078   2.981
 6760SOL     OW21178   6.198   3.878   1.953
 6760SOL    HW121179   6.263   3.803   1.966
 6760SOL    HW221180   6.248   3.960   1.924
 6761SOL     OW21181   5.145   2.776   5.004
 6761SOL    HW121182   5.212   2.749   4.935
 6761SOL    HW221183   5.135   2.876   5.003
 6762SOL     OW21184   0.283   4.740   4.745
 6762SOL    HW121185   0.313   4.664   4.802
 6762SOL    HW221186   0.205   4.711   4.689
 6763SOL     OW21187   4.979   5.318   4.778
 6763SOL    HW121188   4.961   5.245   4.844
 6763SOL    HW221189   4.894   5.366   4.757
 6764SOL     OW21190   2.001   5.724   2.249
 6764SOL    HW121191   2.088   5.677   2.234
 6764SOL    HW221192   1.997   5.805   2.189
 6765SOL     OW21193   6.468   4.340   3.312
 6765SOL    HW121194   6.428   4.289   3.388
 6765SOL    HW221195   6.495   4.277   3.240
 6766SOL     OW21196   4.987   6.278   5.720
 6766SOL    HW121197   4.888   6.273   5.706
 6766SOL    HW221198   5.026   6.187   5.716
 6767SOL     OW21199   3.090   0.372   1.291
 6767SOL    HW121200   3.077   0.392   1.194
 6767SOL    HW221201   3.182   0.401   1.319
 6768SOL     OW21202   2.068   0.328   5.894
 6768SOL    HW121203   2.054   0.239   5.938
 6768SOL    HW221204   2.138   0.379   5.945
 6769SOL     OW21205   3.043   1.956   1.024
 6769SOL    HW121206   2.973   1.958   0.952
 6769SOL    HW221207   3.131   1.983   0.986
 6770SOL     OW21208   6.799   1.063   1.686
 6770SOL    HW121209   6.848   1.006   1.752
 6770SOL    HW221210   6.832   1.157   1.692
 6771SOL     OW21211   4.688   2.629   3.553
 6771SOL    HW121212   4.745   2.678   3.620
 6771SOL    HW221213   4.647   2.549   3.597
 6772SOL     OW21214   3.436   0.868   3.426
 6772SOL    HW121215   3.505   0.802   3.397
 6772SOL    HW221216   3.349   0.848   3.381
 6773SOL     OW21217   6.814   5.507   1.726
 6773SOL    HW121218   6.774   5.492   1.635
 6773SOL    HW221219   6.742   5.505   1.795
 6774SOL     OW21220   0.673   2.485   5.781
 6774SOL    HW121221   0.655   2.444   5.691
 6774SOL    HW221222   0.730   2.566   5.771
 6775SOL     OW21223   2.661   3.128   1.647
 6775SOL    HW121224   2.757   3.109   1.669
 6775SOL    HW221225   2.645   3.227   1.651
 6776SOL     OW21226   4.340   4.437   6.672
 6776SOL    HW121227   4.407   4.417   6.743
 6776SOL    HW221228   4.248   4.439   6.712
 6777SOL     OW21229   4.101   3.866   6.711
 6777SOL    HW121230   4.121   3.779   6.756
 6777SOL    HW221231   4.141   3.866   6.619
 6778SOL     OW21232   6.348   4.746   2.408
 6778SOL    HW121233   6.375   4.760   2.312
 6778SOL    HW221234   6.405   4.675   2.449
 6779SOL     OW21235   6.730   5.089   5.752
 6779SOL    HW121236   6.757   5.081   5.847
 6779SOL    HW221237   6.633   5.114   5.746
 6780SOL     OW21238   1.243   2.316   2.466
 6780SOL    HW121239   1.303   2.235   2.461
 6780SOL    HW221240   1.206   2.324   2.559
 6781SOL     OW21241   5.610   0.202   4.823
 6781SOL    HW121242   5.646   0.290   4.854
 6781SOL    HW221243   5.651   0.129   4.876
 6782SOL     OW21244   0.322   0.367   3.546
 6782SOL    HW121245   0.371   0.280   3.558
 6782SOL    HW221246   0.238   0.365   3.599
 6783SOL     OW21247   6.317   0.937   6.334
 6783SOL    HW121248   6.243   0.902   6.392
 6783SOL    HW221249   6.394   0.964   6.392
 6784SOL     OW21250   3.055   3.499   0.329
 6784SOL    HW121251   2.988   3.425   0.341
 6784SOL    HW221252   3.044   3.566   0.402
 6785SOL     OW21253   5.277   4.627   2.768
 6785SOL    HW121254   5.313   4.655   2.679
 6785SOL    HW221255   5.209   4.555   2.755
 6786SOL     OW21256   1.481   1.869   0.206
 6786SOL    HW121257   1.435   1.786   0.177
 6786SOL    HW221258   1.419   1.923   0.264
 6787SOL     OW21259   1.604   2.821   1.162
 6787SOL    HW121260   1.611   2.899   1.101
 6787SOL    HW221261   1.691   2.807   1.210
 6788SOL     OW21262   2.610   3.398   1.695
 6788SOL    HW121263   2.689   3.433   1.747
 6788SOL    HW221264   2.528   3.408   1.751
 6789SOL     OW21265   7.016   6.517   3.099
 6789SOL    HW121266   0.093   6.494   3.080
 6789SOL    HW221267   6.956   6.460   3.043
 6790SOL     OW21268   1.429   3.824   1.073
 6790SOL    HW121269   1.503   3.812   1.007
 6790SOL    HW221270   1.414   3.738   1.121
 6791SOL     OW21271   4.348   2.791   1.479
 6791SOL    HW121272   4.316   2.715   1.535
 6791SOL    HW221273   4.359   2.872   1.536
 6792SOL     OW21274   6.601   6.210   6.164
 6792SOL    HW121275   6.692   6.173   6.145
 6792SOL    HW221276   6.536   6.175   6.097
 6793SOL     OW21277   0.873   2.049   0.101
 6793SOL    HW121278   0.872   1.962   0.149
 6793SOL    HW221279   0.782   2.090   0.103
 6794SOL     OW21280   4.758   1.612   5.805
 6794SOL    HW121281   4.804   1.689   5.851
 6794SOL    HW221282   4.817   1.531   5.810
 6795SOL     OW21283   2.631   6.509   0.711
 6795SOL    HW121284   2.711   6.457   0.740
 6795SOL    HW221285   2.550   6.474   0.757
 6796SOL     OW21286   6.094   0.805   2.217
 6796SOL    HW121287   6.029   0.794   2.292
 6796SOL    HW221288   6.179   0.759   2.239
 6797SOL     OW21289   5.570   3.652   1.444
 6797SOL    HW121290   5.552   3.605   1.358
 6797SOL    HW221291   5.663   3.633   1.474
 6798SOL     OW21292   5.388   6.110   2.843
 6798SOL    HW121293   5.464   6.174   2.854
 6798SOL    HW221294   5.377   6.087   2.746
 6799SOL     OW21295   6.634   5.737   6.879
 6799SOL    HW121296   6.619   5.826   6.834
 6799SOL    HW221297   6.704   5.686   6.828
 6800SOL     OW21298   2.229   4.072   1.203
 6800SOL    HW121299   2.284   4.018   1.266
 6800SOL    HW221300   2.255   4.050   1.109
 6801SOL     OW21301   1.013   0.631   2.887
 6801SOL    HW121302   1.042   0.536   2.874
 6801SOL    HW221303   1.066   0.673   2.961
 6802SOL     OW21304   3.093   5.818   0.109
 6802SOL    HW121305   3.054   5.799   0.018
 6802SOL    HW221306   3.192   5.831   0.100
 6803SOL     OW21307   5.077   2.721   6.421
 6803SOL    HW121308   5.125   2.738   6.507
 6803SOL    HW221309   5.099   2.793   6.356
 6804SOL     OW21310   2.516   5.390   3.371
 6804SOL    HW121311   2.498   5.420   3.465
 6804SOL    HW221312   2.614   5.384   3.356
 6805SOL     OW21313   5.675   5.662   5.073
 6805SOL    HW121314   5.629   5.743   5.037
 6805SOL    HW221315   5.651   5.651   5.170
 6806SOL     OW21316   5.796   0.935   3.240
 6806SOL    HW121317   5.809   0.974   3.331
 6806SOL    HW221318   5.829   1.001   3.171
 6807SOL     OW21319   3.025   2.541   0.512
 6807SOL    HW121320   3.105   2.490   0.481
 6807SOL    HW221321   3.032   2.558   0.610
 6808SOL     OW21322   0.133   1.871   5.575
 6808SOL    HW121323   0.048   1.923   5.574
 6808SOL    HW221324   0.172   1.870   5.483
 6809SOL     OW21325   1.142   3.268   1.612
 6809SOL    HW121326   1.159   3.205   1.688
 6809SOL    HW221327   1.103   3.217   1.535
 6810SOL     OW21328   1.852   0.146   1.822
 6810SOL    HW121329   1.872   0.171   1.917
 6810SOL    HW221330   1.832   0.229   1.770
 6811SOL     OW21331   4.975   3.958   0.406
 6811SOL    HW121332   4.914   4.035   0.422
 6811SOL    HW221333   4.926   3.888   0.354
 6812SOL     OW21334   3.384   3.286   3.681
 6812SOL    HW121335   3.293   3.268   3.717
 6812SOL    HW221336   3.448   3.219   3.718
 6813SOL     OW21337   5.056   2.314   2.218
 6813SOL    HW121338   4.975   2.371   2.203
 6813SOL    HW221339   5.051   2.233   2.160
 6814SOL     OW21340   3.231   2.182   0.514
 6814SOL    HW121341   3.259   2.100   0.563
 6814SOL    HW221342   3.138   2.170   0.479
 6815SOL     OW21343   3.100   0.018   1.520
 6815SOL    HW121344   3.003   0.044   1.516
 6815SOL    HW221345   3.114   6.976   1.598
 6816SOL     OW21346   0.200   6.870   6.555
 6816SOL    HW121347   0.255   6.908   6.480
 6816SOL    HW221348   0.237   6.901   6.642
 6817SOL     OW21349   0.749   2.117   4.881
 6817SOL    HW121350   0.687   2.039   4.874
 6817SOL    HW221351   0.839   2.092   4.845
 6818SOL     OW21352   3.022   5.372   1.868
 6818SOL    HW121353   3.010   5.272   1.870
 6818SOL    HW221354   2.933   5.416   1.861
 6819SOL     OW21355   5.032   1.034   4.322
 6819SOL    HW121356   5.120   1.082   4.318
 6819SOL    HW221357   5.002   1.027   4.417
 6820SOL     OW21358   0.925   5.740   3.097
 6820SOL    HW121359   0.996   5.808   3.117
 6820SOL    HW221360   0.929   5.716   3.000
 6821SOL     OW21361   3.146   0.849   5.465
 6821SOL    HW121362   3.170   0.810   5.376
 6821SOL    HW221363   3.202   0.807   5.536
 6822SOL     OW21364   6.052   2.298   5.891
 6822SOL    HW121365   6.029   2.394   5.876
 6822SOL    HW221366   6.133   2.292   5.949
 6823SOL     OW21367   3.621   3.283   4.362
 6823SOL    HW121368   3.654   3.207   4.418
 6823SOL    HW221369   3.694   3.351   4.352
 6824SOL     OW21370   1.123   3.229   6.139
 6824SOL    HW121371   1.221   3.211   6.136
 6824SOL    HW221372   1.096   3.252   6.232
 6825SOL     OW21373   5.105   6.252   2.346
 6825SOL    HW121374   5.122   6.304   2.430
 6825SOL    HW221375   5.010   6.222   2.343
 6826SOL     OW21376   2.272   4.098   2.734
 6826SOL    HW121377   2.299   4.055   2.647
 6826SOL    HW221378   2.205   4.040   2.780
 6827SOL     OW21379   4.569   5.556   6.871
 6827SOL    HW121380   4.652   5.611   6.868
 6827SOL    HW221381   4.575   5.483   6.803
 6828SOL     OW21382   2.731   1.683   1.974
 6828SOL    HW121383   2.782   1.602   2.002
 6828SOL    HW221384   2.752   1.758   2.037
 6829SOL     OW21385   4.795   0.033   4.178
 6829SOL    HW121386   4.871   6.995   4.145
 6829SOL    HW221387   4.821   0.130   4.172
 6830SOL     OW21388   5.257   1.376   3.880
 6830SOL    HW121389   5.328   1.326   3.930
 6830SOL    HW221390   5.193   1.417   3.945
 6831SOL     OW21391   1.142   0.459   6.100
 6831SOL    HW121392   1.178   0.375   6.142
 6831SOL    HW221393   1.166   0.537   6.158
 6832SOL     OW21394   2.946   3.889   1.101
 6832SOL    HW121395   2.857   3.878   1.146
 6832SOL    HW221396   3.019   3.860   1.162
 6833SOL     OW21397   4.433   4.655   6.510
 6833SOL    HW121398   4.421   4.578   6.571
 6833SOL    HW221399   4.370   4.729   6.536
 6834SOL     OW21400   5.224   0.009   1.576
 6834SOL    HW121401   5.223   0.029   1.674
 6834SOL    HW221402   5.168   6.946   1.558
 6835SOL     OW21403   3.840   0.101   5.197
 6835SOL    HW121404   3.914   0.155   5.158
 6835SOL    HW221405   3.879   0.031   5.257
 6836SOL     OW21406   3.233   5.472   0.215
 6836SOL    HW121407   3.204   5.456   0.121
 6836SOL    HW221408   3.165   5.433   0.278
 6837SOL     OW21409   1.659   1.876   1.869
 6837SOL    HW121410   1.573   1.875   1.919
 6837SOL    HW221411   1.726   1.931   1.919
 6838SOL     OW21412   2.525   6.007   0.855
 6838SOL    HW121413   2.481   5.918   0.844
 6838SOL    HW221414   2.495   6.068   0.782
 6839SOL     OW21415   5.108   0.705   6.725
 6839SOL    HW121416   5.205   0.686   6.708
 6839SOL    HW221417   5.091   0.803   6.715
 6840SOL     OW21418   2.852   2.153   4.914
 6840SOL    HW121419   2.925   2.138   4.980
 6840SOL    HW221420   2.793   2.228   4.947
 6841SOL     OW21421   5.330   3.958   6.225
 6841SOL    HW121422   5.277   3.877   6.200
 6841SOL    HW221423   5.399   3.933   6.292
 6842SOL     OW21424   2.909   4.395   0.973
 6842SOL    HW121425   2.879   4.308   0.933
 6842SOL    HW221426   2.844   4.422   1.044
 6843SOL     OW21427   5.351   6.529   0.509
 6843SOL    HW121428   5.378   6.503   0.602
 6843SOL    HW221429   5.291   6.609   0.513
 6844SOL     OW21430   5.258   0.988   4.135
 6844SOL    HW121431   5.315   0.962   4.057
 6844SOL    HW221432   5.256   1.088   4.142
 6845SOL     OW21433   6.073   3.388   3.165
 6845SOL    HW121434   6.131   3.418   3.241
 6845SOL    HW221435   6.117   3.310   3.119
 6846SOL     OW21436   3.740   3.996   0.068
 6846SOL    HW121437   3.672   3.962   0.133
 6846SOL    HW221438   3.832   3.974   0.101
 6847SOL     OW21439   7.014   3.911   5.185
 6847SOL    HW121440   0.047   3.856   5.119
 6847SOL    HW221441   7.013   3.865   5.273
 6848SOL     OW21442   5.277   4.343   3.390
 6848SOL    HW121443   5.363   4.377   3.353
 6848SOL    HW221444   5.224   4.418   3.428
 6849SOL     OW21445   4.139   4.091   5.628
 6849SOL    HW121446   4.131   3.994   5.606
 6849SOL    HW221447   4.234   4.112   5.653
 6850SOL     OW21448   5.200   3.138   2.939
 6850SOL    HW121449   5.278   3.150   3.000
 6850SOL    HW221450   5.221   3.179   2.850
 6851SOL     OW21451   1.145   2.356   2.739
 6851SOL    HW121452   1.135   2.344   2.838
 6851SOL    HW221453   1.146   2.454   2.718
 6852SOL     OW21454   2.915   4.826   0.938
 6852SOL    HW121455   2.816   4.814   0.939
 6852SOL    HW221456   2.937   4.918   0.907
 6853SOL     OW21457   5.161   4.208   6.340
 6853SOL    HW121458   5.256   4.238   6.345
 6853SOL    HW221459   5.157   4.109   6.326
 6854SOL     OW21460   5.620   0.130   5.929
 6854SOL    HW121461   5.590   0.044   5.969
 6854SOL    HW221462   5.571   0.145   5.843
 6855SOL     OW21463   4.420   5.883   3.535
 6855SOL    HW121464   4.359   5.804   3.527
 6855SOL    HW221465   4.397   5.936   3.616
 6856SOL     OW21466   0.557   2.101   5.176
 6856SOL    HW121467   0.545   2.109   5.077
 6856SOL    HW221468   0.506   2.022   5.209
 6857SOL     OW21469   0.910   3.244   6.702
 6857SOL    HW121470   0.905   3.162   6.760
 6857SOL    HW221471   0.868   3.225   6.614
 6858SOL     OW21472   3.670   4.012   1.806
 6858SOL    HW121473   3.640   4.022   1.901
 6858SOL    HW221474   3.608   4.063   1.746
 6859SOL     OW21475   0.251   0.714   1.497
 6859SOL    HW121476   0.312   0.679   1.426
 6859SOL    HW221477   0.180   0.647   1.518
 6860SOL     OW21478   6.542   4.562   1.431
 6860SOL    HW121479   6.537   4.640   1.369
 6860SOL    HW221480   6.454   4.553   1.479
 6861SOL     OW21481   4.867   4.124   6.231
 6861SOL    HW121482   4.911   4.176   6.158
 6861SOL    HW221483   4.932   4.059   6.270
 6862SOL     OW21484   0.106   4.936   5.592
 6862SOL    HW121485   0.195   4.972   5.566
 6862SOL    HW221486   0.057   5.005   5.645
 6863SOL     OW21487   6.457   6.252   5.675
 6863SOL    HW121488   6.538   6.304   5.648
 6863SOL    HW221489   6.376   6.309   5.661
 6864SOL     OW21490   2.186   4.575   5.082
 6864SOL    HW121491   2.268   4.520   5.099
 6864SOL    HW221492   2.105   4.518   5.096
 6865SOL     OW21493   1.348   0.251   5.427
 6865SOL    HW121494   1.352   0.172   5.488
 6865SOL    HW221495   1.438   0.266   5.386
 6866SOL     OW21496   5.938   4.525   2.463
 6866SOL    HW121497   5.916   4.563   2.553
 6866SOL    HW221498   5.991   4.441   2.475
 6867SOL     OW21499   1.944   3.582   1.250
 6867SOL    HW121500   1.947   3.680   1.233
 6867SOL    HW221501   2.034   3.542   1.232
 6868SOL     OW21502   2.395   6.680   5.165
 6868SOL    HW121503   2.489   6.710   5.148
 6868SOL    HW221504   2.390   6.636   5.254
 6869SOL     OW21505   4.894   1.062   5.818
 6869SOL    HW121506   4.889   1.130   5.891
 6869SOL    HW221507   4.801   1.036   5.791
 6870SOL     OW21508   0.235   4.032   1.269
 6870SOL    HW121509   0.262   4.085   1.189
 6870SOL    HW221510   0.138   4.048   1.289
 6871SOL     OW21511   6.499   3.956   2.565
 6871SOL    HW121512   6.534   4.004   2.645
 6871SOL    HW221513   6.536   3.863   2.563
 6872SOL     OW21514   0.465   2.896   1.882
 6872SOL    HW121515   0.533   2.842   1.833
 6872SOL    HW221516   0.437   2.974   1.825
 6873SOL     OW21517   0.929   4.153   3.838
 6873SOL    HW121518   0.833   4.182   3.847
 6873SOL    HW221519   0.951   4.089   3.912
 6874SOL     OW21520   6.568   5.638   3.787
 6874SOL    HW121521   6.624   5.710   3.827
 6874SOL    HW221522   6.480   5.635   3.834
 6875SOL     OW21523   2.216   2.101   2.323
 6875SOL    HW121524   2.263   2.143   2.246
 6875SOL    HW221525   2.282   2.048   2.377
 6876SOL     OW21526   3.525   6.939   3.534
 6876SOL    HW121527   3.496   0.015   3.544
 6876SOL    HW221528   3.453   6.878   3.566
 6877SOL     OW21529   3.200   4.160   1.630
 6877SOL    HW121530   3.173   4.256   1.632
 6877SOL    HW221531   3.120   4.103   1.650
 6878SOL     OW21532   2.618   1.976   3.354
 6878SOL    HW121533   2.538   2.033   3.374
 6878SOL    HW221534   2.604   1.885   3.392
 6879SOL     OW21535   2.387   2.435   0.396
 6879SOL    HW121536   2.454   2.408   0.326
 6879SOL    HW221537   2.302   2.385   0.381
 6880SOL     OW21538   0.731   6.424   5.933
 6880SOL    HW121539   0.708   6.510   5.887
 6880SOL    HW221540   0.745   6.440   6.031
 6881SOL     OW21541   1.657   3.167   1.644
 6881SOL    HW121542   1.692   3.090   1.697
 6881SOL    HW221543   1.719   3.245   1.654
 6882SOL     OW21544   2.830   0.979   0.633
 6882SOL    HW121545   2.817   0.892   0.681
 6882SOL    HW221546   2.834   1.054   0.699
 6883SOL     OW21547   5.049   1.268   6.095
 6883SOL    HW121548   5.042   1.174   6.129
 6883SOL    HW221549   5.018   1.332   6.166
 6884SOL     OW21550   1.707   4.252   3.066
 6884SOL    HW121551   1.782   4.240   3.130
 6884SOL    HW221552   1.644   4.322   3.100
 6885SOL     OW21553   4.997   5.117   3.756
 6885SOL    HW121554   4.976   5.205   3.799
 6885SOL    HW221555   4.925   5.093   3.691
 6886SOL     OW21556   0.002   1.330   4.830
 6886SOL    HW121557   6.989   1.387   4.754
 6886SOL    HW221558   6.941   1.298   4.882
 6887SOL     OW21559   4.304   5.742   0.156
 6887SOL    HW121560   4.266   5.798   0.083
 6887SOL    HW221561   4.230   5.699   0.208
 6888SOL     OW21562   5.535   4.562   6.341
 6888SOL    HW121563   5.457   4.570   6.279
 6888SOL    HW221564   5.528   4.632   6.413
 6889SOL     OW21565   1.780   2.365   5.773
 6889SOL    HW121566   1.816   2.458   5.770
 6889SOL    HW221567   1.693   2.361   5.723
 6890SOL     OW21568   3.812   5.771   3.205
 6890SOL    HW121569   3.847   5.701   3.143
 6890SOL    HW221570   3.807   5.734   3.298
 6891SOL     OW21571   1.962   3.234   1.388
 6891SOL    HW121572   1.879   3.239   1.332
 6891SOL    HW221573   1.959   3.304   1.460
 6892SOL     OW21574   3.065   1.179   3.613
 6892SOL    HW121575   3.042   1.141   3.523
 6892SOL    HW221576   3.164   1.186   3.621
 6893SOL     OW21577   5.854   3.570   0.553
 6893SOL    HW121578   5.891   3.477   0.556
 6893SOL    HW221579   5.892   3.624   0.628
 6894SOL     OW21580   6.179   5.153   1.085
 6894SOL    HW121581   6.187   5.187   0.991
 6894SOL    HW221582   6.136   5.223   1.142
 6895SOL     OW21583   2.270   5.469   1.002
 6895SOL    HW121584   2.262   5.371   1.020
 6895SOL    HW221585   2.266   5.520   1.088
 6896SOL     OW21586   2.567   1.942   4.055
 6896SOL    HW121587   2.610   1.976   3.971
 6896SOL    HW221588   2.601   1.850   4.074
 6897SOL     OW21589   4.875   3.812   5.188
 6897SOL    HW121590   4.838   3.728   5.148
 6897SOL    HW221591   4.900   3.875   5.115
 6898SOL     OW21592   3.386   1.354   1.332
 6898SOL    HW121593   3.287   1.351   1.345
 6898SOL    HW221594   3.407   1.371   1.236
 6899SOL     OW21595   4.903   6.462   2.247
 6899SOL    HW121596   4.862   6.384   2.293
 6899SOL    HW221597   4.958   6.515   2.312
 6900SOL     OW21598   6.904   4.207   5.439
 6900SOL    HW121599   6.857   4.154   5.369
 6900SOL    HW221600   6.837   4.254   5.496
 6901SOL     OW21601   5.140   5.764   6.072
 6901SOL    HW121602   5.178   5.800   6.158
 6901SOL    HW221603   5.210   5.766   6.001
 6902SOL     OW21604   6.819   6.317   5.324
 6902SOL    HW121605   6.779   6.226   5.316
 6902SOL    HW221606   6.780   6.376   5.253
 6903SOL     OW21607   3.066   4.869   5.190
 6903SOL    HW121608   3.147   4.885   5.134
 6903SOL    HW221609   3.018   4.787   5.157
 6904SOL     OW21610   6.559   6.927   6.063
 6904SOL    HW121611   6.483   6.993   6.064
 6904SOL    HW221612   6.556   6.871   6.145
 6905SOL     OW21613   5.247   5.288   6.879
 6905SOL    HW121614   5.332   5.293   6.931
 6905SOL    HW221615   5.170   5.299   6.942
 6906SOL     OW21616   3.262   1.244   3.353
 6906SOL    HW121617   3.342   1.234   3.294
 6906SOL    HW221618   3.290   1.279   3.442
 6907SOL     OW21619   6.553   2.540   1.926
 6907SOL    HW121620   6.575   2.634   1.953
 6907SOL    HW221621   6.467   2.540   1.875
 6908SOL     OW21622   2.388   4.637   6.628
 6908SOL    HW121623   2.434   4.622   6.715
 6908SOL    HW221624   2.408   4.560   6.566
 6909SOL     OW21625   5.296   4.789   1.645
 6909SOL    HW121626   5.351   4.739   1.577
 6909SOL    HW221627   5.226   4.728   1.682
 6910SOL     OW21628   1.549   2.419   2.969
 6910SOL    HW121629   1.469   2.394   3.024
 6910SOL    HW221630   1.523   2.487   2.901
 6911SOL     OW21631   4.332   0.216   4.619
 6911SOL    HW121632   4.355   0.191   4.525
 6911SOL    HW221633   4.408   0.192   4.680
 6912SOL     OW21634   2.641   3.217   6.512
 6912SOL    HW121635   2.611   3.263   6.596
 6912SOL    HW221636   2.625   3.119   6.521
 6913SOL     OW21637   5.238   6.539   4.877
 6913SOL    HW121638   5.237   6.639   4.870
 6913SOL    HW221639   5.327   6.509   4.913
 6914SOL     OW21640   5.889   4.067   2.849
 6914SOL    HW121641   5.932   3.977   2.840
 6914SOL    HW221642   5.794   4.056   2.881
 6915SOL     OW21643   0.701   2.347   2.482
 6915SOL    HW121644   0.632   2.328   2.552
 6915SOL    HW221645   0.750   2.431   2.507
 6916SOL     OW21646   5.464   1.274   6.355
 6916SOL    HW121647   5.464   1.250   6.258
 6916SOL    HW221648   5.554   1.307   6.382
 6917SOL     OW21649   3.812   5.766   2.088
 6917SOL    HW121650   3.859   5.763   2.176
 6917SOL    HW221651   3.869   5.722   2.019
 6918SOL     OW21652   6.965   2.801   3.742
 6918SOL    HW121653   0.010   2.876   3.761
 6918SOL    HW221654   7.017   2.719   3.720
 6919SOL     OW21655   6.313   5.905   3.133
 6919SOL    HW121656   6.258   5.827   3.161
 6919SOL    HW221657   6.284   5.986   3.184
 6920SOL     OW21658   5.055   0.023   5.487
 6920SOL    HW121659   5.019   6.953   5.457
 6920SOL    HW221660   5.124   0.055   5.421
 6921SOL     OW21661   4.104   0.122   3.814
 6921SOL    HW121662   4.155   0.122   3.729
 6921SOL    HW221663   4.166   0.109   3.891
 6922SOL     OW21664   1.604   6.448   5.268
 6922SOL    HW121665   1.567   6.517   5.206
 6922SOL    HW221666   1.654   6.492   5.342
 6923SOL     OW21667   5.663   6.944   2.467
 6923SOL    HW121668   5.741   6.981   2.417
 6923SOL    HW221669   5.637   7.007   2.540
 6924SOL     OW21670   2.816   4.916   0.411
 6924SOL    HW121671   2.844   5.010   0.390
 6924SOL    HW221672   2.895   4.855   0.402
 6925SOL     OW21673   4.334   5.402   5.575
 6925SOL    HW121674   4.372   5.375   5.487
 6925SOL    HW221675   4.236   5.382   5.576
 6926SOL     OW21676   2.206   1.940   0.860
 6926SOL    HW121677   2.284   1.884   0.831
 6926SOL    HW221678   2.209   1.951   0.960
 6927SOL     OW21679   3.589   1.727   6.722
 6927SOL    HW121680   3.574   1.817   6.764
 6927SOL    HW221681   3.509   1.702   6.668
 6928SOL     OW21682   5.039   6.119   0.873
 6928SOL    HW121683   5.135   6.112   0.847
 6928SOL    HW221684   4.988   6.167   0.801
 6929SOL     OW21685   5.381   6.108   1.703
 6929SOL    HW121686   5.392   6.027   1.645
 6929SOL    HW221687   5.286   6.117   1.731
 6930SOL     OW21688   0.483   0.741   1.017
 6930SOL    HW121689   0.538   0.684   1.078
 6930SOL    HW221690   0.466   0.691   0.932
 6931SOL     OW21691   1.689   1.669   1.667
 6931SOL    HW121692   1.689   1.578   1.710
 6931SOL    HW221693   1.672   1.739   1.736
 6932SOL     OW21694   4.689   5.891   1.022
 6932SOL    HW121695   4.661   5.987   1.022
 6932SOL    HW221696   4.778   5.882   0.976
 6933SOL     OW21697   3.421   6.810   5.907
 6933SOL    HW121698   3.390   6.751   5.981
 6933SOL    HW221699   3.345   6.830   5.845
 6934SOL     OW21700   4.926   3.280   5.883
 6934SOL    HW121701   4.866   3.331   5.944
 6934SOL    HW221702   4.892   3.186   5.873
 6935SOL     OW21703   4.108   5.800   2.963
 6935SOL    HW121704   4.040   5.864   2.998
 6935SOL    HW221705   4.110   5.718   3.021
 6936SOL     OW21706   0.133   2.487   4.358
 6936SOL    HW121707   0.100   2.579   4.335
 6936SOL    HW221708   0.228   2.477   4.329
 6937SOL     OW21709   5.781   6.197   0.895
 6937SOL    HW121710   5.749   6.273   0.839
 6937SOL    HW221711   5.821   6.126   0.837
 6938SOL     OW21712   0.578   2.397   4.446
 6938SOL    HW121713   0.539   2.304   4.445
 6938SOL    HW221714   0.643   2.405   4.521
 6939SOL     OW21715   6.872   5.330   2.962
 6939SOL    HW121716   6.889   5.238   2.925
 6939SOL    HW221717   6.800   5.325   3.030
 6940SOL     OW21718   4.308   6.703   0.484
 6940SOL    HW121719   4.278   6.795   0.511
 6940SOL    HW221720   4.354   6.707   0.396
 6941SOL     OW21721   2.934   3.769   2.186
 6941SOL    HW121722   3.005   3.710   2.226
 6941SOL    HW221723   2.895   3.723   2.105
 6942SOL     OW21724   5.838   0.057   1.983
 6942SOL    HW121725   5.750   0.102   1.963
 6942SOL    HW221726   5.867   0.005   1.903
 6943SOL     OW21727   3.849   4.505   0.528
 6943SOL    HW121728   3.822   4.602   0.522
 6943SOL    HW221729   3.795   4.451   0.464
 6944SOL     OW21730   0.722   5.141   6.368
 6944SOL    HW121731   0.724   5.180   6.276
 6944SOL    HW221732   0.786   5.191   6.426
 6945SOL     OW21733   6.908   2.659   1.328
 6945SOL    HW121734   6.840   2.709   1.275
 6945SOL    HW221735   6.996   2.662   1.281
 6946SOL     OW21736   3.980   6.237   1.765
 6946SOL    HW121737   4.067   6.189   1.779
 6946SOL    HW221738   3.994   6.315   1.705
 6947SOL     OW21739   4.425   5.239   6.244
 6947SOL    HW121740   4.363   5.318   6.245
 6947SOL    HW221741   4.500   5.257   6.180
 6948SOL     OW21742   0.545   5.762   1.040
 6948SOL    HW121743   0.493   5.677   1.029
 6948SOL    HW221744   0.623   5.761   0.978
 6949SOL     OW21745   2.549   1.866   3.010
 6949SOL    HW121746   2.638   1.869   3.055
 6949SOL    HW221747   2.517   1.959   2.993
 6950SOL     OW21748   1.917   0.739   4.388
 6950SOL    HW121749   1.886   0.834   4.377
 6950SOL    HW221750   1.842   0.684   4.425
 6951SOL     OW21751   6.698   6.230   6.844
 6951SOL    HW121752   6.743   6.281   6.917
 6951SOL    HW221753   6.754   6.151   6.818
 6952SOL     OW21754   1.973   5.366   2.732
 6952SOL    HW121755   1.947   5.269   2.727
 6952SOL    HW221756   1.941   5.405   2.818
 6953SOL     OW21757   5.308   0.044   6.878
 6953SOL    HW121758   5.362   6.978   6.881
 6953SOL    HW221759   5.249   0.043   6.796
 6954SOL     OW21760   0.141   4.015   1.554
 6954SOL    HW121761   0.087   4.072   1.492
 6954SOL    HW221762   0.196   3.951   1.500
 6955SOL     OW21763   4.415   0.850   2.576
 6955SOL    HW121764   4.365   0.911   2.638
 6955SOL    HW221765   4.472   0.787   2.630
 6956SOL     OW21766   5.385   5.586   3.260
 6956SOL    HW121767   5.417   5.510   3.316
 6956SOL    HW221768   5.336   5.652   3.317
 6957SOL     OW21769   6.010   5.792   0.493
 6957SOL    HW121770   6.017   5.729   0.415
 6957SOL    HW221771   6.041   5.882   0.465
 6958SOL     OW21772   3.593   3.511   4.620
 6958SOL    HW121773   3.632   3.563   4.545
 6958SOL    HW221774   3.505   3.550   4.646
 6959SOL     OW21775   1.750   3.849   2.926
 6959SOL    HW121776   1.685   3.896   2.987
 6959SOL    HW221777   1.815   3.796   2.982
 6960SOL     OW21778   2.622   4.047   0.893
 6960SOL    HW121779   2.707   4.095   0.918
 6960SOL    HW221780   2.641   3.950   0.881
 6961SOL     OW21781   5.432   1.476   4.636
 6961SOL    HW121782   5.499   1.404   4.655
 6961SOL    HW221783   5.347   1.435   4.603
 6962SOL     OW21784   4.249   5.673   0.990
 6962SOL    HW121785   4.166   5.723   1.014
 6962SOL    HW221786   4.257   5.593   1.049
 6963SOL     OW21787   5.397   4.723   0.657
 6963SOL    HW121788   5.361   4.792   0.719
 6963SOL    HW221789   5.348   4.730   0.569
 6964SOL     OW21790   4.004   0.239   5.874
 6964SOL    HW121791   3.974   0.320   5.823
 6964SOL    HW221792   4.091   0.206   5.837
 6965SOL     OW21793   1.525   1.219   0.266
 6965SOL    HW121794   1.442   1.163   0.269
 6965SOL    HW221795   1.605   1.159   0.277
 6966SOL     OW21796   0.700   0.612   2.596
 6966SOL    HW121797   0.653   0.585   2.512
 6966SOL    HW221798   0.797   0.590   2.588
 6967SOL     OW21799   3.501   1.393   6.113
 6967SOL    HW121800   3.540   1.303   6.130
 6967SOL    HW221801   3.456   1.394   6.024
 6968SOL     OW21802   2.130   0.931   3.681
 6968SOL    HW121803   2.122   0.980   3.594
 6968SOL    HW221804   2.141   0.997   3.755
 6969SOL     OW21805   3.515   1.925   1.267
 6969SOL    HW121806   3.467   1.987   1.330
 6969SOL    HW221807   3.458   1.909   1.187
 6970SOL     OW21808   4.111   3.853   5.533
 6970SOL    HW121809   4.144   3.759   5.523
 6970SOL    HW221810   4.071   3.883   5.447
 6971SOL     OW21811   5.618   5.399   1.084
 6971SOL    HW121812   5.686   5.466   1.051
 6971SOL    HW221813   5.629   5.387   1.183
 6972SOL     OW21814   5.632   3.694   1.963
 6972SOL    HW121815   5.667   3.765   2.025
 6972SOL    HW221816   5.534   3.684   1.978
 6973SOL     OW21817   0.882   2.546   3.539
 6973SOL    HW121818   0.876   2.507   3.631
 6973SOL    HW221819   0.976   2.540   3.506
 6974SOL     OW21820   2.906   3.601   2.533
 6974SOL    HW121821   2.981   3.627   2.594
 6974SOL    HW221822   2.905   3.662   2.453
 6975SOL     OW21823   1.828   6.678   4.635
 6975SOL    HW121824   1.796   6.767   4.666
 6975SOL    HW221825   1.905   6.648   4.692
 6976SOL     OW21826   6.194   3.749   5.965
 6976SOL    HW121827   6.256   3.820   5.998
 6976SOL    HW221828   6.136   3.787   5.893
 6977SOL     OW21829   3.650   3.592   1.160
 6977SOL    HW121830   3.717   3.557   1.094
 6977SOL    HW221831   3.603   3.516   1.203
 6978SOL     OW21832   5.110   2.926   1.240
 6978SOL    HW121833   5.173   2.991   1.197
 6978SOL    HW221834   5.124   2.835   1.199
 6979SOL     OW21835   1.214   3.405   1.128
 6979SOL    HW121836   1.269   3.329   1.092
 6979SOL    HW221837   1.170   3.453   1.052
 6980SOL     OW21838   1.810   0.961   3.625
 6980SOL    HW121839   1.870   0.908   3.565
 6980SOL    HW221840   1.823   1.058   3.608
 6981SOL     OW21841   3.732   3.280   5.911
 6981SOL    HW121842   3.817   3.313   5.872
 6981SOL    HW221843   3.683   3.355   5.956
 6982SOL     OW21844   1.152   1.138   4.012
 6982SOL    HW121845   1.115   1.151   4.104
 6982SOL    HW221846   1.210   1.217   3.989
 6983SOL     OW21847   5.095   1.325   4.810
 6983SOL    HW121848   5.035   1.340   4.888
 6983SOL    HW221849   5.116   1.228   4.801
 6984SOL     OW21850   1.295   1.738   2.786
 6984SOL    HW121851   1.254   1.811   2.731
 6984SOL    HW221852   1.392   1.730   2.764
 6985SOL     OW21853   6.457   5.174   0.248
 6985SOL    HW121854   6.547   5.132   0.252
 6985SOL    HW221855   6.466   5.273   0.243
 6986SOL     OW21856   3.547   6.745   6.480
 6986SOL    HW121857   3.620   6.680   6.500
 6986SOL    HW221858   3.581   6.816   6.418
 6987SOL     OW21859   6.895   1.318   5.941
 6987SOL    HW121860   6.867   1.387   6.008
 6987SOL    HW221861   6.938   1.363   5.863
 6988SOL     OW21862   1.798   6.593   6.391
 6988SOL    HW121863   1.857   6.653   6.336
 6988SOL    HW221864   1.817   6.497   6.368
 6989SOL     OW21865   6.838   4.596   3.006
 6989SOL    HW121866   6.744   4.577   2.979
 6989SOL    HW221867   6.881   4.655   2.937
 6990SOL     OW21868   4.033   2.586   1.272
 6990SOL    HW121869   3.957   2.601   1.335
 6990SOL    HW221870   4.112   2.552   1.324
 6991SOL     OW21871   5.479   4.461   2.883
 6991SOL    HW121872   5.545   4.509   2.941
 6991SOL    HW221873   5.413   4.526   2.845
 6992SOL     OW21874   6.390   5.868   0.470
 6992SOL    HW121875   6.469   5.852   0.529
 6992SOL    HW221876   6.362   5.783   0.427
 6993SOL     OW21877   6.582   0.317   1.307
 6993SOL    HW121878   6.591   0.400   1.363
 6993SOL    HW221879   6.526   0.250   1.355
 6994SOL     OW21880   1.509   1.052   4.640
 6994SOL    HW121881   1.600   1.090   4.621
 6994SOL    HW221882   1.466   1.023   4.555
 6995SOL     OW21883   0.183   4.073   0.223
 6995SOL    HW121884   0.118   4.105   0.292
 6995SOL    HW221885   0.142   3.999   0.170
 6996SOL     OW21886   1.126   0.168   0.750
 6996SOL    HW121887   1.181   0.143   0.670
 6996SOL    HW221888   1.073   0.251   0.730
 6997SOL     OW21889   0.242   5.024   4.809
 6997SOL    HW121890   0.148   5.053   4.791
 6997SOL    HW221891   0.252   4.926   4.790
 6998SOL     OW21892   0.829   1.412   1.564
 6998SOL    HW121893   0.749   1.353   1.571
 6998SOL    HW221894   0.808   1.490   1.504
 6999SOL     OW21895   1.315   2.389   6.807
 6999SOL    HW121896   1.303   2.373   6.709
 6999SOL    HW221897   1.370   2.316   6.846
 7000SOL     OW21898   5.660   0.770   1.769
 7000SOL    HW121899   5.677   0.866   1.792
 7000SOL    HW221900   5.578   0.739   1.818
 7001SOL     OW21901   0.860   2.014   5.179
 7001SOL    HW121902   0.762   1.993   5.171
 7001SOL    HW221903   0.875   2.112   5.166
 7002SOL     OW21904   1.684   5.222   4.080
 7002SOL    HW121905   1.588   5.195   4.085
 7002SOL    HW221906   1.705   5.283   4.157
 7003SOL     OW21907   4.587   5.536   1.609
 7003SOL    HW121908   4.592   5.531   1.509
 7003SOL    HW221909   4.515   5.601   1.635
 7004SOL     OW21910   0.748   5.691   0.240
 7004SOL    HW121911   0.691   5.688   0.322
 7004SOL    HW221912   0.812   5.615   0.241
 7005SOL     OW21913   0.580   0.225   0.538
 7005SOL    HW121914   0.641   0.150   0.561
 7005SOL    HW221915   0.629   0.292   0.483
 7006SOL     OW21916   6.317   6.461   3.281
 7006SOL    HW121917   6.320   6.548   3.331
 7006SOL    HW221918   6.395   6.405   3.309
 7007SOL     OW21919   4.091   0.429   4.880
 7007SOL    HW121920   4.109   0.514   4.928
 7007SOL    HW221921   4.068   0.448   4.784
 7008SOL     OW21922   0.261   4.447   4.063
 7008SOL    HW121923   0.188   4.437   4.130
 7008SOL    HW221924   0.349   4.454   4.111
 7009SOL     OW21925   4.614   6.500   1.906
 7009SOL    HW121926   4.640   6.591   1.872
 7009SOL    HW221927   4.530   6.471   1.861
 7010SOL     OW21928   5.817   4.401   3.442
 7010SOL    HW121929   5.848   4.307   3.429
 7010SOL    HW221930   5.828   4.426   3.539
 7011SOL     OW21931   3.718   6.779   0.798
 7011SOL    HW121932   3.790   6.833   0.754
 7011SOL    HW221933   3.632   6.829   0.792
 7012SOL     OW21934   1.223   2.198   1.533
 7012SOL    HW121935   1.144   2.153   1.491
 7012SOL    HW221936   1.269   2.253   1.464
 7013SOL     OW21937   2.189   0.120   6.641
 7013SOL    HW121938   2.110   0.085   6.591
 7013SOL    HW221939   2.158   0.175   6.719
 7014SOL     OW21940   5.270   3.397   1.153
 7014SOL    HW121941   5.203   3.471   1.150
 7014SOL    HW221942   5.227   3.313   1.186
 7015SOL     OW21943   5.504   4.436   2.129
 7015SOL    HW121944   5.524   4.355   2.185
 7015SOL    HW221945   5.414   4.426   2.087
 7016SOL     OW21946   3.690   4.952   1.077
 7016SOL    HW121947   3.691   4.978   1.173
 7016SOL    HW221948   3.764   4.886   1.060
 7017SOL     OW21949   2.672   5.225   2.724
 7017SOL    HW121950   2.748   5.169   2.757
 7017SOL    HW221951   2.670   5.223   2.624
 7018SOL     OW21952   5.273   4.032   4.296
 7018SOL    HW121953   5.320   3.946   4.317
 7018SOL    HW221954   5.308   4.071   4.211
 7019SOL     OW21955   4.443   5.575   2.318
 7019SOL    HW121956   4.421   5.489   2.364
 7019SOL    HW221957   4.519   5.560   2.255
 7020SOL     OW21958   0.873   3.717   6.892
 7020SOL    HW121959   0.852   3.640   6.831
 7020SOL    HW221960   0.972   3.730   6.896
 7021SOL     OW21961   1.855   3.261   4.450
 7021SOL    HW121962   1.939   3.314   4.455
 7021SOL    HW221963   1.791   3.294   4.519
 7022SOL     OW21964   4.826   0.659   0.098
 7022SOL    HW121965   4.892   0.707   0.157
 7022SOL    HW221966   4.862   0.569   0.075
 7023SOL     OW21967   0.368   2.362   1.223
 7023SOL    HW121968   0.335   2.398   1.135
 7023SOL    HW221969   0.342   2.425   1.296
 7024SOL     OW21970   3.847   3.648   3.577
 7024SOL    HW121971   3.795   3.708   3.518
 7024SOL    HW221972   3.938   3.688   3.594
 7025SOL     OW21973   3.529   0.232   0.400
 7025SOL    HW121974   3.588   0.156   0.372
 7025SOL    HW221975   3.566   0.272   0.484
 7026SOL     OW21976   4.004   1.986   2.181
 7026SOL    HW121977   4.068   1.910   2.193
 7026SOL    HW221978   3.971   1.987   2.087
 7027SOL     OW21979   2.596   6.346   3.793
 7027SOL    HW121980   2.536   6.359   3.872
 7027SOL    HW221981   2.557   6.395   3.714
 7028SOL     OW21982   2.731   0.119   4.258
 7028SOL    HW121983   2.763   0.183   4.328
 7028SOL    HW221984   2.745   0.025   4.289
 7029SOL     OW21985   3.913   4.242   5.520
 7029SOL    HW121986   3.995   4.201   5.560
 7029SOL    HW221987   3.861   4.289   5.591
 7030SOL     OW21988   0.511   1.885   4.863
 7030SOL    HW121989   0.447   1.947   4.818
 7030SOL    HW221990   0.587   1.864   4.802
 7031SOL     OW21991   3.809   6.364   0.301
 7031SOL    HW121992   3.770   6.404   0.384
 7031SOL    HW221993   3.906   6.344   0.315
 7032SOL     OW21994   4.353   0.883   3.422
 7032SOL    HW121995   4.320   0.827   3.497
 7032SOL    HW221996   4.316   0.848   3.336
 7033SOL     OW21997   1.821   2.654   4.046
 7033SOL    HW121998   1.768   2.733   4.076
 7033SOL    HW221999   1.877   2.679   3.967
 7034SOL     OW22000   6.670   2.932   3.093
 7034SOL    HW122001   6.652   2.922   3.191
 7034SOL    HW222002   6.604   2.878   3.041
 7035SOL     OW22003   2.287   0.133   1.213
 7035SOL    HW122004   2.287   0.180   1.302
 7035SOL    HW222005   2.342   0.049   1.220
 7036SOL     OW22006   0.038   2.094   2.379
 7036SOL    HW122007   0.104   2.158   2.338
 7036SOL    HW222008   6.988   2.069   2.312
 7037SOL     OW22009   0.370   1.346   5.791
 7037SOL    HW122010   0.437   1.281   5.755
 7037SOL    HW222011   0.375   1.346   5.891
 7038SOL     OW22012   2.017   4.483   5.546
 7038SOL    HW122013   2.098   4.470   5.489
 7038SOL    HW222014   1.993   4.580   5.549
 7039SOL     OW22015   0.576   5.692   3.701
 7039SOL    HW122016   0.584   5.612   3.641
 7039SOL    HW222017   0.623   5.770   3.659
 7040SOL     OW22018   4.886   2.033   5.030
 7040SOL    HW122019   4.954   2.075   4.970
 7040SOL    HW222020   4.933   1.981   5.102
 7041SOL     OW22021   0.869   1.888   3.556
 7041SOL    HW122022   0.780   1.861   3.594
 7041SOL    HW222023   0.857   1.911   3.459
 7042SOL     OW22024   4.175   5.632   4.726
 7042SOL    HW122025   4.185   5.577   4.808
 7042SOL    HW222026   4.233   5.595   4.653
 7043SOL     OW22027   2.643   4.726   3.366
 7043SOL    HW122028   2.575   4.799   3.370
 7043SOL    HW222029   2.675   4.704   3.459
 7044SOL     OW22030   4.697   0.325   4.536
 7044SOL    HW122031   4.756   0.270   4.595
 7044SOL    HW222032   4.709   0.296   4.441
 7045SOL     OW22033   5.621   5.688   2.178
 7045SOL    HW122034   5.637   5.592   2.152
 7045SOL    HW222035   5.607   5.694   2.276
 7046SOL     OW22036   2.920   2.147   4.214
 7046SOL    HW122037   2.872   2.226   4.175
 7046SOL    HW222038   3.018   2.164   4.213
 7047SOL     OW22039   0.025   1.109   1.425
 7047SOL    HW122040   0.006   1.054   1.506
 7047SOL    HW222041   0.026   1.050   1.344
 7048SOL     OW22042   5.738   6.375   4.897
 7048SOL    HW122043   5.724   6.356   4.799
 7048SOL    HW222044   5.776   6.293   4.941
 7049SOL     OW22045   3.633   0.923   1.918
 7049SOL    HW122046   3.667   1.010   1.882
 7049SOL    HW222047   3.596   0.868   1.843
 7050SOL     OW22048   4.310   4.381   0.693
 7050SOL    HW122049   4.228   4.437   0.679
 7050SOL    HW222050   4.357   4.412   0.776
 7051SOL     OW22051   6.441   6.461   0.959
 7051SOL    HW122052   6.501   6.482   0.882
 7051SOL    HW222053   6.495   6.420   1.033
 7052SOL     OW22054   5.851   0.338   3.666
 7052SOL    HW122055   5.898   0.253   3.690
 7052SOL    HW222056   5.904   0.387   3.597
 7053SOL     OW22057   2.030   3.775   3.757
 7053SOL    HW122058   2.093   3.853   3.746
 7053SOL    HW222059   2.033   3.742   3.851
 7054SOL     OW22060   6.996   0.009   1.448
 7054SOL    HW122061   6.911   0.008   1.395
 7054SOL    HW222062   0.001   0.103   1.472
 7055SOL     OW22063   2.945   0.228   0.403
 7055SOL    HW122064   2.884   0.300   0.371
 7055SOL    HW222065   3.001   0.195   0.327
 7056SOL     OW22066   6.971   5.800   1.056
 7056SOL    HW122067   6.894   5.860   1.032
 7056SOL    HW222068   6.964   5.774   1.153
 7057SOL     OW22069   3.182   5.927   4.495
 7057SOL    HW122070   3.220   5.997   4.555
 7057SOL    HW222071   3.207   5.947   4.400
 7058SOL     OW22072   5.471   1.949   6.200
 7058SOL    HW122073   5.387   1.990   6.164
 7058SOL    HW222074   5.547   1.974   6.140
 7059SOL     OW22075   1.588   1.315   5.157
 7059SOL    HW122076   1.591   1.218   5.131
 7059SOL    HW222077   1.597   1.371   5.074
 7060SOL     OW22078   3.741   6.115   1.749
 7060SOL    HW122079   3.820   6.174   1.765
 7060SOL    HW222080   3.688   6.150   1.672
 7061SOL     OW22081   0.610   2.312   2.763
 7061SOL    HW122082   0.656   2.387   2.810
 7061SOL    HW222083   0.522   2.294   2.807
 7062SOL     OW22084   4.417   2.177   4.212
 7062SOL    HW122085   4.464   2.248   4.264
 7062SOL    HW222086   4.397   2.100   4.272
 7063SOL     OW22087   0.430   6.529   1.871
 7063SOL    HW122088   0.466   6.605   1.926
 7063SOL    HW222089   0.331   6.539   1.862
 7064SOL     OW22090   4.225   2.093   6.216
 7064SOL    HW122091   4.192   2.015   6.269
 7064SOL    HW222092   4.255   2.165   6.278
 7065SOL     OW22093   3.275   4.497   5.377
 7065SOL    HW122094   3.258   4.411   5.329
 7065SOL    HW222095   3.189   4.547   5.388
 7066SOL     OW22096   4.521   1.319   6.528
 7066SOL    HW122097   4.445   1.364   6.481
 7066SOL    HW222098   4.607   1.365   6.505
 7067SOL     OW22099   1.260   3.591   6.850
 7067SOL    HW122100   1.188   3.526   6.873
 7067SOL    HW222101   1.261   3.607   6.751
 7068SOL     OW22102   6.024   4.188   4.346
 7068SOL    HW122103   5.965   4.265   4.370
 7068SOL    HW222104   6.119   4.210   4.369
 7069SOL     OW22105   6.007   1.902   5.561
 7069SOL    HW122106   6.052   1.912   5.472
 7069SOL    HW222107   5.958   1.987   5.584
 7070SOL     OW22108   0.985   6.744   5.123
 7070SOL    HW122109   0.903   6.691   5.102
 7070SOL    HW222110   1.055   6.727   5.054
 7071SOL     OW22111   5.042   6.362   6.881
 7071SOL    HW122112   4.960   6.306   6.869
 7071SOL    HW222113   5.015   6.458   6.888
 7072SOL     OW22114   1.733   4.732   6.938
 7072SOL    HW122115   1.754   4.829   6.954
 7072SOL    HW222116   1.672   4.724   6.860
 7073SOL     OW22117   3.978   0.002   3.116
 7073SOL    HW122118   3.982   7.005   3.215
 7073SOL    HW222119   4.012   0.094   3.095
 7074SOL     OW22120   0.065   3.631   3.845
 7074SOL    HW122121   0.040   3.721   3.809
 7074SOL    HW222122   7.001   3.576   3.859
 7075SOL     OW22123   2.861   4.912   4.943
 7075SOL    HW122124   2.769   4.939   4.968
 7075SOL    HW222125   2.885   4.826   4.988
 7076SOL     OW22126   6.137   3.224   1.136
 7076SOL    HW122127   6.150   3.299   1.201
 7076SOL    HW222128   6.042   3.194   1.138
 7077SOL     OW22129   2.356   4.808   2.456
 7077SOL    HW122130   2.378   4.720   2.498
 7077SOL    HW222131   2.423   4.828   2.384
 7078SOL     OW22132   5.450   6.423   0.775
 7078SOL    HW122133   5.397   6.491   0.826
 7078SOL    HW222134   5.428   6.332   0.809
 7079SOL     OW22135   0.973   6.631   4.385
 7079SOL    HW122136   0.950   6.546   4.338
 7079SOL    HW222137   0.890   6.669   4.427
 7080SOL     OW22138   4.085   2.023   3.935
 7080SOL    HW122139   4.005   1.989   3.886
 7080SOL    HW222140   4.166   2.016   3.876
 7081SOL     OW22141   1.628   6.283   0.176
 7081SOL    HW122142   1.651   6.296   0.080
 7081SOL    HW222143   1.565   6.206   0.185
 7082SOL     OW22144   6.966   3.780   1.536
 7082SOL    HW122145   6.936   3.722   1.611
 7082SOL    HW222146   0.014   3.847   1.571
 7083SOL     OW22147   6.759   1.899   2.460
 7083SOL    HW122148   6.766   1.892   2.361
 7083SOL    HW222149   6.762   1.808   2.501
 7084SOL     OW22150   0.500   5.974   5.311
 7084SOL    HW122151   0.506   5.875   5.323
 7084SOL    HW222152   0.590   6.010   5.287
 7085SOL     OW22153   6.303   2.097   2.781
 7085SOL    HW122154   6.259   2.184   2.757
 7085SOL    HW222155   6.287   2.030   2.708
 7086SOL     OW22156   5.899   0.339   6.861
 7086SOL    HW122157   5.820   0.285   6.891
 7086SOL    HW222158   5.930   0.396   6.937
 7087SOL     OW22159   5.229   3.527   2.452
 7087SOL    HW122160   5.275   3.519   2.541
 7087SOL    HW222161   5.133   3.553   2.466
 7088SOL     OW22162   5.586   2.316   5.305
 7088SOL    HW122163   5.628   2.232   5.268
 7088SOL    HW222164   5.487   2.310   5.296
 7089SOL     OW22165   2.970   4.846   2.667
 7089SOL    HW122166   3.053   4.864   2.613
 7089SOL    HW222167   2.901   4.802   2.609
 7090SOL     OW22168   2.743   1.190   0.819
 7090SOL    HW122169   2.731   1.285   0.789
 7090SOL    HW222170   2.740   1.187   0.919
 7091SOL     OW22171   1.098   0.954   1.413
 7091SOL    HW122172   1.005   0.919   1.417
 7091SOL    HW222173   1.096   1.053   1.406
 7092SOL     OW22174   3.921   2.829   6.201
 7092SOL    HW122175   3.901   2.731   6.192
 7092SOL    HW222176   3.919   2.871   6.110
 7093SOL     OW22177   3.307   3.489   1.208
 7093SOL    HW122178   3.372   3.523   1.275
 7093SOL    HW222179   3.318   3.390   1.197
 7094SOL     OW22180   1.509   6.621   5.497
 7094SOL    HW122181   1.566   6.625   5.579
 7094SOL    HW222182   1.479   6.526   5.483
 7095SOL     OW22183   3.496   4.841   5.777
 7095SOL    HW122184   3.443   4.761   5.749
 7095SOL    HW222185   3.593   4.824   5.759
 7096SOL     OW22186   6.529   0.962   1.712
 7096SOL    HW122187   6.531   0.862   1.700
 7096SOL    HW222188   6.620   0.999   1.698
 7097SOL     OW22189   4.874   0.802   2.248
 7097SOL    HW122190   4.865   0.725   2.185
 7097SOL    HW222191   4.794   0.806   2.307
 7098SOL     OW22192   1.838   6.544   5.489
 7098SOL    HW122193   1.800   6.596   5.565
 7098SOL    HW222194   1.821   6.446   5.504
 7099SOL     OW22195   3.584   2.110   3.985
 7099SOL    HW122196   3.638   2.150   3.910
 7099SOL    HW222197   3.635   2.120   4.070
 7100SOL     OW22198   0.077   4.134   0.460
 7100SOL    HW122199   0.062   4.057   0.521
 7100SOL    HW222200   0.143   4.197   0.501
 7101SOL     OW22201   2.410   6.702   5.476
 7101SOL    HW122202   2.408   6.782   5.536
 7101SOL    HW222203   2.419   6.619   5.531
 7102SOL     OW22204   5.334   0.848   1.174
 7102SOL    HW122205   5.308   0.791   1.252
 7102SOL    HW222206   5.306   0.803   1.089
 7103SOL     OW22207   5.163   5.351   1.919
 7103SOL    HW122208   5.077   5.304   1.897
 7103SOL    HW222209   5.237   5.284   1.919
 7104SOL     OW22210   5.403   3.505   2.671
 7104SOL    HW122211   5.489   3.455   2.672
 7104SOL    HW222212   5.416   3.596   2.712
 7105SOL     OW22213   3.806   4.110   4.429
 7105SOL    HW122214   3.711   4.081   4.421
 7105SOL    HW222215   3.830   4.120   4.525
 7106SOL     OW22216   2.966   2.702   0.990
 7106SOL    HW122217   2.994   2.628   1.051
 7106SOL    HW222218   3.045   2.734   0.938
 7107SOL     OW22219   3.793   0.338   6.927
 7107SOL    HW122220   3.886   0.366   6.951
 7107SOL    HW222221   3.793   0.241   6.901
 7108SOL     OW22222   2.567   6.320   2.247
 7108SOL    HW122223   2.664   6.334   2.229
 7108SOL    HW222224   2.528   6.402   2.289
 7109SOL     OW22225   1.543   0.557   6.844
 7109SOL    HW122226   1.551   0.465   6.806
 7109SOL    HW222227   1.457   0.598   6.814
 7110SOL     OW22228   3.242   6.554   4.100
 7110SOL    HW122229   3.278   6.643   4.072
 7110SOL    HW222230   3.153   6.539   4.057
 7111SOL     OW22231   1.241   1.424   3.663
 7111SOL    HW122232   1.273   1.339   3.620
 7111SOL    HW222233   1.159   1.456   3.616
 7112SOL     OW22234   2.267   4.247   4.853
 7112SOL    HW122235   2.351   4.294   4.877
 7112SOL    HW222236   2.263   4.159   4.898
 7113SOL     OW22237   2.844   5.495   5.251
 7113SOL    HW122238   2.883   5.497   5.344
 7113SOL    HW222239   2.913   5.460   5.188
 7114SOL     OW22240   4.373   5.234   1.514
 7114SOL    HW122241   4.428   5.210   1.594
 7114SOL    HW222242   4.286   5.274   1.544
 7115SOL     OW22243   5.163   4.392   6.704
 7115SOL    HW122244   5.245   4.336   6.720
 7115SOL    HW222245   5.119   4.362   6.619
 7116SOL     OW22246   5.665   4.100   3.273
 7116SOL    HW122247   5.653   4.134   3.180
 7116SOL    HW222248   5.762   4.093   3.293
 7117SOL     OW22249   6.353   0.292   4.401
 7117SOL    HW122250   6.281   0.358   4.420
 7117SOL    HW222251   6.315   0.215   4.351
 7118SOL     OW22252   3.964   4.478   5.287
 7118SOL    HW122253   3.865   4.476   5.302
 7118SOL    HW222254   3.997   4.385   5.268
 7119SOL     OW22255   4.988   0.836   4.942
 7119SOL    HW122256   5.088   0.842   4.938
 7119SOL    HW222257   4.953   0.904   5.007
 7120SOL     OW22258   5.828   1.419   1.140
 7120SOL    HW122259   5.910   1.398   1.086
 7120SOL    HW222260   5.828   1.363   1.223
 7121SOL     OW22261   0.551   6.495   3.560
 7121SOL    HW122262   0.605   6.471   3.479
 7121SOL    HW222263   0.496   6.576   3.541
 7122SOL     OW22264   2.336   6.919   6.033
 7122SOL    HW122265   2.329   6.951   6.128
 7122SOL    HW222266   2.254   6.945   5.983
 7123SOL     OW22267   6.304   4.942   4.489
 7123SOL    HW122268   6.223   4.950   4.431
 7123SOL    HW222269   6.275   4.936   4.585
 7124SOL     OW22270   1.205   1.909   1.748
 7124SOL    HW122271   1.126   1.953   1.791
 7124SOL    HW222272   1.248   1.973   1.685
 7125SOL     OW22273   1.168   0.594   2.024
 7125SOL    HW122274   1.184   0.522   1.957
 7125SOL    HW222275   1.117   0.668   1.981
 7126SOL     OW22276   4.053   6.316   0.690
 7126SOL    HW122277   4.078   6.236   0.744
 7126SOL    HW222278   4.037   6.289   0.595
 7127SOL     OW22279   3.055   6.223   5.787
 7127SOL    HW122280   3.049   6.126   5.810
 7127SOL    HW222281   3.020   6.238   5.695
 7128SOL     OW22282   4.044   4.016   7.011
 7128SOL    HW122283   4.135   4.002   6.973
 7128SOL    HW222284   3.975   3.994   6.943
 7129SOL     OW22285   0.432   1.422   0.641
 7129SOL    HW122286   0.390   1.345   0.592
 7129SOL    HW222287   0.430   1.403   0.739
 7130SOL     OW22288   3.906   0.376   4.460
 7130SOL    HW122289   3.807   0.373   4.477
 7130SOL    HW222290   3.924   0.348   4.366
 7131SOL     OW22291   3.402   0.927   2.052
 7131SOL    HW122292   3.492   0.926   2.009
 7131SOL    HW222293   3.334   0.961   1.987
 7132SOL     OW22294   4.864   4.172   6.924
 7132SOL    HW122295   4.860   4.099   6.856
 7132SOL    HW222296   4.789   4.160   6.990
 7133SOL     OW22297   3.901   5.343   3.697
 7133SOL    HW122298   3.830   5.294   3.746
 7133SOL    HW222299   3.930   5.423   3.751
 7134SOL     OW22300   4.863   6.067   1.972
 7134SOL    HW122301   4.880   6.000   2.044
 7134SOL    HW222302   4.850   6.158   2.013
 7135SOL     OW22303   2.137   2.872   1.978
 7135SOL    HW122304   2.219   2.821   1.953
 7135SOL    HW222305   2.057   2.830   1.934
 7136SOL     OW22306   2.275   1.815   1.532
 7136SOL    HW122307   2.364   1.860   1.534
 7136SOL    HW222308   2.270   1.749   1.607
 7137SOL     OW22309   3.013   1.515   0.909
 7137SOL    HW122310   3.080   1.448   0.939
 7137SOL    HW222311   2.996   1.581   0.982
 7138SOL     OW22312   2.401   0.895   1.514
 7138SOL    HW122313   2.346   0.976   1.532
 7138SOL    HW222314   2.386   0.828   1.587
 7139SOL     OW22315   5.046   5.762   1.786
 7139SOL    HW122316   5.047   5.862   1.780
 7139SOL    HW222317   4.957   5.731   1.820
 7140SOL     OW22318   6.174   4.200   0.742
 7140SOL    HW122319   6.232   4.266   0.694
 7140SOL    HW222320   6.153   4.235   0.833
 7141SOL     OW22321   4.095   6.436   1.015
 7141SOL    HW122322   4.025   6.364   1.009
 7141SOL    HW222323   4.103   6.481   0.926
 7142SOL     OW22324   3.205   0.530   4.305
 7142SOL    HW122325   3.262   0.459   4.264
 7142SOL    HW222326   3.141   0.488   4.369
 7143SOL     OW22327   1.897   4.344   6.993
 7143SOL    HW122328   1.843   4.412   0.024
 7143SOL    HW222329   1.991   4.377   6.983
 7144SOL     OW22330   0.035   1.190   4.266
 7144SOL    HW122331   0.081   1.102   4.264
 7144SOL    HW222332   7.001   1.202   4.181
 7145SOL     OW22333   4.367   1.690   6.911
 7145SOL    HW122334   4.397   1.601   6.878
 7145SOL    HW222335   4.307   1.678   6.990
 7146SOL     OW22336   2.118   1.286   4.847
 7146SOL    HW122337   2.198   1.252   4.895
 7146SOL    HW222338   2.098   1.227   4.768
 7147SOL     OW22339   5.937   5.433   3.468
 7147SOL    HW122340   5.930   5.531   3.485
 7147SOL    HW222341   5.977   5.417   3.378
 7148SOL     OW22342   6.262   6.229   0.777
 7148SOL    HW122343   6.189   6.265   0.835
 7148SOL    HW222344   6.345   6.283   0.791
 7149SOL     OW22345   6.931   4.865   3.176
 7149SOL    HW122346   6.850   4.809   3.195
 7149SOL    HW222347   6.913   4.959   3.203
 7150SOL     OW22348   4.478   3.274   0.099
 7150SOL    HW122349   4.570   3.311   0.110
 7150SOL    HW222350   4.445   3.239   0.187
 7151SOL     OW22351   3.425   6.893   0.909
 7151SOL    HW122352   3.377   6.855   0.830
 7151SOL    HW222353   3.357   6.926   0.976
 7152SOL     OW22354   6.493   1.037   6.522
 7152SOL    HW122355   6.494   0.968   6.594
 7152SOL    HW222356   6.565   1.104   6.539
 7153SOL     OW22357   4.097   5.335   1.507
 7153SOL    HW122358   4.084   5.247   1.462
 7153SOL    HW222359   4.008   5.379   1.520
 7154SOL     OW22360   3.965   1.165   2.753
 7154SOL    HW122361   3.941   1.249   2.705
 7154SOL    HW222362   4.040   1.184   2.817
 7155SOL     OW22363   3.137   2.318   1.341
 7155SOL    HW122364   3.044   2.333   1.373
 7155SOL    HW222365   3.164   2.224   1.360
 7156SOL     OW22366   5.363   3.580   2.001
 7156SOL    HW122367   5.332   3.540   1.915
 7156SOL    HW222368   5.311   3.541   2.076
 7157SOL     OW22369   5.951   4.304   0.453
 7157SOL    HW122370   5.873   4.356   0.489
 7157SOL    HW222371   6.035   4.335   0.497
 7158SOL     OW22372   6.085   0.545   4.009
 7158SOL    HW122373   6.159   0.581   4.067
 7158SOL    HW222374   6.020   0.618   3.989
 7159SOL     OW22375   0.126   4.800   4.335
 7159SOL    HW122376   0.090   4.868   4.398
 7159SOL    HW222377   0.224   4.788   4.352
 7160SOL     OW22378   5.716   6.835   3.027
 7160SOL    HW122379   5.754   6.924   3.054
 7160SOL    HW222380   5.724   6.824   2.928
 7161SOL     OW22381   3.238   3.661   3.484
 7161SOL    HW122382   3.197   3.583   3.437
 7161SOL    HW222383   3.328   3.635   3.519
 7162SOL     OW22384   6.809   4.736   1.091
 7162SOL    HW122385   6.861   4.651   1.097
 7162SOL    HW222386   6.818   4.775   0.999
 7163SOL     OW22387   1.068   1.464   2.771
 7163SOL    HW122388   1.131   1.541   2.780
 7163SOL    HW222389   1.118   1.378   2.783
 7164SOL     OW22390   1.773   0.922   6.032
 7164SOL    HW122391   1.780   0.824   6.051
 7164SOL    HW222392   1.864   0.961   6.026
 7165SOL     OW22393   5.263   6.950   0.734
 7165SOL    HW122394   5.299   6.973   0.644
 7165SOL    HW222395   5.186   6.887   0.725
 7166SOL     OW22396   5.140   0.592   5.775
 7166SOL    HW122397   5.100   0.517   5.722
 7166SOL    HW222398   5.089   0.677   5.757
 7167SOL     OW22399   5.785   2.257   6.040
 7167SOL    HW122400   5.759   2.164   6.016
 7167SOL    HW222401   5.873   2.279   5.997
 7168SOL     OW22402   3.141   0.601   2.965
 7168SOL    HW122403   3.129   0.699   2.948
 7168SOL    HW222404   3.093   0.549   2.895
 7169SOL     OW22405   1.610   3.747   5.368
 7169SOL    HW122406   1.638   3.651   5.359
 7169SOL    HW222407   1.624   3.793   5.280
 7170SOL     OW22408   4.391   0.410   2.190
 7170SOL    HW122409   4.394   0.326   2.245
 7170SOL    HW222410   4.305   0.458   2.208
 7171SOL     OW22411   5.882   5.081   0.818
 7171SOL    HW122412   5.841   5.107   0.905
 7171SOL    HW222413   5.924   5.161   0.776
 7172SOL     OW22414   1.730   1.522   4.904
 7172SOL    HW122415   1.785   1.514   4.987
 7172SOL    HW222416   1.655   1.586   4.919
 7173SOL     OW22417   5.905   5.828   6.356
 7173SOL    HW122418   5.941   5.826   6.263
 7173SOL    HW222419   5.879   5.922   6.380
 7174SOL     OW22420   6.251   4.754   1.335
 7174SOL    HW122421   6.245   4.660   1.369
 7174SOL    HW222422   6.268   4.816   1.411
 7175SOL     OW22423   6.257   3.734   5.134
 7175SOL    HW122424   6.212   3.645   5.142
 7175SOL    HW222425   6.310   3.737   5.049
 7176SOL     OW22426   0.609   1.390   3.681
 7176SOL    HW122427   0.605   1.362   3.585
 7176SOL    HW222428   0.623   1.489   3.686
 7177SOL     OW22429   1.748   5.709   5.661
 7177SOL    HW122430   1.758   5.671   5.753
 7177SOL    HW222431   1.651   5.716   5.637
 7178SOL     OW22432   0.346   0.606   5.380
 7178SOL    HW122433   0.326   0.568   5.290
 7178SOL    HW222434   0.424   0.559   5.420
 7179SOL     OW22435   2.097   4.682   5.831
 7179SOL    HW122436   2.025   4.715   5.771
 7179SOL    HW222437   2.186   4.701   5.789
 7180SOL     OW22438   2.073   4.506   0.654
 7180SOL    HW122439   2.165   4.493   0.691
 7180SOL    HW222440   2.007   4.502   0.729
 7181SOL     OW22441   2.155   0.828   6.497
 7181SOL    HW122442   2.204   0.745   6.468
 7181SOL    HW222443   2.167   0.841   6.596
 7182SOL     OW22444   0.930   3.504   4.084
 7182SOL    HW122445   0.963   3.420   4.041
 7182SOL    HW222446   0.877   3.481   4.166
 7183SOL     OW22447   1.658   6.181   1.419
 7183SOL    HW122448   1.709   6.224   1.344
 7183SOL    HW222449   1.721   6.132   1.478
 7184SOL     OW22450   5.609   1.309   3.233
 7184SOL    HW122451   5.662   1.393   3.239
 7184SOL    HW222452   5.557   1.296   3.317
 7185SOL     OW22453   4.999   0.864   5.375
 7185SOL    HW122454   5.080   0.882   5.431
 7185SOL    HW222455   5.015   0.783   5.319
 7186SOL     OW22456   0.184   0.097   0.516
 7186SOL    HW122457   0.187   0.197   0.504
 7186SOL    HW222458   0.102   0.062   0.471
 7187SOL     OW22459   2.927   3.750   4.817
 7187SOL    HW122460   2.846   3.800   4.848
 7187SOL    HW222461   2.995   3.750   4.890
 7188SOL     OW22462   4.818   3.921   6.745
 7188SOL    HW122463   4.729   3.885   6.717
 7188SOL    HW222464   4.857   3.862   6.816
 7189SOL     OW22465   6.184   3.082   5.360
 7189SOL    HW122466   6.086   3.101   5.357
 7189SOL    HW222467   6.210   3.032   5.277
 7190SOL     OW22468   5.951   5.529   0.999
 7190SOL    HW122469   6.008   5.611   0.991
 7190SOL    HW222470   5.859   5.549   0.967
 7191SOL     OW22471   0.996   4.271   3.174
 7191SOL    HW122472   0.937   4.263   3.255
 7191SOL    HW222473   1.092   4.269   3.204
 7192SOL     OW22474   2.027   3.551   6.355
 7192SOL    HW122475   2.055   3.547   6.259
 7192SOL    HW222476   1.936   3.592   6.361
 7193SOL     OW22477   2.570   1.835   2.683
 7193SOL    HW122478   2.645   1.874   2.737
 7193SOL    HW222479   2.528   1.907   2.628
 7194SOL     OW22480   2.198   2.248   0.165
 7194SOL    HW122481   2.122   2.211   0.111
 7194SOL    HW222482   2.189   2.218   0.260
 7195SOL     OW22483   6.736   3.823   6.880
 7195SOL    HW122484   6.755   3.745   6.820
 7195SOL    HW222485   6.790   3.901   6.852
 7196SOL     OW22486   3.289   3.834   2.644
 7196SOL    HW122487   3.291   3.831   2.544
 7196SOL    HW222488   3.243   3.918   2.674
 7197SOL     OW22489   1.017   3.717   5.452
 7197SOL    HW122490   0.962   3.655   5.509
 7197SOL    HW222491   1.113   3.708   5.475
 7198SOL     OW22492   0.339   0.910   0.741
 7198SOL    HW122493   0.370   0.821   0.775
 7198SOL    HW222494   0.344   0.911   0.641
 7199SOL     OW22495   0.723   0.257   2.171
 7199SOL    HW122496   0.742   0.310   2.254
 7199SOL    HW222497   0.788   0.282   2.100
 7200SOL     OW22498   1.876   2.525   0.963
 7200SOL    HW122499   1.785   2.539   1.003
 7200SOL    HW222500   1.906   2.431   0.982
 7201SOL     OW22501   0.269   5.268   4.048
 7201SOL    HW122502   0.177   5.303   4.063
 7201SOL    HW222503   0.269   5.168   4.054
 7202SOL     OW22504   5.011   6.984   5.899
 7202SOL    HW122505   5.094   0.009   5.864
 7202SOL    HW222506   4.931   0.020   5.872
 7203SOL     OW22507   0.368   0.913   1.650
 7203SOL    HW122508   0.342   0.832   1.597
 7203SOL    HW222509   0.323   0.994   1.613
 7204SOL     OW22510   6.485   1.768   0.527
 7204SOL    HW122511   6.477   1.856   0.576
 7204SOL    HW222512   6.581   1.742   0.521
 7205SOL     OW22513   1.162   2.956   4.667
 7205SOL    HW122514   1.225   2.999   4.732
 7205SOL    HW222515   1.205   2.951   4.577
 7206SOL     OW22516   1.631   1.645   1.287
 7206SOL    HW122517   1.647   1.608   1.196
 7206SOL    HW222518   1.569   1.585   1.338
 7207SOL     OW22519   2.204   1.724   3.899
 7207SOL    HW122520   2.113   1.702   3.933
 7207SOL    HW222521   2.197   1.764   3.807
 7208SOL     OW22522   4.162   0.628   3.880
 7208SOL    HW122523   4.136   0.544   3.927
 7208SOL    HW222524   4.093   0.699   3.899
 7209SOL     OW22525   2.322   2.415   2.373
 7209SOL    HW122526   2.295   2.319   2.379
 7209SOL    HW222527   2.240   2.471   2.358
 7210SOL     OW22528   3.560   1.703   2.917
 7210SOL    HW122529   3.593   1.794   2.890
 7210SOL    HW222530   3.632   1.636   2.901
 7211SOL     OW22531   3.005   6.276   5.510
 7211SOL    HW122532   2.922   6.277   5.454
 7211SOL    HW222533   3.048   6.366   5.508
 7212SOL     OW22534   5.895   6.138   6.359
 7212SOL    HW122535   5.864   6.198   6.286
 7212SOL    HW222536   5.989   6.110   6.342
 7213SOL     OW22537   3.641   6.677   0.057
 7213SOL    HW122538   3.725   6.724   0.030
 7213SOL    HW222539   3.629   6.595   0.001
 7214SOL     OW22540   0.436   0.640   5.872
 7214SOL    HW122541   0.423   0.548   5.834
 7214SOL    HW222542   0.348   0.676   5.902
 7215SOL     OW22543   6.425   2.654   3.970
 7215SOL    HW122544   6.386   2.724   4.030
 7215SOL    HW222545   6.524   2.660   3.973
 7216SOL     OW22546   3.088   6.210   2.189
 7216SOL    HW122547   3.080   6.272   2.112
 7216SOL    HW222548   3.032   6.129   2.173
 7217SOL     OW22549   1.683   4.069   3.849
 7217SOL    HW122550   1.613   4.140   3.859
 7217SOL    HW222551   1.752   4.080   3.921
 7218SOL     OW22552   0.021   3.340   3.541
 7218SOL    HW122553   0.019   3.252   3.587
 7218SOL    HW222554   0.106   3.349   3.489
 7219SOL     OW22555   3.160   6.346   1.455
 7219SOL    HW122556   3.228   6.406   1.499
 7219SOL    HW222557   3.163   6.359   1.356
 7220SOL     OW22558   6.597   4.386   4.493
 7220SOL    HW122559   6.654   4.467   4.486
 7220SOL    HW222560   6.650   4.310   4.531
 7221SOL     OW22561   3.332   6.019   4.821
 7221SOL    HW122562   3.317   6.088   4.749
 7221SOL    HW222563   3.278   6.043   4.901
 7222SOL     OW22564   5.586   0.081   2.932
 7222SOL    HW122565   5.552   0.017   3.000
 7222SOL    HW222566   5.530   0.164   2.934
 7223SOL     OW22567   2.995   1.641   0.649
 7223SOL    HW122568   3.004   1.575   0.723
 7223SOL    HW222569   2.904   1.682   0.651
 7224SOL     OW22570   4.725   2.822   4.170
 7224SOL    HW122571   4.717   2.763   4.090
 7224SOL    HW222572   4.711   2.768   4.253
 7225SOL     OW22573   2.238   6.308   0.758
 7225SOL    HW122574   2.168   6.336   0.693
 7225SOL    HW222575   2.240   6.372   0.835
 7226SOL     OW22576   6.031   0.542   1.024
 7226SOL    HW122577   6.047   0.511   0.931
 7226SOL    HW222578   5.964   0.483   1.068
 7227SOL     OW22579   2.809   1.237   1.940
 7227SOL    HW122580   2.746   1.243   1.862
 7227SOL    HW222581   2.841   1.328   1.964
 7228SOL     OW22582   0.516   1.752   2.825
 7228SOL    HW122583   0.521   1.681   2.755
 7228SOL    HW222584   0.530   1.712   2.915
 7229SOL     OW22585   0.169   6.805   4.718
 7229SOL    HW122586   0.242   6.852   4.667
 7229SOL    HW222587   0.142   6.722   4.668
 7230SOL     OW22588   2.526   5.436   3.660
 7230SOL    HW122589   2.463   5.378   3.710
 7230SOL    HW222590   2.620   5.406   3.678
 7231SOL     OW22591   3.930   6.945   1.034
 7231SOL    HW122592   3.888   6.970   0.947
 7231SOL    HW222593   3.975   0.006   1.074
 7232SOL     OW22594   5.160   6.616   2.672
 7232SOL    HW122595   5.242   6.575   2.631
 7232SOL    HW222596   5.168   6.614   2.771
 7233SOL     OW22597   0.249   1.388   5.390
 7233SOL    HW122598   0.347   1.400   5.407
 7233SOL    HW222599   0.212   1.470   5.347
 7234SOL     OW22600   5.119   4.022   2.808
 7234SOL    HW122601   5.135   3.939   2.861
 7234SOL    HW222602   5.043   4.074   2.848
 7235SOL     OW22603   6.376   5.385   1.609
 7235SOL    HW122604   6.448   5.399   1.541
 7235SOL    HW222605   6.414   5.397   1.701
 7236SOL     OW22606   1.880   2.567   2.500
 7236SOL    HW122607   1.943   2.642   2.521
 7236SOL    HW222608   1.908   2.484   2.548
 7237SOL     OW22609   4.536   6.888   6.695
 7237SOL    HW122610   4.619   6.920   6.739
 7237SOL    HW222611   4.517   6.945   6.614
 7238SOL     OW22612   4.745   2.806   6.887
 7238SOL    HW122613   4.683   2.879   6.919
 7238SOL    HW222614   4.791   2.837   6.803
 7239SOL     OW22615   0.275   2.957   2.634
 7239SOL    HW122616   0.252   3.008   2.717
 7239SOL    HW222617   0.308   3.020   2.564
 7240SOL     OW22618   6.894   1.473   0.065
 7240SOL    HW122619   6.870   1.393   0.009
 7240SOL    HW222620   6.861   1.556   0.021
 7241SOL     OW22621   2.440   6.776   0.113
 7241SOL    HW122622   2.425   6.678   0.099
 7241SOL    HW222623   2.427   6.798   0.210
 7242SOL     OW22624   0.135   5.800   5.270
 7242SOL    HW122625   0.043   5.813   5.233
 7242SOL    HW222626   0.177   5.890   5.287
 7243SOL     OW22627   6.576   3.955   6.707
 7243SOL    HW122628   6.612   3.918   6.622
 7243SOL    HW222629   6.628   3.919   6.784
 7244SOL     OW22630   6.972   6.885   0.575
 7244SOL    HW122631   7.003   6.923   0.662
 7244SOL    HW222632   6.897   6.821   0.592
 7245SOL     OW22633   1.690   2.105   5.910
 7245SOL    HW122634   1.746   2.183   5.883
 7245SOL    HW222635   1.726   2.066   5.995
 7246SOL     OW22636   2.093   0.543   4.259
 7246SOL    HW122637   2.023   0.607   4.291
 7246SOL    HW222638   2.102   0.468   4.324
 7247SOL     OW22639   3.076   2.199   5.655
 7247SOL    HW122640   3.037   2.180   5.565
 7247SOL    HW222641   3.159   2.254   5.645
 7248SOL     OW22642   3.470   0.319   3.741
 7248SOL    HW122643   3.404   0.372   3.796
 7248SOL    HW222644   3.447   0.222   3.748
 7249SOL     OW22645   4.518   4.781   1.822
 7249SOL    HW122646   4.578   4.733   1.886
 7249SOL    HW222647   4.472   4.714   1.763
 7250SOL     OW22648   5.158   5.019   5.715
 7250SOL    HW122649   5.166   5.079   5.635
 7250SOL    HW222650   5.076   4.963   5.706
 7251SOL     OW22651   0.963   0.386   5.313
 7251SOL    HW122652   0.895   0.380   5.241
 7251SOL    HW222653   1.006   0.297   5.326
 7252SOL     OW22654   2.862   3.775   1.777
 7252SOL    HW122655   2.770   3.798   1.745
 7252SOL    HW222656   2.884   3.681   1.753
 7253SOL     OW22657   1.628   6.030   6.469
 7253SOL    HW122658   1.657   6.005   6.376
 7253SOL    HW222659   1.610   6.128   6.473
 7254SOL     OW22660   5.865   5.286   4.282
 7254SOL    HW122661   5.810   5.340   4.346
 7254SOL    HW222662   5.957   5.326   4.276
 7255SOL     OW22663   4.914   3.778   6.964
 7255SOL    HW122664   4.850   3.801   0.019
 7255SOL    HW222665   5.007   3.795   6.995
 7256SOL     OW22666   3.917   6.238   5.516
 7256SOL    HW122667   3.823   6.208   5.532
 7256SOL    HW222668   3.966   6.241   5.603
 7257SOL     OW22669   0.513   2.116   4.423
 7257SOL    HW122670   0.414   2.126   4.413
 7257SOL    HW222671   0.534   2.024   4.456
 7258SOL     OW22672   5.603   1.858   2.661
 7258SOL    HW122673   5.563   1.784   2.715
 7258SOL    HW222674   5.674   1.821   2.601
 7259SOL     OW22675   0.943   3.024   2.383
 7259SOL    HW122676   0.972   2.929   2.369
 7259SOL    HW222677   1.015   3.086   2.354
 7260SOL     OW22678   5.332   2.290   1.399
 7260SOL    HW122679   5.309   2.266   1.304
 7260SOL    HW222680   5.248   2.292   1.453
 7261SOL     OW22681   0.427   5.000   1.078
 7261SOL    HW122682   0.376   5.058   1.140
 7261SOL    HW222683   0.368   4.927   1.043
 7262SOL     OW22684   5.500   1.495   6.791
 7262SOL    HW122685   5.402   1.508   6.777
 7262SOL    HW222686   5.550   1.540   6.717
 7263SOL     OW22687   0.375   6.394   6.878
 7263SOL    HW122688   0.391   6.298   6.900
 7263SOL    HW222689   0.292   6.426   6.925
 7264SOL     OW22690   5.337   1.035   0.958
 7264SOL    HW122691   5.434   1.017   0.943
 7264SOL    HW222692   5.316   1.022   1.055
 7265SOL     OW22693   5.791   4.868   5.181
 7265SOL    HW122694   5.785   4.967   5.176
 7265SOL    HW222695   5.752   4.828   5.099
 7266SOL     OW22696   6.691   1.447   3.500
 7266SOL    HW122697   6.685   1.516   3.428
 7266SOL    HW222698   6.719   1.360   3.461
 7267SOL     OW22699   6.682   6.747   4.558
 7267SOL    HW122700   6.653   6.823   4.501
 7267SOL    HW222701   6.740   6.781   4.632
 7268SOL     OW22702   6.975   5.959   4.351
 7268SOL    HW122703   0.035   5.991   4.298
 7268SOL    HW222704   6.929   6.038   4.392
 7269SOL     OW22705   1.680   6.030   5.790
 7269SOL    HW122706   1.769   6.003   5.827
 7269SOL    HW222707   1.620   5.950   5.785
 7270SOL     OW22708   0.449   2.755   4.999
 7270SOL    HW122709   0.507   2.745   4.917
 7270SOL    HW222710   0.457   2.848   5.033
 7271SOL     OW22711   1.344   4.779   4.518
 7271SOL    HW122712   1.415   4.713   4.492
 7271SOL    HW222713   1.363   4.868   4.477
 7272SOL     OW22714   6.076   5.615   2.037
 7272SOL    HW122715   6.057   5.693   2.097
 7272SOL    HW222716   6.105   5.648   1.948
 7273SOL     OW22717   5.382   3.928   0.385
 7273SOL    HW122718   5.315   3.856   0.400
 7273SOL    HW222719   5.467   3.905   0.433
 7274SOL     OW22720   0.352   4.823   6.808
 7274SOL    HW122721   0.300   4.776   6.737
 7274SOL    HW222722   0.311   4.803   6.898
 7275SOL     OW22723   0.245   6.058   2.532
 7275SOL    HW122724   0.248   6.128   2.461
 7275SOL    HW222725   0.170   6.077   2.595
 7276SOL     OW22726   5.357   0.632   3.279
 7276SOL    HW122727   5.429   0.586   3.330
 7276SOL    HW222728   5.295   0.678   3.343
 7277SOL     OW22729   5.059   0.452   4.485
 7277SOL    HW122730   5.068   0.487   4.578
 7277SOL    HW222731   4.994   0.509   4.434
 7278SOL     OW22732   3.854   3.713   1.313
 7278SOL    HW122733   3.828   3.652   1.388
 7278SOL    HW222734   3.808   3.684   1.229
 7279SOL     OW22735   4.301   5.561   6.832
 7279SOL    HW122736   4.263   5.567   6.924
 7279SOL    HW222737   4.400   5.553   6.837
 7280SOL     OW22738   0.318   0.883   3.430
 7280SOL    HW122739   0.323   0.828   3.347
 7280SOL    HW222740   0.338   0.979   3.408
 7281SOL     OW22741   2.924   1.727   0.072
 7281SOL    HW122742   2.850   1.700   0.010
 7281SOL    HW222743   2.989   1.652   0.081
 7282SOL     OW22744   5.556   5.095   2.408
 7282SOL    HW122745   5.555   5.081   2.507
 7282SOL    HW222746   5.464   5.084   2.371
 7283SOL     OW22747   3.473   1.194   3.210
 7283SOL    HW122748   3.556   1.220   3.160
 7283SOL    HW222749   3.499   1.139   3.290
 7284SOL     OW22750   0.726   3.469   6.195
 7284SOL    HW122751   0.709   3.425   6.107
 7284SOL    HW222752   0.820   3.501   6.199
 7285SOL     OW22753   5.022   3.893   2.168
 7285SOL    HW122754   4.957   3.963   2.138
 7285SOL    HW222755   4.973   3.821   2.216
 7286SOL     OW22756   2.613   1.283   0.411
 7286SOL    HW122757   2.581   1.247   0.499
 7286SOL    HW222758   2.598   1.382   0.409
 7287SOL     OW22759   6.688   2.249   6.545
 7287SOL    HW122760   6.618   2.313   6.515
 7287SOL    HW222761   6.755   2.297   6.603
 7288SOL     OW22762   2.628   0.776   0.150
 7288SOL    HW122763   2.534   0.780   0.117
 7288SOL    HW222764   2.655   0.865   0.187
 7289SOL     OW22765   5.530   1.575   4.020
 7289SOL    HW122766   5.515   1.640   3.945
 7289SOL    HW222767   5.469   1.597   4.096
 7290SOL     OW22768   3.301   0.120   5.693
 7290SOL    HW122769   3.355   0.138   5.776
 7290SOL    HW222770   3.362   0.112   5.614
 7291SOL     OW22771   1.272   6.581   0.863
 7291SOL    HW122772   1.242   6.674   0.884
 7291SOL    HW222773   1.248   6.520   0.939
 7292SOL     OW22774   2.679   1.107   4.017
 7292SOL    HW122775   2.777   1.108   3.994
 7292SOL    HW222776   2.636   1.027   3.976
 7293SOL     OW22777   1.759   1.630   5.399
 7293SOL    HW122778   1.764   1.581   5.486
 7293SOL    HW222779   1.816   1.712   5.403
 7294SOL     OW22780   2.063   5.302   6.953
 7294SOL    HW122781   2.034   5.238   6.882
 7294SOL    HW222782   2.002   5.381   6.953
 7295SOL     OW22783   0.850   2.191   0.758
 7295SOL    HW122784   0.807   2.204   0.847
 7295SOL    HW222785   0.850   2.093   0.735
 7296SOL     OW22786   2.289   4.958   1.159
 7296SOL    HW122787   2.250   4.922   1.243
 7296SOL    HW222788   2.380   4.920   1.145
 7297SOL     OW22789   3.784   5.857   0.990
 7297SOL    HW122790   3.769   5.942   0.940
 7297SOL    HW222791   3.751   5.780   0.936
 7298SOL     OW22792   4.801   4.091   5.544
 7298SOL    HW122793   4.800   3.992   5.563
 7298SOL    HW222794   4.853   4.108   5.460
 7299SOL     OW22795   0.861   1.695   0.514
 7299SOL    HW122796   0.953   1.735   0.518
 7299SOL    HW222797   0.868   1.596   0.505
 7300SOL     OW22798   6.092   6.161   2.368
 7300SOL    HW122799   5.998   6.179   2.398
 7300SOL    HW222800   6.134   6.093   2.428
 7301SOL     OW22801   6.324   1.306   4.807
 7301SOL    HW122802   6.229   1.274   4.803
 7301SOL    HW222803   6.371   1.281   4.722
 7302SOL     OW22804   1.050   2.197   6.002
 7302SOL    HW122805   1.056   2.177   6.100
 7302SOL    HW222806   1.098   2.125   5.951
 7303SOL     OW22807   4.890   0.087   6.506
 7303SOL    HW122808   4.848   7.018   6.483
 7303SOL    HW222809   4.914   0.136   6.422
 7304SOL     OW22810   4.143   5.015   6.762
 7304SOL    HW122811   4.151   5.017   6.862
 7304SOL    HW222812   4.065   5.071   6.735
 7305SOL     OW22813   4.503   1.315   0.516
 7305SOL    HW122814   4.561   1.392   0.487
 7305SOL    HW222815   4.531   1.232   0.467
 7306SOL     OW22816   5.183   2.559   1.762
 7306SOL    HW122817   5.258   2.552   1.827
 7306SOL    HW222818   5.102   2.595   1.808
 7307SOL     OW22819   2.445   0.019   2.809
 7307SOL    HW122820   2.536   7.002   2.829
 7307SOL    HW222821   2.386   6.963   2.779
 7308SOL     OW22822   6.786   4.218   5.743
 7308SOL    HW122823   6.768   4.271   5.826
 7308SOL    HW222824   6.723   4.140   5.739
 7309SOL     OW22825   4.753   5.602   0.693
 7309SOL    HW122826   4.702   5.637   0.614
 7309SOL    HW222827   4.691   5.595   0.771
 7310SOL     OW22828   2.613   3.419   1.409
 7310SOL    HW122829   2.581   3.514   1.418
 7310SOL    HW222830   2.644   3.386   1.497
 7311SOL     OW22831   3.492   2.000   2.002
 7311SOL    HW122832   3.562   2.068   1.979
 7311SOL    HW222833   3.491   1.928   1.933
 7312SOL     OW22834   0.033   3.447   5.923
 7312SOL    HW122835   0.047   3.488   6.013
 7312SOL    HW222836   6.972   3.387   5.925
 7313SOL     OW22837   3.098   2.146   6.392
 7313SOL    HW122838   3.147   2.170   6.476
 7313SOL    HW222839   3.075   2.048   6.394
 7314SOL     OW22840   6.901   4.293   5.101
 7314SOL    HW122841   6.837   4.236   5.151
 7314SOL    HW222842   6.963   4.235   5.048
 7315SOL     OW22843   6.677   0.300   2.864
 7315SOL    HW122844   6.598   0.357   2.840
 7315SOL    HW222845   6.711   0.326   2.955
 7316SOL     OW22846   2.889   4.124   5.964
 7316SOL    HW122847   2.908   4.222   5.962
 7316SOL    HW222848   2.796   4.108   5.997
 7317SOL     OW22849   4.369   1.065   2.756
 7317SOL    HW122850   4.374   1.087   2.659
 7317SOL    HW222851   4.461   1.061   2.795
 7318SOL     OW22852   1.139   0.677   0.842
 7318SOL    HW122853   1.182   0.656   0.755
 7318SOL    HW222854   1.040   0.688   0.829
 7319SOL     OW22855   6.295   4.015   6.058
 7319SOL    HW122856   6.368   4.060   6.007
 7319SOL    HW222857   6.330   3.979   6.144
 7320SOL     OW22858   6.659   3.917   1.704
 7320SOL    HW122859   6.561   3.923   1.722
 7320SOL    HW222860   6.675   3.911   1.606
 7321SOL     OW22861   2.625   6.499   5.164
 7321SOL    HW122862   2.689   6.518   5.089
 7321SOL    HW222863   2.587   6.407   5.153
 7322SOL     OW22864   6.183   2.251   3.738
 7322SOL    HW122865   6.257   2.307   3.700
 7322SOL    HW222866   6.198   2.239   3.836
 7323SOL     OW22867   2.263   2.203   1.843
 7323SOL    HW122868   2.328   2.171   1.912
 7323SOL    HW222869   2.222   2.125   1.796
 7324SOL     OW22870   4.808   5.690   2.374
 7324SOL    HW122871   4.861   5.719   2.454
 7324SOL    HW222872   4.843   5.736   2.292
 7325SOL     OW22873   3.452   6.330   0.359
 7325SOL    HW122874   3.508   6.397   0.408
 7325SOL    HW222875   3.423   6.367   0.271
 7326SOL     OW22876   3.192   6.498   5.492
 7326SOL    HW122877   3.236   6.441   5.561
 7326SOL    HW222878   3.226   6.473   5.402
 7327SOL     OW22879   6.658   2.279   5.693
 7327SOL    HW122880   6.576   2.275   5.750
 7327SOL    HW222881   6.701   2.189   5.690
 7328SOL     OW22882   3.606   0.688   6.112
 7328SOL    HW122883   3.661   0.605   6.126
 7328SOL    HW222884   3.512   0.662   6.088
 7329SOL     OW22885   5.449   4.679   1.456
 7329SOL    HW122886   5.472   4.746   1.386
 7329SOL    HW222887   5.426   4.592   1.412
 7330SOL     OW22888   2.528   2.246   0.224
 7330SOL    HW122889   2.454   2.204   0.172
 7330SOL    HW222890   2.564   2.181   0.291
 7331SOL     OW22891   5.807   0.261   2.207
 7331SOL    HW122892   5.817   0.231   2.112
 7331SOL    HW222893   5.842   0.190   2.268
 7332SOL     OW22894   1.971   5.592   0.407
 7332SOL    HW122895   2.021   5.533   0.345
 7332SOL    HW222896   1.953   5.680   0.362
 7333SOL     OW22897   0.164   3.156   2.843
 7333SOL    HW122898   0.258   3.189   2.844
 7333SOL    HW222899   0.144   3.109   2.929
 7334SOL     OW22900   3.224   6.151   6.899
 7334SOL    HW122901   3.323   6.146   6.887
 7334SOL    HW222902   3.180   6.076   6.848
 7335SOL     OW22903   1.427   2.609   2.790
 7335SOL    HW122904   1.360   2.664   2.741
 7335SOL    HW222905   1.519   2.646   2.775
 7336SOL     OW22906   1.665   6.445   3.618
 7336SOL    HW122907   1.679   6.433   3.520
 7336SOL    HW222908   1.745   6.490   3.658
 7337SOL     OW22909   0.251   3.552   2.093
 7337SOL    HW122910   0.232   3.517   2.001
 7337SOL    HW222911   0.248   3.652   2.091
 7338SOL     OW22912   6.450   2.586   1.408
 7338SOL    HW122913   6.481   2.605   1.315
 7338SOL    HW222914   6.520   2.535   1.457
 7339SOL     OW22915   5.469   6.010   3.499
 7339SOL    HW122916   5.402   6.043   3.433
 7339SOL    HW222917   5.550   5.977   3.450
 7340SOL     OW22918   2.110   0.668   1.071
 7340SOL    HW122919   2.167   0.592   1.103
 7340SOL    HW222920   2.067   0.713   1.149
 7341SOL     OW22921   6.592   3.095   6.965
 7341SOL    HW122922   6.623   3.187   6.944
 7341SOL    HW222923   6.493   3.090   6.955
 7342SOL     OW22924   6.987   1.619   1.841
 7342SOL    HW122925   6.937   1.686   1.895
 7342SOL    HW222926   6.938   1.602   1.755
 7343SOL     OW22927   5.167   3.419   6.962
 7343SOL    HW122928   5.174   3.353   0.018
 7343SOL    HW222929   5.251   3.473   6.957
 7344SOL     OW22930   0.497   0.749   6.558
 7344SOL    HW122931   0.562   0.799   6.501
 7344SOL    HW222932   0.418   0.808   6.577
 7345SOL     OW22933   4.555   3.298   5.514
 7345SOL    HW122934   4.517   3.351   5.438
 7345SOL    HW222935   4.654   3.314   5.519
 7346SOL     OW22936   3.962   5.819   2.580
 7346SOL    HW122937   4.056   5.851   2.595
 7346SOL    HW222938   3.945   5.812   2.482
 7347SOL     OW22939   0.727   1.907   1.071
 7347SOL    HW122940   0.742   1.926   1.168
 7347SOL    HW222941   0.700   1.991   1.024
 7348SOL     OW22942   1.374   4.149   3.641
 7348SOL    HW122943   1.307   4.079   3.617
 7348SOL    HW222944   1.426   4.175   3.559
 7349SOL     OW22945   4.166   0.174   2.162
 7349SOL    HW122946   4.200   0.185   2.069
 7349SOL    HW222947   4.110   0.091   2.168
 7350SOL     OW22948   2.591   1.810   5.416
 7350SOL    HW122949   2.505   1.827   5.464
 7350SOL    HW222950   2.623   1.718   5.435
 7351SOL     OW22951   5.620   5.661   3.488
 7351SOL    HW122952   5.536   5.680   3.539
 7351SOL    HW222953   5.612   5.573   3.442
 7352SOL     OW22954   0.655   1.706   2.320
 7352SOL    HW122955   0.755   1.698   2.313
 7352SOL    HW222956   0.612   1.651   2.248
 7353SOL     OW22957   0.167   0.422   6.418
 7353SOL    HW122958   0.133   0.459   6.332
 7353SOL    HW222959   0.150   0.324   6.422
 7354SOL     OW22960   1.431   1.563   5.558
 7354SOL    HW122961   1.332   1.548   5.548
 7354SOL    HW222962   1.481   1.486   5.519
 7355SOL     OW22963   0.998   1.359   0.348
 7355SOL    HW122964   1.044   1.342   0.435
 7355SOL    HW222965   0.906   1.322   0.351
 7356SOL     OW22966   3.630   3.593   6.338
 7356SOL    HW122967   3.600   3.504   6.374
 7356SOL    HW222968   3.644   3.657   6.414
 7357SOL     OW22969   2.954   5.688   2.196
 7357SOL    HW122970   2.862   5.666   2.231
 7357SOL    HW222971   2.952   5.776   2.150
 7358SOL     OW22972   6.289   3.423   2.419
 7358SOL    HW122973   6.213   3.427   2.354
 7358SOL    HW222974   6.270   3.485   2.495
 7359SOL     OW22975   4.238   2.379   5.513
 7359SOL    HW122976   4.182   2.320   5.571
 7359SOL    HW222977   4.243   2.470   5.554
 7360SOL     OW22978   2.404   3.184   5.425
 7360SOL    HW122979   2.433   3.278   5.440
 7360SOL    HW222980   2.454   3.146   5.347
 7361SOL     OW22981   5.372   0.819   2.458
 7361SOL    HW122982   5.355   0.898   2.517
 7361SOL    HW222983   5.315   0.742   2.488
 7362SOL     OW22984   1.964   5.982   6.242
 7362SOL    HW122985   1.999   5.895   6.207
 7362SOL    HW222986   2.032   6.055   6.225
 7363SOL     OW22987   4.533   1.219   1.348
 7363SOL    HW122988   4.460   1.252   1.408
 7363SOL    HW222989   4.501   1.221   1.253
 7364SOL     OW22990   4.067   0.430   2.108
 7364SOL    HW122991   4.073   0.339   2.150
 7364SOL    HW222992   3.986   0.477   2.142
 7365SOL     OW22993   0.490   5.768   2.308
 7365SOL    HW122994   0.560   5.755   2.238
 7365SOL    HW222995   0.400   5.747   2.271
 7366SOL     OW22996   2.406   6.461   5.667
 7366SOL    HW122997   2.426   6.368   5.639
 7366SOL    HW222998   2.311   6.468   5.696
 7367SOL     OW22999   3.728   2.666   7.003
 7367SOL    HW123000   3.765   2.625   0.068
 7367SOL    HW223001   3.679   2.751   0.007
 7368SOL     OW23002   3.681   2.872   2.239
 7368SOL    HW123003   3.728   2.786   2.221
 7368SOL    HW223004   3.719   2.914   2.322
 7369SOL     OW23005   3.481   2.491   1.135
 7369SOL    HW123006   3.415   2.457   1.202
 7369SOL    HW223007   3.439   2.562   1.079
 7370SOL     OW23008   2.743   2.079   6.094
 7370SOL    HW123009   2.722   2.041   6.184
 7370SOL    HW223010   2.778   2.172   6.104
 7371SOL     OW23011   3.188   6.278   3.745
 7371SOL    HW123012   3.183   6.179   3.731
 7371SOL    HW223013   3.284   6.304   3.760
 7372SOL     OW23014   4.641   6.821   4.663
 7372SOL    HW123015   4.673   6.748   4.724
 7372SOL    HW223016   4.641   6.908   4.713
 7373SOL     OW23017   5.896   2.279   5.140
 7373SOL    HW123018   5.865   2.201   5.086
 7373SOL    HW223019   5.951   2.340   5.082
 7374SOL     OW23020   2.410   2.130   4.590
 7374SOL    HW123021   2.354   2.165   4.515
 7374SOL    HW223022   2.356   2.129   4.674
 7375SOL     OW23023   2.548   2.527   2.063
 7375SOL    HW123024   2.561   2.621   2.095
 7375SOL    HW223025   2.451   2.506   2.058
 7376SOL     OW23026   1.398   2.502   1.785
 7376SOL    HW123027   1.342   2.585   1.772
 7376SOL    HW223028   1.337   2.423   1.798
 7377SOL     OW23029   4.579   4.892   0.348
 7377SOL    HW123030   4.561   4.990   0.349
 7377SOL    HW223031   4.502   4.844   0.306
 7378SOL     OW23032   1.583   0.201   4.808
 7378SOL    HW123033   1.574   0.135   4.883
 7378SOL    HW223034   1.624   0.157   4.729
 7379SOL     OW23035   2.773   1.180   2.235
 7379SOL    HW123036   2.806   1.091   2.267
 7379SOL    HW223037   2.803   1.193   2.140
 7380SOL     OW23038   6.683   4.216   3.545
 7380SOL    HW123039   6.689   4.314   3.526
 7380SOL    HW223040   6.751   4.167   3.490
 7381SOL     OW23041   3.752   2.945   0.857
 7381SOL    HW123042   3.653   2.933   0.860
 7381SOL    HW223043   3.774   3.035   0.821
 7382SOL     OW23044   6.978   1.495   5.691
 7382SOL    HW123045   0.006   1.420   5.643
 7382SOL    HW223046   6.959   1.569   5.626
 7383SOL     OW23047   2.386   5.664   1.479
 7383SOL    HW123048   2.368   5.762   1.470
 7383SOL    HW223049   2.477   5.644   1.444
 7384SOL     OW23050   6.635   0.077   1.934
 7384SOL    HW123051   6.690   0.123   2.004
 7384SOL    HW223052   6.679   0.087   1.845
 7385SOL     OW23053   2.555   5.646   2.530
 7385SOL    HW123054   2.474   5.587   2.532
 7385SOL    HW223055   2.615   5.618   2.455
 7386SOL     OW23056   6.813   3.032   6.568
 7386SOL    HW123057   6.724   3.003   6.603
 7386SOL    HW223058   6.833   2.984   6.483
 7387SOL     OW23059   6.633   5.360   4.617
 7387SOL    HW123060   6.642   5.365   4.716
 7387SOL    HW223061   6.544   5.321   4.593
 7388SOL     OW23062   1.090   5.016   2.445
 7388SOL    HW123063   1.093   5.043   2.349
 7388SOL    HW223064   1.184   5.000   2.477
 7389SOL     OW23065   6.880   3.592   0.039
 7389SOL    HW123066   6.861   3.493   0.044
 7389SOL    HW223067   6.847   3.636   0.123
 7390SOL     OW23068   2.921   1.985   2.560
 7390SOL    HW123069   3.004   1.989   2.616
 7390SOL    HW223070   2.905   2.075   2.518
 7391SOL     OW23071   3.679   2.864   2.887
 7391SOL    HW123072   3.707   2.770   2.907
 7391SOL    HW223073   3.657   2.872   2.790
 7392SOL     OW23074   3.534   5.406   6.761
 7392SOL    HW123075   3.441   5.370   6.756
 7392SOL    HW223076   3.562   5.439   6.672
 7393SOL     OW23077   6.243   4.712   3.267
 7393SOL    HW123078   6.270   4.747   3.357
 7393SOL    HW223079   6.155   4.665   3.275
 7394SOL     OW23080   1.840   3.047   6.008
 7394SOL    HW123081   1.817   3.095   5.923
 7394SOL    HW223082   1.886   3.109   6.071
 7395SOL     OW23083   2.145   2.948   0.996
 7395SOL    HW123084   2.144   2.849   0.980
 7395SOL    HW223085   2.089   2.968   1.076
 7396SOL     OW23086   2.514   6.463   1.161
 7396SOL    HW123087   2.512   6.435   1.257
 7396SOL    HW223088   2.436   6.523   1.142
 7397SOL     OW23089   5.024   4.202   4.168
 7397SOL    HW123090   5.022   4.269   4.243
 7397SOL    HW223091   5.056   4.114   4.202
 7398SOL     OW23092   1.029   6.041   3.134
 7398SOL    HW123093   0.942   6.052   3.085
 7398SOL    HW223094   1.047   6.123   3.189
 7399SOL     OW23095   6.643   3.117   4.784
 7399SOL    HW123096   6.648   3.119   4.884
 7399SOL    HW223097   6.550   3.095   4.756
 7400SOL     OW23098   4.769   2.625   5.738
 7400SOL    HW123099   4.799   2.590   5.826
 7400SOL    HW223100   4.669   2.635   5.738
 7401SOL     OW23101   1.923   2.815   3.393
 7401SOL    HW123102   1.835   2.778   3.424
 7401SOL    HW223103   1.922   2.914   3.398
 7402SOL     OW23104   3.151   4.258   6.180
 7402SOL    HW123105   3.168   4.162   6.157
 7402SOL    HW223106   3.156   4.314   6.097
 7403SOL     OW23107   1.504   2.998   2.805
 7403SOL    HW123108   1.585   2.965   2.756
 7403SOL    HW223109   1.483   2.936   2.880
 7404SOL     OW23110   2.764   4.199   1.665
 7404SOL    HW123111   2.764   4.286   1.616
 7404SOL    HW223112   2.795   4.213   1.759
 7405SOL     OW23113   3.042   5.318   4.470
 7405SOL    HW123114   2.990   5.232   4.470
 7405SOL    HW223115   3.058   5.347   4.376
 7406SOL     OW23116   0.988   1.532   4.860
 7406SOL    HW123117   1.063   1.469   4.840
 7406SOL    HW223118   0.901   1.484   4.847
 7407SOL     OW23119   1.088   6.137   5.479
 7407SOL    HW123120   1.040   6.141   5.392
 7407SOL    HW223121   1.097   6.229   5.517
 7408SOL     OW23122   3.882   4.135   5.279
 7408SOL    HW123123   3.834   4.187   5.350
 7408SOL    HW223124   3.979   4.159   5.281
 7409SOL     OW23125   5.142   4.382   0.260
 7409SOL    HW123126   5.126   4.289   0.228
 7409SOL    HW223127   5.223   4.384   0.318
 7410SOL     OW23128   0.677   0.961   0.991
 7410SOL    HW123129   0.628   1.040   0.955
 7410SOL    HW223130   0.615   0.882   0.993
 7411SOL     OW23131   1.862   0.140   6.706
 7411SOL    HW123132   1.909   0.200   6.770
 7411SOL    HW223133   1.791   0.088   6.753
 7412SOL     OW23134   3.851   6.267   0.981
 7412SOL    HW123135   3.862   6.225   0.891
 7412SOL    HW223136   3.830   6.364   0.970
 7413SOL     OW23137   4.724   4.716   3.923
 7413SOL    HW123138   4.704   4.765   4.008
 7413SOL    HW223139   4.672   4.631   3.921
 7414SOL     OW23140   2.214   1.448   3.686
 7414SOL    HW123141   2.281   1.465   3.614
 7414SOL    HW223142   2.261   1.432   3.772
 7415SOL     OW23143   2.300   5.095   5.327
 7415SOL    HW123144   2.399   5.090   5.338
 7415SOL    HW223145   2.258   5.013   5.367
 7416SOL     OW23146   1.912   0.991   2.457
 7416SOL    HW123147   1.876   1.084   2.461
 7416SOL    HW223148   2.011   0.993   2.468
 7417SOL     OW23149   1.712   1.798   2.208
 7417SOL    HW123150   1.788   1.745   2.245
 7417SOL    HW223151   1.747   1.875   2.155
 7418SOL     OW23152   1.860   5.129   6.758
 7418SOL    HW123153   1.950   5.123   6.716
 7418SOL    HW223154   1.801   5.187   6.702
 7419SOL     OW23155   6.449   4.133   3.691
 7419SOL    HW123156   6.530   4.128   3.633
 7419SOL    HW223157   6.461   4.206   3.759
 7420SOL     OW23158   6.828   6.210   1.193
 7420SOL    HW123159   6.812   6.306   1.217
 7420SOL    HW223160   6.912   6.203   1.139
 7421SOL     OW23161   4.125   3.782   1.321
 7421SOL    HW123162   4.114   3.835   1.404
 7421SOL    HW223163   4.036   3.772   1.276
 7422SOL     OW23164   6.691   3.883   2.097
 7422SOL    HW123165   6.629   3.897   2.175
 7422SOL    HW223166   6.669   3.949   2.025
 7423SOL     OW23167   5.826   2.874   5.710
 7423SOL    HW123168   5.775   2.914   5.633
 7423SOL    HW223169   5.762   2.847   5.782
 7424SOL     OW23170   0.127   1.599   5.210
 7424SOL    HW123171   0.034   1.562   5.216
 7424SOL    HW223172   0.165   1.577   5.121
 7425SOL     OW23173   5.167   0.162   0.354
 7425SOL    HW123174   5.201   0.139   0.263
 7425SOL    HW223175   5.114   0.247   0.350
 7426SOL     OW23176   3.204   1.840   5.416
 7426SOL    HW123177   3.110   1.836   5.382
 7426SOL    HW223178   3.210   1.903   5.493
 7427SOL     OW23179   4.061   0.919   3.904
 7427SOL    HW123180   4.043   0.948   3.809
 7427SOL    HW223181   4.130   0.979   3.944
 7428SOL     OW23182   4.062   0.375   5.256
 7428SOL    HW123183   4.046   0.473   5.268
 7428SOL    HW223184   4.054   0.352   5.159
 7429SOL     OW23185   0.989   6.471   3.266
 7429SOL    HW123186   1.050   6.486   3.344
 7429SOL    HW223187   0.999   6.377   3.235
 7430SOL     OW23188   6.720   3.846   1.405
 7430SOL    HW123189   6.731   3.925   1.345
 7430SOL    HW223190   6.811   3.813   1.432
 7431SOL     OW23191   1.616   1.927   3.587
 7431SOL    HW123192   1.554   1.907   3.511
 7431SOL    HW223193   1.607   1.856   3.657
 7432SOL     OW23194   2.093   0.652   3.068
 7432SOL    HW123195   2.107   0.649   3.167
 7432SOL    HW223196   2.170   0.607   3.022
 7433SOL     OW23197   3.727   6.494   6.898
 7433SOL    HW123198   3.789   6.561   6.857
 7433SOL    HW223199   3.701   6.426   6.830
 7434SOL     OW23200   4.870   5.803   5.248
 7434SOL    HW123201   4.930   5.761   5.316
 7434SOL    HW223202   4.824   5.731   5.196
 7435SOL     OW23203   4.348   6.146   1.274
 7435SOL    HW123204   4.343   6.095   1.360
 7435SOL    HW223205   4.257   6.152   1.233
 7436SOL     OW23206   4.366   4.735   6.245
 7436SOL    HW123207   4.321   4.684   6.318
 7436SOL    HW223208   4.384   4.675   6.168
 7437SOL     OW23209   3.142   5.643   1.217
 7437SOL    HW123210   3.207   5.580   1.259
 7437SOL    HW223211   3.145   5.731   1.264
 7438SOL     OW23212   2.082   7.005   0.263
 7438SOL    HW123213   2.028   6.968   0.187
 7438SOL    HW223214   2.167   0.025   0.228
 7439SOL     OW23215   1.682   6.050   5.133
 7439SOL    HW123216   1.750   6.107   5.178
 7439SOL    HW223217   1.672   6.077   5.037
 7440SOL     OW23218   6.078   3.481   4.022
 7440SOL    HW123219   5.981   3.481   4.047
 7440SOL    HW223220   6.134   3.487   4.104
 7441SOL     OW23221   6.006   0.114   3.669
 7441SOL    HW123222   6.015   0.020   3.703
 7441SOL    HW223223   6.096   0.158   3.669
 7442SOL     OW23224   5.920   1.132   6.807
 7442SOL    HW123225   5.887   1.197   6.738
 7442SOL    HW223226   5.848   1.066   6.828
 7443SOL     OW23227   6.810   5.683   2.132
 7443SOL    HW123228   6.845   5.699   2.225
 7443SOL    HW223229   6.787   5.770   2.090
 7444SOL     OW23230   6.286   1.214   6.286
 7444SOL    HW123231   6.308   1.123   6.322
 7444SOL    HW223232   6.331   1.283   6.341
 7445SOL     OW23233   3.504   0.320   1.052
 7445SOL    HW123234   3.602   0.314   1.073
 7445SOL    HW223235   3.452   0.272   1.122
 7446SOL     OW23236   5.113   2.219   0.210
 7446SOL    HW123237   5.027   2.262   0.236
 7446SOL    HW223238   5.102   2.171   0.123
 7447SOL     OW23239   6.547   4.642   5.916
 7447SOL    HW123240   6.508   4.649   6.007
 7447SOL    HW223241   6.473   4.643   5.848
 7448SOL     OW23242   5.148   6.623   5.202
 7448SOL    HW123243   5.077   6.639   5.134
 7448SOL    HW223244   5.213   6.699   5.201
 7449SOL     OW23245   0.280   5.654   0.426
 7449SOL    HW123246   0.344   5.651   0.349
 7449SOL    HW223247   0.256   5.561   0.453
 7450SOL     OW23248   5.272   2.610   5.380
 7450SOL    HW123249   5.332   2.661   5.442
 7450SOL    HW223250   5.320   2.592   5.294
 7451SOL     OW23251   5.334   5.570   2.454
 7451SOL    HW123252   5.306   5.476   2.475
 7451SOL    HW223253   5.340   5.582   2.354
 7452SOL     OW23254   6.486   5.897   4.532
 7452SOL    HW123255   6.426   5.973   4.558
 7452SOL    HW223256   6.454   5.857   4.446
 7453SOL     OW23257   4.569   5.137   5.898
 7453SOL    HW123258   4.554   5.040   5.917
 7453SOL    HW223259   4.482   5.184   5.889
 7454SOL     OW23260   2.574   1.099   0.627
 7454SOL    HW123261   2.623   1.107   0.713
 7454SOL    HW223262   2.623   1.036   0.567
 7455SOL     OW23263   6.487   3.666   2.045
 7455SOL    HW123264   6.568   3.721   2.025
 7455SOL    HW223265   6.494   3.628   2.137
 7456SOL     OW23266   3.008   1.553   5.222
 7456SOL    HW123267   2.915   1.519   5.207
 7456SOL    HW223268   3.071   1.508   5.158
 7457SOL     OW23269   3.081   6.980   4.141
 7457SOL    HW123270   3.003   6.926   4.173
 7457SOL    HW223271   3.048   0.038   4.085
 7458SOL     OW23272   1.504   0.264   6.092
 7458SOL    HW123273   1.490   0.206   6.012
 7458SOL    HW223274   1.551   0.348   6.064
 7459SOL     OW23275   6.206   1.022   2.442
 7459SOL    HW123276   6.134   1.010   2.374
 7459SOL    HW223277   6.261   1.103   2.419
 7460SOL     OW23278   1.389   5.838   6.677
 7460SOL    HW123279   1.430   5.778   6.747
 7460SOL    HW223280   1.391   5.792   6.588
 7461SOL     OW23281   6.167   6.321   5.875
 7461SOL    HW123282   6.087   6.355   5.924
 7461SOL    HW223283   6.158   6.222   5.860
 7462SOL     OW23284   2.063   4.762   1.872
 7462SOL    HW123285   2.144   4.714   1.837
 7462SOL    HW223286   2.031   4.827   1.804
 7463SOL     OW23287   3.519   3.826   0.587
 7463SOL    HW123288   3.433   3.877   0.585
 7463SOL    HW223289   3.595   3.888   0.603
 7464SOL     OW23290   6.607   6.829   5.177
 7464SOL    HW123291   6.675   6.813   5.248
 7464SOL    HW223292   6.546   6.750   5.169
 7465SOL     OW23293   2.750   4.965   6.913
 7465SOL    HW123294   2.668   4.987   6.861
 7465SOL    HW223295   2.730   4.969   7.011
 7466SOL     OW23296   0.580   0.828   6.160
 7466SOL    HW123297   0.537   0.744   6.127
 7466SOL    HW223298   0.627   0.810   6.246
 7467SOL     OW23299   0.453   2.237   6.157
 7467SOL    HW123300   0.502   2.157   6.192
 7467SOL    HW223301   0.404   2.211   6.073
 7468SOL     OW23302   5.179   2.786   4.388
 7468SOL    HW123303   5.112   2.813   4.457
 7468SOL    HW223304   5.185   2.857   4.318
 7469SOL     OW23305   6.952   1.518   0.337
 7469SOL    HW123306   0.005   1.586   0.350
 7469SOL    HW223307   6.964   1.472   0.249
 7470SOL     OW23308   5.442   4.041   3.418
 7470SOL    HW123309   5.449   4.076   3.511
 7470SOL    HW223310   5.524   4.067   3.366
 7471SOL     OW23311   5.105   6.048   5.735
 7471SOL    HW123312   5.131   6.065   5.639
 7471SOL    HW223313   5.185   6.016   5.785
 7472SOL     OW23314   6.334   0.998   5.438
 7472SOL    HW123315   6.243   0.961   5.417
 7472SOL    HW223316   6.331   1.046   5.525
 7473SOL     OW23317   5.681   6.330   3.632
 7473SOL    HW123318   5.733   6.266   3.689
 7473SOL    HW223319   5.711   6.321   3.537
 7474SOL     OW23320   6.545   2.723   6.465
 7474SOL    HW123321   6.462   2.765   6.429
 7474SOL    HW223322   6.536   2.623   6.462
 7475SOL     OW23323   4.576   2.532   1.967
 7475SOL    HW123324   4.544   2.500   2.056
 7475SOL    HW223325   4.634   2.462   1.925
 7476SOL     OW23326   2.051   2.369   2.892
 7476SOL    HW123327   2.001   2.315   2.824
 7476SOL    HW223328   2.002   2.455   2.909
 7477SOL     OW23329   0.300   3.078   5.437
 7477SOL    HW123330   0.288   3.153   5.372
 7477SOL    HW223331   0.309   2.991   5.387
 7478SOL     OW23332   5.701   3.352   5.183
 7478SOL    HW123333   5.694   3.361   5.083
 7478SOL    HW223334   5.643   3.422   5.226
 7479SOL     OW23335   5.306   2.810   0.598
 7479SOL    HW123336   5.273   2.824   0.504
 7479SOL    HW223337   5.349   2.894   0.631
 7480SOL     OW23338   1.853   4.907   2.284
 7480SOL    HW123339   1.831   4.868   2.195
 7480SOL    HW223340   1.941   4.870   2.315
 7481SOL     OW23341   6.621   4.695   6.771
 7481SOL    HW123342   6.586   4.668   6.861
 7481SOL    HW223343   6.564   4.655   6.700
 7482SOL     OW23344   4.356   2.364   2.290
 7482SOL    HW123345   4.363   2.273   2.331
 7482SOL    HW223346   4.406   2.429   2.346
 7483SOL     OW23347   4.896   2.549   4.812
 7483SOL    HW123348   4.825   2.583   4.873
 7483SOL    HW223349   4.857   2.485   4.747
 7484SOL     OW23350   1.985   5.097   4.708
 7484SOL    HW123351   2.003   5.195   4.693
 7484SOL    HW223352   2.045   5.043   4.649
 7485SOL     OW23353   2.513   0.062   3.742
 7485SOL    HW123354   2.573   0.083   3.665
 7485SOL    HW223355   2.565   0.071   3.828
 7486SOL     OW23356   0.641   6.342   0.077
 7486SOL    HW123357   0.695   6.314   0.156
 7486SOL    HW223358   0.558   6.287   0.073
 7487SOL     OW23359   3.899   0.863   3.400
 7487SOL    HW123360   3.924   0.936   3.337
 7487SOL    HW223361   3.953   0.781   3.381
 7488SOL     OW23362   1.904   6.136   4.775
 7488SOL    HW123363   1.987   6.135   4.831
 7488SOL    HW223364   1.928   6.149   4.679
 7489SOL     OW23365   6.543   3.358   0.190
 7489SOL    HW123366   6.486   3.307   0.125
 7489SOL    HW223367   6.521   3.455   0.185
 7490SOL     OW23368   1.736   1.468   2.438
 7490SOL    HW123369   1.780   1.555   2.415
 7490SOL    HW223370   1.752   1.447   2.534
 7491SOL     OW23371   4.974   3.042   0.019
 7491SOL    HW123372   5.047   3.080   0.076
 7491SOL    HW223373   4.946   2.953   0.055
 7492SOL     OW23374   2.334   1.571   4.088
 7492SOL    HW123375   2.305   1.598   4.180
 7492SOL    HW223376   2.295   1.635   4.021
 7493SOL     OW23377   0.021   3.110   5.335
 7493SOL    HW123378   0.032   3.022   5.381
 7493SOL    HW223379   0.058   3.183   5.393
 7494SOL     OW23380   5.893   1.336   4.229
 7494SOL    HW123381   5.850   1.339   4.319
 7494SOL    HW223382   5.892   1.427   4.189
 7495SOL     OW23383   1.397   2.998   4.860
 7495SOL    HW123384   1.475   3.061   4.855
 7495SOL    HW223385   1.358   2.999   4.952
 7496SOL     OW23386   5.710   3.366   4.261
 7496SOL    HW123387   5.788   3.349   4.322
 7496SOL    HW223388   5.673   3.278   4.230
 7497SOL     OW23389   1.988   5.803   1.516
 7497SOL    HW123390   1.960   5.709   1.500
 7497SOL    HW223391   2.004   5.817   1.614
 7498SOL     OW23392   2.323   0.956   4.135
 7498SOL    HW123393   2.404   0.949   4.193
 7498SOL    HW223394   2.286   1.048   4.140
 7499SOL     OW23395   4.335   1.957   3.340
 7499SOL    HW123396   4.250   1.923   3.301
 7499SOL    HW223397   4.316   2.000   3.429
 7500SOL     OW23398   3.165   5.862   3.515
 7500SOL    HW123399   3.212   5.779   3.486
 7500SOL    HW223400   3.147   5.919   3.434
 7501SOL     OW23401   5.645   3.850   3.754
 7501SOL    HW123402   5.615   3.770   3.806
 7501SOL    HW223403   5.721   3.894   3.802
 7502SOL     OW23404   3.700   6.595   4.082
 7502SOL    HW123405   3.713   6.644   3.995
 7502SOL    HW223406   3.784   6.546   4.106
 7503SOL     OW23407   1.893   5.958   0.670
 7503SOL    HW123408   1.942   5.875   0.644
 7503SOL    HW223409   1.952   6.015   0.727
 7504SOL     OW23410   0.448   6.301   2.060
 7504SOL    HW123411   0.417   6.207   2.046
 7504SOL    HW223412   0.427   6.355   1.979
 7505SOL     OW23413   1.334   1.425   6.143
 7505SOL    HW123414   1.235   1.417   6.158
 7505SOL    HW223415   1.376   1.464   6.225
 7506SOL     OW23416   4.298   2.097   3.586
 7506SOL    HW123417   4.231   2.156   3.543
 7506SOL    HW223418   4.351   2.149   3.653
 7507SOL     OW23419   6.451   2.964   3.851
 7507SOL    HW123420   6.427   2.952   3.755
 7507SOL    HW223421   6.376   2.932   3.909
 7508SOL     OW23422   1.910   5.098   0.426
 7508SOL    HW123423   1.856   5.181   0.415
 7508SOL    HW223424   1.888   5.034   0.352
 7509SOL     OW23425   5.984   3.275   0.571
 7509SOL    HW123426   6.035   3.192   0.547
 7509SOL    HW223427   5.972   3.280   0.670
 7510SOL     OW23428   4.082   3.702   4.332
 7510SOL    HW123429   4.111   3.629   4.270
 7510SOL    HW223430   3.983   3.696   4.346
 7511SOL     OW23431   2.812   5.982   3.486
 7511SOL    HW123432   2.817   5.952   3.581
 7511SOL    HW223433   2.881   6.053   3.470
 7512SOL     OW23434   2.993   0.673   6.825
 7512SOL    HW123435   2.900   0.693   6.858
 7512SOL    HW223436   3.045   0.629   6.898
 7513SOL     OW23437   2.295   2.416   3.272
 7513SOL    HW123438   2.255   2.400   3.363
 7513SOL    HW223439   2.268   2.342   3.211
 7514SOL     OW23440   1.674   4.941   3.576
 7514SOL    HW123441   1.580   4.972   3.586
 7514SOL    HW223442   1.732   5.018   3.549
 7515SOL     OW23443   6.846   4.408   4.810
 7515SOL    HW123444   6.753   4.374   4.792
 7515SOL    HW223445   6.880   4.369   4.895
 7516SOL     OW23446   0.755   5.235   6.111
 7516SOL    HW123447   0.713   5.315   6.068
 7516SOL    HW223448   0.705   5.152   6.083
 7517SOL     OW23449   1.500   2.327   0.117
 7517SOL    HW123450   1.471   2.244   0.070
 7517SOL    HW223451   1.595   2.317   0.146
 7518SOL     OW23452   4.905   3.192   3.573
 7518SOL    HW123453   4.872   3.183   3.667
 7518SOL    HW223454   4.883   3.108   3.523
 7519SOL     OW23455   5.632   0.089   3.823
 7519SOL    HW123456   5.668   0.030   3.895
 7519SOL    HW223457   5.650   0.185   3.846
 7520SOL     OW23458   1.382   1.186   2.258
 7520SOL    HW123459   1.465   1.135   2.232
 7520SOL    HW223460   1.406   1.282   2.274
 7521SOL     OW23461   4.627   2.070   4.636
 7521SOL    HW123462   4.680   2.135   4.689
 7521SOL    HW223463   4.665   1.978   4.648
 7522SOL     OW23464   1.575   0.351   5.273
 7522SOL    HW123465   1.584   0.423   5.343
 7522SOL    HW223466   1.626   0.378   5.192
 7523SOL     OW23467   4.910   0.722   6.103
 7523SOL    HW123468   4.900   0.633   6.147
 7523SOL    HW223469   4.896   0.794   6.171
 7524SOL     OW23470   0.212   3.182   4.885
 7524SOL    HW123471   0.210   3.095   4.835
 7524SOL    HW223472   0.199   3.257   4.820
 7525SOL     OW23473   4.172   6.614   6.510
 7525SOL    HW123474   4.167   6.670   6.428
 7525SOL    HW223475   4.185   6.518   6.485
 7526SOL     OW23476   2.474   2.600   1.383
 7526SOL    HW123477   2.529   2.619   1.465
 7526SOL    HW223478   2.512   2.650   1.305
 7527SOL     OW23479   2.914   5.573   3.846
 7527SOL    HW123480   2.868   5.616   3.923
 7527SOL    HW223481   2.894   5.624   3.762
 7528SOL     OW23482   5.592   2.165   6.699
 7528SOL    HW123483   5.692   2.162   6.689
 7528SOL    HW223484   5.568   2.227   6.774
 7529SOL     OW23485   4.967   2.113   3.860
 7529SOL    HW123486   5.059   2.142   3.884
 7529SOL    HW223487   4.912   2.102   3.943
 7530SOL     OW23488   6.253   1.877   2.330
 7530SOL    HW123489   6.243   1.790   2.282
 7530SOL    HW223490   6.223   1.952   2.271
 7531SOL     OW23491   4.970   2.887   2.957
 7531SOL    HW123492   4.953   2.972   3.007
 7531SOL    HW223493   5.042   2.902   2.889
 7532SOL     OW23494   5.371   6.401   6.232
 7532SOL    HW123495   5.279   6.372   6.206
 7532SOL    HW223496   5.435   6.325   6.217
 7533SOL     OW23497   4.548   2.571   1.530
 7533SOL    HW123498   4.533   2.631   1.452
 7533SOL    HW223499   4.502   2.609   1.610
 7534SOL     OW23500   4.514   5.732   4.190
 7534SOL    HW123501   4.432   5.757   4.241
 7534SOL    HW223502   4.574   5.812   4.180
 7535SOL     OW23503   1.507   6.242   4.716
 7535SOL    HW123504   1.547   6.215   4.629
 7535SOL    HW223505   1.446   6.170   4.749
 7536SOL     OW23506   5.729   6.187   3.981
 7536SOL    HW123507   5.721   6.120   4.054
 7536SOL    HW223508   5.666   6.164   3.907
 7537SOL     OW23509   1.818   4.789   2.034
 7537SOL    HW123510   1.906   4.779   1.987
 7537SOL    HW223511   1.772   4.700   2.038
 7538SOL     OW23512   1.556   2.831   1.956
 7538SOL    HW123513   1.528   2.794   2.045
 7538SOL    HW223514   1.648   2.869   1.964
 7539SOL     OW23515   1.349   5.148   3.252
 7539SOL    HW123516   1.260   5.142   3.296
 7539SOL    HW223517   1.353   5.084   3.175
 7540SOL     OW23518   4.620   6.371   4.321
 7540SOL    HW123519   4.652   6.463   4.344
 7540SOL    HW223520   4.521   6.365   4.334
 7541SOL     OW23521   0.701   4.343   6.294
 7541SOL    HW123522   0.703   4.442   6.313
 7541SOL    HW223523   0.620   4.303   6.337
 7542SOL     OW23524   6.587   5.883   5.837
 7542SOL    HW123525   6.582   5.976   5.874
 7542SOL    HW223526   6.641   5.884   5.753
 7543SOL     OW23527   3.023   0.625   4.996
 7543SOL    HW123528   3.013   0.526   5.004
 7543SOL    HW223529   2.946   0.662   4.943
 7544SOL     OW23530   0.524   2.921   4.654
 7544SOL    HW123531   0.426   2.933   4.667
 7544SOL    HW223532   0.573   2.996   4.700
 7545SOL     OW23533   0.394   6.550   6.218
 7545SOL    HW123534   0.431   6.457   6.221
 7545SOL    HW223535   0.409   6.594   6.307
 7546SOL     OW23536   5.119   2.421   1.532
 7546SOL    HW123537   5.112   2.466   1.443
 7546SOL    HW223538   5.143   2.488   1.602
 7547SOL     OW23539   4.316   0.809   0.832
 7547SOL    HW123540   4.340   0.722   0.790
 7547SOL    HW223541   4.389   0.838   0.894
 7548SOL     OW23542   4.428   2.547   0.062
 7548SOL    HW123543   4.440   2.555   6.981
 7548SOL    HW223544   4.331   2.552   0.084
 7549SOL     OW23545   3.182   2.629   6.677
 7549SOL    HW123546   3.202   2.540   6.718
 7549SOL    HW223547   3.224   2.634   6.586
 7550SOL     OW23548   2.175   4.387   3.618
 7550SOL    HW123549   2.252   4.347   3.668
 7550SOL    HW223550   2.093   4.331   3.633
 7551SOL     OW23551   5.441   2.930   5.222
 7551SOL    HW123552   5.442   2.931   5.122
 7551SOL    HW223553   5.500   2.856   5.255
 7552SOL     OW23554   1.561   5.884   4.237
 7552SOL    HW123555   1.659   5.887   4.256
 7552SOL    HW223556   1.515   5.955   4.291
 7553SOL     OW23557   5.626   6.389   5.891
 7553SOL    HW123558   5.548   6.357   5.836
 7553SOL    HW223559   5.601   6.475   5.936
 7554SOL     OW23560   4.846   0.746   0.486
 7554SOL    HW123561   4.901   0.749   0.403
 7554SOL    HW223562   4.906   0.747   0.566
 7555SOL     OW23563   3.291   5.855   6.478
 7555SOL    HW123564   3.347   5.917   6.424
 7555SOL    HW223565   3.205   5.899   6.502
 7556SOL     OW23566   1.569   1.618   0.561
 7556SOL    HW123567   1.519   1.602   0.647
 7556SOL    HW223568   1.520   1.574   0.486
 7557SOL     OW23569   4.554   0.097   0.010
 7557SOL    HW123570   4.539   0.196   0.017
 7557SOL    HW223571   4.640   0.080   6.982
 7558SOL     OW23572   1.799   3.188   3.666
 7558SOL    HW123573   1.701   3.165   3.665
 7558SOL    HW223574   1.812   3.282   3.634
 7559SOL     OW23575   3.960   2.199   5.217
 7559SOL    HW123576   4.050   2.156   5.221
 7559SOL    HW223577   3.951   2.263   5.293
 7560SOL     OW23578   6.326   0.152   6.943
 7560SOL    HW123579   6.236   0.152   6.986
 7560SOL    HW223580   6.393   0.187   7.008
 7561SOL     OW23581   6.082   3.239   5.650
 7561SOL    HW123582   6.179   3.242   5.674
 7561SOL    HW223583   6.061   3.311   5.584
 7562SOL     OW23584   0.907   4.541   4.871
 7562SOL    HW123585   0.973   4.615   4.864
 7562SOL    HW223586   0.890   4.502   4.780
 7563SOL     OW23587   2.648   6.040   2.557
 7563SOL    HW123588   2.691   5.971   2.617
 7563SOL    HW223589   2.719   6.098   2.518
 7564SOL     OW23590   3.731   0.336   4.841
 7564SOL    HW123591   3.816   0.373   4.803
 7564SOL    HW223592   3.728   0.237   4.828
 7565SOL     OW23593   5.973   4.411   5.572
 7565SOL    HW123594   5.878   4.387   5.553
 7565SOL    HW223595   6.028   4.401   5.488
 7566SOL     OW23596   5.078   4.744   2.380
 7566SOL    HW123597   5.022   4.664   2.364
 7566SOL    HW223598   5.156   4.719   2.437
 7567SOL     OW23599   0.979   1.039   4.676
 7567SOL    HW123600   0.928   1.086   4.605
 7567SOL    HW223601   0.995   0.944   4.648
 7568SOL     OW23602   5.513   5.295   1.615
 7568SOL    HW123603   5.595   5.238   1.628
 7568SOL    HW223604   5.531   5.387   1.649
 7569SOL     OW23605   4.385   4.063   6.601
 7569SOL    HW123606   4.327   4.105   6.531
 7569SOL    HW223607   4.330   4.041   6.682
 7570SOL     OW23608   0.172   2.787   4.058
 7570SOL    HW123609   0.110   2.788   4.137
 7570SOL    HW223610   0.186   2.693   4.027
 7571SOL     OW23611   5.261   3.685   3.111
 7571SOL    HW123612   5.346   3.679   3.057
 7571SOL    HW223613   5.245   3.597   3.157
 7572SOL     OW23614   5.156   6.699   2.955
 7572SOL    HW123615   5.215   6.680   3.033
 7572SOL    HW223616   5.075   6.748   2.985
 7573SOL     OW23617   6.092   0.832   5.789
 7573SOL    HW123618   6.094   0.763   5.861
 7573SOL    HW223619   6.004   0.880   5.791
 7574SOL     OW23620   5.632   1.655   4.624
 7574SOL    HW123621   5.562   1.587   4.604
 7574SOL    HW223622   5.703   1.614   4.681
 7575SOL     OW23623   6.158   6.001   0.413
 7575SOL    HW123624   6.251   5.973   0.437
 7575SOL    HW223625   6.138   6.089   0.456
 7576SOL     OW23626   5.563   2.309   6.924
 7576SOL    HW123627   5.614   2.394   6.940
 7576SOL    HW223628   5.468   2.322   6.951
 7577SOL     OW23629   6.810   6.393   0.016
 7577SOL    HW123630   6.766   6.483   0.019
 7577SOL    HW223631   6.802   6.348   0.105
 7578SOL     OW23632   1.465   5.239   2.446
 7578SOL    HW123633   1.474   5.190   2.360
 7578SOL    HW223634   1.464   5.173   2.522
 7579SOL     OW23635   6.771   1.648   1.125
 7579SOL    HW123636   6.867   1.666   1.146
 7579SOL    HW223637   6.764   1.564   1.071
 7580SOL     OW23638   1.621   4.668   3.488
 7580SOL    HW123639   1.640   4.757   3.529
 7580SOL    HW223640   1.673   4.659   3.403
 7581SOL     OW23641   0.596   1.261   1.533
 7581SOL    HW123642   0.506   1.290   1.566
 7581SOL    HW223643   0.584   1.198   1.455
 7582SOL     OW23644   4.127   1.673   3.592
 7582SOL    HW123645   4.172   1.746   3.644
 7582SOL    HW223646   4.028   1.683   3.599
 7583SOL     OW23647   5.620   3.682   2.908
 7583SOL    HW123648   5.707   3.669   2.861
 7583SOL    HW223649   5.564   3.748   2.857
 7584SOL     OW23650   1.329   6.742   2.759
 7584SOL    HW123651   1.342   6.727   2.857
 7584SOL    HW223652   1.333   6.654   2.711
 7585SOL     OW23653   0.886   2.324   6.710
 7585SOL    HW123654   0.912   2.408   6.662
 7585SOL    HW223655   0.942   2.313   6.792
 7586SOL     OW23656   1.878   0.110   2.515
 7586SOL    HW123657   1.889   0.172   2.592
 7586SOL    HW223658   1.783   0.081   2.508
 7587SOL     OW23659   2.862   1.280   0.310
 7587SOL    HW123660   2.910   1.366   0.296
 7587SOL    HW223661   2.777   1.298   0.360
 7588SOL     OW23662   1.490   2.863   3.896
 7588SOL    HW123663   1.488   2.962   3.889
 7588SOL    HW223664   1.551   2.836   3.970
 7589SOL     OW23665   0.182   1.493   3.344
 7589SOL    HW123666   0.169   1.400   3.378
 7589SOL    HW223667   0.115   1.512   3.273
 7590SOL     OW23668   6.224   1.295   7.001
 7590SOL    HW123669   6.132   1.259   7.016
 7590SOL    HW223670   6.254   1.274   6.908
 7591SOL     OW23671   4.752   3.222   6.389
 7591SOL    HW123672   4.846   3.202   6.416
 7591SOL    HW223673   4.689   3.169   6.446
 7592SOL     OW23674   6.750   4.897   4.468
 7592SOL    HW123675   6.677   4.958   4.439
 7592SOL    HW223676   6.736   4.806   4.429
 7593SOL     OW23677   0.125   2.588   6.230
 7593SOL    HW123678   0.117   2.560   6.135
 7593SOL    HW223679   0.119   2.507   6.289
 7594SOL     OW23680   0.830   4.374   1.610
 7594SOL    HW123681   0.888   4.427   1.672
 7594SOL    HW223682   0.868   4.282   1.600
 7595SOL     OW23683   6.283   3.523   6.513
 7595SOL    HW123684   6.354   3.539   6.443
 7595SOL    HW223685   6.304   3.578   6.594
 7596SOL     OW23686   3.277   6.566   5.111
 7596SOL    HW123687   3.190   6.611   5.132
 7596SOL    HW223688   3.277   6.474   5.149
 7597SOL     OW23689   2.070   6.470   3.048
 7597SOL    HW123690   2.136   6.465   3.123
 7597SOL    HW223691   2.092   6.547   2.988
 7598SOL     OW23692   5.994   0.741   3.116
 7598SOL    HW123693   5.927   0.799   3.163
 7598SOL    HW223694   6.069   0.798   3.082
 7599SOL     OW23695   5.125   3.246   1.378
 7599SOL    HW123696   5.159   3.193   1.456
 7599SOL    HW223697   5.038   3.208   1.347
 7600SOL     OW23698   1.356   0.916   3.617
 7600SOL    HW123699   1.284   0.860   3.575
 7600SOL    HW223700   1.358   0.900   3.716
 7601SOL     OW23701   2.979   5.125   2.267
 7601SOL    HW123702   3.014   5.213   2.236
 7601SOL    HW223703   2.916   5.088   2.198
 7602SOL     OW23704   0.612   2.619   0.200
 7602SOL    HW123705   0.608   2.717   0.179
 7602SOL    HW223706   0.530   2.574   0.164
 7603SOL     OW23707   1.825   6.413   5.896
 7603SOL    HW123708   1.873   6.326   5.907
 7603SOL    HW223709   1.888   6.481   5.858
 7604SOL     OW23710   1.848   1.879   5.077
 7604SOL    HW123711   1.905   1.819   5.021
 7604SOL    HW223712   1.752   1.853   5.067
 7605SOL     OW23713   1.025   0.594   0.549
 7605SOL    HW123714   1.040   0.693   0.548
 7605SOL    HW223715   0.985   0.565   0.462
 7606SOL     OW23716   5.863   2.860   5.246
 7606SOL    HW123717   5.926   2.850   5.323
 7606SOL    HW223718   5.770   2.840   5.277
 7607SOL     OW23719   3.711   5.529   0.826
 7607SOL    HW123720   3.704   5.625   0.797
 7607SOL    HW223721   3.801   5.513   0.867
 7608SOL     OW23722   4.933   2.270   6.520
 7608SOL    HW123723   4.868   2.197   6.542
 7608SOL    HW223724   4.949   2.272   6.421
 7609SOL     OW23725   0.694   3.606   3.925
 7609SOL    HW123726   0.660   3.694   3.957
 7609SOL    HW223727   0.766   3.573   3.987
 7610SOL     OW23728   4.102   4.965   6.021
 7610SOL    HW123729   4.078   5.016   6.104
 7610SOL    HW223730   4.063   4.873   6.026
 7611SOL     OW23731   5.154   3.557   1.403
 7611SOL    HW123732   5.124   3.570   1.497
 7611SOL    HW223733   5.196   3.466   1.394
 7612SOL     OW23734   3.990   2.177   3.292
 7612SOL    HW123735   3.928   2.155   3.217
 7612SOL    HW223736   4.084   2.170   3.261
 7613SOL     OW23737   0.718   2.147   2.124
 7613SOL    HW123738   0.711   2.246   2.137
 7613SOL    HW223739   0.743   2.104   2.210
 7614SOL     OW23740   5.446   3.226   0.937
 7614SOL    HW123741   5.415   3.321   0.939
 7614SOL    HW223742   5.546   3.224   0.941
 7615SOL     OW23743   5.262   4.270   5.621
 7615SOL    HW123744   5.329   4.307   5.686
 7615SOL    HW223745   5.302   4.269   5.529
 7616SOL     OW23746   6.511   0.620   3.498
 7616SOL    HW123747   6.477   0.679   3.570
 7616SOL    HW223748   6.471   0.529   3.508
 7617SOL     OW23749   5.274   5.284   3.059
 7617SOL    HW123750   5.250   5.379   3.038
 7617SOL    HW223751   5.246   5.263   3.153
 7618SOL     OW23752   1.574   2.157   0.352
 7618SOL    HW123753   1.603   2.231   0.413
 7618SOL    HW223754   1.474   2.156   0.347
 7619SOL     OW23755   0.281   2.889   4.415
 7619SOL    HW123756   0.294   2.953   4.339
 7619SOL    HW223757   0.369   2.848   4.440
 7620SOL     OW23758   3.515   4.549   0.518
 7620SOL    HW123759   3.572   4.484   0.567
 7620SOL    HW223760   3.429   4.563   0.567
 7621SOL     OW23761   0.368   6.560   1.068
 7621SOL    HW123762   0.287   6.619   1.066
 7621SOL    HW223763   0.429   6.586   0.993
 7622SOL     OW23764   4.227   4.758   6.899
 7622SOL    HW123765   4.159   4.828   6.877
 7622SOL    HW223766   4.317   4.789   6.871
 7623SOL     OW23767   4.376   4.707   0.313
 7623SOL    HW123768   4.429   4.624   0.300
 7623SOL    HW223769   4.288   4.698   0.267
 7624SOL     OW23770   0.161   2.585   3.288
 7624SOL    HW123771   0.123   2.502   3.329
 7624SOL    HW223772   0.111   2.606   3.204
 7625SOL     OW23773   5.946   2.294   0.073
 7625SOL    HW123774   5.890   2.211   0.063
 7625SOL    HW223775   5.889   2.375   0.059
 7626SOL     OW23776   6.637   0.804   6.087
 7626SOL    HW123777   6.590   0.855   6.015
 7626SOL    HW223778   6.631   0.706   6.068
 7627SOL     OW23779   2.732   1.735   0.503
 7627SOL    HW123780   2.658   1.670   0.481
 7627SOL    HW223781   2.746   1.796   0.425
 7628SOL     OW23782   3.993   3.089   1.475
 7628SOL    HW123783   3.924   3.061   1.542
 7628SOL    HW223784   4.028   3.009   1.427
 7629SOL     OW23785   6.317   3.877   3.727
 7629SOL    HW123786   6.340   3.810   3.798
 7629SOL    HW223787   6.356   3.966   3.753
 7630SOL     OW23788   1.463   0.575   5.760
 7630SOL    HW123789   1.488   0.671   5.742
 7630SOL    HW223790   1.522   0.539   5.832
 7631SOL     OW23791   1.576   0.845   5.706
 7631SOL    HW123792   1.536   0.936   5.716
 7631SOL    HW223793   1.671   0.847   5.739
 7632SOL     OW23794   4.325   4.918   0.987
 7632SOL    HW123795   4.255   4.884   0.923
 7632SOL    HW223796   4.322   4.864   1.071
 7633SOL     OW23797   5.615   0.526   1.609
 7633SOL    HW123798   5.647   0.618   1.627
 7633SOL    HW223799   5.515   0.526   1.601
 7634SOL     OW23800   1.266   1.252   1.567
 7634SOL    HW123801   1.276   1.328   1.630
 7634SOL    HW223802   1.199   1.275   1.497
 7635SOL     OW23803   2.599   5.120   4.665
 7635SOL    HW123804   2.506   5.148   4.689
 7635SOL    HW223805   2.664   5.192   4.691
 7636SOL     OW23806   0.556   3.872   4.002
 7636SOL    HW123807   0.639   3.915   4.037
 7636SOL    HW223808   0.543   3.897   3.906
 7637SOL     OW23809   0.717   6.442   3.337
 7637SOL    HW123810   0.708   6.350   3.299
 7637SOL    HW223811   0.807   6.479   3.314
 7638SOL     OW23812   1.233   5.385   1.725
 7638SOL    HW123813   1.148   5.387   1.777
 7638SOL    HW223814   1.212   5.374   1.627
 7639SOL     OW23815   0.112   0.786   0.462
 7639SOL    HW123816   0.032   0.816   0.409
 7639SOL    HW223817   0.081   0.738   0.545
 7640SOL     OW23818   2.899   2.154   0.035
 7640SOL    HW123819   2.909   2.143   6.955
 7640SOL    HW223820   2.975   2.108   0.082
 7641SOL     OW23821   0.296   3.956   2.954
 7641SOL    HW123822   0.343   3.972   3.041
 7641SOL    HW223823   0.354   3.987   2.879
 7642SOL     OW23824   5.948   0.975   2.631
 7642SOL    HW123825   5.868   0.999   2.685
 7642SOL    HW223826   5.952   1.033   2.549
 7643SOL     OW23827   5.284   1.893   2.552
 7643SOL    HW123828   5.365   1.869   2.606
 7643SOL    HW223829   5.205   1.901   2.613
 7644SOL     OW23830   4.892   2.998   2.265
 7644SOL    HW123831   4.969   2.974   2.206
 7644SOL    HW223832   4.806   2.988   2.214
 7645SOL     OW23833   4.217   3.238   5.328
 7645SOL    HW123834   4.176   3.307   5.269
 7645SOL    HW223835   4.317   3.246   5.325
 7646SOL     OW23836   0.687   3.032   3.241
 7646SOL    HW123837   0.734   3.014   3.155
 7646SOL    HW223838   0.588   3.018   3.229
 7647SOL     OW23839   0.852   3.058   4.426
 7647SOL    HW123840   0.916   3.066   4.503
 7647SOL    HW223841   0.763   3.097   4.453
 7648SOL     OW23842   2.133   1.392   2.008
 7648SOL    HW123843   2.153   1.327   1.935
 7648SOL    HW223844   2.170   1.482   1.985
 7649SOL     OW23845   1.175   1.520   4.592
 7649SOL    HW123846   1.112   1.597   4.591
 7649SOL    HW223847   1.268   1.553   4.607
 7650SOL     OW23848   5.117   1.397   1.232
 7650SOL    HW123849   5.192   1.377   1.295
 7650SOL    HW223850   5.077   1.486   1.255
 7651SOL     OW23851   2.379   5.345   4.448
 7651SOL    HW123852   2.321   5.304   4.518
 7651SOL    HW223853   2.388   5.282   4.370
 7652SOL     OW23854   6.028   2.581   5.362
 7652SOL    HW123855   5.945   2.541   5.400
 7652SOL    HW223856   6.030   2.679   5.382
 7653SOL     OW23857   1.256   1.630   0.373
 7653SOL    HW123858   1.273   1.633   0.274
 7653SOL    HW223859   1.306   1.553   0.412
 7654SOL     OW23860   5.430   3.027   4.970
 7654SOL    HW123861   5.513   3.010   4.917
 7654SOL    HW223862   5.413   3.126   4.973
 7655SOL     OW23863   3.736   0.310   3.685
 7655SOL    HW123864   3.750   0.254   3.604
 7655SOL    HW223865   3.637   0.320   3.702
 7656SOL     OW23866   5.931   2.859   6.024
 7656SOL    HW123867   5.924   2.770   6.069
 7656SOL    HW223868   5.847   2.879   5.974
 7657SOL     OW23869   1.914   3.454   3.979
 7657SOL    HW123870   1.854   3.378   4.003
 7657SOL    HW223871   1.895   3.483   3.885
 7658SOL     OW23872   3.077   0.467   1.029
 7658SOL    HW123873   3.118   0.412   0.956
 7658SOL    HW223874   2.978   0.471   1.017
 7659SOL     OW23875   4.777   4.282   6.534
 7659SOL    HW123876   4.709   4.210   6.526
 7659SOL    HW223877   4.732   4.371   6.544
 7660SOL     OW23878   6.239   5.543   4.555
 7660SOL    HW123879   6.156   5.492   4.578
 7660SOL    HW223880   6.308   5.529   4.626
 7661SOL     OW23881   4.452   2.245   6.024
 7661SOL    HW123882   4.452   2.145   6.027
 7661SOL    HW223883   4.391   2.276   5.951
 7662SOL     OW23884   0.572   2.219   3.140
 7662SOL    HW123885   0.565   2.314   3.170
 7662SOL    HW223886   0.621   2.165   3.209
 7663SOL     OW23887   5.270   5.872   6.649
 7663SOL    HW123888   5.349   5.904   6.700
 7663SOL    HW223889   5.296   5.795   6.591
 7664SOL     OW23890   4.035   1.018   3.198
 7664SOL    HW123891   4.049   1.115   3.218
 7664SOL    HW223892   3.941   1.003   3.169
 7665SOL     OW23893   5.619   1.961   3.954
 7665SOL    HW123894   5.522   1.941   3.940
 7665SOL    HW223895   5.646   2.038   3.896
 7666SOL     OW23896   6.581   5.556   4.235
 7666SOL    HW123897   6.659   5.595   4.283
 7666SOL    HW223898   6.600   5.553   4.136
 7667SOL     OW23899   4.504   0.477   2.539
 7667SOL    HW123900   4.407   0.497   2.548
 7667SOL    HW223901   4.557   0.544   2.592
 7668SOL     OW23902   2.646   4.724   0.867
 7668SOL    HW123903   2.691   4.720   0.778
 7668SOL    HW223904   2.625   4.631   0.898
 7669SOL     OW23905   4.320   1.060   5.886
 7669SOL    HW123906   4.321   1.018   5.795
 7669SOL    HW223907   4.412   1.093   5.908
 7670SOL     OW23908   0.774   6.463   0.709
 7670SOL    HW123909   0.866   6.454   0.746
 7670SOL    HW223910   0.731   6.373   0.701
 7671SOL     OW23911   5.195   6.930   2.421
 7671SOL    HW123912   5.135   7.002   2.386
 7671SOL    HW223913   5.185   6.923   2.520
 7672SOL     OW23914   0.171   4.842   3.103
 7672SOL    HW123915   0.238   4.819   3.173
 7672SOL    HW223916   0.083   4.860   3.145
 7673SOL     OW23917   1.562   5.851   2.391
 7673SOL    HW123918   1.643   5.793   2.396
 7673SOL    HW223919   1.580   5.928   2.329
 7674SOL     OW23920   4.358   0.777   4.003
 7674SOL    HW123921   4.339   0.872   4.028
 7674SOL    HW223922   4.282   0.742   3.948
 7675SOL     OW23923   3.755   6.645   3.552
 7675SOL    HW123924   3.744   6.736   3.591
 7675SOL    HW223925   3.690   6.582   3.595
 7676SOL     OW23926   2.837   2.027   5.675
 7676SOL    HW123927   2.920   2.081   5.666
 7676SOL    HW223928   2.765   2.084   5.715
 7677SOL     OW23929   0.409   4.450   0.911
 7677SOL    HW123930   0.445   4.531   0.864
 7677SOL    HW223931   0.441   4.367   0.866
 7678SOL     OW23932   1.792   2.507   5.453
 7678SOL    HW123933   1.747   2.422   5.480
 7678SOL    HW223934   1.847   2.542   5.529
 7679SOL     OW23935   2.104   5.449   5.415
 7679SOL    HW123936   2.039   5.399   5.358
 7679SOL    HW223937   2.192   5.455   5.368
 7680SOL     OW23938   1.740   0.278   5.857
 7680SOL    HW123939   1.836   0.294   5.835
 7680SOL    HW223940   1.712   0.342   5.929
 7681SOL     OW23941   2.819   1.646   6.444
 7681SOL    HW123942   2.798   1.582   6.371
 7681SOL    HW223943   2.847   1.596   6.526
 7682SOL     OW23944   3.933   1.689   2.713
 7682SOL    HW123945   3.960   1.681   2.617
 7682SOL    HW223946   3.868   1.765   2.723
 7683SOL     OW23947   0.716   1.590   4.553
 7683SOL    HW123948   0.754   1.506   4.513
 7683SOL    HW223949   0.709   1.579   4.652
 7684SOL     OW23950   4.272   2.256   1.707
 7684SOL    HW123951   4.270   2.166   1.662
 7684SOL    HW223952   4.296   2.245   1.803
 7685SOL     OW23953   3.537   1.674   0.037
 7685SOL    HW123954   3.611   1.614   0.068
 7685SOL    HW223955   3.488   1.709   0.117
 7686SOL     OW23956   5.435   6.910   4.011
 7686SOL    HW123957   5.376   6.973   4.061
 7686SOL    HW223958   5.465   6.952   3.926
 7687SOL     OW23959   4.757   5.420   4.685
 7687SOL    HW123960   4.730   5.380   4.598
 7687SOL    HW223961   4.676   5.457   4.731
 7688SOL     OW23962   6.895   5.444   5.653
 7688SOL    HW123963   6.943   5.495   5.724
 7688SOL    HW223964   6.930   5.470   5.564
 7689SOL     OW23965   4.676   0.115   1.923
 7689SOL    HW123966   4.737   0.109   2.003
 7689SOL    HW223967   4.653   0.210   1.906
 7690SOL     OW23968   5.632   4.787   0.048
 7690SOL    HW123969   5.647   4.801   0.146
 7690SOL    HW223970   5.602   4.873   0.007
 7691SOL     OW23971   4.489   4.701   2.180
 7691SOL    HW123972   4.484   4.610   2.220
 7691SOL    HW223973   4.560   4.702   2.109
 7692SOL     OW23974   0.872   5.795   1.458
 7692SOL    HW123975   0.932   5.829   1.531
 7692SOL    HW223976   0.805   5.866   1.434
 7693SOL     OW23977   2.970   0.758   1.489
 7693SOL    HW123978   2.871   0.771   1.492
 7693SOL    HW223979   2.996   0.718   1.401
 7694SOL     OW23980   5.627   2.676   4.514
 7694SOL    HW123981   5.562   2.607   4.483
 7694SOL    HW223982   5.586   2.767   4.507
 7695SOL     OW23983   5.093   1.003   1.896
 7695SOL    HW123984   5.132   1.051   1.974
 7695SOL    HW223985   5.113   0.905   1.902
 7696SOL     OW23986   0.606   1.686   6.052
 7696SOL    HW123987   0.631   1.764   5.993
 7696SOL    HW223988   0.666   1.685   6.132
 7697SOL     OW23989   3.298   0.645   2.413
 7697SOL    HW123990   3.370   0.580   2.438
 7697SOL    HW223991   3.231   0.650   2.488
 7698SOL     OW23992   6.686   2.103   6.035
 7698SOL    HW123993   6.757   2.164   6.000
 7698SOL    HW223994   6.693   2.014   5.989
 7699SOL     OW23995   2.504   4.993   6.699
 7699SOL    HW123996   2.416   4.955   6.670
 7699SOL    HW223997   2.544   5.046   6.624
 7700SOL     OW23998   4.334   6.201   3.033
 7700SOL    HW123999   4.412   6.204   2.971
 7700SOL    HW224000   4.249   6.212   2.980
 7701SOL     OW24001   6.845   1.497   6.133
 7701SOL    HW124002   6.768   1.457   6.182
 7701SOL    HW224003   6.920   1.514   6.197
 7702SOL     OW24004   4.285   6.710   5.475
 7702SOL    HW124005   4.368   6.654   5.471
 7702SOL    HW224006   4.206   6.651   5.490
 7703SOL     OW24007   6.436   0.269   5.276
 7703SOL    HW124008   6.436   0.353   5.331
 7703SOL    HW224009   6.462   0.192   5.333
 7704SOL     OW24010   6.407   1.847   4.088
 7704SOL    HW124011   6.384   1.817   4.180
 7704SOL    HW224012   6.419   1.767   4.029
 7705SOL     OW24013   2.602   4.953   0.591
 7705SOL    HW124014   2.689   4.957   0.542
 7705SOL    HW224015   2.553   4.870   0.565
 7706SOL     OW24016   3.293   3.035   3.337
 7706SOL    HW124017   3.318   3.117   3.388
 7706SOL    HW224018   3.367   3.011   3.275
 7707SOL     OW24019   0.071   4.985   6.284
 7707SOL    HW124020   6.998   4.950   6.264
 7707SOL    HW224021   0.087   4.984   6.382
 7708SOL     OW24022   1.061   6.703   3.785
 7708SOL    HW124023   1.091   6.775   3.724
 7708SOL    HW224024   1.089   6.724   3.879
 7709SOL     OW24025   6.468   5.361   1.228
 7709SOL    HW124026   6.520   5.392   1.149
 7709SOL    HW224027   6.393   5.302   1.199
 7710SOL     OW24028   2.271   2.267   0.895
 7710SOL    HW124029   2.234   2.294   0.806
 7710SOL    HW224030   2.211   2.300   0.968
 7711SOL     OW24031   6.845   6.142   6.075
 7711SOL    HW124032   6.919   6.207   6.062
 7711SOL    HW224033   6.834   6.087   5.992
 7712SOL     OW24034   6.354   4.835   6.693
 7712SOL    HW124035   6.386   4.924   6.727
 7712SOL    HW224036   6.300   4.849   6.610
 7713SOL     OW24037   1.631   4.008   0.486
 7713SOL    HW124038   1.602   4.103   0.498
 7713SOL    HW224039   1.569   3.947   0.536
 7714SOL     OW24040   0.283   6.840   5.181
 7714SOL    HW124041   0.317   6.912   5.242
 7714SOL    HW224042   0.214   6.785   5.229
 7715SOL     OW24043   2.699   1.914   6.378
 7715SOL    HW124044   2.645   1.955   6.452
 7715SOL    HW224045   2.693   1.815   6.384
 7716SOL     OW24046   6.841   4.877   6.227
 7716SOL    HW124047   6.759   4.892   6.283
 7716SOL    HW224048   6.828   4.794   6.172
 7717SOL     OW24049   1.534   1.773   5.318
 7717SOL    HW124050   1.610   1.710   5.337
 7717SOL    HW224051   1.458   1.753   5.379
 7718SOL     OW24052   0.636   3.640   2.886
 7718SOL    HW124053   0.691   3.717   2.917
 7718SOL    HW224054   0.664   3.614   2.794
 7719SOL     OW24055   1.590   4.096   4.441
 7719SOL    HW124056   1.572   4.005   4.478
 7719SOL    HW224057   1.671   4.135   4.485
 7720SOL     OW24058   6.262   2.353   6.075
 7720SOL    HW124059   6.331   2.288   6.106
 7720SOL    HW224060   6.281   2.443   6.115
 7721SOL     OW24061   0.994   0.578   2.482
 7721SOL    HW124062   1.082   0.538   2.507
 7721SOL    HW224063   1.010   0.660   2.427
 7722SOL     OW24064   1.844   5.383   4.293
 7722SOL    HW124065   1.902   5.445   4.242
 7722SOL    HW224066   1.899   5.305   4.326
 7723SOL     OW24067   4.998   3.405   6.335
 7723SOL    HW124068   4.952   3.454   6.409
 7723SOL    HW224069   5.083   3.451   6.311
 7724SOL     OW24070   3.336   4.056   0.605
 7724SOL    HW124071   3.292   4.121   0.543
 7724SOL    HW224072   3.389   4.107   0.674
 7725SOL     OW24073   6.140   2.755   2.482
 7725SOL    HW124074   6.056   2.807   2.467
 7725SOL    HW224075   6.157   2.695   2.403
 7726SOL     OW24076   0.939   3.194   5.938
 7726SOL    HW124077   0.907   3.282   5.904
 7726SOL    HW224078   1.026   3.205   5.985
 7727SOL     OW24079   6.204   2.824   1.679
 7727SOL    HW124080   6.143   2.884   1.731
 7727SOL    HW224081   6.214   2.737   1.727
 7728SOL     OW24082   2.266   2.601   5.659
 7728SOL    HW124083   2.272   2.600   5.560
 7728SOL    HW224084   2.334   2.664   5.696
 7729SOL     OW24085   6.426   1.894   2.025
 7729SOL    HW124086   6.382   1.821   2.078
 7729SOL    HW224087   6.415   1.877   1.928
 7730SOL     OW24088   5.699   4.787   4.941
 7730SOL    HW124089   5.746   4.713   4.894
 7730SOL    HW224090   5.601   4.767   4.946
 7731SOL     OW24091   5.856   0.029   0.591
 7731SOL    HW124092   5.880   0.076   0.676
 7731SOL    HW224093   5.809   0.092   0.529
 7732SOL     OW24094   3.861   0.695   0.210
 7732SOL    HW124095   3.779   0.744   0.183
 7732SOL    HW224096   3.900   0.736   0.292
 7733SOL     OW24097   5.904   5.656   2.336
 7733SOL    HW124098   5.918   5.572   2.388
 7733SOL    HW224099   5.810   5.688   2.349
 7734SOL     OW24100   2.406   4.421   5.140
 7734SOL    HW124101   2.425   4.453   5.047
 7734SOL    HW224102   2.486   4.435   5.198
 7735SOL     OW24103   6.401   5.701   0.009
 7735SOL    HW124104   6.481   5.692   6.968
 7735SOL    HW224105   6.348   5.781   7.000
 7736SOL     OW24106   2.624   3.137   0.420
 7736SOL    HW124107   2.566   3.081   0.361
 7736SOL    HW224108   2.658   3.081   0.496
 7737SOL     OW24109   3.390   4.819   1.713
 7737SOL    HW124110   3.459   4.754   1.746
 7737SOL    HW224111   3.374   4.888   1.784
 7738SOL     OW24112   2.101   5.856   6.632
 7738SOL    HW124113   2.156   5.772   6.624
 7738SOL    HW224114   2.004   5.832   6.631
 7739SOL     OW24115   1.309   2.092   2.221
 7739SOL    HW124116   1.366   2.086   2.139
 7739SOL    HW224117   1.365   2.125   2.298
 7740SOL     OW24118   1.808   1.229   2.333
 7740SOL    HW124119   1.809   1.323   2.368
 7740SOL    HW224120   1.882   1.218   2.266
 7741SOL     OW24121   1.618   4.084   5.135
 7741SOL    HW124122   1.648   4.139   5.057
 7741SOL    HW224123   1.658   4.122   5.219
 7742SOL     OW24124   3.704   1.001   3.761
 7742SOL    HW124125   3.620   1.008   3.708
 7742SOL    HW224126   3.783   1.015   3.701
 7743SOL     OW24127   4.428   1.105   6.686
 7743SOL    HW124128   4.460   1.178   6.625
 7743SOL    HW224129   4.427   1.139   6.781
 7744SOL     OW24130   0.441   6.059   3.934
 7744SOL    HW124131   0.445   5.966   3.971
 7744SOL    HW224132   0.534   6.095   3.924
 7745SOL     OW24133   2.424   6.148   0.432
 7745SOL    HW124134   2.397   6.244   0.420
 7745SOL    HW224135   2.345   6.095   0.462
 7746SOL     OW24136   1.375   6.222   0.822
 7746SOL    HW124137   1.344   6.286   0.752
 7746SOL    HW224138   1.312   6.145   0.827
 7747SOL     OW24139   0.243   6.299   0.916
 7747SOL    HW124140   0.342   6.312   0.913
 7747SOL    HW224141   0.212   6.259   0.829
 7748SOL     OW24142   3.342   3.207   5.144
 7748SOL    HW124143   3.313   3.170   5.056
 7748SOL    HW224144   3.435   3.242   5.137
 7749SOL     OW24145   3.216   3.911   3.068
 7749SOL    HW124146   3.133   3.911   3.123
 7749SOL    HW224147   3.202   3.968   2.986
 7750SOL     OW24148   5.273   5.452   5.557
 7750SOL    HW124149   5.181   5.440   5.595
 7750SOL    HW224150   5.271   5.518   5.482
 7751SOL     OW24151   0.349   1.322   3.761
 7751SOL    HW124152   0.299   1.378   3.827
 7751SOL    HW224153   0.437   1.364   3.742
 7752SOL     OW24154   5.666   5.621   5.747
 7752SOL    HW124155   5.577   5.583   5.719
 7752SOL    HW224156   5.681   5.602   5.844
 7753SOL     OW24157   2.341   0.588   4.605
 7753SOL    HW124158   2.303   0.652   4.672
 7753SOL    HW224159   2.441   0.584   4.616
 7754SOL     OW24160   5.262   0.703   1.393
 7754SOL    HW124161   5.203   0.749   1.459
 7754SOL    HW224162   5.306   0.624   1.436
 7755SOL     OW24163   0.744   0.149   5.599
 7755SOL    HW124164   0.713   0.124   5.507
 7755SOL    HW224165   0.809   0.226   5.592
 7756SOL     OW24166   2.289   5.786   2.586
 7756SOL    HW124167   2.253   5.872   2.550
 7756SOL    HW224168   2.275   5.713   2.519
 7757SOL     OW24169   4.696   6.002   4.836
 7757SOL    HW124170   4.776   6.001   4.776
 7757SOL    HW224171   4.700   5.924   4.898
 7758SOL     OW24172   1.685   2.635   6.597
 7758SOL    HW124173   1.767   2.641   6.653
 7758SOL    HW224174   1.609   2.679   6.645
 7759SOL     OW24175   2.275   1.038   4.861
 7759SOL    HW124176   2.369   1.072   4.863
 7759SOL    HW224177   2.238   1.046   4.769
 7760SOL     OW24178   5.819   3.223   2.215
 7760SOL    HW124179   5.856   3.156   2.279
 7760SOL    HW224180   5.799   3.308   2.265
 7761SOL     OW24181   3.020   0.116   6.035
 7761SOL    HW124182   2.986   0.062   5.958
 7761SOL    HW224183   2.945   0.166   6.076
 7762SOL     OW24184   3.948   1.027   5.708
 7762SOL    HW124185   3.882   1.012   5.634
 7762SOL    HW224186   3.985   1.120   5.702
 7763SOL     OW24187   1.065   2.023   1.377
 7763SOL    HW124188   1.116   1.952   1.425
 7763SOL    HW224189   1.095   2.027   1.281
 7764SOL     OW24190   3.804   2.954   2.461
 7764SOL    HW124191   3.825   3.051   2.470
 7764SOL    HW224192   3.890   2.902   2.454
 7765SOL     OW24193   6.438   3.536   4.448
 7765SOL    HW124194   6.499   3.579   4.381
 7765SOL    HW224195   6.486   3.527   4.535
 7766SOL     OW24196   5.326   2.044   6.734
 7766SOL    HW124197   5.293   2.132   6.702
 7766SOL    HW224198   5.425   2.037   6.719
 7767SOL     OW24199   3.858   6.179   3.678
 7767SOL    HW124200   3.828   6.206   3.587
 7767SOL    HW224201   3.780   6.144   3.730
 7768SOL     OW24202   4.065   4.856   2.752
 7768SOL    HW124203   4.075   4.883   2.656
 7768SOL    HW224204   4.125   4.778   2.771
 7769SOL     OW24205   5.023   1.779   1.954
 7769SOL    HW124206   5.037   1.689   1.913
 7769SOL    HW224207   5.049   1.776   2.051
 7770SOL     OW24208   2.343   4.220   2.215
 7770SOL    HW124209   2.391   4.294   2.263
 7770SOL    HW224210   2.318   4.251   2.123
 7771SOL     OW24211   2.739   2.470   5.199
 7771SOL    HW124212   2.820   2.465   5.256
 7771SOL    HW224213   2.663   2.508   5.252
 7772SOL     OW24214   4.857   1.422   3.771
 7772SOL    HW124215   4.873   1.332   3.811
 7772SOL    HW224216   4.760   1.443   3.774
 7773SOL     OW24217   3.191   4.909   5.602
 7773SOL    HW124218   3.102   4.955   5.612
 7773SOL    HW224219   3.177   4.811   5.594
 7774SOL     OW24220   5.514   1.708   6.022
 7774SOL    HW124221   5.541   1.687   5.928
 7774SOL    HW224222   5.571   1.782   6.057
 7775SOL     OW24223   3.815   6.881   2.985
 7775SOL    HW124224   3.767   6.821   3.050
 7775SOL    HW224225   3.887   6.930   3.032
 7776SOL     OW24226   3.354   2.939   6.163
 7776SOL    HW124227   3.437   2.964   6.113
 7776SOL    HW224228   3.286   2.904   6.099
 7777SOL     OW24229   2.516   1.569   5.587
 7777SOL    HW124230   2.484   1.479   5.619
 7777SOL    HW224231   2.547   1.562   5.493
 7778SOL     OW24232   5.036   6.955   7.013
 7778SOL    HW124233   5.078   6.894   0.062
 7778SOL    HW224234   5.073   6.936   6.922
 7779SOL     OW24235   3.741   2.992   0.461
 7779SOL    HW124236   3.707   2.899   0.448
 7779SOL    HW224237   3.726   3.045   0.377
 7780SOL     OW24238   1.793   5.466   4.871
 7780SOL    HW124239   1.714   5.450   4.812
 7780SOL    HW224240   1.764   5.516   4.952
 7781SOL     OW24241   1.140   3.804   6.192
 7781SOL    HW124242   1.068   3.738   6.172
 7781SOL    HW224243   1.218   3.757   6.233
 7782SOL     OW24244   1.851   3.501   5.543
 7782SOL    HW124245   1.816   3.510   5.450
 7782SOL    HW224246   1.916   3.426   5.548
 7783SOL     OW24247   2.901   6.646   6.048
 7783SOL    HW124248   2.986   6.699   6.043
 7783SOL    HW224249   2.852   6.654   5.961
 7784SOL     OW24250   1.896   2.444   0.297
 7784SOL    HW124251   1.845   2.385   0.233
 7784SOL    HW224252   1.836   2.472   0.372
 7785SOL     OW24253   1.748   6.746   3.797
 7785SOL    HW124254   1.786   6.779   3.883
 7785SOL    HW224255   1.822   6.717   3.736
 7786SOL     OW24256   3.362   5.350   6.065
 7786SOL    HW124257   3.286   5.356   6.129
 7786SOL    HW224258   3.381   5.254   6.045
 7787SOL     OW24259   1.945   2.146   5.367
 7787SOL    HW124260   1.969   2.191   5.453
 7787SOL    HW224261   2.015   2.165   5.298
 7788SOL     OW24262   1.371   0.721   1.683
 7788SOL    HW124263   1.289   0.687   1.637
 7788SOL    HW224264   1.378   0.820   1.671
 7789SOL     OW24265   2.600   0.067   1.110
 7789SOL    HW124266   2.508   0.058   1.146
 7789SOL    HW224267   2.665   0.026   1.174
 7790SOL     OW24268   6.425   4.834   2.826
 7790SOL    HW124269   6.400   4.882   2.910
 7790SOL    HW224270   6.471   4.749   2.848
 7791SOL     OW24271   2.697   6.555   3.938
 7791SOL    HW124272   2.620   6.539   4.000
 7791SOL    HW224273   2.700   6.483   3.869
 7792SOL     OW24274   1.103   5.203   5.894
 7792SOL    HW124275   1.029   5.263   5.865
 7792SOL    HW224276   1.183   5.218   5.837
 7793SOL     OW24277   2.013   1.029   6.001
 7793SOL    HW124278   2.046   1.084   6.078
 7793SOL    HW224279   2.046   1.069   5.916
 7794SOL     OW24280   5.242   5.334   4.336
 7794SOL    HW124281   5.183   5.403   4.377
 7794SOL    HW224282   5.185   5.262   4.295
 7795SOL     OW24283   2.310   4.117   5.406
 7795SOL    HW124284   2.307   4.205   5.360
 7795SOL    HW224285   2.336   4.046   5.341
 7796SOL     OW24286   3.400   4.156   4.020
 7796SOL    HW124287   3.492   4.127   4.049
 7796SOL    HW224288   3.408   4.230   3.953
 7797SOL     OW24289   0.640   5.788   2.964
 7797SOL    HW124290   0.670   5.755   3.054
 7797SOL    HW224291   0.720   5.812   2.909
 7798SOL     OW24292   1.586   4.860   6.510
 7798SOL    HW124293   1.515   4.825   6.448
 7798SOL    HW224294   1.673   4.818   6.487
 7799SOL     OW24295   6.717   6.156   1.890
 7799SOL    HW124296   6.740   6.187   1.797
 7799SOL    HW224297   6.618   6.143   1.897
 7800SOL     OW24298   1.172   4.200   1.151
 7800SOL    HW124299   1.220   4.263   1.212
 7800SOL    HW224300   1.172   4.108   1.190
 7801SOL     OW24301   2.472   1.768   1.874
 7801SOL    HW124302   2.548   1.722   1.921
 7801SOL    HW224303   2.502   1.859   1.845
 7802SOL     OW24304   5.706   2.943   1.050
 7802SOL    HW124305   5.644   2.948   1.128
 7802SOL    HW224306   5.731   2.847   1.035
 7803SOL     OW24307   4.262   3.570   5.534
 7803SOL    HW124308   4.266   3.519   5.621
 7803SOL    HW224309   4.310   3.518   5.464
 7804SOL     OW24310   6.260   1.022   3.663
 7804SOL    HW124311   6.213   1.006   3.577
 7804SOL    HW224312   6.193   1.031   3.737
 7805SOL     OW24313   5.280   1.408   1.473
 7805SOL    HW124314   5.367   1.371   1.507
 7805SOL    HW224315   5.235   1.460   1.546
 7806SOL     OW24316   6.083   2.826   5.792
 7806SOL    HW124317   5.988   2.855   5.801
 7806SOL    HW224318   6.133   2.845   5.876
 7807SOL     OW24319   0.132   4.662   6.166
 7807SOL    HW124320   0.083   4.589   6.119
 7807SOL    HW224321   0.127   4.746   6.112
 7808SOL     OW24322   0.355   3.578   4.704
 7808SOL    HW124323   0.286   3.507   4.718
 7808SOL    HW224324   0.436   3.558   4.760
 7809SOL     OW24325   2.264   6.330   5.211
 7809SOL    HW124326   2.225   6.240   5.230
 7809SOL    HW224327   2.191   6.392   5.182
 7810SOL     OW24328   3.679   0.421   5.841
 7810SOL    HW124329   3.702   0.330   5.806
 7810SOL    HW224330   3.698   0.490   5.771
 7811SOL     OW24331   6.755   4.192   4.016
 7811SOL    HW124332   6.685   4.120   4.018
 7811SOL    HW224333   6.817   4.175   3.939
 7812SOL     OW24334   1.213   2.276   3.600
 7812SOL    HW124335   1.141   2.211   3.625
 7812SOL    HW224336   1.302   2.237   3.623
 7813SOL     OW24337   4.788   2.469   5.978
 7813SOL    HW124338   4.712   2.491   6.039
 7813SOL    HW224339   4.839   2.391   6.015
 7814SOL     OW24340   6.709   2.561   3.489
 7814SOL    HW124341   6.701   2.629   3.562
 7814SOL    HW224342   6.783   2.496   3.511
 7815SOL     OW24343   4.926   1.202   6.796
 7815SOL    HW124344   4.827   1.209   6.811
 7815SOL    HW224345   4.973   1.198   6.884
 7816SOL     OW24346   1.928   2.827   6.189
 7816SOL    HW124347   1.883   2.898   6.136
 7816SOL    HW224348   1.862   2.785   6.252
 7817SOL     OW24349   6.479   3.465   3.812
 7817SOL    HW124350   6.540   3.486   3.889
 7817SOL    HW224351   6.496   3.371   3.781
 7818SOL     OW24352   4.462   0.829   2.327
 7818SOL    HW124353   4.464   0.830   2.426
 7818SOL    HW224354   4.478   0.921   2.291
 7819SOL     OW24355   0.193   2.962   1.674
 7819SOL    HW124356   0.125   2.935   1.742
 7819SOL    HW224357   0.260   3.022   1.718
 7820SOL     OW24358   1.869   2.083   4.666
 7820SOL    HW124359   1.924   2.086   4.749
 7820SOL    HW224360   1.830   1.991   4.656
 7821SOL     OW24361   4.588   5.562   1.311
 7821SOL    HW124362   4.584   5.662   1.310
 7821SOL    HW224363   4.680   5.532   1.283
 7822SOL     OW24364   0.255   0.865   4.959
 7822SOL    HW124365   0.163   0.834   4.982
 7822SOL    HW224366   0.252   0.959   4.927
 7823SOL     OW24367   2.165   3.911   4.816
 7823SOL    HW124368   2.228   3.877   4.745
 7823SOL    HW224369   2.216   3.967   4.881
 7824SOL     OW24370   6.567   2.400   4.989
 7824SOL    HW124371   6.639   2.333   5.003
 7824SOL    HW224372   6.484   2.354   4.956
 7825SOL     OW24373   2.288   2.720   0.242
 7825SOL    HW124374   2.228   2.799   0.231
 7825SOL    HW224375   2.237   2.636   0.224
 7826SOL     OW24376   6.326   1.111   0.832
 7826SOL    HW124377   6.400   1.110   0.899
 7826SOL    HW224378   6.307   1.205   0.804
 7827SOL     OW24379   1.260   5.600   1.289
 7827SOL    HW124380   1.186   5.539   1.317
 7827SOL    HW224381   1.339   5.585   1.348
 7828SOL     OW24382   6.256   4.489   0.074
 7828SOL    HW124383   6.264   4.389   0.076
 7828SOL    HW224384   6.265   4.521   6.998
 7829SOL     OW24385   2.786   2.873   1.276
 7829SOL    HW124386   2.727   2.873   1.357
 7829SOL    HW224387   2.732   2.898   1.195
 7830SOL     OW24388   3.311   5.470   5.562
 7830SOL    HW124389   3.383   5.420   5.513
 7830SOL    HW224390   3.326   5.461   5.661
 7831SOL     OW24391   2.080   0.393   2.216
 7831SOL    HW124392   2.105   0.422   2.124
 7831SOL    HW224393   2.046   0.472   2.268
 7832SOL     OW24394   6.124   0.443   4.416
 7832SOL    HW124395   6.099   0.529   4.372
 7832SOL    HW224396   6.058   0.422   4.488
 7833SOL     OW24397   1.397   1.188   4.868
 7833SOL    HW124398   1.437   1.126   4.936
 7833SOL    HW224399   1.418   1.154   4.777
 7834SOL     OW24400   0.099   1.784   3.364
 7834SOL    HW124401   0.117   1.805   3.268
 7834SOL    HW224402   0.142   1.696   3.387
 7835SOL     OW24403   3.949   1.931   4.480
 7835SOL    HW124404   3.904   1.854   4.434
 7835SOL    HW224405   3.885   2.008   4.487
 7836SOL     OW24406   3.371   4.254   5.564
 7836SOL    HW124407   3.273   4.264   5.552
 7836SOL    HW224408   3.418   4.330   5.520
 7837SOL     OW24409   5.362   5.920   0.182
 7837SOL    HW124410   5.410   5.991   0.233
 7837SOL    HW224411   5.377   5.933   0.084
 7838SOL     OW24412   4.641   5.841   1.290
 7838SOL    HW124413   4.673   5.854   1.196
 7838SOL    HW224414   4.547   5.874   1.298
 7839SOL     OW24415   5.691   4.043   4.868
 7839SOL    HW124416   5.677   4.009   4.775
 7839SOL    HW224417   5.605   4.040   4.918
 7840SOL     OW24418   0.431   3.842   4.786
 7840SOL    HW124419   0.384   3.755   4.775
 7840SOL    HW224420   0.492   3.838   4.865
 7841SOL     OW24421   4.287   1.861   6.697
 7841SOL    HW124422   4.312   1.797   6.770
 7841SOL    HW224423   4.188   1.876   6.700
 7842SOL     OW24424   2.058   1.424   2.331
 7842SOL    HW124425   2.127   1.365   2.374
 7842SOL    HW224426   2.053   1.403   2.233
 7843SOL     OW24427   0.284   6.746   4.285
 7843SOL    HW124428   0.280   6.687   4.366
 7843SOL    HW224429   0.345   6.706   4.217
 7844SOL     OW24430   3.985   0.277   2.362
 7844SOL    HW124431   3.953   0.361   2.319
 7844SOL    HW224432   3.911   0.210   2.364
 7845SOL     OW24433   5.331   1.924   1.801
 7845SOL    HW124434   5.332   2.022   1.779
 7845SOL    HW224435   5.248   1.882   1.765
 7846SOL     OW24436   1.367   2.220   0.597
 7846SOL    HW124437   1.310   2.264   0.528
 7846SOL    HW224438   1.454   2.269   0.605
 7847SOL     OW24439   6.165   1.735   3.845
 7847SOL    HW124440   6.156   1.834   3.837
 7847SOL    HW224441   6.080   1.692   3.814
 7848SOL     OW24442   3.269   4.293   0.847
 7848SOL    HW124443   3.185   4.346   0.835
 7848SOL    HW224444   3.347   4.346   0.812
 7849SOL     OW24445   5.846   3.597   5.050
 7849SOL    HW124446   5.926   3.624   4.995
 7849SOL    HW224447   5.790   3.533   4.999
 7850SOL     OW24448   0.205   2.117   4.003
 7850SOL    HW124449   0.302   2.113   4.025
 7850SOL    HW224450   0.193   2.151   3.910
 7851SOL     OW24451   0.669   2.751   1.760
 7851SOL    HW124452   0.709   2.681   1.700
 7851SOL    HW224453   0.659   2.714   1.852
 7852SOL     OW24454   2.757   0.661   0.356
 7852SOL    HW124455   2.706   0.693   0.277
 7852SOL    HW224456   2.838   0.717   0.369
 7853SOL     OW24457   4.579   3.082   1.367
 7853SOL    HW124458   4.637   3.001   1.362
 7853SOL    HW224459   4.633   3.163   1.344
 7854SOL     OW24460   3.829   2.574   6.213
 7854SOL    HW124461   3.908   2.522   6.245
 7854SOL    HW224462   3.799   2.539   6.125
 7855SOL     OW24463   4.633   5.815   4.571
 7855SOL    HW124464   4.724   5.789   4.538
 7855SOL    HW224465   4.610   5.906   4.536
 7856SOL     OW24466   1.080   4.916   5.443
 7856SOL    HW124467   1.099   4.961   5.356
 7856SOL    HW224468   1.035   4.828   5.425
 7857SOL     OW24469   4.891   3.736   0.260
 7857SOL    HW124470   4.930   3.644   0.251
 7857SOL    HW224471   4.807   3.742   0.206
 7858SOL     OW24472   6.700   6.186   4.696
 7858SOL    HW124473   6.701   6.100   4.748
 7858SOL    HW224474   6.606   6.210   4.673
 7859SOL     OW24475   4.651   3.485   6.752
 7859SOL    HW124476   4.577   3.419   6.766
 7859SOL    HW224477   4.733   3.453   6.800
 7860SOL     OW24478   3.916   1.295   4.189
 7860SOL    HW124479   3.932   1.386   4.151
 7860SOL    HW224480   3.882   1.234   4.118
 7861SOL     OW24481   2.809   5.098   2.034
 7861SOL    HW124482   2.720   5.128   1.999
 7861SOL    HW224483   2.842   5.022   1.979
 7862SOL     OW24484   2.821   5.868   1.973
 7862SOL    HW124485   2.724   5.860   1.997
 7862SOL    HW224486   2.842   5.806   1.898
 7863SOL     OW24487   0.524   4.648   3.596
 7863SOL    HW124488   0.499   4.625   3.689
 7863SOL    HW224489   0.442   4.667   3.542
 7864SOL     OW24490   1.456   5.571   6.249
 7864SOL    HW124491   1.374   5.622   6.274
 7864SOL    HW224492   1.444   5.474   6.272
 7865SOL     OW24493   6.211   5.816   4.079
 7865SOL    HW124494   6.246   5.820   4.173
 7865SOL    HW224495   6.277   5.769   4.021
 7866SOL     OW24496   2.033   0.632   5.464
 7866SOL    HW124497   2.048   0.639   5.365
 7866SOL    HW224498   2.066   0.544   5.497
 7867SOL     OW24499   5.711   6.771   3.428
 7867SOL    HW124500   5.708   6.811   3.519
 7867SOL    HW224501   5.779   6.819   3.372
 7868SOL     OW24502   3.628   5.803   0.750
 7868SOL    HW124503   3.639   5.902   0.761
 7868SOL    HW224504   3.648   5.777   0.655
 7869SOL     OW24505   5.165   4.593   5.677
 7869SOL    HW124506   5.165   4.649   5.760
 7869SOL    HW224507   5.073   4.559   5.660
 7870SOL     OW24508   4.946   7.001   4.484
 7870SOL    HW124509   5.033   7.014   4.437
 7870SOL    HW224510   4.946   0.035   4.569
 7871SOL     OW24511   5.820   1.925   1.804
 7871SOL    HW124512   5.846   1.841   1.758
 7871SOL    HW224513   5.738   1.909   1.859
 7872SOL     OW24514   1.684   4.427   2.384
 7872SOL    HW124515   1.702   4.344   2.437
 7872SOL    HW224516   1.749   4.434   2.309
 7873SOL     OW24517   6.418   0.993   0.374
 7873SOL    HW124518   6.513   1.015   0.352
 7873SOL    HW224519   6.358   1.066   0.341
 7874SOL     OW24520   5.313   2.687   1.326
 7874SOL    HW124521   5.364   2.602   1.316
 7874SOL    HW224522   5.374   2.764   1.306
 7875SOL     OW24523   3.956   3.392   0.638
 7875SOL    HW124524   4.031   3.341   0.681
 7875SOL    HW224525   3.869   3.350   0.661
 7876SOL     OW24526   1.033   0.106   3.597
 7876SOL    HW124527   0.942   0.146   3.603
 7876SOL    HW224528   1.100   0.172   3.631
 7877SOL     OW24529   6.805   2.164   2.882
 7877SOL    HW124530   6.709   2.138   2.866
 7877SOL    HW224531   6.858   2.144   2.800
 7878SOL     OW24532   4.760   4.029   3.431
 7878SOL    HW124533   4.725   4.092   3.362
 7878SOL    HW224534   4.690   4.009   3.499
 7879SOL     OW24535   3.380   4.880   2.859
 7879SOL    HW124536   3.368   4.889   2.760
 7879SOL    HW224537   3.422   4.791   2.879
 7880SOL     OW24538   2.346   3.748   1.059
 7880SOL    HW124539   2.400   3.689   0.999
 7880SOL    HW224540   2.360   3.843   1.032
 7881SOL     OW24541   4.644   4.315   4.421
 7881SOL    HW124542   4.721   4.272   4.468
 7881SOL    HW224543   4.562   4.260   4.435
 7882SOL     OW24544   2.506   3.730   1.433
 7882SOL    HW124545   2.457   3.803   1.385
 7882SOL    HW224546   2.456   3.705   1.516
 7883SOL     OW24547   1.106   0.207   5.784
 7883SOL    HW124548   1.170   0.280   5.761
 7883SOL    HW224549   1.028   0.245   5.834
 7884SOL     OW24550   0.890   4.573   4.226
 7884SOL    HW124551   0.831   4.643   4.186
 7884SOL    HW224552   0.883   4.489   4.171
 7885SOL     OW24553   6.383   5.812   0.840
 7885SOL    HW124554   6.417   5.890   0.893
 7885SOL    HW224555   6.423   5.728   0.876
 7886SOL     OW24556   4.064   5.804   0.377
 7886SOL    HW124557   4.017   5.726   0.419
 7886SOL    HW224558   4.149   5.823   0.426
 7887SOL     OW24559   3.367   2.382   0.007
 7887SOL    HW124560   3.307   2.461   0.015
 7887SOL    HW224561   3.358   2.324   0.088
 7888SOL     OW24562   4.974   0.753   3.800
 7888SOL    HW124563   4.989   0.743   3.898
 7888SOL    HW224564   4.970   0.850   3.776
 7889SOL     OW24565   1.494   5.532   1.450
 7889SOL    HW124566   1.559   5.522   1.375
 7889SOL    HW224567   1.542   5.564   1.532
 7890SOL     OW24568   2.112   3.871   2.427
 7890SOL    HW124569   2.134   3.968   2.441
 7890SOL    HW224570   2.143   3.843   2.336
 7891SOL     OW24571   2.174   4.952   2.608
 7891SOL    HW124572   2.247   4.908   2.556
 7891SOL    HW224573   2.102   4.885   2.627
 7892SOL     OW24574   2.187   2.308   4.793
 7892SOL    HW124575   2.093   2.297   4.761
 7892SOL    HW224576   2.187   2.330   4.890
 7893SOL     OW24577   6.186   6.913   1.699
 7893SOL    HW124578   6.258   6.982   1.702
 7893SOL    HW224579   6.210   6.837   1.759
 7894SOL     OW24580   2.409   6.167   2.041
 7894SOL    HW124581   2.474   6.175   2.116
 7894SOL    HW224582   2.350   6.087   2.056
 7895SOL     OW24583   6.327   1.432   5.506
 7895SOL    HW124584   6.249   1.471   5.457
 7895SOL    HW224585   6.355   1.495   5.579
 7896SOL     OW24586   4.710   3.907   6.087
 7896SOL    HW124587   4.639   3.939   6.025
 7896SOL    HW224588   4.748   3.985   6.137
 7897SOL     OW24589   2.677   3.784   6.166
 7897SOL    HW124590   2.729   3.786   6.080
 7897SOL    HW224591   2.611   3.859   6.166
 7898SOL     OW24592   4.776   2.353   3.607
 7898SOL    HW124593   4.680   2.338   3.584
 7898SOL    HW224594   4.822   2.400   3.531
 7899SOL     OW24595   6.670   1.899   1.297
 7899SOL    HW124596   6.667   1.948   1.210
 7899SOL    HW224597   6.668   1.800   1.281
 7900SOL     OW24598   1.274   5.013   1.057
 7900SOL    HW124599   1.314   4.942   1.114
 7900SOL    HW224600   1.180   4.988   1.033
 7901SOL     OW24601   5.329   0.254   5.892
 7901SOL    HW124602   5.310   0.223   5.798
 7901SOL    HW224603   5.360   0.176   5.946
 7902SOL     OW24604   5.002   5.221   1.375
 7902SOL    HW124605   5.026   5.134   1.418
 7902SOL    HW224606   4.972   5.286   1.444
 7903SOL     OW24607   6.153   2.028   0.415
 7903SOL    HW124608   6.102   1.955   0.460
 7903SOL    HW224609   6.151   2.110   0.473
 7904SOL     OW24610   6.444   0.775   2.885
 7904SOL    HW124611   6.420   0.735   2.796
 7904SOL    HW224612   6.482   0.703   2.944
 7905SOL     OW24613   4.972   1.776   0.674
 7905SOL    HW124614   4.931   1.798   0.586
 7905SOL    HW224615   5.012   1.858   0.714
 7906SOL     OW24616   6.864   6.049   6.741
 7906SOL    HW124617   6.944   6.098   6.775
 7906SOL    HW224618   6.865   6.046   6.641
 7907SOL     OW24619   6.277   2.640   4.333
 7907SOL    HW124620   6.181   2.623   4.353
 7907SOL    HW224621   6.332   2.562   4.365
 7908SOL     OW24622   1.524   1.005   3.977
 7908SOL    HW124623   1.596   0.944   3.943
 7908SOL    HW224624   1.544   1.098   3.947
 7909SOL     OW24625   4.945   3.783   4.923
 7909SOL    HW124626   4.904   3.706   4.972
 7909SOL    HW224627   4.963   3.757   4.828
 7910SOL     OW24628   3.581   2.936   5.402
 7910SOL    HW124629   3.643   2.961   5.327
 7910SOL    HW224630   3.551   2.842   5.390
 7911SOL     OW24631   0.244   4.840   0.248
 7911SOL    HW124632   0.239   4.768   0.317
 7911SOL    HW224633   0.154   4.881   0.236
 7912SOL     OW24634   6.880   5.396   6.873
 7912SOL    HW124635   6.902   5.301   6.895
 7912SOL    HW224636   6.783   5.412   6.892
 7913SOL     OW24637   0.393   5.653   6.750
 7913SOL    HW124638   0.471   5.596   6.775
 7913SOL    HW224639   0.310   5.615   6.791
 7914SOL     OW24640   6.877   5.270   0.133
 7914SOL    HW124641   6.822   5.243   0.212
 7914SOL    HW224642   6.819   5.278   0.052
 7915SOL     OW24643   5.124   2.556   2.457
 7915SOL    HW124644   5.148   2.653   2.448
 7915SOL    HW224645   5.035   2.540   2.414
 7916SOL     OW24646   5.520   3.832   5.273
 7916SOL    HW124647   5.589   3.892   5.316
 7916SOL    HW224648   5.486   3.875   5.190
 7917SOL     OW24649   3.797   2.941   3.652
 7917SOL    HW124650   3.791   2.919   3.749
 7917SOL    HW224651   3.707   2.967   3.618
 7918SOL     OW24652   6.076   1.645   1.493
 7918SOL    HW124653   5.985   1.660   1.532
 7918SOL    HW224654   6.133   1.725   1.510
 7919SOL     OW24655   6.873   4.095   3.324
 7919SOL    HW124656   6.833   4.031   3.258
 7919SOL    HW224657   6.879   4.186   3.284
 7920SOL     OW24658   6.806   5.127   0.993
 7920SOL    HW124659   6.843   5.216   1.023
 7920SOL    HW224660   6.716   5.114   1.033
 7921SOL     OW24661   3.456   6.601   0.647
 7921SOL    HW124662   3.406   6.629   0.566
 7921SOL    HW224663   3.397   6.608   0.727
 7922SOL     OW24664   6.892   5.836   0.026
 7922SOL    HW124665   6.922   5.792   6.960
 7922SOL    HW224666   6.794   5.857   0.019
 7923SOL     OW24667   1.754   1.041   2.981
 7923SOL    HW124668   1.767   1.136   3.008
 7923SOL    HW224669   1.807   0.981   3.042
 7924SOL     OW24670   3.508   6.379   3.469
 7924SOL    HW124671   3.575   6.356   3.398
 7924SOL    HW224672   3.548   6.446   3.532
 7925SOL     OW24673   6.913   1.861   6.643
 7925SOL    HW124674   6.819   1.896   6.636
 7925SOL    HW224675   6.937   1.813   6.559
 7926SOL     OW24676   3.749   0.616   3.645
 7926SOL    HW124677   3.652   0.640   3.657
 7926SOL    HW224678   3.799   0.637   3.729
 7927SOL     OW24679   3.896   5.470   4.659
 7927SOL    HW124680   3.881   5.480   4.758
 7927SOL    HW224681   3.975   5.524   4.631
 7928SOL     OW24682   1.279   4.198   3.216
 7928SOL    HW124683   1.266   4.102   3.239
 7928SOL    HW224684   1.337   4.242   3.284
 7929SOL     OW24685   4.132   3.718   4.918
 7929SOL    HW124686   4.145   3.621   4.899
 7929SOL    HW224687   4.153   3.771   4.835
 7930SOL     OW24688   5.126   5.936   3.462
 7930SOL    HW124689   5.031   5.925   3.431
 7930SOL    HW224690   5.180   5.978   3.389
 7931SOL     OW24691   1.790   2.250   0.102
 7931SOL    HW124692   1.751   2.159   0.119
 7931SOL    HW224693   1.876   2.241   0.052
 7932SOL     OW24694   2.556   6.986   6.837
 7932SOL    HW124695   2.550   6.959   6.934
 7932SOL    HW224696   2.584   0.063   6.830
 7933SOL     OW24697   0.437   6.948   0.226
 7933SOL    HW124698   0.367   6.877   0.228
 7933SOL    HW224699   0.512   6.923   0.287
 7934SOL     OW24700   2.570   3.367   0.021
 7934SOL    HW124701   2.592   3.464   0.011
 7934SOL    HW224702   2.533   3.351   0.113
 7935SOL     OW24703   5.163   5.641   6.983
 7935SOL    HW124704   5.107   5.565   7.014
 7935SOL    HW224705   5.132   5.725   0.010
 7936SOL     OW24706   3.272   5.715   3.119
 7936SOL    HW124707   3.369   5.730   3.100
 7936SOL    HW224708   3.240   5.636   3.067
 7937SOL     OW24709   5.184   0.016   4.379
 7937SOL    HW124710   5.185   0.115   4.367
 7937SOL    HW224711   5.277   7.002   4.392
 7938SOL     OW24712   4.978   5.067   4.879
 7938SOL    HW124713   5.004   5.008   4.802
 7938SOL    HW224714   4.996   5.019   4.965
 7939SOL     OW24715   0.991   1.780   5.958
 7939SOL    HW124716   1.054   1.714   5.916
 7939SOL    HW224717   0.902   1.774   5.913
 7940SOL     OW24718   2.514   5.142   1.953
 7940SOL    HW124719   2.483   5.153   2.047
 7940SOL    HW224720   2.436   5.114   1.896
 7941SOL     OW24721   6.651   0.059   1.070
 7941SOL    HW124722   6.573   0.040   1.009
 7941SOL    HW224723   6.660   0.157   1.083
 7942SOL     OW24724   0.162   6.705   2.819
 7942SOL    HW124725   0.221   6.681   2.896
 7942SOL    HW224726   0.218   6.722   2.738
 7943SOL     OW24727   5.757   2.134   1.281
 7943SOL    HW124728   5.827   2.155   1.349
 7943SOL    HW224729   5.779   2.046   1.237
 7944SOL     OW24730   0.179   3.581   0.991
 7944SOL    HW124731   0.125   3.548   1.068
 7944SOL    HW224732   0.179   3.513   0.918
 7945SOL     OW24733   5.183   0.200   2.651
 7945SOL    HW124734   5.126   0.263   2.703
 7945SOL    HW224735   5.147   0.191   2.558
 7946SOL     OW24736   1.357   2.133   6.043
 7946SOL    HW124737   1.452   2.130   6.013
 7946SOL    HW224738   1.303   2.067   5.991
 7947SOL     OW24739   3.914   2.890   6.680
 7947SOL    HW124740   3.969   2.890   6.596
 7947SOL    HW224741   3.825   2.851   6.662
 7948SOL     OW24742   6.759   6.742   1.021
 7948SOL    HW124743   6.849   6.773   1.052
 7948SOL    HW224744   6.697   6.741   1.099
 7949SOL     OW24745   5.160   5.152   4.152
 7949SOL    HW124746   5.226   5.094   4.199
 7949SOL    HW224747   5.130   5.106   4.068
 7950SOL     OW24748   4.645   5.038   3.657
 7950SOL    HW124749   4.703   4.959   3.674
 7950SOL    HW224750   4.572   5.013   3.593
 7951SOL     OW24751   2.917   3.395   1.064
 7951SOL    HW124752   2.845   3.349   1.116
 7951SOL    HW224753   2.885   3.413   0.971
 7952SOL     OW24754   6.911   3.299   6.586
 7952SOL    HW124755   6.996   3.295   6.637
 7952SOL    HW224756   6.878   3.206   6.568
 7953SOL     OW24757   2.301   2.752   3.107
 7953SOL    HW124758   2.229   2.691   3.139
 7953SOL    HW224759   2.355   2.706   3.036
 7954SOL     OW24760   4.474   5.314   4.528
 7954SOL    HW124761   4.498   5.301   4.432
 7954SOL    HW224762   4.451   5.410   4.544
 7955SOL     OW24763   0.084   6.627   6.276
 7955SOL    HW124764   0.124   6.613   6.367
 7955SOL    HW224765   0.042   6.542   6.245
 7956SOL     OW24766   0.614   5.603   3.257
 7956SOL    HW124767   0.658   5.670   3.317
 7956SOL    HW224768   0.563   5.537   3.313
 7957SOL     OW24769   1.855   1.862   0.676
 7957SOL    HW124770   1.943   1.860   0.628
 7957SOL    HW224771   1.783   1.892   0.614
 7958SOL     OW24772   3.341   5.654   4.478
 7958SOL    HW124773   3.297   5.742   4.460
 7958SOL    HW224774   3.353   5.605   4.392
 7959SOL     OW24775   4.222   4.988   0.420
 7959SOL    HW124776   4.305   5.033   0.387
 7959SOL    HW224777   4.178   4.939   0.344
 7960SOL     OW24778   3.595   1.882   1.543
 7960SOL    HW124779   3.578   1.890   1.445
 7960SOL    HW224780   3.621   1.971   1.580
 7961SOL     OW24781   2.291   6.121   6.294
 7961SOL    HW124782   2.378   6.161   6.268
 7961SOL    HW224783   2.216   6.180   6.263
 7962SOL     OW24784   2.176   0.398   1.150
 7962SOL    HW124785   2.169   0.354   1.060
 7962SOL    HW224786   2.202   0.329   1.218
 7963SOL     OW24787   0.022   1.505   4.591
 7963SOL    HW124788   0.010   1.406   4.582
 7963SOL    HW224789   0.064   1.541   4.508
 7964SOL     OW24790   5.766   5.503   3.768
 7964SOL    HW124791   5.828   5.427   3.749
 7964SOL    HW224792   5.744   5.505   3.866
 7965SOL     OW24793   4.292   3.045   0.063
 7965SOL    HW124794   4.298   2.991   0.147
 7965SOL    HW224795   4.195   3.062   0.042
 7966SOL     OW24796   1.116   3.619   4.807
 7966SOL    HW124797   1.105   3.711   4.842
 7966SOL    HW224798   1.041   3.561   4.841
 7967SOL     OW24799   2.842   6.394   3.611
 7967SOL    HW124800   2.918   6.333   3.587
 7967SOL    HW224801   2.760   6.366   3.562
 7968SOL     OW24802   2.316   2.845   3.409
 7968SOL    HW124803   2.316   2.823   3.311
 7968SOL    HW224804   2.407   2.825   3.447
 7969SOL     OW24805   4.056   6.880   2.021
 7969SOL    HW124806   4.002   6.915   2.097
 7969SOL    HW224807   4.044   6.939   1.941
 7970SOL     OW24808   0.142   3.709   2.612
 7970SOL    HW124809   0.070   3.769   2.646
 7970SOL    HW224810   0.115   3.614   2.625
 7971SOL     OW24811   3.257   1.050   1.569
 7971SOL    HW124812   3.338   1.096   1.534
 7971SOL    HW224813   3.185   1.117   1.586
 7972SOL     OW24814   6.655   4.340   1.290
 7972SOL    HW124815   6.657   4.434   1.327
 7972SOL    HW224816   6.583   4.288   1.337
 7973SOL     OW24817   5.295   3.521   3.779
 7973SOL    HW124818   5.308   3.591   3.709
 7973SOL    HW224819   5.221   3.459   3.751
 7974SOL     OW24820   6.318   0.717   4.561
 7974SOL    HW124821   6.282   0.713   4.468
 7974SOL    HW224822   6.388   0.646   4.573
 7975SOL     OW24823   5.283   0.564   4.105
 7975SOL    HW124824   5.190   0.601   4.116
 7975SOL    HW224825   5.277   0.472   4.067
 7976SOL     OW24826   0.530   6.485   5.478
 7976SOL    HW124827   0.445   6.472   5.427
 7976SOL    HW224828   0.517   6.556   5.547
 7977SOL     OW24829   4.278   5.889   2.773
 7977SOL    HW124830   4.209   5.885   2.845
 7977SOL    HW224831   4.246   5.949   2.700
 7978SOL     OW24832   5.649   4.241   6.153
 7978SOL    HW124833   5.566   4.257   6.206
 7978SOL    HW224834   5.627   4.242   6.055
 7979SOL     OW24835   3.100   0.338   5.014
 7979SOL    HW124836   3.064   0.321   5.105
 7979SOL    HW224837   3.200   0.328   5.015
 7980SOL     OW24838   3.684   5.483   0.221
 7980SOL    HW124839   3.668   5.417   0.148
 7980SOL    HW224840   3.727   5.436   0.299
 7981SOL     OW24841   0.890   5.157   1.375
 7981SOL    HW124842   0.961   5.088   1.392
 7981SOL    HW224843   0.801   5.119   1.400
 7982SOL     OW24844   0.193   2.463   0.983
 7982SOL    HW124845   0.128   2.528   0.944
 7982SOL    HW224846   0.259   2.436   0.914
 7983SOL     OW24847   5.425   2.239   3.402
 7983SOL    HW124848   5.471   2.199   3.481
 7983SOL    HW224849   5.461   2.200   3.318
 7984SOL     OW24850   1.316   1.802   2.023
 7984SOL    HW124851   1.326   1.882   1.964
 7984SOL    HW224852   1.247   1.820   2.093
 7985SOL     OW24853   1.679   0.218   2.734
 7985SOL    HW124854   1.694   0.312   2.703
 7985SOL    HW224855   1.632   0.166   2.662
 7986SOL     OW24856   3.590   1.290   0.079
 7986SOL    HW124857   3.492   1.290   0.063
 7986SOL    HW224858   3.627   1.199   0.062
 7987SOL     OW24859   0.483   3.702   6.057
 7987SOL    HW124860   0.562   3.641   6.049
 7987SOL    HW224861   0.462   3.717   6.153
 7988SOL     OW24862   2.499   2.467   4.493
 7988SOL    HW124863   2.527   2.469   4.397
 7988SOL    HW224864   2.572   2.428   4.548
 7989SOL     OW24865   3.508   2.686   5.318
 7989SOL    HW124866   3.582   2.622   5.295
 7989SOL    HW224867   3.425   2.661   5.267
 7990SOL     OW24868   0.877   3.796   3.027
 7990SOL    HW124869   0.880   3.748   3.114
 7990SOL    HW224870   0.931   3.880   3.033
 7991SOL     OW24871   0.111   2.489   5.985
 7991SOL    HW124872   0.208   2.474   5.966
 7991SOL    HW224873   0.075   2.558   5.922
 7992SOL     OW24874   0.971   5.864   0.967
 7992SOL    HW124875   0.988   5.839   1.062
 7992SOL    HW224876   1.012   5.796   0.907
 7993SOL     OW24877   2.163   5.567   6.640
 7993SOL    HW124878   2.206   5.542   6.727
 7993SOL    HW224879   2.234   5.595   6.575
 7994SOL     OW24880   4.505   0.614   3.558
 7994SOL    HW124881   4.587   0.649   3.604
 7994SOL    HW224882   4.484   0.522   3.592
 7995SOL     OW24883   3.583   5.272   3.753
 7995SOL    HW124884   3.630   5.290   3.839
 7995SOL    HW224885   3.574   5.173   3.741
 7996SOL     OW24886   3.368   6.312   4.359
 7996SOL    HW124887   3.411   6.303   4.269
 7996SOL    HW224888   3.368   6.408   4.386
 7997SOL     OW24889   6.271   1.888   1.191
 7997SOL    HW124890   6.318   1.932   1.268
 7997SOL    HW224891   6.334   1.880   1.114
 7998SOL     OW24892   4.458   5.157   0.324
 7998SOL    HW124893   4.456   5.251   0.356
 7998SOL    HW224894   4.411   5.150   0.236
 7999SOL     OW24895   1.329   6.657   6.064
 7999SOL    HW124896   1.408   6.707   6.030
 7999SOL    HW224897   1.316   6.677   6.161
 8000SOL     OW24898   5.678   0.489   6.129
 8000SOL    HW124899   5.682   0.392   6.152
 8000SOL    HW224900   5.593   0.528   6.165
 8001SOL     OW24901   3.046   6.189   1.779
 8001SOL    HW124902   3.064   6.255   1.853
 8001SOL    HW224903   3.119   6.121   1.777
 8002SOL     OW24904   0.213   3.216   6.003
 8002SOL    HW124905   0.197   3.126   5.962
 8002SOL    HW224906   0.149   3.282   5.965
 8003SOL     OW24907   2.763   4.783   2.502
 8003SOL    HW124908   2.805   4.780   2.411
 8003SOL    HW224909   2.687   4.849   2.502
 8004SOL     OW24910   1.870   4.712   3.336
 8004SOL    HW124911   1.894   4.696   3.240
 8004SOL    HW224912   1.907   4.638   3.392
 8005SOL     OW24913   3.486   1.179   2.184
 8005SOL    HW124914   3.474   1.081   2.196
 8005SOL    HW224915   3.433   1.229   2.253
 8006SOL     OW24916   2.656   5.784   0.632
 8006SOL    HW124917   2.735   5.798   0.693
 8006SOL    HW224918   2.658   5.853   0.560
 8007SOL     OW24919   0.770   0.553   4.064
 8007SOL    HW124920   0.719   0.556   3.978
 8007SOL    HW224921   0.732   0.481   4.122
 8008SOL     OW24922   5.024   6.816   6.277
 8008SOL    HW124923   5.083   6.738   6.301
 8008SOL    HW224924   4.930   6.783   6.266
 8009SOL     OW24925   6.445   0.442   2.803
 8009SOL    HW124926   6.435   0.364   2.742
 8009SOL    HW224927   6.437   0.527   2.751
 8010SOL     OW24928   1.883   1.480   6.917
 8010SOL    HW124929   1.877   1.462   6.819
 8010SOL    HW224930   1.977   1.469   6.948
 8011SOL     OW24931   1.925   2.467   1.586
 8011SOL    HW124932   2.018   2.442   1.610
 8011SOL    HW224933   1.918   2.566   1.575
 8012SOL     OW24934   1.693   6.003   1.117
 8012SOL    HW124935   1.658   6.080   1.170
 8012SOL    HW224936   1.618   5.943   1.091
 8013SOL     OW24937   0.147   5.362   4.701
 8013SOL    HW124938   0.066   5.416   4.722
 8013SOL    HW224939   0.159   5.355   4.602
 8014SOL     OW24940   1.321   6.032   5.600
 8014SOL    HW124941   1.281   5.944   5.626
 8014SOL    HW224942   1.251   6.088   5.555
 8015SOL     OW24943   3.073   1.833   0.427
 8015SOL    HW124944   3.041   1.760   0.487
 8015SOL    HW224945   3.173   1.834   0.425
 8016SOL     OW24946   4.855   0.266   0.342
 8016SOL    HW124947   4.839   0.180   0.389
 8016SOL    HW224948   4.852   0.251   0.243
 8017SOL     OW24949   0.169   4.460   5.874
 8017SOL    HW124950   0.260   4.422   5.887
 8017SOL    HW224951   0.175   4.560   5.871
 8018SOL     OW24952   4.779   1.861   5.983
 8018SOL    HW124953   4.689   1.866   5.939
 8018SOL    HW224954   4.829   1.946   5.966
 8019SOL     OW24955   1.904   3.888   0.005
 8019SOL    HW124956   1.852   3.936   0.075
 8019SOL    HW224957   1.958   3.953   6.970
 8020SOL     OW24958   5.764   6.331   6.859
 8020SOL    HW124959   5.805   6.276   6.786
 8020SOL    HW224960   5.836   6.365   6.919
 8021SOL     OW24961   0.692   1.725   2.002
 8021SOL    HW124962   0.759   1.653   2.023
 8021SOL    HW224963   0.729   1.785   1.931
 8022SOL     OW24964   4.196   1.196   2.914
 8022SOL    HW124965   4.253   1.187   2.996
 8022SOL    HW224966   4.245   1.161   2.835
 8023SOL     OW24967   5.925   6.202   3.022
 8023SOL    HW124968   5.928   6.279   3.086
 8023SOL    HW224969   6.007   6.203   2.965
 8024SOL     OW24970   3.260   5.405   6.695
 8024SOL    HW124971   3.286   5.358   6.611
 8024SOL    HW224972   3.194   5.477   6.674
 8025SOL     OW24973   3.646   6.372   5.677
 8025SOL    HW124974   3.737   6.407   5.702
 8025SOL    HW224975   3.602   6.334   5.758
 8026SOL     OW24976   0.298   3.903   6.755
 8026SOL    HW124977   0.218   3.859   6.716
 8026SOL    HW224978   0.284   4.002   6.759
 8027SOL     OW24979   4.466   2.208   5.323
 8027SOL    HW124980   4.462   2.147   5.402
 8027SOL    HW224981   4.561   2.232   5.304
 8028SOL     OW24982   3.430   4.714   5.302
 8028SOL    HW124983   3.365   4.640   5.324
 8028SOL    HW224984   3.523   4.678   5.307
 8029SOL     OW24985   5.480   3.864   6.431
 8029SOL    HW124986   5.561   3.921   6.414
 8029SOL    HW224987   5.496   3.772   6.396
 8030SOL     OW24988   5.788   3.999   5.696
 8030SOL    HW124989   5.727   3.926   5.726
 8030SOL    HW224990   5.746   4.088   5.715
 8031SOL     OW24991   4.981   5.894   2.158
 8031SOL    HW124992   4.989   5.807   2.109
 8031SOL    HW224993   5.064   5.911   2.210
 8032SOL     OW24994   6.084   3.944   5.173
 8032SOL    HW124995   6.135   3.859   5.185
 8032SOL    HW224996   6.063   3.957   5.076
 8033SOL     OW24997   5.474   3.027   0.130
 8033SOL    HW124998   5.431   2.952   0.080
 8033SOL    HW224999   5.573   3.012   0.136
 8034SOL     OW25000   6.333   1.077   5.159
 8034SOL    HW125001   6.317   1.173   5.179
 8034SOL    HW225002   6.355   1.028   5.243
 8035SOL     OW25003   5.367   0.120   4.863
 8035SOL    HW125004   5.462   0.150   4.851
 8035SOL    HW225005   5.310   0.160   4.791
 8036SOL     OW25006   1.165   3.563   1.602
 8036SOL    HW125007   1.103   3.486   1.587
 8036SOL    HW225008   1.244   3.532   1.655
 8037SOL     OW25009   1.541   3.330   1.870
 8037SOL    HW125010   1.634   3.356   1.844
 8037SOL    HW225011   1.475   3.374   1.810
 8038SOL     OW25012   5.334   2.139   2.923
 8038SOL    HW125013   5.386   2.102   2.846
 8038SOL    HW225014   5.238   2.146   2.898
 8039SOL     OW25015   2.069   6.760   3.314
 8039SOL    HW125016   2.122   6.804   3.241
 8039SOL    HW225017   2.126   6.750   3.395
 8040SOL     OW25018   0.653   5.110   0.949
 8040SOL    HW125019   0.715   5.170   1.001
 8040SOL    HW225020   0.582   5.074   1.010
 8041SOL     OW25021   4.029   1.763   1.559
 8041SOL    HW125022   3.941   1.719   1.541
 8041SOL    HW225023   4.023   1.861   1.537
 8042SOL     OW25024   3.441   2.794   2.059
 8042SOL    HW125025   3.401   2.818   2.148
 8042SOL    HW225026   3.522   2.738   2.072
 8043SOL     OW25027   2.957   0.003   0.599
 8043SOL    HW125028   3.028   6.959   0.565
 8043SOL    HW225029   2.951   0.082   0.538
 8044SOL     OW25030   3.002   2.931   1.135
 8044SOL    HW125031   2.925   2.931   1.198
 8044SOL    HW225032   3.015   2.839   1.098
 8045SOL     OW25033   5.571   1.192   2.162
 8045SOL    HW125034   5.497   1.134   2.195
 8045SOL    HW225035   5.625   1.142   2.094
 8046SOL     OW25036   6.212   4.812   5.769
 8046SOL    HW125037   6.154   4.891   5.749
 8046SOL    HW225038   6.162   4.728   5.751
 8047SOL     OW25039   3.058   5.004   4.745
 8047SOL    HW125040   3.135   5.022   4.806
 8047SOL    HW225041   2.973   5.001   4.798
 8048SOL     OW25042   5.194   1.185   5.377
 8048SOL    HW125043   5.153   1.268   5.413
 8048SOL    HW225044   5.204   1.118   5.450
 8049SOL     OW25045   0.645   6.240   1.549
 8049SOL    HW125046   0.745   6.229   1.549
 8049SOL    HW225047   0.621   6.323   1.600
 8050SOL     OW25048   0.918   3.826   1.587
 8050SOL    HW125049   0.888   3.817   1.492
 8050SOL    HW225050   1.013   3.856   1.589
 8051SOL     OW25051   5.334   6.893   3.561
 8051SOL    HW125052   5.247   6.942   3.558
 8051SOL    HW225053   5.403   6.943   3.510
 8052SOL     OW25054   3.497   1.681   2.164
 8052SOL    HW125055   3.511   1.613   2.092
 8052SOL    HW225056   3.404   1.716   2.160
 8053SOL     OW25057   3.904   3.780   2.838
 8053SOL    HW125058   3.835   3.707   2.843
 8053SOL    HW225059   3.991   3.746   2.875
 8054SOL     OW25060   4.716   6.602   4.434
 8054SOL    HW125061   4.655   6.620   4.511
 8054SOL    HW225062   4.795   6.664   4.440
 8055SOL     OW25063   0.908   0.377   5.584
 8055SOL    HW125064   0.925   0.405   5.489
 8055SOL    HW225065   0.993   0.381   5.636
 8056SOL     OW25066   4.613   1.191   3.316
 8056SOL    HW125067   4.582   1.130   3.243
 8056SOL    HW225068   4.564   1.169   3.401
 8057SOL     OW25069   3.045   0.702   2.562
 8057SOL    HW125070   3.050   0.636   2.638
 8057SOL    HW225071   2.951   0.733   2.552
 8058SOL     OW25072   3.492   6.926   2.958
 8058SOL    HW125073   3.473   6.883   2.870
 8058SOL    HW225074   3.476   0.006   2.952
 8059SOL     OW25075   3.815   2.135   4.843
 8059SOL    HW125076   3.910   2.120   4.817
 8059SOL    HW225077   3.761   2.151   4.760
 8060SOL     OW25078   0.866   1.156   4.460
 8060SOL    HW125079   0.800   1.151   4.386
 8060SOL    HW225080   0.905   1.248   4.465
 8061SOL     OW25081   6.834   5.910   1.991
 8061SOL    HW125082   6.928   5.944   1.984
 8061SOL    HW225083   6.771   5.980   1.957
 8062SOL     OW25084   2.275   4.380   4.063
 8062SOL    HW125085   2.319   4.367   4.152
 8062SOL    HW225086   2.178   4.400   4.077
 8063SOL     OW25087   2.053   3.510   6.961
 8063SOL    HW125088   2.054   3.550   0.034
 8063SOL    HW225089   2.141   3.527   6.917
 8064SOL     OW25090   0.486   4.748   0.463
 8064SOL    HW125091   0.456   4.824   0.404
 8064SOL    HW225092   0.501   4.783   0.556
 8065SOL     OW25093   3.996   6.919   4.013
 8065SOL    HW125094   3.999   7.018   3.995
 8065SOL    HW225095   4.011   6.869   3.928
 8066SOL     OW25096   1.552   0.908   6.688
 8066SOL    HW125097   1.623   0.971   6.719
 8066SOL    HW225098   1.583   0.863   6.604
 8067SOL     OW25099   4.055   3.444   1.634
 8067SOL    HW125100   4.063   3.495   1.548
 8067SOL    HW225101   3.958   3.437   1.659
 8068SOL     OW25102   6.073   6.296   5.348
 8068SOL    HW125103   6.069   6.378   5.291
 8068SOL    HW225104   6.126   6.316   5.431
 8069SOL     OW25105   2.861   5.850   1.508
 8069SOL    HW125106   2.859   5.940   1.552
 8069SOL    HW225107   2.930   5.850   1.435
 8070SOL     OW25108   2.557   4.902   1.121
 8070SOL    HW125109   2.547   4.923   1.024
 8070SOL    HW225110   2.639   4.947   1.156
 8071SOL     OW25111   4.099   6.945   4.890
 8071SOL    HW125112   4.188   6.914   4.926
 8071SOL    HW225113   4.106   6.957   4.791
 8072SOL     OW25114   3.651   1.543   0.442
 8072SOL    HW125115   3.677   1.498   0.528
 8072SOL    HW225116   3.619   1.474   0.377
 8073SOL     OW25117   5.155   0.256   6.660
 8073SOL    HW125118   5.171   0.157   6.654
 8073SOL    HW225119   5.082   0.274   6.726
 8074SOL     OW25120   3.026   2.804   0.477
 8074SOL    HW125121   3.029   2.807   0.577
 8074SOL    HW225122   3.022   2.709   0.446
 8075SOL     OW25123   6.635   1.531   1.365
 8075SOL    HW125124   6.707   1.569   1.306
 8075SOL    HW225125   6.575   1.472   1.310
 8076SOL     OW25126   5.032   2.375   5.748
 8076SOL    HW125127   5.042   2.458   5.803
 8076SOL    HW225128   5.010   2.400   5.654
 8077SOL     OW25129   0.344   6.801   1.594
 8077SOL    HW125130   0.421   6.819   1.533
 8077SOL    HW225131   0.342   6.871   1.666
 8078SOL     OW25132   6.387   1.913   0.296
 8078SOL    HW125133   6.292   1.935   0.319
 8078SOL    HW225134   6.433   1.879   0.378
 8079SOL     OW25135   5.890   2.110   3.136
 8079SOL    HW125136   5.981   2.104   3.095
 8079SOL    HW225137   5.898   2.099   3.235
 8080SOL     OW25138   2.033   3.707   0.588
 8080SOL    HW125139   1.947   3.679   0.631
 8080SOL    HW225140   2.018   3.790   0.535
 8081SOL     OW25141   5.572   0.837   5.212
 8081SOL    HW125142   5.529   0.812   5.299
 8081SOL    HW225143   5.557   0.764   5.145
 8082SOL     OW25144   5.773   2.436   2.830
 8082SOL    HW125145   5.860   2.400   2.865
 8082SOL    HW225146   5.730   2.367   2.772
 8083SOL     OW25147   5.003   3.268   2.132
 8083SOL    HW125148   4.936   3.215   2.185
 8083SOL    HW225149   5.012   3.229   2.041
 8084SOL     OW25150   6.222   6.299   1.172
 8084SOL    HW125151   6.256   6.379   1.221
 8084SOL    HW225152   6.283   6.278   1.096
 8085SOL     OW25153   6.190   0.129   1.397
 8085SOL    HW125154   6.098   0.127   1.437
 8085SOL    HW225155   6.223   0.223   1.395
 8086SOL     OW25156   3.914   0.299   3.908
 8086SOL    HW125157   3.841   0.315   3.841
 8086SOL    HW225158   3.983   0.239   3.867
 8087SOL     OW25159   2.518   1.937   1.113
 8087SOL    HW125160   2.590   1.924   1.180
 8087SOL    HW225161   2.460   2.015   1.140
 8088SOL     OW25162   6.441   1.785   1.774
 8088SOL    HW125163   6.460   1.781   1.676
 8088SOL    HW225164   6.449   1.694   1.813
 8089SOL     OW25165   5.193   2.246   6.619
 8089SOL    HW125166   5.106   2.253   6.570
 8089SOL    HW225167   5.229   2.337   6.636
 8090SOL     OW25168   4.822   1.838   6.629
 8090SOL    HW125169   4.912   1.840   6.587
 8090SOL    HW225170   4.763   1.773   6.581
 8091SOL     OW25171   3.489   4.361   0.060
 8091SOL    HW125172   3.391   4.360   0.037
 8091SOL    HW225173   3.540   4.314   7.007
 8092SOL     OW25174   1.682   1.314   4.712
 8092SOL    HW125175   1.717   1.385   4.773
 8092SOL    HW225176   1.617   1.257   4.763
 8093SOL     OW25177   6.243   6.083   1.473
 8093SOL    HW125178   6.233   6.078   1.374
 8093SOL    HW225179   6.331   6.043   1.500
 8094SOL     OW25180   1.964   4.332   5.813
 8094SOL    HW125181   1.992   4.356   5.906
 8094SOL    HW225182   1.979   4.409   5.752
 8095SOL     OW25183   6.252   3.599   3.864
 8095SOL    HW125184   6.182   3.555   3.921
 8095SOL    HW225185   6.311   3.530   3.824
 8096SOL     OW25186   2.656   5.805   3.263
 8096SOL    HW125187   2.635   5.764   3.352
 8096SOL    HW225188   2.590   5.772   3.195
 8097SOL     OW25189   4.972   0.494   3.715
 8097SOL    HW125190   4.992   0.588   3.741
 8097SOL    HW225191   4.890   0.462   3.763
 8098SOL     OW25192   2.169   6.352   4.318
 8098SOL    HW125193   2.212   6.352   4.227
 8098SOL    HW225194   2.225   6.298   4.381
 8099SOL     OW25195   6.415   0.933   3.950
 8099SOL    HW125196   6.373   0.943   3.860
 8099SOL    HW225197   6.500   0.881   3.941
 8100SOL     OW25198   0.503   6.523   0.499
 8100SOL    HW125199   0.474   6.432   0.471
 8100SOL    HW225200   0.599   6.537   0.475
 8101SOL     OW25201   1.754   6.918   4.774
 8101SOL    HW125202   1.788   6.860   4.849
 8101SOL    HW225203   1.810   7.001   4.768
 8102SOL     OW25204   0.780   5.468   6.392
 8102SOL    HW125205   0.842   5.406   6.345
 8102SOL    HW225206   0.819   5.493   6.481
 8103SOL     OW25207   4.011   0.834   1.645
 8103SOL    HW125208   4.009   0.853   1.743
 8103SOL    HW225209   3.964   0.748   1.626
 8104SOL     OW25210   4.086   0.052   6.186
 8104SOL    HW125211   4.004   0.041   6.130
 8104SOL    HW225212   4.166   0.063   6.127
 8105SOL     OW25213   2.596   2.367   3.664
 8105SOL    HW125214   2.691   2.342   3.682
 8105SOL    HW225215   2.558   2.306   3.594
 8106SOL     OW25216   1.382   4.948   3.493
 8106SOL    HW125217   1.336   5.004   3.424
 8106SOL    HW225218   1.365   4.851   3.474
 8107SOL     OW25219   1.959   6.188   5.927
 8107SOL    HW125220   1.945   6.092   5.904
 8107SOL    HW225221   2.055   6.213   5.909
 8108SOL     OW25222   6.799   2.945   4.648
 8108SOL    HW125223   6.762   3.015   4.709
 8108SOL    HW225224   6.756   2.857   4.668
 8109SOL     OW25225   1.908   4.059   4.960
 8109SOL    HW125226   1.913   3.959   4.960
 8109SOL    HW225227   1.959   4.096   5.037
 8110SOL     OW25228   3.045   6.583   0.488
 8110SOL    HW125229   3.031   6.586   0.389
 8110SOL    HW225230   3.064   6.490   0.517
 8111SOL     OW25231   2.941   6.432   5.125
 8111SOL    HW125232   2.999   6.391   5.055
 8111SOL    HW225233   2.938   6.373   5.205
 8112SOL     OW25234   2.766   0.575   5.522
 8112SOL    HW125235   2.792   0.570   5.426
 8112SOL    HW225236   2.848   0.567   5.579
 8113SOL     OW25237   2.861   2.387   0.313
 8113SOL    HW125238   2.901   2.454   0.376
 8113SOL    HW225239   2.764   2.407   0.301
 8114SOL     OW25240   2.383   2.748   2.193
 8114SOL    HW125241   2.304   2.801   2.222
 8114SOL    HW225242   2.389   2.747   2.093
 8115SOL     OW25243   4.118   1.185   1.363
 8115SOL    HW125244   4.178   1.250   1.410
 8115SOL    HW225245   4.100   1.219   1.270
 8116SOL     OW25246   5.520   0.201   5.271
 8116SOL    HW125247   5.547   0.281   5.217
 8116SOL    HW225248   5.593   0.177   5.334
 8117SOL     OW25249   1.882   1.955   3.959
 8117SOL    HW125250   1.851   2.045   3.989
 8117SOL    HW225251   1.980   1.946   3.975
 8118SOL     OW25252   0.707   3.991   5.781
 8118SOL    HW125253   0.689   4.081   5.742
 8118SOL    HW225254   0.673   3.988   5.875
 8119SOL     OW25255   0.282   5.719   4.222
 8119SOL    HW125256   0.372   5.686   4.249
 8119SOL    HW225257   0.270   5.813   4.256
 8120SOL     OW25258   4.114   4.309   6.904
 8120SOL    HW125259   4.139   4.213   6.892
 8120SOL    HW225260   4.187   4.357   6.953
 8121SOL     OW25261   0.126   6.587   3.452
 8121SOL    HW125262   0.042   6.546   3.415
 8121SOL    HW225263   0.177   6.517   3.503
 8122SOL     OW25264   0.715   4.722   2.284
 8122SOL    HW125265   0.762   4.701   2.369
 8122SOL    HW225266   0.626   4.763   2.303
 8123SOL     OW25267   0.937   0.565   6.291
 8123SOL    HW125268   0.995   0.512   6.230
 8123SOL    HW225269   0.842   0.561   6.259
 8124SOL     OW25270   1.461   6.373   1.051
 8124SOL    HW125271   1.463   6.299   1.119
 8124SOL    HW225272   1.426   6.337   0.964
 8125SOL     OW25273   5.948   4.878   3.032
 8125SOL    HW125274   5.909   4.848   3.119
 8125SOL    HW225275   6.038   4.836   3.019
 8126SOL     OW25276   6.227   4.869   2.636
 8126SOL    HW125277   6.255   4.819   2.554
 8126SOL    HW225278   6.293   4.852   2.710
 8127SOL     OW25279   2.427   4.913   0.372
 8127SOL    HW125280   2.464   4.984   0.432
 8127SOL    HW225281   2.408   4.831   0.425
 8128SOL     OW25282   2.937   2.582   6.501
 8128SOL    HW125283   2.997   2.579   6.581
 8128SOL    HW225284   2.844   2.604   6.530
 8129SOL     OW25285   5.320   0.900   6.417
 8129SOL    HW125286   5.307   0.805   6.445
 8129SOL    HW225287   5.398   0.939   6.465
 8130SOL     OW25288   1.132   5.614   5.959
 8130SOL    HW125289   1.149   5.563   5.875
 8130SOL    HW225290   1.037   5.601   5.988
 8131SOL     OW25291   3.253   1.119   0.256
 8131SOL    HW125292   3.167   1.093   0.213
 8131SOL    HW225293   3.295   1.194   0.205
 8132SOL     OW25294   5.661   5.665   5.349
 8132SOL    HW125295   5.574   5.688   5.394
 8132SOL    HW225296   5.731   5.649   5.419
 8133SOL     OW25297   3.471   5.004   3.181
 8133SOL    HW125298   3.480   5.086   3.237
 8133SOL    HW225299   3.559   4.956   3.178
 8134SOL     OW25300   2.039   1.834   4.277
 8134SOL    HW125301   2.066   1.878   4.363
 8134SOL    HW225302   2.058   1.894   4.200
 8135SOL     OW25303   3.040   4.864   2.304
 8135SOL    HW125304   3.083   4.854   2.214
 8135SOL    HW225305   3.021   4.960   2.322
 8136SOL     OW25306   4.052   5.230   2.451
 8136SOL    HW125307   4.071   5.235   2.353
 8136SOL    HW225308   4.125   5.278   2.501
 8137SOL     OW25309   1.913   3.067   4.692
 8137SOL    HW125310   1.900   2.972   4.721
 8137SOL    HW225311   1.855   3.086   4.612
 8138SOL     OW25312   6.074   2.011   1.955
 8138SOL    HW125313   5.983   2.007   1.913
 8138SOL    HW225314   6.069   2.066   2.039
 8139SOL     OW25315   0.958   3.207   3.629
 8139SOL    HW125316   1.029   3.211   3.558
 8139SOL    HW225317   0.870   3.185   3.587
 8140SOL     OW25318   4.130   6.824   6.984
 8140SOL    HW125319   4.183   6.845   6.901
 8140SOL    HW225320   4.150   6.893   0.035
 8141SOL     OW25321   5.067   0.665   5.180
 8141SOL    HW125322   4.991   0.625   5.231
 8141SOL    HW225323   5.134   0.593   5.159
 8142SOL     OW25324   2.438   5.308   0.194
 8142SOL    HW125325   2.507   5.268   0.135
 8142SOL    HW225326   2.449   5.408   0.197
 8143SOL     OW25327   5.472   4.935   1.324
 8143SOL    HW125328   5.444   4.967   1.415
 8143SOL    HW225329   5.487   5.015   1.265
 8144SOL     OW25330   0.219   5.739   5.703
 8144SOL    HW125331   0.149   5.694   5.647
 8144SOL    HW225332   0.263   5.812   5.650
 8145SOL     OW25333   5.087   5.622   0.320
 8145SOL    HW125334   5.060   5.636   0.225
 8145SOL    HW225335   5.091   5.710   0.367
 8146SOL     OW25336   6.330   0.580   5.020
 8146SOL    HW125337   6.377   0.620   4.941
 8146SOL    HW225338   6.344   0.481   5.021
 8147SOL     OW25339   0.375   0.962   6.984
 8147SOL    HW125340   0.318   0.919   6.914
 8147SOL    HW225341   0.471   0.939   6.967
 8148SOL     OW25342   4.302   3.995   6.899
 8148SOL    HW125343   4.343   3.909   6.868
 8148SOL    HW225344   4.372   4.049   6.946
 8149SOL     OW25345   1.580   6.800   4.304
 8149SOL    HW125346   1.516   6.723   4.302
 8149SOL    HW225347   1.600   6.824   4.399
 8150SOL     OW25348   0.954   3.288   1.013
 8150SOL    HW125349   1.033   3.284   0.951
 8150SOL    HW225350   0.875   3.325   0.964
 8151SOL     OW25351   6.128   5.276   3.617
 8151SOL    HW125352   6.191   5.262   3.541
 8151SOL    HW225353   6.046   5.323   3.585
 8152SOL     OW25354   4.465   2.038   3.012
 8152SOL    HW125355   4.375   2.066   2.979
 8152SOL    HW225356   4.474   1.939   3.004
 8153SOL     OW25357   1.018   0.671   3.392
 8153SOL    HW125358   1.043   0.596   3.330
 8153SOL    HW225359   0.979   0.746   3.339
 8154SOL     OW25360   3.165   1.880   3.299
 8154SOL    HW125361   3.124   1.813   3.237
 8154SOL    HW225362   3.210   1.833   3.375
 8155SOL     OW25363   1.578   4.253   1.963
 8155SOL    HW125364   1.566   4.346   1.996
 8155SOL    HW225365   1.671   4.222   1.983
 8156SOL     OW25366   5.781   5.879   1.125
 8156SOL    HW125367   5.768   5.844   1.032
 8156SOL    HW225368   5.851   5.951   1.123
 8157SOL     OW25369   5.869   3.386   5.939
 8157SOL    HW125370   5.849   3.445   5.861
 8157SOL    HW225371   5.868   3.291   5.910
 8158SOL     OW25372   5.607   5.149   5.811
 8158SOL    HW125373   5.661   5.109   5.736
 8158SOL    HW225374   5.558   5.077   5.859
 8159SOL     OW25375   4.029   6.616   5.703
 8159SOL    HW125376   3.972   6.551   5.753
 8159SOL    HW225377   4.112   6.634   5.755
 8160SOL     OW25378   4.800   1.356   3.480
 8160SOL    HW125379   4.768   1.336   3.388
 8160SOL    HW225380   4.792   1.454   3.499
 8161SOL     OW25381   5.323   3.429   0.326
 8161SOL    HW125382   5.411   3.477   0.324
 8161SOL    HW225383   5.317   3.376   0.411
 8162SOL     OW25384   0.220   5.069   6.845
 8162SOL    HW125385   0.223   4.973   6.814
 8162SOL    HW225386   0.160   5.076   6.925
 8163SOL     OW25387   4.372   4.944   5.639
 8163SOL    HW125388   4.285   4.903   5.612
 8163SOL    HW225389   4.379   4.945   5.739
 8164SOL     OW25390   4.256   0.899   6.773
 8164SOL    HW125391   4.271   0.976   6.836
 8164SOL    HW225392   4.338   0.884   6.718
 8165SOL     OW25393   6.686   3.380   6.829
 8165SOL    HW125394   6.612   3.370   6.761
 8165SOL    HW225395   6.667   3.459   6.887
 8166SOL     OW25396   1.878   1.846   3.676
 8166SOL    HW125397   1.801   1.844   3.613
 8166SOL    HW225398   1.844   1.855   3.770
 8167SOL     OW25399   6.904   1.735   3.922
 8167SOL    HW125400   6.877   1.754   3.828
 8167SOL    HW225401   6.895   1.637   3.941
 8168SOL     OW25402   2.034   0.458   1.419
 8168SOL    HW125403   2.088   0.500   1.345
 8168SOL    HW225404   1.971   0.391   1.381
 8169SOL     OW25405   4.066   1.859   0.498
 8169SOL    HW125406   4.086   1.927   0.568
 8169SOL    HW225407   4.044   1.772   0.542
 8170SOL     OW25408   0.025   4.242   2.268
 8170SOL    HW125409   6.964   4.184   2.289
 8170SOL    HW225410   0.095   4.228   2.338
 8171SOL     OW25411   1.815   0.924   0.070
 8171SOL    HW125412   1.758   0.842   0.074
 8171SOL    HW225413   1.776   0.988   0.003
 8172SOL     OW25414   0.371   1.886   2.210
 8172SOL    HW125415   0.439   1.812   2.218
 8172SOL    HW225416   0.417   1.971   2.186
 8173SOL     OW25417   6.207   1.890   2.610
 8173SOL    HW125418   6.115   1.923   2.628
 8173SOL    HW225419   6.211   1.848   2.519
 8174SOL     OW25420   1.620   6.401   2.470
 8174SOL    HW125421   1.578   6.383   2.381
 8174SOL    HW225422   1.598   6.494   2.499
 8175SOL     OW25423   0.920   2.701   4.016
 8175SOL    HW125424   0.861   2.642   4.071
 8175SOL    HW225425   0.867   2.779   3.982
 8176SOL     OW25426   1.884   4.374   1.455
 8176SOL    HW125427   1.948   4.303   1.426
 8176SOL    HW225428   1.834   4.343   1.536
 8177SOL     OW25429   3.686   0.748   2.898
 8177SOL    HW125430   3.589   0.747   2.870
 8177SOL    HW225431   3.712   0.841   2.923
 8178SOL     OW25432   3.254   6.231   0.775
 8178SOL    HW125433   3.202   6.237   0.860
 8178SOL    HW225434   3.268   6.135   0.751
 8179SOL     OW25435   5.894   1.085   4.132
 8179SOL    HW125436   5.804   1.047   4.114
 8179SOL    HW225437   5.887   1.184   4.146
 8180SOL     OW25438   5.935   0.066   6.747
 8180SOL    HW125439   5.860   0.126   6.774
 8180SOL    HW225440   6.015   0.085   6.803
 8181SOL     OW25441   0.838   0.862   1.388
 8181SOL    HW125442   0.859   0.766   1.367
 8181SOL    HW225443   0.783   0.867   1.471
 8182SOL     OW25444   3.870   3.515   4.841
 8182SOL    HW125445   3.856   3.469   4.928
 8182SOL    HW225446   3.821   3.603   4.841
 8183SOL     OW25447   6.808   1.266   4.960
 8183SOL    HW125448   6.718   1.309   4.960
 8183SOL    HW225449   6.800   1.170   4.933
 8184SOL     OW25450   1.055   6.954   0.410
 8184SOL    HW125451   0.961   6.988   0.406
 8184SOL    HW225452   1.097   6.960   0.319
 8185SOL     OW25453   1.765   0.408   1.053
 8185SOL    HW125454   1.834   0.480   1.058
 8185SOL    HW225455   1.693   0.435   0.990
 8186SOL     OW25456   1.861   4.044   6.125
 8186SOL    HW125457   1.773   4.065   6.166
 8186SOL    HW225458   1.858   3.952   6.084
 8187SOL     OW25459   2.455   1.837   5.172
 8187SOL    HW125460   2.434   1.929   5.138
 8187SOL    HW225461   2.522   1.843   5.246
 8188SOL     OW25462   4.008   1.594   3.358
 8188SOL    HW125463   3.977   1.681   3.320
 8188SOL    HW225464   4.067   1.611   3.436
 8189SOL     OW25465   5.443   5.172   3.423
 8189SOL    HW125466   5.433   5.270   3.441
 8189SOL    HW225467   5.375   5.122   3.477
 8190SOL     OW25468   5.265   3.945   3.237
 8190SOL    HW125469   5.358   3.949   3.273
 8190SOL    HW225470   5.250   3.857   3.192
 8191SOL     OW25471   4.420   5.134   2.340
 8191SOL    HW125472   4.346   5.070   2.316
 8191SOL    HW225473   4.508   5.087   2.333
 8192SOL     OW25474   1.769   5.344   1.974
 8192SOL    HW125475   1.720   5.300   1.898
 8192SOL    HW225476   1.712   5.415   2.014
 8193SOL     OW25477   6.851   5.727   4.865
 8193SOL    HW125478   6.796   5.722   4.949
 8193SOL    HW225479   6.797   5.771   4.794
 8194SOL     OW25480   4.259   0.590   0.652
 8194SOL    HW125481   4.334   0.576   0.587
 8194SOL    HW225482   4.198   0.511   0.649
 8195SOL     OW25483   6.031   6.655   3.999
 8195SOL    HW125484   6.017   6.740   4.050
 8195SOL    HW225485   6.125   6.652   3.964
 8196SOL     OW25486   4.758   0.445   6.835
 8196SOL    HW125487   4.675   0.464   6.887
 8196SOL    HW225488   4.767   0.512   6.762
 8197SOL     OW25489   4.397   1.783   1.690
 8197SOL    HW125490   4.463   1.858   1.698
 8197SOL    HW225491   4.377   1.767   1.593
 8198SOL     OW25492   2.682   0.628   2.155
 8198SOL    HW125493   2.638   0.644   2.244
 8198SOL    HW225494   2.764   0.685   2.148
 8199SOL     OW25495   4.566   3.116   5.731
 8199SOL    HW125496   4.547   3.173   5.651
 8199SOL    HW225497   4.665   3.107   5.743
 8200SOL     OW25498   5.913   4.159   2.077
 8200SOL    HW125499   5.933   4.075   2.027
 8200SOL    HW225500   5.898   4.234   2.013
 8201SOL     OW25501   0.071   1.012   5.298
 8201SOL    HW125502   0.052   1.103   5.260
 8201SOL    HW225503   0.161   0.981   5.268
 8202SOL     OW25504   0.200   6.271   2.760
 8202SOL    HW125505   0.139   6.321   2.698
 8202SOL    HW225506   0.194   6.311   2.851
 8203SOL     OW25507   2.161   2.154   0.434
 8203SOL    HW125508   2.079   2.108   0.401
 8203SOL    HW225509   2.136   2.217   0.508
 8204SOL     OW25510   4.168   3.742   0.967
 8204SOL    HW125511   4.236   3.815   0.970
 8204SOL    HW225512   4.087   3.774   0.917
 8205SOL     OW25513   0.474   2.887   6.849
 8205SOL    HW125514   0.460   2.967   6.791
 8205SOL    HW225515   0.563   2.846   6.827
 8206SOL     OW25516   4.883   1.383   0.282
 8206SOL    HW125517   4.963   1.353   0.333
 8206SOL    HW225518   4.826   1.304   0.260
 8207SOL     OW25519   3.268   3.778   4.602
 8207SOL    HW125520   3.235   3.840   4.531
 8207SOL    HW225521   3.278   3.829   4.688
 8208SOL     OW25522   1.033   1.177   0.810
 8208SOL    HW125523   0.942   1.188   0.848
 8208SOL    HW225524   1.101   1.204   0.878
 8209SOL     OW25525   0.335   0.905   5.226
 8209SOL    HW125526   0.323   0.854   5.141
 8209SOL    HW225527   0.380   0.846   5.293
 8210SOL     OW25528   2.101   2.369   0.670
 8210SOL    HW125529   2.031   2.393   0.737
 8210SOL    HW225530   2.116   2.446   0.608
 8211SOL     OW25531   3.407   3.860   1.474
 8211SOL    HW125532   3.350   3.875   1.554
 8211SOL    HW225533   3.503   3.867   1.500
 8212SOL     OW25534   1.723   2.243   2.848
 8212SOL    HW125535   1.788   2.219   2.920
 8212SOL    HW225536   1.656   2.309   2.884
 8213SOL     OW25537   6.750   4.717   1.977
 8213SOL    HW125538   6.702   4.762   2.052
 8213SOL    HW225539   6.848   4.730   1.988
 8214SOL     OW25540   5.774   4.672   3.590
 8214SOL    HW125541   5.821   4.643   3.674
 8214SOL    HW225542   5.820   4.752   3.552
 8215SOL     OW25543   3.178   6.088   5.340
 8215SOL    HW125544   3.113   6.158   5.368
 8215SOL    HW225545   3.154   6.001   5.383
 8216SOL     OW25546   5.411   6.130   4.647
 8216SOL    HW125547   5.325   6.109   4.602
 8216SOL    HW225548   5.483   6.140   4.579
 8217SOL     OW25549   2.195   4.753   6.788
 8217SOL    HW125550   2.121   4.798   6.738
 8217SOL    HW225551   2.243   4.689   6.726
 8218SOL     OW25552   0.800   1.520   6.544
 8218SOL    HW125553   0.863   1.531   6.621
 8218SOL    HW225554   0.714   1.481   6.577
 8219SOL     OW25555   4.858   1.834   0.426
 8219SOL    HW125556   4.805   1.917   0.412
 8219SOL    HW225557   4.917   1.818   0.346
 8220SOL     OW25558   3.153   3.450   3.343
 8220SOL    HW125559   3.068   3.398   3.353
 8220SOL    HW225560   3.225   3.390   3.310
 8221SOL     OW25561   4.600   6.081   4.460
 8221SOL    HW125562   4.503   6.095   4.479
 8221SOL    HW225563   4.648   6.169   4.460
 8222SOL     OW25564   5.251   1.869   2.218
 8222SOL    HW125565   5.197   1.889   2.300
 8222SOL    HW225566   5.342   1.909   2.228
 8223SOL     OW25567   1.472   3.696   6.092
 8223SOL    HW125568   1.521   3.705   6.005
 8223SOL    HW225569   1.378   3.729   6.080
 8224SOL     OW25570   0.843   2.511   2.841
 8224SOL    HW125571   0.829   2.537   2.745
 8224SOL    HW225572   0.920   2.563   2.879
 8225SOL     OW25573   3.651   0.967   0.251
 8225SOL    HW125574   3.597   0.931   0.327
 8225SOL    HW225575   3.591   0.987   0.174
 8226SOL     OW25576   4.789   0.153   2.645
 8226SOL    HW125577   4.711   0.100   2.677
 8226SOL    HW225578   4.866   0.139   2.708
 8227SOL     OW25579   0.394   2.804   3.588
 8227SOL    HW125580   0.462   2.803   3.661
 8227SOL    HW225581   0.325   2.734   3.606
 8228SOL     OW25582   0.355   2.512   5.829
 8228SOL    HW125583   0.433   2.572   5.809
 8228SOL    HW225584   0.343   2.448   5.753
 8229SOL     OW25585   3.557   4.264   0.564
 8229SOL    HW125586   3.572   4.205   0.643
 8229SOL    HW225587   3.632   4.254   0.499
 8230SOL     OW25588   5.202   0.095   5.679
 8230SOL    HW125589   5.288   0.069   5.636
 8230SOL    HW225590   5.127   0.080   5.615
 8231SOL     OW25591   3.946   5.594   1.271
 8231SOL    HW125592   4.003   5.533   1.327
 8231SOL    HW225593   3.916   5.546   1.189
 8232SOL     OW25594   5.368   1.418   0.706
 8232SOL    HW125595   5.312   1.451   0.781
 8232SOL    HW225596   5.463   1.407   0.737
 8233SOL     OW25597   0.831   5.991   6.050
 8233SOL    HW125598   0.841   6.026   6.143
 8233SOL    HW225599   0.734   5.983   6.028
 8234SOL     OW25600   2.856   3.574   0.058
 8234SOL    HW125601   2.805   3.656   0.085
 8234SOL    HW225602   2.920   3.597   7.003
 8235SOL     OW25603   2.144   3.234   0.626
 8235SOL    HW125604   2.159   3.187   0.713
 8235SOL    HW225605   2.059   3.287   0.631
 8236SOL     OW25606   6.441   3.818   0.087
 8236SOL    HW125607   6.477   3.902   0.127
 8236SOL    HW225608   6.390   3.840   0.005
 8237SOL     OW25609   5.016   6.617   4.627
 8237SOL    HW125610   5.103   6.626   4.676
 8237SOL    HW225611   5.024   6.660   4.537
 8238SOL     OW25612   1.342   4.463   0.501
 8238SOL    HW125613   1.308   4.557   0.506
 8238SOL    HW225614   1.271   4.404   0.463
 8239SOL     OW25615   6.567   1.320   5.573
 8239SOL    HW125616   6.642   1.342   5.511
 8239SOL    HW225617   6.485   1.371   5.544
 8240SOL     OW25618   3.478   3.715   2.800
 8240SOL    HW125619   3.428   3.766   2.730
 8240SOL    HW225620   3.419   3.701   2.880
 8241SOL     OW25621   3.583   6.774   0.331
 8241SOL    HW125622   3.518   6.721   0.384
 8241SOL    HW225623   3.577   6.748   0.234
 8242SOL     OW25624   1.324   4.325   6.156
 8242SOL    HW125625   1.323   4.225   6.158
 8242SOL    HW225626   1.297   4.357   6.066
 8243SOL     OW25627   0.753   2.741   6.658
 8243SOL    HW125628   0.689   2.740   6.734
 8243SOL    HW225629   0.824   2.809   6.675
 8244SOL     OW25630   0.535   6.986   3.327
 8244SOL    HW125631   0.587   6.989   3.413
 8244SOL    HW225632   0.555   6.900   3.279
 8245SOL     OW25633   3.328   1.135   2.558
 8245SOL    HW125634   3.321   1.154   2.655
 8245SOL    HW225635   3.378   1.049   2.545
 8246SOL     OW25636   6.693   3.504   5.613
 8246SOL    HW125637   6.680   3.406   5.624
 8246SOL    HW225638   6.767   3.535   5.673
 8247SOL     OW25639   0.876   0.320   1.952
 8247SOL    HW125640   0.974   0.339   1.961
 8247SOL    HW225641   0.829   0.401   1.918
 8248SOL     OW25642   5.672   5.004   3.449
 8248SOL    HW125643   5.599   5.072   3.444
 8248SOL    HW225644   5.700   4.991   3.544
 8249SOL     OW25645   2.194   3.459   5.289
 8249SOL    HW125646   2.291   3.479   5.302
 8249SOL    HW225647   2.142   3.544   5.295
 8250SOL     OW25648   3.259   4.108   2.240
 8250SOL    HW125649   3.223   4.171   2.309
 8250SOL    HW225650   3.358   4.100   2.251
 8251SOL     OW25651   6.164   3.013   4.634
 8251SOL    HW125652   6.212   2.927   4.615
 8251SOL    HW225653   6.223   3.090   4.611
 8252SOL     OW25654   3.213   3.119   0.010
 8252SOL    HW125655   3.252   3.204   0.045
 8252SOL    HW225656   3.256   3.097   6.941
 8253SOL     OW25657   4.178   3.798   5.173
 8253SOL    HW125658   4.267   3.813   5.215
 8253SOL    HW225659   4.188   3.794   5.074
 8254SOL     OW25660   4.339   4.744   4.539
 8254SOL    HW125661   4.389   4.816   4.491
 8254SOL    HW225662   4.399   4.665   4.553
 8255SOL     OW25663   2.927   5.985   5.014
 8255SOL    HW125664   3.020   6.019   5.023
 8255SOL    HW225665   2.921   5.894   5.056
 8256SOL     OW25666   6.429   1.083   1.926
 8256SOL    HW125667   6.335   1.103   1.898
 8256SOL    HW225668   6.471   1.021   1.859
 8257SOL     OW25669   6.636   3.798   3.396
 8257SOL    HW125670   6.564   3.778   3.463
 8257SOL    HW225671   6.670   3.891   3.411
 8258SOL     OW25672   5.437   1.100   0.666
 8258SOL    HW125673   5.459   1.198   0.665
 8258SOL    HW225674   5.393   1.077   0.753
 8259SOL     OW25675   4.268   1.882   3.754
 8259SOL    HW125676   4.349   1.824   3.759
 8259SOL    HW225677   4.284   1.956   3.689
 8260SOL     OW25678   2.684   0.400   2.005
 8260SOL    HW125679   2.674   0.486   2.055
 8260SOL    HW225680   2.776   0.364   2.020
 8261SOL     OW25681   6.467   1.544   1.882
 8261SOL    HW125682   6.512   1.494   1.807
 8261SOL    HW225683   6.536   1.570   1.950
 8262SOL     OW25684   0.882   2.696   0.906
 8262SOL    HW125685   0.797   2.747   0.892
 8262SOL    HW225686   0.957   2.745   0.862
 8263SOL     OW25687   0.861   2.276   0.397
 8263SOL    HW125688   0.771   2.235   0.380
 8263SOL    HW225689   0.879   2.346   0.328
 8264SOL     OW25690   1.783   6.266   2.273
 8264SOL    HW125691   1.741   6.331   2.335
 8264SOL    HW225692   1.848   6.313   2.214
 8265SOL     OW25693   0.984   6.808   1.517
 8265SOL    HW125694   1.054   6.754   1.564
 8265SOL    HW225695   0.903   6.816   1.575
 8266SOL     OW25696   1.969   0.840   3.426
 8266SOL    HW125697   2.043   0.774   3.440
 8266SOL    HW225698   1.881   0.793   3.424
 8267SOL     OW25699   1.711   3.004   0.978
 8267SOL    HW125700   1.754   2.920   0.944
 8267SOL    HW225701   1.672   3.055   0.901
 8268SOL     OW25702   2.206   6.305   5.863
 8268SOL    HW125703   2.287   6.247   5.866
 8268SOL    HW225704   2.225   6.391   5.912
 8269SOL     OW25705   5.723   1.750   1.439
 8269SOL    HW125706   5.746   1.740   1.342
 8269SOL    HW225707   5.626   1.772   1.448
 8270SOL     OW25708   2.686   6.564   4.867
 8270SOL    HW125709   2.634   6.602   4.791
 8270SOL    HW225710   2.731   6.480   4.838
 8271SOL     OW25711   0.023   1.194   2.699
 8271SOL    HW125712   0.057   1.282   2.665
 8271SOL    HW225713   0.072   1.120   2.654
 8272SOL     OW25714   5.029   1.647   1.388
 8272SOL    HW125715   5.073   1.690   1.467
 8272SOL    HW225716   4.941   1.609   1.415
 8273SOL     OW25717   2.110   5.944   1.057
 8273SOL    HW125718   2.177   5.877   1.023
 8273SOL    HW225719   2.025   5.897   1.080
 8274SOL     OW25720   4.769   4.683   3.302
 8274SOL    HW125721   4.868   4.686   3.315
 8274SOL    HW225722   4.731   4.775   3.308
 8275SOL     OW25723   4.561   1.217   5.640
 8275SOL    HW125724   4.654   1.215   5.603
 8275SOL    HW225725   4.497   1.187   5.570
 8276SOL     OW25726   1.483   2.447   3.829
 8276SOL    HW125727   1.459   2.364   3.778
 8276SOL    HW225728   1.580   2.467   3.818
 8277SOL     OW25729   0.047   1.065   0.140
 8277SOL    HW125730   0.130   1.094   0.092
 8277SOL    HW225731   6.989   1.120   0.109
 8278SOL     OW25732   2.576   1.692   5.803
 8278SOL    HW125733   2.572   1.792   5.797
 8278SOL    HW225734   2.558   1.653   5.713
 8279SOL     OW25735   1.765   0.550   4.511
 8279SOL    HW125736   1.809   0.463   4.536
 8279SOL    HW225737   1.708   0.537   4.430
 8280SOL     OW25738   2.038   2.853   0.662
 8280SOL    HW125739   2.129   2.863   0.621
 8280SOL    HW225740   1.969   2.854   0.589
 8281SOL     OW25741   1.946   5.055   1.261
 8281SOL    HW125742   1.912   4.974   1.212
 8281SOL    HW225743   1.891   5.134   1.235
 8282SOL     OW25744   5.174   3.834   0.107
 8282SOL    HW125745   5.152   3.758   0.167
 8282SOL    HW225746   5.141   3.920   0.147
 8283SOL     OW25747   1.483   4.486   7.005
 8283SOL    HW125748   1.400   4.528   0.023
 8283SOL    HW225749   1.506   4.528   6.917
 8284SOL     OW25750   0.616   3.816   0.324
 8284SOL    HW125751   0.517   3.829   0.320
 8284SOL    HW225752   0.642   3.737   0.270
 8285SOL     OW25753   3.429   2.909   4.998
 8285SOL    HW125754   3.336   2.907   5.034
 8285SOL    HW225755   3.493   2.929   5.072
 8286SOL     OW25756   5.404   3.271   6.753
 8286SOL    HW125757   5.426   3.329   6.832
 8286SOL    HW225758   5.305   3.261   6.746
 8287SOL     OW25759   2.042   5.358   4.592
 8287SOL    HW125760   2.043   5.336   4.494
 8287SOL    HW225761   1.967   5.421   4.611
 8288SOL     OW25762   2.971   1.809   1.848
 8288SOL    HW125763   2.916   1.793   1.929
 8288SOL    HW225764   2.988   1.908   1.838
 8289SOL     OW25765   0.459   5.962   1.852
 8289SOL    HW125766   0.394   5.886   1.847
 8289SOL    HW225767   0.495   5.980   1.760
 8290SOL     OW25768   5.951   0.749   0.862
 8290SOL    HW125769   5.906   0.751   0.773
 8290SOL    HW225770   5.888   0.711   0.930
 8291SOL     OW25771   4.966   6.060   6.053
 8291SOL    HW125772   5.046   6.050   6.113
 8291SOL    HW225773   4.969   5.990   5.981
 8292SOL     OW25774   2.582   6.107   6.636
 8292SOL    HW125775   2.669   6.064   6.610
 8292SOL    HW225776   2.511   6.080   6.572
 8293SOL     OW25777   3.530   6.926   6.948
 8293SOL    HW125778   3.513   6.855   7.016
 8293SOL    HW225779   3.523   6.887   6.856
 8294SOL     OW25780   6.007   4.716   4.670
 8294SOL    HW125781   5.935   4.749   4.608
 8294SOL    HW225782   6.042   4.629   4.636
 8295SOL     OW25783   4.893   5.708   1.486
 8295SOL    HW125784   4.808   5.747   1.451
 8295SOL    HW225785   4.951   5.781   1.521
 8296SOL     OW25786   2.465   6.508   6.559
 8296SOL    HW125787   2.429   6.554   6.640
 8296SOL    HW225788   2.426   6.550   6.477
 8297SOL     OW25789   6.813   2.614   2.294
 8297SOL    HW125790   6.910   2.633   2.307
 8297SOL    HW225791   6.761   2.652   2.371
 8298SOL     OW25792   5.863   2.435   1.195
 8298SOL    HW125793   5.800   2.364   1.227
 8298SOL    HW225794   5.955   2.415   1.227
 8299SOL     OW25795   0.173   2.406   1.956
 8299SOL    HW125796   0.116   2.483   1.926
 8299SOL    HW225797   0.266   2.419   1.922
 8300SOL     OW25798   0.780   6.010   5.040
 8300SOL    HW125799   0.769   5.911   5.047
 8300SOL    HW225800   0.787   6.049   5.132
 8301SOL     OW25801   4.236   2.042   1.516
 8301SOL    HW125802   4.136   2.033   1.523
 8301SOL    HW225803   4.278   1.952   1.522
 8302SOL     OW25804   5.548   6.188   6.111
 8302SOL    HW125805   5.548   6.112   6.176
 8302SOL    HW225806   5.630   6.185   6.055
 8303SOL     OW25807   6.804   1.121   4.087
 8303SOL    HW125808   6.800   1.151   3.992
 8303SOL    HW225809   6.776   1.196   4.147
 8304SOL     OW25810   1.280   3.014   0.762
 8304SOL    HW125811   1.316   3.008   0.669
 8304SOL    HW225812   1.313   3.098   0.805
 8305SOL     OW25813   3.946   5.010   4.434
 8305SOL    HW125814   3.978   4.984   4.343
 8305SOL    HW225815   3.991   4.953   4.503
 8306SOL     OW25816   0.321   2.822   5.317
 8306SOL    HW125817   0.259   2.791   5.245
 8306SOL    HW225818   0.352   2.744   5.371
 8307SOL     OW25819   4.544   5.166   1.719
 8307SOL    HW125820   4.601   5.137   1.642
 8307SOL    HW225821   4.597   5.228   1.778
 8308SOL     OW25822   4.369   5.816   1.250
 8308SOL    HW125823   4.347   5.786   1.158
 8308SOL    HW225824   4.287   5.851   1.295
 8309SOL     OW25825   6.325   5.541   3.399
 8309SOL    HW125826   6.413   5.588   3.394
 8309SOL    HW225827   6.251   5.606   3.382
 8310SOL     OW25828   0.955   4.347   0.738
 8310SOL    HW125829   1.002   4.261   0.720
 8310SOL    HW225830   0.998   4.392   0.817
 8311SOL     OW25831   0.712   1.487   4.842
 8311SOL    HW125832   0.672   1.413   4.788
 8311SOL    HW225833   0.640   1.548   4.874
 8312SOL     OW25834   4.116   6.115   0.937
 8312SOL    HW125835   4.211   6.146   0.945
 8312SOL    HW225836   4.069   6.127   1.024
 8313SOL     OW25837   4.939   1.312   2.456
 8313SOL    HW125838   4.843   1.297   2.481
 8313SOL    HW225839   4.996   1.303   2.537
 8314SOL     OW25840   4.665   0.122   1.110
 8314SOL    HW125841   4.676   0.026   1.134
 8314SOL    HW225842   4.750   0.157   1.071
 8315SOL     OW25843   4.118   3.510   1.380
 8315SOL    HW125844   4.157   3.454   1.307
 8315SOL    HW225845   4.151   3.604   1.370
 8316SOL     OW25846   1.047   2.037   1.927
 8316SOL    HW125847   1.037   2.094   2.009
 8316SOL    HW225848   0.969   2.052   1.866
 8317SOL     OW25849   2.664   2.397   2.386
 8317SOL    HW125850   2.592   2.428   2.324
 8317SOL    HW225851   2.629   2.399   2.480
 8318SOL     OW25852   4.096   1.096   4.265
 8318SOL    HW125853   4.043   1.177   4.288
 8318SOL    HW225854   4.035   1.019   4.246
 8319SOL     OW25855   2.808   1.475   6.200
 8319SOL    HW125856   2.757   1.485   6.114
 8319SOL    HW225857   2.905   1.490   6.182
 8320SOL     OW25858   3.434   3.588   1.429
 8320SOL    HW125859   3.516   3.556   1.477
 8320SOL    HW225860   3.419   3.685   1.451
 8321SOL     OW25861   0.345   1.497   0.284
 8321SOL    HW125862   0.259   1.461   0.319
 8321SOL    HW225863   0.330   1.586   0.242
 8322SOL     OW25864   0.137   0.384   0.772
 8322SOL    HW125865   0.071   0.310   0.761
 8322SOL    HW225866   0.220   0.362   0.721
 8323SOL     OW25867   6.077   6.504   3.044
 8323SOL    HW125868   6.022   6.585   3.019
 8323SOL    HW225869   6.149   6.491   2.976
 8324SOL     OW25870   5.959   0.906   1.699
 8324SOL    HW125871   5.999   0.997   1.687
 8324SOL    HW225872   6.023   0.847   1.748
 8325SOL     OW25873   3.292   3.495   5.185
 8325SOL    HW125874   3.389   3.482   5.204
 8325SOL    HW225875   3.262   3.429   5.116
 8326SOL     OW25876   4.909   3.252   5.186
 8326SOL    HW125877   4.894   3.339   5.232
 8326SOL    HW225878   4.842   3.185   5.219
 8327SOL     OW25879   5.942   2.309   6.285
 8327SOL    HW125880   5.870   2.330   6.219
 8327SOL    HW225881   5.984   2.221   6.261
 8328SOL     OW25882   2.867   4.012   6.297
 8328SOL    HW125883   2.886   4.021   6.199
 8328SOL    HW225884   2.919   3.935   6.334
 8329SOL     OW25885   6.888   3.842   6.447
 8329SOL    HW125886   6.959   3.860   6.378
 8329SOL    HW225887   6.927   3.789   6.522
 8330SOL     OW25888   2.680   0.105   0.649
 8330SOL    HW125889   2.750   0.066   0.589
 8330SOL    HW225890   2.594   0.057   0.635
 8331SOL     OW25891   2.665   0.987   1.319
 8331SOL    HW125892   2.592   0.961   1.382
 8331SOL    HW225893   2.745   0.929   1.335
 8332SOL     OW25894   4.942   5.208   2.426
 8332SOL    HW125895   4.945   5.295   2.474
 8332SOL    HW225896   4.915   5.224   2.331
 8333SOL     OW25897   0.061   6.641   6.659
 8333SOL    HW125898   0.106   6.730   6.649
 8333SOL    HW225899   0.122   6.570   6.625
 8334SOL     OW25900   4.430   1.596   4.211
 8334SOL    HW125901   4.473   1.650   4.283
 8334SOL    HW225902   4.395   1.658   4.140
 8335SOL     OW25903   6.370   5.808   6.154
 8335SOL    HW125904   6.387   5.735   6.089
 8335SOL    HW225905   6.412   5.893   6.121
 8336SOL     OW25906   0.011   0.059   2.561
 8336SOL    HW125907   0.091   0.037   2.617
 8336SOL    HW225908   0.040   0.084   2.469
 8337SOL     OW25909   1.045   6.524   3.000
 8337SOL    HW125910   1.117   6.595   3.003
 8337SOL    HW225911   1.006   6.512   3.091
 8338SOL     OW25912   1.680   5.034   2.000
 8338SOL    HW125913   1.732   5.083   1.930
 8338SOL    HW225914   1.727   4.949   2.024
 8339SOL     OW25915   5.944   0.452   1.439
 8339SOL    HW125916   5.905   0.540   1.465
 8339SOL    HW225917   5.923   0.383   1.509
 8340SOL     OW25918   5.368   4.058   1.151
 8340SOL    HW125919   5.397   4.058   1.055
 8340SOL    HW225920   5.273   4.028   1.157
 8341SOL     OW25921   2.615   6.540   6.982
 8341SOL    HW125922   2.636   6.582   0.052
 8341SOL    HW225923   2.612   6.611   6.912
 8342SOL     OW25924   3.498   0.123   1.609
 8342SOL    HW125925   3.399   0.128   1.624
 8342SOL    HW225926   3.516   0.108   1.512
 8343SOL     OW25927   0.893   4.834   6.123
 8343SOL    HW125928   0.801   4.867   6.143
 8343SOL    HW225929   0.922   4.870   6.034
 8344SOL     OW25930   4.430   0.223   5.342
 8344SOL    HW125931   4.406   0.317   5.318
 8344SOL    HW225932   4.353   0.162   5.319
 8345SOL     OW25933   5.148   1.681   3.790
 8345SOL    HW125934   5.053   1.680   3.823
 8345SOL    HW225935   5.159   1.758   3.726
 8346SOL     OW25936   3.082   4.330   0.244
 8346SOL    HW125937   3.009   4.396   0.260
 8346SOL    HW225938   3.140   4.362   0.169
 8347SOL     OW25939   3.619   6.329   4.838
 8347SOL    HW125940   3.677   6.280   4.772
 8347SOL    HW225941   3.677   6.382   4.900
 8348SOL     OW25942   0.961   6.363   1.525
 8348SOL    HW125943   0.949   6.441   1.587
 8348SOL    HW225944   1.044   6.377   1.470
 8349SOL     OW25945   5.942   5.665   1.514
 8349SOL    HW125946   5.936   5.765   1.509
 8349SOL    HW225947   6.038   5.638   1.528
 8350SOL     OW25948   4.969   1.007   4.586
 8350SOL    HW125949   4.874   0.976   4.592
 8350SOL    HW225950   4.988   1.068   4.663
 8351SOL     OW25951   4.563   5.327   4.290
 8351SOL    HW125952   4.534   5.380   4.211
 8351SOL    HW225953   4.657   5.352   4.315
 8352SOL     OW25954   6.909   6.711   2.712
 8352SOL    HW125955   6.837   6.719   2.782
 8352SOL    HW225956   6.998   6.726   2.754
 8353SOL     OW25957   6.380   3.864   1.701
 8353SOL    HW125958   6.331   3.780   1.726
 8353SOL    HW225959   6.316   3.929   1.661
 8354SOL     OW25960   3.705   0.411   6.575
 8354SOL    HW125961   3.631   0.426   6.510
 8354SOL    HW225962   3.714   0.313   6.592
 8355SOL     OW25963   3.014   0.348   6.970
 8355SOL    HW125964   3.072   0.307   6.900
 8355SOL    HW225965   3.056   0.433   7.003
 8356SOL     OW25966   1.570   6.181   0.575
 8356SOL    HW125967   1.600   6.276   0.565
 8356SOL    HW225968   1.600   6.146   0.664
 8357SOL     OW25969   3.727   6.884   5.830
 8357SOL    HW125970   3.647   6.827   5.809
 8357SOL    HW225971   3.806   6.850   5.778
 8358SOL     OW25972   1.532   3.196   5.400
 8358SOL    HW125973   1.462   3.259   5.434
 8358SOL    HW225974   1.564   3.139   5.475
 8359SOL     OW25975   2.965   6.305   4.566
 8359SOL    HW125976   2.916   6.243   4.505
 8359SOL    HW225977   2.943   6.283   4.661
 8360SOL     OW25978   3.826   5.844   1.750
 8360SOL    HW125979   3.786   5.799   1.670
 8360SOL    HW225980   3.785   5.935   1.761
 8361SOL     OW25981   2.080   0.703   2.642
 8361SOL    HW125982   2.162   0.685   2.696
 8361SOL    HW225983   2.103   0.704   2.545
 8362SOL     OW25984   2.633   1.811   0.758
 8362SOL    HW125985   2.618   1.812   0.659
 8362SOL    HW225986   2.550   1.780   0.804
 8363SOL     OW25987   0.201   2.515   6.883
 8363SOL    HW125988   0.228   2.423   6.913
 8363SOL    HW225989   0.276   2.556   6.831
 8364SOL     OW25990   6.448   3.388   2.745
 8364SOL    HW125991   6.403   3.325   2.681
 8364SOL    HW225992   6.523   3.341   2.792
 8365SOL     OW25993   1.341   4.450   1.296
 8365SOL    HW125994   1.311   4.544   1.311
 8365SOL    HW225995   1.377   4.441   1.204
 8366SOL     OW25996   3.405   5.187   2.211
 8366SOL    HW125997   3.368   5.273   2.177
 8366SOL    HW225998   3.453   5.203   2.298
 8367SOL     OW25999   4.095   6.101   3.763
 8367SOL    HW126000   4.010   6.139   3.726
 8367SOL    HW226001   4.094   6.002   3.753
 8368SOL     OW26002   2.602   6.479   6.157
 8368SOL    HW126003   2.597   6.531   6.072
 8368SOL    HW226004   2.694   6.486   6.195
 8369SOL     OW26005   1.953   6.999   6.525
 8369SOL    HW126006   1.915   0.056   6.579
 8369SOL    HW226007   1.900   6.988   6.441
 8370SOL     OW26008   2.351   1.861   5.517
 8370SOL    HW126009   2.357   1.870   5.616
 8370SOL    HW226010   2.283   1.791   5.494
 8371SOL     OW26011   1.600   4.151   1.244
 8371SOL    HW126012   1.513   4.124   1.203
 8371SOL    HW226013   1.676   4.111   1.192
 8372SOL     OW26014   0.270   5.931   2.837
 8372SOL    HW126015   0.317   5.849   2.869
 8372SOL    HW226016   0.336   6.006   2.828
 8373SOL     OW26017   1.205   0.291   4.495
 8373SOL    HW126018   1.264   0.253   4.567
 8373SOL    HW226019   1.225   0.389   4.484
 8374SOL     OW26020   6.651   0.736   6.511
 8374SOL    HW126021   6.692   0.652   6.546
 8374SOL    HW226022   6.723   0.795   6.473
 8375SOL     OW26023   3.054   6.733   5.573
 8375SOL    HW126024   3.124   6.661   5.567
 8375SOL    HW226025   2.969   6.701   5.532
 8376SOL     OW26026   2.336   0.104   4.206
 8376SOL    HW126027   2.383   0.019   4.180
 8376SOL    HW226028   2.300   0.148   4.124
 8377SOL     OW26029   5.586   5.446   1.357
 8377SOL    HW126030   5.609   5.373   1.421
 8377SOL    HW226031   5.644   5.526   1.376
 8378SOL     OW26032   4.459   4.516   2.971
 8378SOL    HW126033   4.548   4.535   3.011
 8378SOL    HW226034   4.426   4.427   3.003
 8379SOL     OW26035   6.576   2.582   1.126
 8379SOL    HW126036   6.629   2.505   1.092
 8379SOL    HW226037   6.479   2.558   1.125
 8380SOL     OW26038   6.583   1.398   2.778
 8380SOL    HW126039   6.548   1.467   2.714
 8380SOL    HW226040   6.513   1.378   2.846
 8381SOL     OW26041   0.449   4.103   5.155
 8381SOL    HW126042   0.355   4.125   5.179
 8381SOL    HW226043   0.471   4.139   5.064
 8382SOL     OW26044   1.505   1.048   1.895
 8382SOL    HW126045   1.472   1.013   1.982
 8382SOL    HW226046   1.541   1.141   1.907
 8383SOL     OW26047   2.582   0.476   6.408
 8383SOL    HW126048   2.613   0.563   6.445
 8383SOL    HW226049   2.584   0.480   6.308
 8384SOL     OW26050   0.437   0.215   0.289
 8384SOL    HW126051   0.459   0.217   0.386
 8384SOL    HW226052   0.364   0.149   0.272
 8385SOL     OW26053   5.876   2.731   1.528
 8385SOL    HW126054   5.952   2.781   1.485
 8385SOL    HW226055   5.900   2.635   1.535
 8386SOL     OW26056   0.980   4.271   2.470
 8386SOL    HW126057   1.029   4.191   2.435
 8386SOL    HW226058   0.885   4.269   2.438
 8387SOL     OW26059   1.045   1.216   1.375
 8387SOL    HW126060   0.958   1.257   1.402
 8387SOL    HW226061   1.059   1.228   1.277
 8388SOL     OW26062   1.673   5.965   0.387
 8388SOL    HW126063   1.674   5.876   0.434
 8388SOL    HW226064   1.670   6.038   0.455
 8389SOL     OW26065   6.055   3.680   2.173
 8389SOL    HW126066   6.119   3.728   2.233
 8389SOL    HW226067   6.084   3.690   2.078
 8390SOL     OW26068   3.686   1.544   6.503
 8390SOL    HW126069   3.676   1.600   6.585
 8390SOL    HW226070   3.668   1.448   6.526
 8391SOL     OW26071   6.068   5.742   0.835
 8391SOL    HW126072   6.085   5.822   0.778
 8391SOL    HW226073   6.123   5.665   0.802
 8392SOL     OW26074   6.186   3.396   3.427
 8392SOL    HW126075   6.211   3.483   3.471
 8392SOL    HW226076   6.253   3.326   3.452
 8393SOL     OW26077   6.201   0.739   2.608
 8393SOL    HW126078   6.124   0.722   2.669
 8393SOL    HW226079   6.183   0.821   2.554
 8394SOL     OW26080   5.861   3.255   1.931
 8394SOL    HW126081   5.878   3.250   2.029
 8394SOL    HW226082   5.833   3.165   1.897
 8395SOL     OW26083   2.823   6.959   5.911
 8395SOL    HW126084   2.738   6.936   5.959
 8395SOL    HW226085   2.808   6.949   5.812
 8396SOL     OW26086   4.990   4.642   2.978
 8396SOL    HW126087   5.070   4.607   3.028
 8396SOL    HW226088   5.015   4.727   2.932
 8397SOL     OW26089   0.763   0.917   3.562
 8397SOL    HW126090   0.665   0.920   3.577
 8397SOL    HW226091   0.785   0.844   3.497
 8398SOL     OW26092   5.128   2.437   6.187
 8398SOL    HW126093   5.197   2.368   6.167
 8398SOL    HW226094   5.160   2.496   6.261
 8399SOL     OW26095   6.215   6.316   7.003
 8399SOL    HW126096   6.215   6.275   0.076
 8399SOL    HW226097   6.308   6.341   6.977
 8400SOL     OW26098   1.716   2.384   4.097
 8400SOL    HW126099   1.763   2.318   4.156
 8400SOL    HW226100   1.780   2.456   4.070
 8401SOL     OW26101   2.424   1.140   5.526
 8401SOL    HW126102   2.409   1.192   5.610
 8401SOL    HW226103   2.451   1.047   5.548
 8402SOL     OW26104   5.449   1.686   6.329
 8402SOL    HW126105   5.444   1.762   6.264
 8402SOL    HW226106   5.386   1.704   6.405
 8403SOL     OW26107   0.594   3.256   4.341
 8403SOL    HW126108   0.592   3.188   4.267
 8403SOL    HW226109   0.501   3.276   4.371
 8404SOL     OW26110   4.252   0.296   6.015
 8404SOL    HW126111   4.270   0.290   6.113
 8404SOL    HW226112   4.179   0.363   6.000
 8405SOL     OW26113   3.285   1.832   6.093
 8405SOL    HW126114   3.383   1.814   6.097
 8405SOL    HW226115   3.269   1.924   6.055
 8406SOL     OW26116   4.215   6.953   0.515
 8406SOL    HW126117   4.125   6.983   0.484
 8406SOL    HW226118   4.286   7.002   0.464
 8407SOL     OW26119   4.185   6.521   3.412
 8407SOL    HW126120   4.269   6.487   3.370
 8407SOL    HW226121   4.140   6.584   3.348
 8408SOL     OW26122   5.631   4.833   0.317
 8408SOL    HW126123   5.562   4.762   0.335
 8408SOL    HW226124   5.612   4.913   0.374
 8409SOL     OW26125   4.958   2.335   1.879
 8409SOL    HW126126   4.912   2.362   1.794
 8409SOL    HW226127   4.957   2.236   1.888
 8410SOL     OW26128   6.529   2.119   1.871
 8410SOL    HW126129   6.490   2.193   1.926
 8410SOL    HW226130   6.522   2.033   1.922
 8411SOL     OW26131   0.405   5.933   1.175
 8411SOL    HW126132   0.334   5.885   1.226
 8411SOL    HW226133   0.444   5.872   1.106
 8412SOL     OW26134   4.022   2.149   1.331
 8412SOL    HW126135   4.010   2.142   1.232
 8412SOL    HW226136   4.110   2.191   1.352
 8413SOL     OW26137   4.677   5.539   6.298
 8413SOL    HW126138   4.610   5.505   6.364
 8413SOL    HW226139   4.762   5.488   6.307
 8414SOL     OW26140   2.329   1.039   2.979
 8414SOL    HW126141   2.293   1.095   3.055
 8414SOL    HW226142   2.265   1.042   2.903
 8415SOL     OW26143   1.963   6.527   4.309
 8415SOL    HW126144   2.015   6.611   4.290
 8415SOL    HW226145   2.025   6.449   4.311
 8416SOL     OW26146   6.248   1.858   4.811
 8416SOL    HW126147   6.336   1.881   4.769
 8416SOL    HW226148   6.218   1.768   4.779
 8417SOL     OW26149   1.799   2.884   5.390
 8417SOL    HW126150   1.745   2.892   5.306
 8417SOL    HW226151   1.896   2.891   5.368
 8418SOL     OW26152   0.063   5.560   2.017
 8418SOL    HW126153   0.048   5.463   2.040
 8418SOL    HW226154   6.993   5.606   2.008
 8419SOL     OW26155   5.722   1.591   2.871
 8419SOL    HW126156   5.793   1.651   2.909
 8419SOL    HW226157   5.635   1.641   2.867
 8420SOL     OW26158   3.186   6.630   1.866
 8420SOL    HW126159   3.181   6.598   1.772
 8420SOL    HW226160   3.099   6.669   1.894
 8421SOL     OW26161   3.068   4.926   0.122
 8421SOL    HW126162   3.022   4.864   0.059
 8421SOL    HW226163   3.115   4.998   0.071
 8422SOL     OW26164   3.767   2.066   2.516
 8422SOL    HW126165   3.793   2.074   2.420
 8422SOL    HW226166   3.669   2.084   2.525
 8423SOL     OW26167   4.547   4.219   5.535
 8423SOL    HW126168   4.512   4.225   5.441
 8423SOL    HW226169   4.644   4.196   5.533
 8424SOL     OW26170   2.071   2.013   3.157
 8424SOL    HW126171   2.095   1.931   3.104
 8424SOL    HW226172   2.122   2.091   3.123
 8425SOL     OW26173   4.158   3.475   4.514
 8425SOL    HW126174   4.166   3.563   4.562
 8425SOL    HW226175   4.156   3.490   4.416
 8426SOL     OW26176   3.539   3.225   2.801
 8426SOL    HW126177   3.500   3.138   2.831
 8426SOL    HW226178   3.628   3.210   2.758
 8427SOL     OW26179   2.895   3.679   3.531
 8427SOL    HW126180   2.873   3.629   3.447
 8427SOL    HW226181   2.923   3.615   3.602
 8428SOL     OW26182   6.844   6.352   1.731
 8428SOL    HW126183   6.828   6.449   1.714
 8428SOL    HW226184   6.823   6.331   1.827
 8429SOL     OW26185   1.663   5.371   5.691
 8429SOL    HW126186   1.673   5.272   5.690
 8429SOL    HW226187   1.575   5.396   5.650
 8430SOL     OW26188   4.010   5.263   4.073
 8430SOL    HW126189   3.999   5.167   4.050
 8430SOL    HW226190   4.080   5.272   4.144
 8431SOL     OW26191   3.800   3.525   0.385
 8431SOL    HW126192   3.809   3.492   0.479
 8431SOL    HW226193   3.703   3.528   0.360
 8432SOL     OW26194   6.719   5.466   5.181
 8432SOL    HW126195   6.690   5.458   5.276
 8432SOL    HW226196   6.793   5.533   5.175
 8433SOL     OW26197   4.165   2.923   0.785
 8433SOL    HW126198   4.092   2.856   0.799
 8433SOL    HW226199   4.211   2.941   0.872
 8434SOL     OW26200   2.357   6.252   4.486
 8434SOL    HW126201   2.424   6.180   4.468
 8434SOL    HW226202   2.400   6.325   4.539
 8435SOL     OW26203   5.432   0.292   2.974
 8435SOL    HW126204   5.455   0.369   2.914
 8435SOL    HW226205   5.382   0.326   3.054
 8436SOL     OW26206   2.965   6.218   3.908
 8436SOL    HW126207   3.035   6.263   3.852
 8436SOL    HW226208   2.898   6.174   3.848
 8437SOL     OW26209   2.364   2.659   2.471
 8437SOL    HW126210   2.354   2.564   2.442
 8437SOL    HW226211   2.409   2.711   2.398
 8438SOL     OW26212   2.515   4.591   2.568
 8438SOL    HW126213   2.614   4.587   2.555
 8438SOL    HW226214   2.483   4.503   2.603
 8439SOL     OW26215   6.626   5.001   3.174
 8439SOL    HW126216   6.563   4.935   3.134
 8439SOL    HW226217   6.645   4.977   3.269
 8440SOL     OW26218   2.418   2.219   3.496
 8440SOL    HW126219   2.406   2.157   3.574
 8440SOL    HW226220   2.336   2.275   3.485
 8441SOL     OW26221   5.423   6.054   5.822
 8441SOL    HW126222   5.469   6.020   5.904
 8441SOL    HW226223   5.432   6.154   5.817
 8442SOL     OW26224   3.926   0.945   5.126
 8442SOL    HW126225   3.951   1.025   5.072
 8442SOL    HW226226   3.960   0.863   5.080
 8443SOL     OW26227   2.160   5.102   3.565
 8443SOL    HW126228   2.186   5.011   3.597
 8443SOL    HW226229   2.062   5.104   3.544
 8444SOL     OW26230   3.261   6.769   3.412
 8444SOL    HW126231   3.209   6.844   3.452
 8444SOL    HW226232   3.232   6.683   3.455
 8445SOL     OW26233   2.837   0.331   0.720
 8445SOL    HW126234   2.774   0.255   0.704
 8445SOL    HW226235   2.931   0.296   0.725
 8446SOL     OW26236   6.647   6.039   5.207
 8446SOL    HW126237   6.573   6.000   5.262
 8446SOL    HW226238   6.610   6.075   5.122
 8447SOL     OW26239   3.732   1.303   1.333
 8447SOL    HW126240   3.632   1.307   1.343
 8447SOL    HW226241   3.770   1.240   1.401
 8448SOL     OW26242   4.627   6.505   3.332
 8448SOL    HW126243   4.574   6.461   3.404
 8448SOL    HW226244   4.723   6.509   3.358
 8449SOL     OW26245   0.455   3.338   3.646
 8449SOL    HW126246   0.366   3.361   3.686
 8449SOL    HW226247   0.499   3.269   3.703
 8450SOL     OW26248   0.513   1.092   1.346
 8450SOL    HW126249   0.565   1.008   1.329
 8450SOL    HW226250   0.434   1.071   1.403
 8451SOL     OW26251   3.034   0.794   0.385
 8451SOL    HW126252   3.106   0.772   0.319
 8451SOL    HW226253   3.074   0.845   0.461
 8452SOL     OW26254   5.011   2.767   4.643
 8452SOL    HW126255   4.946   2.843   4.644
 8452SOL    HW226256   4.978   2.693   4.701
 8453SOL     OW26257   0.054   5.460   0.075
 8453SOL    HW126258   0.049   5.531   0.145
 8453SOL    HW226259   7.005   5.389   0.095
 8454SOL     OW26260   0.084   5.105   0.077
 8454SOL    HW126261   7.015   5.152   0.092
 8454SOL    HW226262   0.157   5.155   0.125
 8455SOL     OW26263   6.845   2.250   3.286
 8455SOL    HW126264   6.764   2.227   3.231
 8455SOL    HW226265   6.927   2.215   3.242
 8456SOL     OW26266   4.757   0.723   3.638
 8456SOL    HW126267   4.786   0.722   3.542
 8456SOL    HW226268   4.825   0.771   3.693
 8457SOL     OW26269   6.556   6.225   5.013
 8457SOL    HW126270   6.489   6.272   4.956
 8457SOL    HW226271   6.617   6.292   5.055
 8458SOL     OW26272   1.351   0.086   1.035
 8458SOL    HW126273   1.309   0.121   0.952
 8458SOL    HW226274   1.399   0.160   1.082
 8459SOL     OW26275   1.746   5.958   3.130
 8459SOL    HW126276   1.722   6.027   3.062
 8459SOL    HW226277   1.701   5.979   3.217
 8460SOL     OW26278   4.657   3.760   5.410
 8460SOL    HW126279   4.674   3.717   5.322
 8460SOL    HW226280   4.742   3.802   5.444
 8461SOL     OW26281   1.226   2.393   5.023
 8461SOL    HW126282   1.171   2.464   4.979
 8461SOL    HW226283   1.173   2.350   5.095
 8462SOL     OW26284   3.260   1.556   0.426
 8462SOL    HW126285   3.261   1.456   0.432
 8462SOL    HW226286   3.274   1.594   0.518
 8463SOL     OW26287   6.372   0.122   1.958
 8463SOL    HW126288   6.326   0.062   2.024
 8463SOL    HW226289   6.470   0.107   1.961
 8464SOL     OW26290   5.643   4.230   4.238
 8464SOL    HW126291   5.558   4.200   4.196
 8464SOL    HW226292   5.637   4.327   4.261
 8465SOL     OW26293   1.660   2.149   0.803
 8465SOL    HW126294   1.587   2.116   0.862
 8465SOL    HW226295   1.747   2.146   0.852
 8466SOL     OW26296   1.171   6.048   3.874
 8466SOL    HW126297   1.094   6.021   3.815
 8466SOL    HW226298   1.248   5.988   3.858
 8467SOL     OW26299   2.961   5.898   0.838
 8467SOL    HW126300   2.931   5.904   0.933
 8467SOL    HW226301   2.979   5.802   0.815
 8468SOL     OW26302   3.043   1.701   1.094
 8468SOL    HW126303   3.139   1.678   1.109
 8468SOL    HW226304   3.034   1.798   1.070
 8469SOL     OW26305   3.074   2.888   6.744
 8469SOL    HW126306   3.106   2.799   6.712
 8469SOL    HW226307   3.017   2.930   6.673
 8470SOL     OW26308   2.233   3.225   1.749
 8470SOL    HW126309   2.137   3.226   1.775
 8470SOL    HW226310   2.277   3.310   1.779
 8471SOL     OW26311   2.448   0.675   3.481
 8471SOL    HW126312   2.411   0.584   3.498
 8471SOL    HW226313   2.523   0.670   3.416
 8472SOL     OW26314   0.406   0.229   4.256
 8472SOL    HW126315   0.359   0.192   4.176
 8472SOL    HW226316   0.499   0.256   4.230
 8473SOL     OW26317   0.169   5.505   6.837
 8473SOL    HW126318   0.123   5.480   6.922
 8473SOL    HW226319   0.189   5.423   6.784
 8474SOL     OW26320   3.050   3.030   1.969
 8474SOL    HW126321   3.027   3.127   1.970
 8474SOL    HW226322   3.086   3.003   2.058
 8475SOL     OW26323   6.578   1.775   2.838
 8475SOL    HW126324   6.623   1.711   2.900
 8475SOL    HW226325   6.629   1.782   2.753
 8476SOL     OW26326   6.327   0.403   1.942
 8476SOL    HW126327   6.331   0.303   1.943
 8476SOL    HW226328   6.279   0.433   1.860
 8477SOL     OW26329   2.949   6.100   1.344
 8477SOL    HW126330   2.857   6.136   1.331
 8477SOL    HW226331   2.989   6.139   1.427
 8478SOL     OW26332   1.600   0.518   5.496
 8478SOL    HW126333   1.590   0.599   5.438
 8478SOL    HW226334   1.531   0.520   5.568
 8479SOL     OW26335   5.784   1.080   0.266
 8479SOL    HW126336   5.693   1.084   0.307
 8479SOL    HW226337   5.842   1.019   0.320
 8480SOL     OW26338   3.255   0.986   1.067
 8480SOL    HW126339   3.277   0.893   1.097
 8480SOL    HW226340   3.182   1.023   1.124
 8481SOL     OW26341   3.690   1.462   3.886
 8481SOL    HW126342   3.786   1.489   3.895
 8481SOL    HW226343   3.632   1.530   3.929
 8482SOL     OW26344   2.204   0.004   2.091
 8482SOL    HW126345   2.295   6.982   2.097
 8482SOL    HW226346   2.159   6.992   2.007
 8483SOL     OW26347   3.155   5.606   2.412
 8483SOL    HW126348   3.090   5.611   2.336
 8483SOL    HW226349   3.106   5.618   2.499
 8484SOL     OW26350   0.167   4.640   2.894
 8484SOL    HW126351   0.236   4.695   2.848
 8484SOL    HW226352   0.128   4.692   2.969
 8485SOL     OW26353   1.741   3.638   6.942
 8485SOL    HW126354   1.801   3.717   6.957
 8485SOL    HW226355   1.784   3.577   6.876
 8486SOL     OW26356   5.368   1.371   2.288
 8486SOL    HW126357   5.338   1.453   2.239
 8486SOL    HW226358   5.465   1.355   2.269
 8487SOL     OW26359   5.181   0.195   0.692
 8487SOL    HW126360   5.211   0.112   0.740
 8487SOL    HW226361   5.237   0.208   0.610
 8488SOL     OW26362   5.511   5.478   4.948
 8488SOL    HW126363   5.576   5.512   5.016
 8488SOL    HW226364   5.558   5.414   4.887
 8489SOL     OW26365   5.892   6.632   1.364
 8489SOL    HW126366   5.826   6.706   1.349
 8489SOL    HW226367   5.951   6.624   1.284
 8490SOL     OW26368   4.844   6.390   3.534
 8490SOL    HW126369   4.799   6.425   3.616
 8490SOL    HW226370   4.840   6.290   3.534
 8491SOL     OW26371   2.417   0.661   1.845
 8491SOL    HW126372   2.426   0.562   1.834
 8491SOL    HW226373   2.320   0.686   1.843
 8492SOL     OW26374   4.681   3.781   5.846
 8492SOL    HW126375   4.594   3.827   5.865
 8492SOL    HW226376   4.702   3.718   5.921
 8493SOL     OW26377   3.362   2.191   0.228
 8493SOL    HW126378   3.329   2.153   0.314
 8493SOL    HW226379   3.459   2.212   0.235
 8494SOL     OW26380   1.845   4.547   6.207
 8494SOL    HW126381   1.826   4.604   6.287
 8494SOL    HW226382   1.762   4.499   6.179
 8495SOL     OW26383   0.208   3.394   0.786
 8495SOL    HW126384   0.233   3.429   0.696
 8495SOL    HW226385   0.159   3.307   0.776
 8496SOL     OW26386   0.361   2.093   3.004
 8496SOL    HW126387   0.433   2.107   3.072
 8496SOL    HW226388   0.346   2.178   2.954
 8497SOL     OW26389   5.376   6.410   4.105
 8497SOL    HW126390   5.434   6.419   4.024
 8497SOL    HW226391   5.337   6.318   4.108
 8498SOL     OW26392   0.199   6.560   1.650
 8498SOL    HW126393   0.237   6.476   1.612
 8498SOL    HW226394   0.270   6.631   1.650
 8499SOL     OW26395   2.254   5.459   5.941
 8499SOL    HW126396   2.309   5.542   5.945
 8499SOL    HW226397   2.297   5.394   5.877
 8500SOL     OW26398   2.442   0.626   5.848
 8500SOL    HW126399   2.400   0.687   5.782
 8500SOL    HW226400   2.474   0.543   5.802
 8501SOL     OW26401   1.765   2.415   6.887
 8501SOL    HW126402   1.764   2.352   6.965
 8501SOL    HW226403   1.843   2.392   6.828
 8502SOL     OW26404   0.660   5.180   1.499
 8502SOL    HW126405   0.686   5.220   1.587
 8502SOL    HW226406   0.574   5.220   1.468
 8503SOL     OW26407   1.205   5.233   2.819
 8503SOL    HW126408   1.238   5.139   2.825
 8503SOL    HW226409   1.109   5.237   2.848
 8504SOL     OW26410   1.830   6.019   3.530
 8504SOL    HW126411   1.764   5.965   3.477
 8504SOL    HW226412   1.921   5.977   3.524
 8505SOL     OW26413   4.955   4.223   3.218
 8505SOL    HW126414   4.960   4.320   3.241
 8505SOL    HW226415   4.878   4.181   3.267
 8506SOL     OW26416   0.623   6.812   0.394
 8506SOL    HW126417   0.597   6.729   0.345
 8506SOL    HW226418   0.589   6.806   0.488
 8507SOL     OW26419   2.230   1.061   5.315
 8507SOL    HW126420   2.307   1.123   5.328
 8507SOL    HW226421   2.220   1.002   5.395
 8508SOL     OW26422   0.028   3.031   5.024
 8508SOL    HW126423   0.074   3.118   5.007
 8508SOL    HW226424   6.977   3.042   5.094
 8509SOL     OW26425   6.270   1.687   5.029
 8509SOL    HW126426   6.279   1.676   4.930
 8509SOL    HW226427   6.225   1.774   5.049
 8510SOL     OW26428   6.901   5.129   3.326
 8510SOL    HW126429   6.996   5.153   3.306
 8510SOL    HW226430   6.842   5.206   3.304
 8511SOL     OW26431   5.602   4.340   1.880
 8511SOL    HW126432   5.673   4.397   1.839
 8511SOL    HW226433   5.564   4.386   1.961
 8512SOL     OW26434   3.895   2.009   0.305
 8512SOL    HW126435   3.933   2.093   0.345
 8512SOL    HW226436   3.948   1.930   0.336
 8513SOL     OW26437   4.827   4.248   1.277
 8513SOL    HW126438   4.924   4.237   1.256
 8513SOL    HW226439   4.804   4.196   1.359
 8514SOL     OW26440   2.543   2.615   3.518
 8514SOL    HW126441   2.576   2.524   3.542
 8514SOL    HW226442   2.514   2.616   3.422
 8515SOL     OW26443   0.595   1.174   6.712
 8515SOL    HW126444   0.588   1.274   6.711
 8515SOL    HW226445   0.508   1.134   6.740
 8516SOL     OW26446   6.098   3.520   1.892
 8516SOL    HW126447   6.115   3.435   1.844
 8516SOL    HW226448   5.999   3.537   1.895
 8517SOL     OW26449   2.143   2.746   5.961
 8517SOL    HW126450   2.150   2.654   6.001
 8517SOL    HW226451   2.050   2.781   5.974
 8518SOL     OW26452   5.539   4.138   5.883
 8518SOL    HW126453   5.531   4.189   5.798
 8518SOL    HW226454   5.575   4.047   5.864
 8519SOL     OW26455   0.330   4.761   0.937
 8519SOL    HW126456   0.410   4.802   0.893
 8519SOL    HW226457   0.359   4.680   0.989
 8520SOL     OW26458   3.281   3.363   5.556
 8520SOL    HW126459   3.235   3.400   5.475
 8520SOL    HW226460   3.352   3.299   5.528
 8521SOL     OW26461   1.799   6.276   5.551
 8521SOL    HW126462   1.757   6.213   5.616
 8521SOL    HW226463   1.895   6.292   5.577
 8522SOL     OW26464   0.160   6.852   1.391
 8522SOL    HW126465   0.096   6.926   1.412
 8522SOL    HW226466   0.213   6.829   1.473
 8523SOL     OW26467   2.917   6.675   7.016
 8523SOL    HW126468   2.911   6.575   7.017
 8523SOL    HW226469   2.886   6.709   6.927
 8524SOL     OW26470   1.358   3.897   4.987
 8524SOL    HW126471   1.354   3.898   5.087
 8524SOL    HW226472   1.372   3.990   4.953
 8525SOL     OW26473   5.814   5.253   1.257
 8525SOL    HW126474   5.751   5.200   1.200
 8525SOL    HW226475   5.890   5.286   1.201
 8526SOL     OW26476   3.229   6.844   0.703
 8526SOL    HW126477   3.197   6.767   0.759
 8526SOL    HW226478   3.201   6.831   0.608
 8527SOL     OW26479   3.564   0.605   0.159
 8527SOL    HW126480   3.580   0.508   0.138
 8527SOL    HW226481   3.544   0.615   0.256
 8528SOL     OW26482   3.731   1.510   1.000
 8528SOL    HW126483   3.761   1.591   1.049
 8528SOL    HW226484   3.804   1.441   1.001
 8529SOL     OW26485   1.250   6.571   0.420
 8529SOL    HW126486   1.212   6.649   0.470
 8529SOL    HW226487   1.253   6.592   0.322
 8530SOL     OW26488   3.855   3.764   5.013
 8530SOL    HW126489   3.949   3.773   4.981
 8530SOL    HW226490   3.818   3.854   5.033
 8531SOL     OW26491   6.974   5.558   2.845
 8531SOL    HW126492   6.920   5.482   2.882
 8531SOL    HW226493   0.020   5.589   2.915
 8532SOL     OW26494   3.996   6.267   4.528
 8532SOL    HW126495   4.063   6.331   4.565
 8532SOL    HW226496   3.939   6.313   4.460
 8533SOL     OW26497   1.690   5.812   0.042
 8533SOL    HW126498   1.783   5.806   0.078
 8533SOL    HW226499   1.633   5.742   0.085
 8534SOL     OW26500   4.703   2.823   3.784
 8534SOL    HW126501   4.635   2.896   3.792
 8534SOL    HW226502   4.792   2.856   3.814
 8535SOL     OW26503   5.753   1.230   4.506
 8535SOL    HW126504   5.698   1.170   4.448
 8535SOL    HW226505   5.703   1.249   4.591
 8536SOL     OW26506   0.925   1.773   4.920
 8536SOL    HW126507   0.865   1.761   4.999
 8536SOL    HW226508   0.933   1.686   4.870
 8537SOL     OW26509   5.313   1.768   3.584
 8537SOL    HW126510   5.306   1.677   3.543
 8537SOL    HW226511   5.272   1.835   3.522
 8538SOL     OW26512   2.142   1.474   6.986
 8538SOL    HW126513   2.161   1.465   0.065
 8538SOL    HW226514   2.223   1.446   6.933
 8539SOL     OW26515   6.780   1.905   2.189
 8539SOL    HW126516   6.832   1.974   2.138
 8539SOL    HW226517   6.738   1.841   2.124
 8540SOL     OW26518   5.653   0.156   6.593
 8540SOL    HW126519   5.676   0.190   6.502
 8540SOL    HW226520   5.609   0.228   6.646
 8541SOL     OW26521   3.524   1.836   3.413
 8541SOL    HW126522   3.453   1.788   3.464
 8541SOL    HW226523   3.485   1.916   3.368
 8542SOL     OW26524   3.838   4.323   6.111
 8542SOL    HW126525   3.813   4.235   6.150
 8542SOL    HW226526   3.898   4.372   6.174
 8543SOL     OW26527   1.848   1.372   1.388
 8543SOL    HW126528   1.875   1.442   1.455
 8543SOL    HW226529   1.753   1.387   1.360
 8544SOL     OW26530   5.793   2.958   4.285
 8544SOL    HW126531   5.835   2.933   4.372
 8544SOL    HW226532   5.694   2.947   4.292
 8545SOL     OW26533   4.549   0.147   5.591
 8545SOL    HW126534   4.541   0.204   5.509
 8545SOL    HW226535   4.470   0.085   5.596
 8546SOL     OW26536   5.677   2.547   4.009
 8546SOL    HW126537   5.713   2.470   4.061
 8546SOL    HW226538   5.588   2.524   3.971
 8547SOL     OW26539   0.757   6.687   6.330
 8547SOL    HW126540   0.718   6.765   6.281
 8547SOL    HW226541   0.741   6.604   6.277
 8548SOL     OW26542   6.255   2.554   4.847
 8548SOL    HW126543   6.322   2.599   4.906
 8548SOL    HW226544   6.184   2.512   4.903
 8549SOL     OW26545   0.439   3.624   4.175
 8549SOL    HW126546   0.370   3.561   4.139
 8549SOL    HW226547   0.434   3.710   4.125
 8550SOL     OW26548   1.941   4.558   6.594
 8550SOL    HW126549   2.025   4.509   6.573
 8550SOL    HW226550   1.875   4.495   6.635
 8551SOL     OW26551   3.730   4.402   6.410
 8551SOL    HW126552   3.798   4.331   6.424
 8551SOL    HW226553   3.741   4.473   6.480
 8552SOL     OW26554   2.867   6.264   4.192
 8552SOL    HW126555   2.961   6.266   4.226
 8552SOL    HW226556   2.864   6.218   4.104
 8553SOL     OW26557   5.618   5.651   6.733
 8553SOL    HW126558   5.699   5.708   6.736
 8553SOL    HW226559   5.637   5.569   6.678
 8554SOL     OW26560   0.433   5.021   0.238
 8554SOL    HW126561   0.357   4.956   0.229
 8554SOL    HW226562   0.507   4.994   0.177
 8555SOL     OW26563   1.036   0.459   3.145
 8555SOL    HW126564   0.941   0.488   3.158
 8555SOL    HW226565   1.048   0.424   3.052
 8556SOL     OW26566   0.768   6.795   3.242
 8556SOL    HW126567   0.865   6.812   3.227
 8556SOL    HW226568   0.722   6.783   3.154
 8557SOL     OW26569   6.593   1.538   2.288
 8557SOL    HW126570   6.641   1.550   2.201
 8557SOL    HW226571   6.566   1.628   2.324
 8558SOL     OW26572   2.698   5.413   2.995
 8558SOL    HW126573   2.713   5.360   2.911
 8558SOL    HW226574   2.747   5.500   2.988
 8559SOL     OW26575   6.328   0.719   2.282
 8559SOL    HW126576   6.326   0.765   2.370
 8559SOL    HW226577   6.417   0.735   2.239
 8560SOL     OW26578   6.762   0.353   1.090
 8560SOL    HW126579   6.841   0.404   1.125
 8560SOL    HW226580   6.681   0.373   1.146
 8561SOL     OW26581   3.674   6.213   2.421
 8561SOL    HW126582   3.707   6.263   2.501
 8561SOL    HW226583   3.735   6.229   2.344
 8562SOL     OW26584   5.166   0.196   4.673
 8562SOL    HW126585   5.184   0.123   4.608
 8562SOL    HW226586   5.067   0.208   4.683
 8563SOL     OW26587   2.505   2.987   6.588
 8563SOL    HW126588   2.438   3.044   6.635
 8563SOL    HW226589   2.458   2.929   6.521
 8564SOL     OW26590   2.153   0.634   3.348
 8564SOL    HW126591   2.099   0.581   3.413
 8564SOL    HW226592   2.238   0.664   3.393
 8565SOL     OW26593   4.341   6.881   1.437
 8565SOL    HW126594   4.322   6.786   1.463
 8565SOL    HW226595   4.268   6.913   1.376
 8566SOL     OW26596   1.159   1.171   2.692
 8566SOL    HW126597   1.231   1.196   2.627
 8566SOL    HW226598   1.171   1.077   2.722
 8567SOL     OW26599   6.509   1.778   1.495
 8567SOL    HW126600   6.562   1.699   1.466
 8567SOL    HW226601   6.526   1.854   1.433
 8568SOL     OW26602   4.850   1.551   6.899
 8568SOL    HW126603   4.910   1.568   6.977
 8568SOL    HW226604   4.904   1.553   6.815
 8569SOL     OW26605   4.778   1.491   5.532
 8569SOL    HW126606   4.750   1.476   5.437
 8569SOL    HW226607   4.706   1.543   5.579
 8570SOL     OW26608   1.178   2.883   6.097
 8570SOL    HW126609   1.081   2.862   6.090
 8570SOL    HW226610   1.225   2.851   6.015
 8571SOL     OW26611   0.220   5.212   5.638
 8571SOL    HW126612   0.143   5.223   5.700
 8571SOL    HW226613   0.195   5.247   5.547
 8572SOL     OW26614   2.290   5.202   5.720
 8572SOL    HW126615   2.375   5.244   5.689
 8572SOL    HW226616   2.217   5.222   5.656
 8573SOL     OW26617   3.718   6.307   6.708
 8573SOL    HW126618   3.656   6.232   6.733
 8573SOL    HW226619   3.706   6.328   6.611
 8574SOL     OW26620   0.638   4.659   5.518
 8574SOL    HW126621   0.675   4.585   5.575
 8574SOL    HW226622   0.642   4.632   5.422
 8575SOL     OW26623   2.691   2.324   0.003
 8575SOL    HW126624   2.779   2.278   0.016
 8575SOL    HW226625   2.628   2.297   0.077
 8576SOL     OW26626   0.645   6.594   0.929
 8576SOL    HW126627   0.713   6.559   0.865
 8576SOL    HW226628   0.678   6.581   1.023
 8577SOL     OW26629   6.042   5.393   4.685
 8577SOL    HW126630   5.956   5.442   4.673
 8577SOL    HW226631   6.027   5.295   4.679
 8578SOL     OW26632   4.876   0.547   4.121
 8578SOL    HW126633   4.953   0.564   4.182
 8578SOL    HW226634   4.825   0.632   4.107
 8579SOL     OW26635   1.455   5.720   3.585
 8579SOL    HW126636   1.453   5.628   3.625
 8579SOL    HW226637   1.529   5.773   3.627
 8580SOL     OW26638   2.361   6.793   1.714
 8580SOL    HW126639   2.317   6.879   1.737
 8580SOL    HW226640   2.441   6.779   1.773
 8581SOL     OW26641   3.440   2.728   1.664
 8581SOL    HW126642   3.352   2.750   1.706
 8581SOL    HW226643   3.459   2.630   1.673
 8582SOL     OW26644   4.764   4.560   2.482
 8582SOL    HW126645   4.719   4.471   2.492
 8582SOL    HW226646   4.825   4.575   2.559
 8583SOL     OW26647   5.737   0.993   6.207
 8583SOL    HW126648   5.791   1.073   6.182
 8583SOL    HW226649   5.712   0.942   6.124
 8584SOL     OW26650   0.308   4.431   6.964
 8584SOL    HW126651   0.387   4.385   7.004
 8584SOL    HW226652   0.227   4.373   6.975
 8585SOL     OW26653   6.990   6.955   0.322
 8585SOL    HW126654   0.001   6.920   0.411
 8585SOL    HW226655   6.904   6.910   0.296
 8586SOL     OW26656   2.706   6.445   3.007
 8586SOL    HW126657   2.732   6.348   3.016
 8586SOL    HW226658   2.760   6.487   2.935
 8587SOL     OW26659   0.851   0.178   2.759
 8587SOL    HW126660   0.930   0.237   2.748
 8587SOL    HW226661   0.768   0.228   2.733
 8588SOL     OW26662   3.006   1.054   0.172
 8588SOL    HW126663   2.978   1.139   0.216
 8588SOL    HW226664   2.950   0.979   0.205
 8589SOL     OW26665   4.104   1.594   4.368
 8589SOL    HW126666   4.186   1.575   4.422
 8589SOL    HW226667   4.131   1.632   4.279
 8590SOL     OW26668   6.573   5.923   4.196
 8590SOL    HW126669   6.507   5.986   4.238
 8590SOL    HW226670   6.624   5.876   4.268
 8591SOL     OW26671   0.511   4.275   6.502
 8591SOL    HW126672   0.537   4.273   6.598
 8591SOL    HW226673   0.473   4.364   6.479
 8592SOL     OW26674   0.111   4.207   6.943
 8592SOL    HW126675   0.045   4.262   6.995
 8592SOL    HW226676   0.154   4.141   7.004
 8593SOL     OW26677   1.120   6.669   1.920
 8593SOL    HW126678   1.170   6.745   1.961
 8593SOL    HW226679   1.106   6.597   1.988
 8594SOL     OW26680   3.353   3.870   5.022
 8594SOL    HW126681   3.418   3.794   5.016
 8594SOL    HW226682   3.360   3.927   4.941
 8595SOL     OW26683   2.089   1.572   2.588
 8595SOL    HW126684   2.087   1.543   2.493
 8595SOL    HW226685   2.121   1.497   2.646
 8596SOL     OW26686   5.737   5.381   2.241
 8596SOL    HW126687   5.703   5.384   2.335
 8596SOL    HW226688   5.699   5.301   2.195
 8597SOL     OW26689   3.962   2.020   1.549
 8597SOL    HW126690   3.975   2.082   1.472
 8597SOL    HW226691   3.910   2.067   1.621
 8598SOL     OW26692   0.096   5.389   1.274
 8598SOL    HW126693   0.093   5.366   1.371
 8598SOL    HW226694   0.190   5.380   1.241
 8599SOL     OW26695   1.279   3.160   3.799
 8599SOL    HW126696   1.243   3.076   3.838
 8599SOL    HW226697   1.291   3.228   3.871
 8600SOL     OW26698   5.822   5.038   6.595
 8600SOL    HW126699   5.850   4.942   6.590
 8600SOL    HW226700   5.864   5.089   6.521
 8601SOL     OW26701   0.591   1.300   4.655
 8601SOL    HW126702   0.527   1.275   4.728
 8601SOL    HW226703   0.583   1.234   4.581
 8602SOL     OW26704   2.371   6.664   2.547
 8602SOL    HW126705   2.365   6.584   2.487
 8602SOL    HW226706   2.382   6.747   2.493
 8603SOL     OW26707   3.863   3.896   0.414
 8603SOL    HW126708   3.899   3.828   0.351
 8603SOL    HW226709   3.875   3.988   0.376
 8604SOL     OW26710   5.893   2.783   3.712
 8604SOL    HW126711   5.858   2.692   3.693
 8604SOL    HW226712   5.952   2.781   3.793
 8605SOL     OW26713   3.152   4.911   4.246
 8605SOL    HW126714   3.123   4.937   4.339
 8605SOL    HW226715   3.252   4.919   4.239
 8606SOL     OW26716   2.125   4.034   6.008
 8606SOL    HW126717   2.032   4.041   6.046
 8606SOL    HW226718   2.124   4.065   5.913
 8607SOL     OW26719   3.112   4.912   1.136
 8607SOL    HW126720   3.089   4.878   1.227
 8607SOL    HW226721   3.046   4.876   1.070
 8608SOL     OW26722   4.700   4.949   3.273
 8608SOL    HW126723   4.702   4.941   3.173
 8608SOL    HW226724   4.746   5.034   3.300
 8609SOL     OW26725   3.872   0.911   4.205
 8609SOL    HW126726   3.774   0.910   4.186
 8609SOL    HW226727   3.910   0.820   4.191
 8610SOL     OW26728   1.351   0.114   3.117
 8610SOL    HW126729   1.278   0.049   3.099
 8610SOL    HW226730   1.440   0.070   3.102
 8611SOL     OW26731   1.731   2.000   4.263
 8611SOL    HW126732   1.673   2.010   4.181
 8611SOL    HW226733   1.766   1.907   4.267
 8612SOL     OW26734   3.292   3.221   6.543
 8612SOL    HW126735   3.223   3.286   6.513
 8612SOL    HW226736   3.274   3.132   6.503
 8613SOL     OW26737   2.323   1.416   1.477
 8613SOL    HW126738   2.421   1.406   1.457
 8613SOL    HW226739   2.284   1.488   1.420
 8614SOL     OW26740   1.119   3.926   2.699
 8614SOL    HW126741   1.075   4.008   2.736
 8614SOL    HW226742   1.118   3.930   2.599
 8615SOL     OW26743   4.650   1.848   4.947
 8615SOL    HW126744   4.628   1.940   4.980
 8615SOL    HW226745   4.566   1.795   4.937
 8616SOL     OW26746   0.604   5.062   0.438
 8616SOL    HW126747   0.538   5.049   0.364
 8616SOL    HW226748   0.568   5.130   0.502
 8617SOL     OW26749   6.403   1.507   0.396
 8617SOL    HW126750   6.437   1.534   0.486
 8617SOL    HW226751   6.309   1.538   0.384
 8618SOL     OW26752   4.885   6.866   1.769
 8618SOL    HW126753   4.790   6.850   1.741
 8618SOL    HW226754   4.892   6.855   1.868
 8619SOL     OW26755   3.702   4.830   0.188
 8619SOL    HW126756   3.675   4.890   0.263
 8619SOL    HW226757   3.676   4.736   0.210
 8620SOL     OW26758   6.289   6.812   3.078
 8620SOL    HW126759   6.206   6.778   3.034
 8620SOL    HW226760   6.265   6.864   3.160
 8621SOL     OW26761   6.026   1.481   3.482
 8621SOL    HW126762   6.064   1.572   3.470
 8621SOL    HW226763   6.101   1.414   3.480
 8622SOL     OW26764   4.493   4.483   0.234
 8622SOL    HW126765   4.500   4.422   0.313
 8622SOL    HW226766   4.583   4.493   0.192
 8623SOL     OW26767   0.567   4.235   3.267
 8623SOL    HW126768   0.491   4.195   3.216
 8623SOL    HW226769   0.532   4.306   3.329
 8624SOL     OW26770   1.139   4.830   3.803
 8624SOL    HW126771   1.098   4.763   3.741
 8624SOL    HW226772   1.205   4.784   3.863
 8625SOL     OW26773   4.543   0.579   4.065
 8625SOL    HW126774   4.462   0.631   4.037
 8625SOL    HW226775   4.597   0.633   4.130
 8626SOL     OW26776   4.039   3.136   4.319
 8626SOL    HW126777   4.007   3.043   4.335
 8626SOL    HW226778   4.068   3.177   4.405
 8627SOL     OW26779   1.091   0.283   2.649
 8627SOL    HW126780   1.088   0.194   2.604
 8627SOL    HW226781   1.150   0.345   2.598
 8628SOL     OW26782   6.487   6.966   0.772
 8628SOL    HW126783   6.450   6.884   0.816
 8628SOL    HW226784   6.431   6.990   0.692
 8629SOL     OW26785   1.703   5.163   4.713
 8629SOL    HW126786   1.677   5.067   4.718
 8629SOL    HW226787   1.801   5.173   4.727
 8630SOL     OW26788   5.992   3.931   4.904
 8630SOL    HW126789   6.043   3.957   4.821
 8630SOL    HW226790   5.894   3.939   4.887
 8631SOL     OW26791   3.821   6.240   6.231
 8631SOL    HW126792   3.849   6.216   6.139
 8631SOL    HW226793   3.840   6.164   6.293
 8632SOL     OW26794   3.443   6.324   3.845
 8632SOL    HW126795   3.501   6.242   3.836
 8632SOL    HW226796   3.430   6.345   3.942
 8633SOL     OW26797   5.228   1.271   4.151
 8633SOL    HW126798   5.169   1.351   4.138
 8633SOL    HW226799   5.256   1.267   4.247
 8634SOL     OW26800   6.617   2.821   0.685
 8634SOL    HW126801   6.583   2.830   0.591
 8634SOL    HW226802   6.539   2.820   0.748
 8635SOL     OW26803   5.836   3.628   5.680
 8635SOL    HW126804   5.788   3.628   5.592
 8635SOL    HW226805   5.908   3.697   5.680
 8636SOL     OW26806   6.041   5.235   6.855
 8636SOL    HW126807   6.035   5.139   6.830
 8636SOL    HW226808   5.965   5.286   6.813
 8637SOL     OW26809   1.263   0.461   0.560
 8637SOL    HW126810   1.342   0.518   0.538
 8637SOL    HW226811   1.179   0.513   0.546
 8638SOL     OW26812   2.155   3.185   0.144
 8638SOL    HW126813   2.136   3.271   0.191
 8638SOL    HW226814   2.151   3.110   0.210
 8639SOL     OW26815   5.832   2.716   1.802
 8639SOL    HW126816   5.740   2.677   1.803
 8639SOL    HW226817   5.860   2.735   1.708
 8640SOL     OW26818   5.006   3.933   0.678
 8640SOL    HW126819   5.092   3.977   0.704
 8640SOL    HW226820   5.006   3.918   0.579
 8641SOL     OW26821   6.873   3.972   4.369
 8641SOL    HW126822   6.825   3.923   4.296
 8641SOL    HW226823   6.972   3.957   4.359
 8642SOL     OW26824   4.244   0.292   2.422
 8642SOL    HW126825   4.295   0.208   2.401
 8642SOL    HW226826   4.154   0.288   2.379
 8643SOL     OW26827   4.191   6.549   0.015
 8643SOL    HW126828   4.275   6.530   0.066
 8643SOL    HW226829   4.188   6.646   7.009
 8644SOL     OW26830   5.227   2.185   5.638
 8644SOL    HW126831   5.159   2.157   5.570
 8644SOL    HW226832   5.188   2.253   5.699
 8645SOL     OW26833   5.624   4.785   1.901
 8645SOL    HW126834   5.525   4.803   1.903
 8645SOL    HW226835   5.652   4.745   1.988
 8646SOL     OW26836   6.077   1.014   0.935
 8646SOL    HW126837   6.167   1.019   0.892
 8646SOL    HW226838   6.035   0.925   0.917
 8647SOL     OW26839   4.041   4.963   6.299
 8647SOL    HW126840   4.136   4.981   6.324
 8647SOL    HW226841   4.019   4.868   6.322
 8648SOL     OW26842   5.472   1.405   5.069
 8648SOL    HW126843   5.444   1.317   5.106
 8648SOL    HW226844   5.567   1.400   5.038
 8649SOL     OW26845   5.818   4.848   5.857
 8649SOL    HW126846   5.776   4.784   5.922
 8649SOL    HW226847   5.811   4.811   5.764
 8650SOL     OW26848   1.689   4.862   4.697
 8650SOL    HW126849   1.786   4.840   4.699
 8650SOL    HW226850   1.647   4.838   4.785
 8651SOL     OW26851   4.004   0.683   0.734
 8651SOL    HW126852   4.094   0.667   0.692
 8651SOL    HW226853   4.009   0.765   0.792
 8652SOL     OW26854   1.468   4.404   3.121
 8652SOL    HW126855   1.425   4.467   3.185
 8652SOL    HW226856   1.452   4.310   3.151
 8653SOL     OW26857   6.308   2.821   6.384
 8653SOL    HW126858   6.224   2.819   6.438
 8653SOL    HW226859   6.336   2.916   6.369
 8654SOL     OW26860   0.641   6.460   1.726
 8654SOL    HW126861   0.566   6.483   1.788
 8654SOL    HW226862   0.725   6.448   1.777
 8655SOL     OW26863   5.829   0.624   3.734
 8655SOL    HW126864   5.733   0.652   3.738
 8655SOL    HW226865   5.834   0.527   3.708
 8656SOL     OW26866   6.426   1.391   1.160
 8656SOL    HW126867   6.417   1.328   1.238
 8656SOL    HW226868   6.339   1.393   1.110
 8657SOL     OW26869   4.514   5.520   6.509
 8657SOL    HW126870   4.515   5.458   6.587
 8657SOL    HW226871   4.419   5.532   6.477
 8658SOL     OW26872   4.534   5.619   0.276
 8658SOL    HW126873   4.600   5.572   0.217
 8658SOL    HW226874   4.461   5.658   0.221
 8659SOL     OW26875   4.753   1.410   3.157
 8659SOL    HW126876   4.778   1.501   3.192
 8659SOL    HW226877   4.676   1.419   3.094
 8660SOL     OW26878   4.908   3.635   0.790
 8660SOL    HW126879   4.825   3.688   0.773
 8660SOL    HW226880   4.984   3.697   0.809
 8661SOL     OW26881   5.932   3.901   1.942
 8661SOL    HW126882   5.899   3.903   1.847
 8661SOL    HW226883   6.032   3.901   1.943
 8662SOL     OW26884   5.068   6.435   1.899
 8662SOL    HW126885   5.063   6.370   1.975
 8662SOL    HW226886   5.161   6.439   1.864
 8663SOL     OW26887   2.336   5.463   0.548
 8663SOL    HW126888   2.325   5.542   0.488
 8663SOL    HW226889   2.278   5.473   0.629
 8664SOL     OW26890   3.740   4.747   0.597
 8664SOL    HW126891   3.753   4.737   0.696
 8664SOL    HW226892   3.647   4.779   0.579
 8665SOL     OW26893   5.489   4.936   5.254
 8665SOL    HW126894   5.577   4.982   5.263
 8665SOL    HW226895   5.431   4.956   5.333
 8666SOL     OW26896   5.344   2.699   4.825
 8666SOL    HW126897   5.319   2.772   4.761
 8666SOL    HW226898   5.442   2.700   4.840
 8667SOL     OW26899   4.892   2.337   2.905
 8667SOL    HW126900   4.892   2.437   2.902
 8667SOL    HW226901   4.814   2.302   2.855
 8668SOL     OW26902   5.059   2.740   3.958
 8668SOL    HW126903   5.011   2.659   3.925
 8668SOL    HW226904   5.157   2.724   3.957
 8669SOL     OW26905   3.251   0.155   6.881
 8669SOL    HW126906   3.242   0.056   6.886
 8669SOL    HW226907   3.292   0.181   6.794
 8670SOL     OW26908   3.321   4.903   5.089
 8670SOL    HW126909   3.392   4.972   5.082
 8670SOL    HW226910   3.357   4.821   5.134
 8671SOL     OW26911   5.601   1.075   4.104
 8671SOL    HW126912   5.530   1.064   4.035
 8671SOL    HW226913   5.624   1.172   4.113
 8672SOL     OW26914   2.580   6.044   4.415
 8672SOL    HW126915   2.554   5.967   4.355
 8672SOL    HW226916   2.565   6.018   4.510
 8673SOL     OW26917   0.239   1.209   0.008
 8673SOL    HW126918   0.298   1.142   6.981
 8673SOL    HW226919   0.292   1.292   0.027
 8674SOL     OW26920   6.538   6.011   1.499
 8674SOL    HW126921   6.530   6.108   1.522
 8674SOL    HW226922   6.606   5.968   1.559
 8675SOL     OW26923   3.349   1.995   4.107
 8675SOL    HW126924   3.436   2.038   4.082
 8675SOL    HW226925   3.311   2.040   4.187
 8676SOL     OW26926   3.397   6.705   3.167
 8676SOL    HW126927   3.375   6.721   3.263
 8676SOL    HW226928   3.420   6.792   3.123
 8677SOL     OW26929   2.066   5.235   6.427
 8677SOL    HW126930   2.133   5.199   6.362
 8677SOL    HW226931   1.975   5.233   6.385
 8678SOL     OW26932   0.113   0.139   0.168
 8678SOL    HW126933   0.070   0.051   0.192
 8678SOL    HW226934   0.094   0.206   0.239
 8679SOL     OW26935   6.337   2.903   4.882
 8679SOL    HW126936   6.412   2.841   4.906
 8679SOL    HW226937   6.283   2.864   4.808
 8680SOL     OW26938   0.576   3.869   0.933
 8680SOL    HW126939   0.498   3.875   0.995
 8680SOL    HW226940   0.546   3.880   0.839
 8681SOL     OW26941   4.759   4.534   0.136
 8681SOL    HW126942   4.776   4.506   0.042
 8681SOL    HW226943   4.764   4.633   0.143
 8682SOL     OW26944   3.944   6.767   2.747
 8682SOL    HW126945   3.950   6.847   2.689
 8682SOL    HW226946   3.909   6.793   2.837
 8683SOL     OW26947   1.598   2.331   2.028
 8683SOL    HW126948   1.667   2.296   2.092
 8683SOL    HW226949   1.604   2.280   1.942
 8684SOL     OW26950   0.620   3.399   5.056
 8684SOL    HW126951   0.574   3.428   5.140
 8684SOL    HW226952   0.635   3.300   5.058
 8685SOL     OW26953   1.148   2.187   5.548
 8685SOL    HW126954   1.058   2.193   5.590
 8685SOL    HW226955   1.194   2.104   5.580
 8686SOL     OW26956   6.704   1.788   1.942
 8686SOL    HW126957   6.613   1.818   1.915
 8686SOL    HW226958   6.772   1.854   1.908
 8687SOL     OW26959   3.521   6.274   2.767
 8687SOL    HW126960   3.437   6.282   2.714
 8687SOL    HW226961   3.543   6.362   2.809
 8688SOL     OW26962   2.761   6.286   6.812
 8688SOL    HW126963   2.750   6.301   6.714
 8688SOL    HW226964   2.671   6.285   6.856
 8689SOL     OW26965   3.212   5.400   6.958
 8689SOL    HW126966   3.255   5.428   6.872
 8689SOL    HW226967   3.113   5.416   6.952
 8690SOL     OW26968   1.766   2.439   3.770
 8690SOL    HW126969   1.860   2.443   3.804
 8690SOL    HW226970   1.766   2.415   3.673
 8691SOL     OW26971   4.445   2.688   6.059
 8691SOL    HW126972   4.346   2.681   6.052
 8691SOL    HW226973   4.483   2.598   6.081
 8692SOL     OW26974   3.492   1.980   2.552
 8692SOL    HW126975   3.400   1.961   2.586
 8692SOL    HW226976   3.496   1.962   2.454
 8693SOL     OW26977   5.686   2.153   0.903
 8693SOL    HW126978   5.767   2.125   0.954
 8693SOL    HW226979   5.620   2.078   0.902
 8694SOL     OW26980   4.178   1.105   6.566
 8694SOL    HW126981   4.166   1.041   6.490
 8694SOL    HW226982   4.250   1.070   6.626
 8695SOL     OW26983   4.499   2.705   5.792
 8695SOL    HW126984   4.481   2.689   5.889
 8695SOL    HW226985   4.413   2.700   5.741
 8696SOL     OW26986   3.421   5.967   1.117
 8696SOL    HW126987   3.462   6.053   1.088
 8696SOL    HW226988   3.321   5.976   1.118
 8697SOL     OW26989   6.523   3.810   0.612
 8697SOL    HW126990   6.455   3.747   0.574
 8697SOL    HW226991   6.584   3.761   0.674
 8698SOL     OW26992   5.893   6.219   3.781
 8698SOL    HW126993   5.968   6.157   3.805
 8698SOL    HW226994   5.835   6.233   3.861
 8699SOL     OW26995   1.374   2.312   5.485
 8699SOL    HW126996   1.451   2.249   5.472
 8699SOL    HW226997   1.300   2.264   5.532
 8700SOL     OW26998   2.424   1.127   4.418
 8700SOL    HW126999   2.462   1.049   4.368
 8700SOL    HW227000   2.363   1.094   4.491
 8701SOL     OW27001   1.667   0.686   0.040
 8701SOL    HW127002   1.649   0.643   6.970
 8701SOL    HW227003   1.582   0.724   0.076
 8702SOL     OW27004   5.519   4.460   0.050
 8702SOL    HW127005   5.549   4.494   6.980
 8702SOL    HW227006   5.592   4.407   0.092
 8703SOL     OW27007   2.620   5.463   1.184
 8703SOL    HW127008   2.653   5.508   1.267
 8703SOL    HW227009   2.698   5.427   1.133
 8704SOL     OW27010   6.261   3.605   2.633
 8704SOL    HW127011   6.212   3.583   2.718
 8704SOL    HW227012   6.252   3.702   2.615
 8705SOL     OW27013   4.849   1.042   0.495
 8705SOL    HW127014   4.846   0.947   0.526
 8705SOL    HW227015   4.915   1.093   0.550
 8706SOL     OW27016   4.647   2.278   5.837
 8706SOL    HW127017   4.565   2.269   5.894
 8706SOL    HW227018   4.708   2.347   5.877
 8707SOL     OW27019   5.035   2.430   6.906
 8707SOL    HW127020   4.981   2.490   6.965
 8707SOL    HW227021   5.007   2.335   6.920
 8708SOL     OW27022   4.227   2.268   2.001
 8708SOL    HW127023   4.148   2.208   2.009
 8708SOL    HW227024   4.242   2.317   2.087
 8709SOL     OW27025   6.926   5.754   6.375
 8709SOL    HW127026   6.839   5.736   6.421
 8709SOL    HW227027   6.913   5.826   6.307
 8710SOL     OW27028   1.854   3.209   3.137
 8710SOL    HW127029   1.951   3.216   3.116
 8710SOL    HW227030   1.811   3.141   3.077
 8711SOL     OW27031   6.919   6.061   2.336
 8711SOL    HW127032   6.907   6.008   2.252
 8711SOL    HW227033   6.893   6.005   2.415
 8712SOL     OW27034   4.225   2.245   4.032
 8712SOL    HW127035   4.298   2.218   4.095
 8712SOL    HW227036   4.150   2.180   4.038
 8713SOL     OW27037   0.486   4.050   3.509
 8713SOL    HW127038   0.539   4.131   3.536
 8713SOL    HW227039   0.471   4.052   3.410
 8714SOL     OW27040   0.689   0.749   5.730
 8714SOL    HW127041   0.595   0.745   5.763
 8714SOL    HW227042   0.689   0.773   5.633
 8715SOL     OW27043   4.872   0.606   1.043
 8715SOL    HW127044   4.780   0.597   1.004
 8715SOL    HW227045   4.867   0.598   1.142
 8716SOL     OW27046   0.657   0.895   1.587
 8716SOL    HW127047   0.712   0.920   1.667
 8716SOL    HW227048   0.561   0.915   1.605
 8717SOL     OW27049   4.047   3.264   2.908
 8717SOL    HW127050   3.996   3.195   2.959
 8717SOL    HW227051   3.990   3.299   2.834
 8718SOL     OW27052   1.259   2.743   5.626
 8718SOL    HW127053   1.283   2.782   5.537
 8718SOL    HW227054   1.177   2.789   5.661
 8719SOL     OW27055   2.006   0.093   6.197
 8719SOL    HW127056   2.021   0.191   6.209
 8719SOL    HW227057   2.049   0.062   6.112
 8720SOL     OW27058   6.478   5.003   5.358
 8720SOL    HW127059   6.577   5.014   5.372
 8720SOL    HW227060   6.428   5.064   5.418
 8721SOL     OW27061   5.443   2.395   3.964
 8721SOL    HW127062   5.425   2.342   3.881
 8721SOL    HW227063   5.427   2.337   4.044
 8722SOL     OW27064   3.757   0.565   0.724
 8722SOL    HW127065   3.851   0.596   0.742
 8722SOL    HW227066   3.693   0.622   0.774
 8723SOL     OW27067   5.626   6.219   1.717
 8723SOL    HW127068   5.539   6.171   1.729
 8723SOL    HW227069   5.666   6.238   1.807
 8724SOL     OW27070   6.224   6.674   4.623
 8724SOL    HW127071   6.173   6.759   4.632
 8724SOL    HW227072   6.164   6.596   4.641
 8725SOL     OW27073   2.932   7.001   0.012
 8725SOL    HW127074   2.835   6.978   0.025
 8725SOL    HW227075   2.939   0.062   6.970
 8726SOL     OW27076   6.539   0.751   1.362
 8726SOL    HW127077   6.547   0.729   1.265
 8726SOL    HW227078   6.624   0.795   1.393
 8727SOL     OW27079   6.591   6.430   2.099
 8727SOL    HW127080   6.677   6.481   2.108
 8727SOL    HW227081   6.611   6.341   2.057
 8728SOL     OW27082   4.100   0.088   4.336
 8728SOL    HW127083   4.168   0.147   4.291
 8728SOL    HW227084   4.116   7.012   4.309
 8729SOL     OW27085   4.768   6.181   3.156
 8729SOL    HW127086   4.824   6.264   3.147
 8729SOL    HW227087   4.703   6.194   3.231
 8730SOL     OW27088   6.710   5.280   2.699
 8730SOL    HW127089   6.661   5.332   2.769
 8730SOL    HW227090   6.659   5.196   2.678
 8731SOL     OW27091   2.179   1.982   2.749
 8731SOL    HW127092   2.124   1.938   2.819
 8731SOL    HW227093   2.201   1.915   2.678
 8732SOL     OW27094   4.694   4.654   1.978
 8732SOL    HW127095   4.679   4.559   1.952
 8732SOL    HW227096   4.791   4.669   1.997
 8733SOL     OW27097   1.437   5.955   3.194
 8733SOL    HW127098   1.412   5.877   3.137
 8733SOL    HW227099   1.433   6.039   3.140
 8734SOL     OW27100   0.912   4.601   1.785
 8734SOL    HW127101   0.923   4.553   1.872
 8734SOL    HW227102   0.946   4.695   1.795
 8735SOL     OW27103   0.775   1.449   6.949
 8735SOL    HW127104   0.833   1.480   6.874
 8735SOL    HW227105   0.827   1.386   7.008
 8736SOL     OW27106   0.893   6.693   0.181
 8736SOL    HW127107   0.863   6.787   0.168
 8736SOL    HW227108   0.977   6.676   0.129
 8737SOL     OW27109   3.124   6.865   6.091
 8737SOL    HW127110   3.140   6.909   6.003
 8737SOL    HW227111   3.114   6.936   6.161
 8738SOL     OW27112   2.216   4.003   3.766
 8738SOL    HW127113   2.249   4.096   3.748
 8738SOL    HW227114   2.234   3.980   3.862
 8739SOL     OW27115   6.407   5.290   5.723
 8739SOL    HW127116   6.374   5.262   5.633
 8739SOL    HW227117   6.489   5.346   5.713
 8740SOL     OW27118   4.215   1.628   5.309
 8740SOL    HW127119   4.230   1.534   5.340
 8740SOL    HW227120   4.203   1.628   5.210
 8741SOL     OW27121   1.837   0.857   2.211
 8741SOL    HW127122   1.856   0.890   2.303
 8741SOL    HW227123   1.923   0.841   2.162
 8742SOL     OW27124   5.434   5.867   1.579
 8742SOL    HW127125   5.506   5.871   1.511
 8742SOL    HW227126   5.395   5.774   1.581
 8743SOL     OW27127   2.314   6.789   2.782
 8743SOL    HW127128   2.321   6.735   2.698
 8743SOL    HW227129   2.367   6.745   2.854
 8744SOL     OW27130   3.521   2.346   6.192
 8744SOL    HW127131   3.532   2.406   6.271
 8744SOL    HW227132   3.576   2.263   6.205
 8745SOL     OW27133   6.605   2.374   5.966
 8745SOL    HW127134   6.703   2.381   5.949
 8745SOL    HW227135   6.589   2.358   6.064
 8746SOL     OW27136   4.525   4.335   5.245
 8746SOL    HW127137   4.602   4.299   5.192
 8746SOL    HW227138   4.442   4.332   5.190
 8747SOL     OW27139   0.817   2.525   3.291
 8747SOL    HW127140   0.873   2.449   3.257
 8747SOL    HW227141   0.825   2.531   3.390
 8748SOL     OW27142   0.419   1.297   6.447
 8748SOL    HW127143   0.348   1.295   6.377
 8748SOL    HW227144   0.501   1.251   6.413
 8749SOL     OW27145   2.573   6.986   4.810
 8749SOL    HW127146   2.549   0.063   4.793
 8749SOL    HW227147   2.506   6.927   4.767
 8750SOL     OW27148   2.726   3.085   5.353
 8750SOL    HW127149   2.722   3.037   5.441
 8750SOL    HW227150   2.640   3.071   5.304
 8751SOL     OW27151   6.392   6.785   2.181
 8751SOL    HW127152   6.363   6.693   2.207
 8751SOL    HW227153   6.322   6.828   2.124
 8752SOL     OW27154   2.843   4.121   6.968
 8752SOL    HW127155   2.747   4.094   6.972
 8752SOL    HW227156   2.893   4.077   0.024
 8753SOL     OW27157   5.113   1.684   4.627
 8753SOL    HW127158   5.013   1.688   4.636
 8753SOL    HW227159   5.149   1.776   4.618
 8754SOL     OW27160   0.803   1.900   5.564
 8754SOL    HW127161   0.708   1.886   5.593
 8754SOL    HW227162   0.825   1.997   5.566
 8755SOL     OW27163   2.810   1.364   6.508
 8755SOL    HW127164   2.847   1.299   6.440
 8755SOL    HW227165   2.830   1.329   6.600
 8756SOL     OW27166   2.072   3.455   3.266
 8756SOL    HW127167   2.059   3.524   3.195
 8756SOL    HW227168   2.087   3.500   3.354
 8757SOL     OW27169   5.343   6.742   5.861
 8757SOL    HW127170   5.256   6.725   5.906
 8757SOL    HW227171   5.417   6.702   5.914
 8758SOL     OW27172   5.232   6.023   2.243
 8758SOL    HW127173   5.201   5.990   2.332
 8758SOL    HW227174   5.192   6.112   2.224
 8759SOL     OW27175   4.104   1.913   6.385
 8759SOL    HW127176   4.071   1.888   6.476
 8759SOL    HW227177   4.080   1.841   6.320
 8760SOL     OW27178   2.189   2.026   4.973
 8760SOL    HW127179   2.101   2.065   4.948
 8760SOL    HW227180   2.230   1.982   4.893
 8761SOL     OW27181   4.315   0.189   0.916
 8761SOL    HW127182   4.367   0.105   0.901
 8761SOL    HW227183   4.298   0.201   1.013
 8762SOL     OW27184   1.436   3.277   2.505
 8762SOL    HW127185   1.515   3.281   2.444
 8762SOL    HW227186   1.446   3.345   2.578
 8763SOL     OW27187   6.043   6.188   4.497
 8763SOL    HW127188   6.036   6.090   4.516
 8763SOL    HW227189   6.130   6.208   4.453
 8764SOL     OW27190   4.860   1.221   4.301
 8764SOL    HW127191   4.833   1.205   4.396
 8764SOL    HW227192   4.922   1.148   4.272
 8765SOL     OW27193   6.113   6.422   4.634
 8765SOL    HW127194   6.086   6.343   4.579
 8765SOL    HW227195   6.073   6.413   4.725
 8766SOL     OW27196   3.977   4.825   3.343
 8766SOL    HW127197   4.010   4.767   3.269
 8766SOL    HW227198   4.047   4.893   3.366
 8767SOL     OW27199   4.535   0.624   3.150
 8767SOL    HW127200   4.511   0.538   3.104
 8767SOL    HW227201   4.492   0.627   3.240
 8768SOL     OW27202   2.076   2.899   0.236
 8768SOL    HW127203   2.038   2.931   0.323
 8768SOL    HW227204   2.004   2.897   0.167
 8769SOL     OW27205   0.981   0.147   5.024
 8769SOL    HW127206   0.930   0.232   5.011
 8769SOL    HW227207   1.033   0.127   4.941
 8770SOL     OW27208   5.021   4.181   1.912
 8770SOL    HW127209   5.110   4.211   1.879
 8770SOL    HW227210   4.984   4.113   1.850
 8771SOL     OW27211   2.212   0.535   6.015
 8771SOL    HW127212   2.159   0.618   6.035
 8771SOL    HW227213   2.285   0.557   5.951
 8772SOL     OW27214   5.730   0.078   0.125
 8772SOL    HW127215   5.795   0.147   0.156
 8772SOL    HW227216   5.700   0.100   0.032
 8773SOL     OW27217   4.612   1.959   3.426
 8773SOL    HW127218   4.520   1.959   3.386
 8773SOL    HW227219   4.659   2.044   3.402
 8774SOL     OW27220   1.710   1.201   0.631
 8774SOL    HW127221   1.694   1.105   0.610
 8774SOL    HW227222   1.784   1.236   0.573
 8775SOL     OW27223   6.028   0.267   4.031
 8775SOL    HW127224   5.929   0.261   4.027
 8775SOL    HW227225   6.056   0.363   4.020
 8776SOL     OW27226   3.184   2.907   5.120
 8776SOL    HW127227   3.135   2.917   5.207
 8776SOL    HW227228   3.144   2.969   5.052
 8777SOL     OW27229   6.810   4.084   1.242
 8777SOL    HW127230   6.821   4.066   1.144
 8777SOL    HW227231   6.769   4.175   1.255
 8778SOL     OW27232   0.501   2.762   4.352
 8778SOL    HW127233   0.582   2.736   4.404
 8778SOL    HW227234   0.449   2.680   4.329
 8779SOL     OW27235   2.046   5.343   1.952
 8779SOL    HW127236   1.946   5.345   1.952
 8779SOL    HW227237   2.078   5.288   2.029
 8780SOL     OW27238   1.587   5.890   3.436
 8780SOL    HW127239   1.544   5.919   3.351
 8780SOL    HW227240   1.551   5.801   3.463
 8781SOL     OW27241   6.912   2.131   3.972
 8781SOL    HW127242   6.890   2.088   4.059
 8781SOL    HW227243   6.872   2.223   3.969
 8782SOL     OW27244   5.876   1.028   1.391
 8782SOL    HW127245   5.960   0.999   1.436
 8782SOL    HW227246   5.820   0.948   1.370
 8783SOL     OW27247   5.748   3.435   3.778
 8783SOL    HW127248   5.818   3.369   3.751
 8783SOL    HW227249   5.685   3.452   3.702
 8784SOL     OW27250   4.934   4.679   5.151
 8784SOL    HW127251   4.995   4.608   5.115
 8784SOL    HW227252   4.925   4.667   5.250
 8785SOL     OW27253   5.561   3.590   0.190
 8785SOL    HW127254   5.609   3.638   0.264
 8785SOL    HW227255   5.626   3.532   0.141
 8786SOL     OW27256   2.460   6.308   6.963
 8786SOL    HW127257   2.434   6.324   6.868
 8786SOL    HW227258   2.527   6.377   6.991
 8787SOL     OW27259   1.458   2.687   2.148
 8787SOL    HW127260   1.492   2.690   2.242
 8787SOL    HW227261   1.433   2.593   2.125
 8788SOL     OW27262   6.921   1.984   5.522
 8788SOL    HW127263   6.875   1.966   5.434
 8788SOL    HW227264   6.853   2.015   5.589
 8789SOL     OW27265   5.961   0.231   5.498
 8789SOL    HW127266   6.000   0.244   5.406
 8789SOL    HW227267   5.973   0.315   5.551
 8790SOL     OW27268   6.722   1.137   0.499
 8790SOL    HW127269   6.701   1.155   0.403
 8790SOL    HW227270   6.804   1.189   0.526
 8791SOL     OW27271   4.807   0.225   5.514
 8791SOL    HW127272   4.886   0.164   5.509
 8791SOL    HW227273   4.730   0.177   5.555
 8792SOL     OW27274   4.137   6.783   3.047
 8792SOL    HW127275   4.200   6.762   2.972
 8792SOL    HW227276   4.120   6.882   3.049
 8793SOL     OW27277   1.823   5.885   4.261
 8793SOL    HW127278   1.868   5.975   4.256
 8793SOL    HW227279   1.893   5.814   4.258
 8794SOL     OW27280   3.314   6.335   2.314
 8794SOL    HW127281   3.337   6.292   2.401
 8794SOL    HW227282   3.241   6.283   2.270
 8795SOL     OW27283   1.487   6.698   5.168
 8795SOL    HW127284   1.545   6.779   5.183
 8795SOL    HW227285   1.520   6.648   5.088
 8796SOL     OW27286   3.784   1.491   5.299
 8796SOL    HW127287   3.692   1.471   5.334
 8796SOL    HW227288   3.782   1.491   5.199
 8797SOL     OW27289   1.427   6.405   6.072
 8797SOL    HW127290   1.400   6.499   6.093
 8797SOL    HW227291   1.505   6.405   6.010
 8798SOL     OW27292   5.946   4.430   5.289
 8798SOL    HW127293   5.934   4.523   5.322
 8798SOL    HW227294   5.894   4.417   5.204
 8799SOL     OW27295   2.270   4.955   3.178
 8799SOL    HW127296   2.189   5.002   3.213
 8799SOL    HW227297   2.306   5.006   3.099
 8800SOL     OW27298   5.288   3.425   5.255
 8800SOL    HW127299   5.214   3.491   5.249
 8800SOL    HW227300   5.316   3.414   5.350
 8801SOL     OW27301   2.528   0.883   4.341
 8801SOL    HW127302   2.619   0.885   4.383
 8801SOL    HW227303   2.494   0.789   4.339
 8802SOL     OW27304   1.179   0.476   1.066
 8802SOL    HW127305   1.118   0.396   1.061
 8802SOL    HW227306   1.173   0.527   0.981
 8803SOL     OW27307   1.400   4.756   6.022
 8803SOL    HW127308   1.479   4.723   5.971
 8803SOL    HW227309   1.323   4.695   6.006
 8804SOL     OW27310   3.527   0.744   1.457
 8804SOL    HW127311   3.431   0.765   1.438
 8804SOL    HW227312   3.582   0.826   1.445
 8805SOL     OW27313   2.329   0.256   3.707
 8805SOL    HW127314   2.374   0.170   3.731
 8805SOL    HW227315   2.287   0.295   3.788
 8806SOL     OW27316   2.087   5.366   1.651
 8806SOL    HW127317   2.097   5.372   1.750
 8806SOL    HW227318   2.102   5.272   1.621
 8807SOL     OW27319   6.463   6.095   6.423
 8807SOL    HW127320   6.467   6.087   6.323
 8807SOL    HW227321   6.396   6.032   6.460
 8808SOL     OW27322   5.707   1.799   0.795
 8808SOL    HW127323   5.707   1.715   0.848
 8808SOL    HW227324   5.650   1.868   0.840
 8809SOL     OW27325   5.346   4.121   2.089
 8809SOL    HW127326   5.311   4.028   2.081
 8809SOL    HW227327   5.431   4.120   2.142
 8810SOL     OW27328   5.617   1.097   5.264
 8810SOL    HW127329   5.597   1.000   5.256
 8810SOL    HW227330   5.716   1.111   5.271
 8811SOL     OW27331   2.374   1.887   4.438
 8811SOL    HW127332   2.396   1.940   4.355
 8811SOL    HW227333   2.371   1.948   4.517
 8812SOL     OW27334   0.858   0.746   0.839
 8812SOL    HW127335   0.794   0.739   0.762
 8812SOL    HW227336   0.827   0.817   0.902
 8813SOL     OW27337   0.928   4.893   1.825
 8813SOL    HW127338   1.025   4.912   1.833
 8813SOL    HW227339   0.885   4.896   1.915
 8814SOL     OW27340   6.511   0.717   0.521
 8814SOL    HW127341   6.470   0.792   0.469
 8814SOL    HW227342   6.441   0.648   0.542
 8815SOL     OW27343   6.567   6.087   0.793
 8815SOL    HW127344   6.620   6.172   0.784
 8815SOL    HW227345   6.494   6.087   0.725
 8816SOL     OW27346   0.902   0.379   0.739
 8816SOL    HW127347   0.803   0.378   0.746
 8816SOL    HW227348   0.931   0.458   0.684
 8817SOL     OW27349   0.437   5.610   5.632
 8817SOL    HW127350   0.359   5.667   5.660
 8817SOL    HW227351   0.503   5.604   5.706
 8818SOL     OW27352   0.118   3.715   3.318
 8818SOL    HW127353   0.071   3.737   3.233
 8818SOL    HW227354   0.158   3.624   3.312
 8819SOL     OW27355   4.671   6.446   3.991
 8819SOL    HW127356   4.718   6.523   4.034
 8819SOL    HW227357   4.582   6.432   4.035
 8820SOL     OW27358   2.418   2.075   4.238
 8820SOL    HW127359   2.498   2.105   4.289
 8820SOL    HW227360   2.445   2.007   4.170
 8821SOL     OW27361   1.626   6.383   6.930
 8821SOL    HW127362   1.657   6.465   6.979
 8821SOL    HW227363   1.632   6.398   6.832
 8822SOL     OW27364   0.796   0.295   3.344
 8822SOL    HW127365   0.750   0.374   3.303
 8822SOL    HW227366   0.855   0.327   3.418
 8823SOL     OW27367   1.795   0.255   1.328
 8823SOL    HW127368   1.704   0.213   1.333
 8823SOL    HW227369   1.813   0.284   1.234
 8824SOL     OW27370   2.288   3.529   0.646
 8824SOL    HW127371   2.261   3.434   0.630
 8824SOL    HW227372   2.220   3.591   0.607
 8825SOL     OW27373   1.763   0.330   3.667
 8825SOL    HW127374   1.860   0.309   3.656
 8825SOL    HW227375   1.709   0.263   3.617
 8826SOL     OW27376   6.383   2.256   0.269
 8826SOL    HW127377   6.332   2.286   0.188
 8826SOL    HW227378   6.353   2.164   0.296
 8827SOL     OW27379   3.096   1.438   3.276
 8827SOL    HW127380   3.178   1.391   3.308
 8827SOL    HW227381   3.078   1.412   3.181
 8828SOL     OW27382   3.963   5.525   3.945
 8828SOL    HW127383   3.990   5.452   4.008
 8828SOL    HW227384   4.045   5.571   3.911
 8829SOL     OW27385   0.354   2.785   0.267
 8829SOL    HW127386   0.440   2.810   0.222
 8829SOL    HW227387   0.323   2.697   0.231
 8830SOL     OW27388   0.249   1.829   0.443
 8830SOL    HW127389   0.274   1.924   0.461
 8830SOL    HW227390   0.152   1.816   0.462
 8831SOL     OW27391   5.319   1.198   3.328
 8831SOL    HW127392   5.324   1.274   3.262
 8831SOL    HW227393   5.240   1.141   3.306
 8832SOL     OW27394   6.546   6.596   2.710
 8832SOL    HW127395   6.503   6.606   2.620
 8832SOL    HW227396   6.567   6.686   2.747
 8833SOL     OW27397   2.118   6.546   5.448
 8833SOL    HW127398   2.119   6.533   5.349
 8833SOL    HW227399   2.027   6.575   5.478
 8834SOL     OW27400   5.770   3.714   4.357
 8834SOL    HW127401   5.756   3.666   4.270
 8834SOL    HW227402   5.731   3.806   4.351
 8835SOL     OW27403   6.116   0.478   5.425
 8835SOL    HW127404   6.213   0.493   5.408
 8835SOL    HW227405   6.102   0.455   5.521
 8836SOL     OW27406   4.101   1.123   0.341
 8836SOL    HW127407   4.113   1.083   0.432
 8836SOL    HW227408   4.025   1.077   0.294
 8837SOL     OW27409   0.771   0.046   2.353
 8837SOL    HW127410   0.727   0.115   2.295
 8837SOL    HW227411   0.764   0.074   2.448
 8838SOL     OW27412   2.963   5.317   2.908
 8838SOL    HW127413   2.941   5.220   2.898
 8838SOL    HW227414   2.934   5.366   2.826
 8839SOL     OW27415   5.294   5.828   2.891
 8839SOL    HW127416   5.349   5.907   2.917
 8839SOL    HW227417   5.265   5.838   2.796
 8840SOL     OW27418   6.973   2.065   2.080
 8840SOL    HW127419   6.984   2.162   2.102
 8840SOL    HW227420   0.031   2.035   2.022
 8841SOL     OW27421   1.547   0.772   5.369
 8841SOL    HW127422   1.532   0.755   5.272
 8841SOL    HW227423   1.555   0.870   5.386
 8842SOL     OW27424   3.379   2.698   0.273
 8842SOL    HW127425   3.352   2.603   0.261
 8842SOL    HW227426   3.427   2.731   0.191
 8843SOL     OW27427   1.551   2.476   5.656
 8843SOL    HW127428   1.476   2.420   5.622
 8843SOL    HW227429   1.564   2.555   5.596
 8844SOL     OW27430   5.580   1.100   6.560
 8844SOL    HW127431   5.541   1.120   6.471
 8844SOL    HW227432   5.517   1.131   6.632
 8845SOL     OW27433   4.009   3.699   0.257
 8845SOL    HW127434   3.986   3.619   0.313
 8845SOL    HW227435   4.097   3.684   0.213
 8846SOL     OW27436   2.164   5.991   4.204
 8846SOL    HW127437   2.229   6.016   4.132
 8846SOL    HW227438   2.135   5.897   4.191
 8847SOL     OW27439   3.169   0.858   2.934
 8847SOL    HW127440   3.117   0.943   2.932
 8847SOL    HW227441   3.267   0.879   2.932
 8848SOL     OW27442   2.371   0.792   1.223
 8848SOL    HW127443   2.360   0.881   1.179
 8848SOL    HW227444   2.354   0.802   1.321
 8849SOL     OW27445   2.794   6.198   3.113
 8849SOL    HW127446   2.822   6.107   3.083
 8849SOL    HW227447   2.797   6.202   3.213
 8850SOL     OW27448   1.716   1.704   0.288
 8850SOL    HW127449   1.632   1.755   0.310
 8850SOL    HW227450   1.785   1.723   0.358
 8851SOL     OW27451   2.002   4.778   2.706
 8851SOL    HW127452   2.016   4.833   2.789
 8851SOL    HW227453   1.904   4.770   2.688
 8852SOL     OW27454   0.996   1.884   5.359
 8852SOL    HW127455   0.942   1.924   5.285
 8852SOL    HW227456   0.956   1.910   5.447
 8853SOL     OW27457   3.032   1.216   1.571
 8853SOL    HW127458   2.963   1.144   1.577
 8853SOL    HW227459   3.008   1.291   1.632
 8854SOL     OW27460   2.145   3.019   4.956
 8854SOL    HW127461   2.230   2.992   5.001
 8854SOL    HW227462   2.165   3.094   4.893
 8855SOL     OW27463   6.444   4.965   1.816
 8855SOL    HW127464   6.380   5.028   1.860
 8855SOL    HW227465   6.500   5.015   1.750
 8856SOL     OW27466   6.137   5.776   6.524
 8856SOL    HW127467   6.071   5.774   6.449
 8856SOL    HW227468   6.151   5.871   6.553
 8857SOL     OW27469   6.866   1.867   5.252
 8857SOL    HW127470   6.908   1.831   5.169
 8857SOL    HW227471   6.769   1.882   5.236
 8858SOL     OW27472   0.292   4.713   5.082
 8858SOL    HW127473   0.368   4.768   5.046
 8858SOL    HW227474   0.313   4.685   5.176
 8859SOL     OW27475   1.267   0.902   3.922
 8859SOL    HW127476   1.362   0.919   3.947
 8859SOL    HW227477   1.215   0.987   3.930
 8860SOL     OW27478   0.007   3.041   1.192
 8860SOL    HW127479   6.972   3.121   1.219
 8860SOL    HW227480   0.039   2.994   1.274
 8861SOL     OW27481   3.975   1.411   0.436
 8861SOL    HW127482   3.912   1.337   0.415
 8861SOL    HW227483   4.068   1.375   0.445
 8862SOL     OW27484   4.629   5.976   4.184
 8862SOL    HW127485   4.601   6.015   4.271
 8862SOL    HW227486   4.725   5.998   4.166
 8863SOL     OW27487   1.748   4.984   3.244
 8863SOL    HW127488   1.797   5.033   3.173
 8863SOL    HW227489   1.803   4.906   3.276
 8864SOL     OW27490   4.829   3.723   6.438
 8864SOL    HW127491   4.823   3.627   6.466
 8864SOL    HW227492   4.740   3.755   6.407
 8865SOL     OW27493   2.933   0.712   6.165
 8865SOL    HW127494   2.905   0.639   6.102
 8865SOL    HW227495   2.911   0.801   6.124
 8866SOL     OW27496   5.431   6.779   2.411
 8866SOL    HW127497   5.512   6.837   2.421
 8866SOL    HW227498   5.349   6.835   2.412
 8867SOL     OW27499   6.188   3.657   3.576
 8867SOL    HW127500   6.089   3.666   3.580
 8867SOL    HW227501   6.228   3.685   3.664
 8868SOL     OW27502   6.867   3.311   2.203
 8868SOL    HW127503   6.830   3.348   2.117
 8868SOL    HW227504   6.882   3.386   2.267
 8869SOL     OW27505   4.159   5.238   4.357
 8869SOL    HW127506   4.181   5.235   4.455
 8869SOL    HW227507   4.199   5.158   4.312
 8870SOL     OW27508   1.897   6.804   1.397
 8870SOL    HW127509   1.965   6.776   1.464
 8870SOL    HW227510   1.909   6.751   1.313
 8871SOL     OW27511   1.454   1.391   3.095
 8871SOL    HW127512   1.401   1.336   3.159
 8871SOL    HW227513   1.426   1.369   3.001
 8872SOL     OW27514   1.178   4.480   6.368
 8872SOL    HW127515   1.248   4.433   6.315
 8872SOL    HW227516   1.146   4.421   6.442
 8873SOL     OW27517   1.767   0.408   1.755
 8873SOL    HW127518   1.857   0.436   1.720
 8873SOL    HW227519   1.708   0.488   1.762
 8874SOL     OW27520   1.308   5.317   1.462
 8874SOL    HW127521   1.291   5.300   1.365
 8874SOL    HW227522   1.369   5.396   1.472
 8875SOL     OW27523   6.857   3.265   4.164
 8875SOL    HW127524   6.874   3.258   4.066
 8875SOL    HW227525   6.918   3.204   4.213
 8876SOL     OW27526   3.032   0.322   6.668
 8876SOL    HW127527   2.982   0.386   6.609
 8876SOL    HW227528   2.966   0.262   6.714
 8877SOL     OW27529   1.122   3.679   2.091
 8877SOL    HW127530   1.079   3.749   2.034
 8877SOL    HW227531   1.181   3.622   2.035
 8878SOL     OW27532   3.583   4.141   0.802
 8878SOL    HW127533   3.636   4.056   0.798
 8878SOL    HW227534   3.604   4.190   0.886
 8879SOL     OW27535   6.968   5.175   2.688
 8879SOL    HW127536   0.029   5.213   2.736
 8879SOL    HW227537   6.887   5.229   2.708
 8880SOL     OW27538   4.403   6.454   3.946
 8880SOL    HW127539   4.419   6.545   3.984
 8880SOL    HW227540   4.327   6.458   3.881
 8881SOL     OW27541   5.403   5.011   4.023
 8881SOL    HW127542   5.324   4.974   3.974
 8881SOL    HW227543   5.382   5.021   4.120
 8882SOL     OW27544   3.688   0.849   0.537
 8882SOL    HW127545   3.640   0.763   0.553
 8882SOL    HW227546   3.781   0.831   0.507
 8883SOL     OW27547   0.282   6.642   5.691
 8883SOL    HW127548   0.358   6.706   5.681
 8883SOL    HW227549   0.257   6.634   5.787
 8884SOL     OW27550   5.754   4.429   5.067
 8884SOL    HW127551   5.697   4.352   5.096
 8884SOL    HW227552   5.725   4.461   4.977
 8885SOL     OW27553   5.584   5.002   6.901
 8885SOL    HW127554   5.503   5.013   6.844
 8885SOL    HW227555   5.628   5.090   6.914
 8886SOL     OW27556   3.926   5.686   6.222
 8886SOL    HW127557   3.904   5.631   6.141
 8886SOL    HW227558   3.876   5.772   6.218
 8887SOL     OW27559   4.093   0.912   0.948
 8887SOL    HW127560   4.169   0.868   0.900
 8887SOL    HW227561   4.127   0.954   1.033
 8888SOL     OW27562   1.594   1.566   3.584
 8888SOL    HW127563   1.562   1.623   3.659
 8888SOL    HW227564   1.693   1.555   3.590
 8889SOL     OW27565   6.514   6.762   6.565
 8889SOL    HW127566   6.607   6.727   6.552
 8889SOL    HW227567   6.456   6.691   6.605
 8890SOL     OW27568   0.410   6.173   0.092
 8890SOL    HW127569   0.377   6.130   0.008
 8890SOL    HW227570   0.404   6.108   0.167
 8891SOL     OW27571   4.774   4.499   6.883
 8891SOL    HW127572   4.773   4.519   6.785
 8891SOL    HW227573   4.858   4.451   6.906
 8892SOL     OW27574   3.934   4.863   3.837
 8892SOL    HW127575   3.863   4.883   3.905
 8892SOL    HW227576   3.891   4.849   3.748
 8893SOL     OW27577   1.137   5.193   4.998
 8893SOL    HW127578   1.072   5.158   4.930
 8893SOL    HW227579   1.204   5.252   4.954
 8894SOL     OW27580   4.844   2.178   0.570
 8894SOL    HW127581   4.765   2.129   0.607
 8894SOL    HW227582   4.928   2.128   0.590
 8895SOL     OW27583   0.670   3.174   0.544
 8895SOL    HW127584   0.638   3.246   0.607
 8895SOL    HW227585   0.757   3.201   0.505
 8896SOL     OW27586   1.626   2.890   5.175
 8896SOL    HW127587   1.660   2.927   5.089
 8896SOL    HW227588   1.559   2.818   5.157
 8897SOL     OW27589   1.935   3.960   3.401
 8897SOL    HW127590   1.874   3.962   3.480
 8897SOL    HW227591   2.024   3.997   3.427
 8898SOL     OW27592   5.638   3.707   2.484
 8898SOL    HW127593   5.625   3.608   2.490
 8898SOL    HW227594   5.667   3.731   2.391
 8899SOL     OW27595   6.592   5.356   6.125
 8899SOL    HW127596   6.672   5.378   6.181
 8899SOL    HW227597   6.554   5.269   6.154
 8900SOL     OW27598   5.608   2.459   3.480
 8900SOL    HW127599   5.516   2.422   3.468
 8900SOL    HW227600   5.675   2.393   3.446
 8901SOL     OW27601   1.041   2.303   3.345
 8901SOL    HW127602   1.106   2.257   3.285
 8901SOL    HW227603   1.091   2.360   3.410
 8902SOL     OW27604   1.466   5.257   0.290
 8902SOL    HW127605   1.475   5.174   0.236
 8902SOL    HW227606   1.553   5.308   0.287
 8903SOL     OW27607   1.540   1.342   5.412
 8903SOL    HW127608   1.455   1.289   5.420
 8903SOL    HW227609   1.575   1.333   5.319
 8904SOL     OW27610   0.670   1.440   2.951
 8904SOL    HW127611   0.695   1.350   2.987
 8904SOL    HW227612   0.707   1.451   2.859
 8905SOL     OW27613   1.693   2.811   2.690
 8905SOL    HW127614   1.664   2.851   2.603
 8905SOL    HW227615   1.791   2.824   2.701
 8906SOL     OW27616   0.499   6.358   0.873
 8906SOL    HW127617   0.577   6.308   0.835
 8906SOL    HW227618   0.517   6.377   0.970
 8907SOL     OW27619   3.221   2.682   5.277
 8907SOL    HW127620   3.196   2.598   5.229
 8907SOL    HW227621   3.212   2.760   5.214
 8908SOL     OW27622   1.334   4.761   0.527
 8908SOL    HW127623   1.316   4.827   0.455
 8908SOL    HW227624   1.415   4.790   0.579
 8909SOL     OW27625   2.669   0.909   6.319
 8909SOL    HW127626   2.616   0.943   6.396
 8909SOL    HW227627   2.608   0.866   6.252
 8910SOL     OW27628   0.934   2.309   5.243
 8910SOL    HW127629   1.007   2.244   5.262
 8910SOL    HW227630   0.970   2.402   5.250
 8911SOL     OW27631   4.883   1.812   4.391
 8911SOL    HW127632   4.810   1.873   4.425
 8911SOL    HW227633   4.848   1.718   4.388
 8912SOL     OW27634   3.683   2.971   5.670
 8912SOL    HW127635   3.658   2.999   5.577
 8912SOL    HW227636   3.602   2.972   5.728
 8913SOL     OW27637   5.272   5.185   0.261
 8913SOL    HW127638   5.334   5.136   0.201
 8913SOL    HW227639   5.323   5.257   0.309
 8914SOL     OW27640   5.042   6.942   4.913
 8914SOL    HW127641   5.125   6.913   4.864
 8914SOL    HW227642   4.992   7.009   4.858
 8915SOL     OW27643   1.166   1.702   4.276
 8915SOL    HW127644   1.238   1.693   4.344
 8915SOL    HW227645   1.097   1.631   4.291
 8916SOL     OW27646   5.573   1.902   6.575
 8916SOL    HW127647   5.481   1.870   6.557
 8916SOL    HW227648   5.582   1.998   6.547
 8917SOL     OW27649   5.755   1.759   0.532
 8917SOL    HW127650   5.710   1.835   0.483
 8917SOL    HW227651   5.724   1.757   0.627
 8918SOL     OW27652   1.454   5.293   0.810
 8918SOL    HW127653   1.535   5.235   0.804
 8918SOL    HW227654   1.372   5.238   0.798
 8919SOL     OW27655   5.068   4.768   6.603
 8919SOL    HW127656   5.023   4.857   6.616
 8919SOL    HW227657   5.076   4.722   6.692
 8920SOL     OW27658   0.686   1.496   0.184
 8920SOL    HW127659   0.675   1.405   0.223
 8920SOL    HW227660   0.715   1.489   0.089
 8921SOL     OW27661   1.267   2.627   1.404
 8921SOL    HW127662   1.271   2.683   1.321
 8921SOL    HW227663   1.192   2.658   1.461
 8922SOL     OW27664   3.808   6.670   2.022
 8922SOL    HW127665   3.871   6.593   2.034
 8922SOL    HW227666   3.768   6.694   2.110
 8923SOL     OW27667   1.244   1.960   5.621
 8923SOL    HW127668   1.214   1.932   5.529
 8923SOL    HW227669   1.325   1.907   5.647
 8924SOL     OW27670   5.409   5.712   4.911
 8924SOL    HW127671   5.444   5.619   4.911
 8924SOL    HW227672   5.309   5.711   4.908
 8925SOL     OW27673   0.059   0.637   2.171
 8925SOL    HW127674   0.155   0.618   2.153
 8925SOL    HW227675   0.037   0.616   2.266
 8926SOL     OW27676   6.716   3.616   5.315
 8926SOL    HW127677   6.739   3.713   5.320
 8926SOL    HW227678   6.653   3.593   5.389
 8927SOL     OW27679   6.942   1.686   5.478
 8927SOL    HW127680   6.981   1.761   5.531
 8927SOL    HW227681   6.954   1.704   5.380
 8928SOL     OW27682   2.086   0.011   5.953
 8928SOL    HW127683   2.123   0.023   5.861
 8928SOL    HW227684   1.990   7.002   5.948
 8929SOL     OW27685   6.243   2.307   5.085
 8929SOL    HW127686   6.204   2.396   5.111
 8929SOL    HW227687   6.184   2.264   5.017
 8930SOL     OW27688   0.961   3.351   2.814
 8930SOL    HW127689   0.979   3.392   2.903
 8930SOL    HW227690   1.044   3.355   2.758
 8931SOL     OW27691   3.081   2.839   1.626
 8931SOL    HW127692   3.102   2.763   1.565
 8931SOL    HW227693   3.138   2.832   1.708
 8932SOL     OW27694   0.165   1.882   3.088
 8932SOL    HW127695   0.146   1.878   2.990
 8932SOL    HW227696   0.227   1.958   3.107
 8933SOL     OW27697   2.889   2.326   6.413
 8933SOL    HW127698   2.966   2.263   6.406
 8933SOL    HW227699   2.921   2.416   6.443
 8934SOL     OW27700   3.252   5.370   4.848
 8934SOL    HW127701   3.332   5.384   4.790
 8934SOL    HW227702   3.281   5.353   4.942
 8935SOL     OW27703   0.497   4.855   0.707
 8935SOL    HW127704   0.587   4.875   0.746
 8935SOL    HW227705   0.441   4.938   0.709
 8936SOL     OW27706   1.621   3.588   0.444
 8936SOL    HW127707   1.694   3.539   0.395
 8936SOL    HW227708   1.582   3.657   0.384
 8937SOL     OW27709   0.668   0.093   5.299
 8937SOL    HW127710   0.756   0.057   5.267
 8937SOL    HW227711   0.655   0.185   5.264
 8938SOL     OW27712   0.415   5.528   0.999
 8938SOL    HW127713   0.321   5.560   1.003
 8938SOL    HW227714   0.422   5.437   1.040
 8939SOL     OW27715   4.863   2.430   4.564
 8939SOL    HW127716   4.882   2.332   4.567
 8939SOL    HW227717   4.866   2.461   4.469
 8940SOL     OW27718   0.558   1.077   4.066
 8940SOL    HW127719   0.598   1.081   4.157
 8940SOL    HW227720   0.517   1.165   4.042
 8941SOL     OW27721   5.579   1.972   5.776
 8941SOL    HW127722   5.635   2.026   5.713
 8941SOL    HW227723   5.636   1.904   5.822
 8942SOL     OW27724   0.667   3.447   5.925
 8942SOL    HW127725   0.595   3.484   5.866
 8942SOL    HW227726   0.753   3.495   5.906
 8943SOL     OW27727   4.605   4.033   0.375
 8943SOL    HW127728   4.617   3.941   0.412
 8943SOL    HW227729   4.513   4.066   0.398
 8944SOL     OW27730   5.017   5.095   5.402
 8944SOL    HW127731   4.964   5.024   5.448
 8944SOL    HW227732   4.986   5.185   5.433
 8945SOL     OW27733   2.379   0.629   4.293
 8945SOL    HW127734   2.301   0.579   4.257
 8945SOL    HW227735   2.360   0.660   4.386
 8946SOL     OW27736   3.015   1.800   4.913
 8946SOL    HW127737   2.991   1.818   5.009
 8946SOL    HW227738   2.943   1.833   4.853
 8947SOL     OW27739   1.289   3.537   5.175
 8947SOL    HW127740   1.341   3.562   5.093
 8947SOL    HW227741   1.191   3.545   5.156
 8948SOL     OW27742   5.623   5.892   3.857
 8948SOL    HW127743   5.561   5.969   3.842
 8948SOL    HW227744   5.589   5.812   3.808
 8949SOL     OW27745   1.611   6.970   0.995
 8949SOL    HW127746   1.514   6.997   1.001
 8949SOL    HW227747   1.643   6.984   0.901
 8950SOL     OW27748   4.816   3.083   5.544
 8950SOL    HW127749   4.841   2.996   5.587
 8950SOL    HW227750   4.875   3.155   5.580
 8951SOL     OW27751   1.922   2.098   4.943
 8951SOL    HW127752   1.899   2.042   5.023
 8951SOL    HW227753   1.861   2.177   4.938
 8952SOL     OW27754   0.931   0.664   2.170
 8952SOL    HW127755   0.964   0.731   2.237
 8952SOL    HW227756   1.009   0.628   2.117
 8953SOL     OW27757   1.137   3.840   6.936
 8953SOL    HW127758   1.203   3.771   6.906
 8953SOL    HW227759   1.163   3.874   0.008
 8954SOL     OW27760   0.309   5.921   5.525
 8954SOL    HW127761   0.372   5.908   5.449
 8954SOL    HW227762   0.338   6.000   5.579
 8955SOL     OW27763   0.396   4.015   2.691
 8955SOL    HW127764   0.326   4.035   2.623
 8955SOL    HW227765   0.486   4.041   2.655
 8956SOL     OW27766   0.040   1.546   6.818
 8956SOL    HW127767   0.013   1.593   6.903
 8956SOL    HW227768   7.004   1.581   6.742
 8957SOL     OW27769   2.901   4.053   1.447
 8957SOL    HW127770   2.880   4.109   1.528
 8957SOL    HW227771   2.957   3.975   1.475
 8958SOL     OW27772   1.159   0.709   4.076
 8958SOL    HW127773   1.226   0.758   4.020
 8958SOL    HW227774   1.107   0.646   4.019
 8959SOL     OW27775   1.438   4.374   1.045
 8959SOL    HW127776   1.396   4.300   0.991
 8959SOL    HW227777   1.511   4.416   0.993
 8960SOL     OW27778   4.944   5.470   2.560
 8960SOL    HW127779   4.852   5.487   2.596
 8960SOL    HW227780   4.996   5.418   2.628
 8961SOL     OW27781   1.605   2.170   4.419
 8961SOL    HW127782   1.616   2.125   4.508
 8961SOL    HW227783   1.666   2.126   4.352
 8962SOL     OW27784   6.200   6.921   2.044
 8962SOL    HW127785   6.127   6.916   2.112
 8962SOL    HW227786   6.178   6.863   1.966
 8963SOL     OW27787   5.038   6.604   4.140
 8963SOL    HW127788   5.113   6.602   4.074
 8963SOL    HW227789   4.954   6.630   4.094
 8964SOL     OW27790   5.947   3.992   2.462
 8964SOL    HW127791   6.027   3.956   2.511
 8964SOL    HW227792   5.938   3.944   2.374
 8965SOL     OW27793   1.878   4.855   1.112
 8965SOL    HW127794   1.931   4.900   1.040
 8965SOL    HW227795   1.916   4.763   1.128
 8966SOL     OW27796   1.865   3.732   5.695
 8966SOL    HW127797   1.870   3.643   5.649
 8966SOL    HW227798   1.954   3.777   5.691
 8967SOL     OW27799   3.363   5.821   1.436
 8967SOL    HW127800   3.431   5.841   1.365
 8967SOL    HW227801   3.349   5.903   1.493
 8968SOL     OW27802   4.655   5.356   2.596
 8968SOL    HW127803   4.602   5.271   2.592
 8968SOL    HW227804   4.618   5.414   2.669
 8969SOL     OW27805   6.399   0.780   3.696
 8969SOL    HW127806   6.324   0.843   3.673
 8969SOL    HW227807   6.362   0.704   3.750
 8970SOL     OW27808   2.963   2.138   0.395
 8970SOL    HW127809   2.948   2.213   0.330
 8970SOL    HW227810   3.027   2.072   0.355
 8971SOL     OW27811   3.428   5.641   2.391
 8971SOL    HW127812   3.443   5.711   2.321
 8971SOL    HW227813   3.330   5.628   2.405
 8972SOL     OW27814   4.625   5.994   6.286
 8972SOL    HW127815   4.550   6.052   6.254
 8972SOL    HW227816   4.607   5.899   6.260
 8973SOL     OW27817   0.635   3.317   2.285
 8973SOL    HW127818   0.644   3.248   2.357
 8973SOL    HW227819   0.609   3.273   2.199
 8974SOL     OW27820   1.425   4.247   5.489
 8974SOL    HW127821   1.481   4.197   5.423
 8974SOL    HW227822   1.452   4.222   5.582
 8975SOL     OW27823   2.733   0.724   6.914
 8975SOL    HW127824   2.661   0.737   6.846
 8975SOL    HW227825   2.700   0.755   7.003
 8976SOL     OW27826   0.882   4.948   5.111
 8976SOL    HW127827   0.902   4.878   5.179
 8976SOL    HW227828   0.820   5.016   5.150
 8977SOL     OW27829   5.729   1.860   6.826
 8977SOL    HW127830   5.823   1.827   6.825
 8977SOL    HW227831   5.701   1.884   6.733
 8978SOL     OW27832   6.270   6.445   6.276
 8978SOL    HW127833   6.236   6.352   6.265
 8978SOL    HW227834   6.370   6.445   6.273
 8979SOL     OW27835   1.326   3.373   3.987
 8979SOL    HW127836   1.266   3.453   3.992
 8979SOL    HW227837   1.404   3.394   3.929
 8980SOL     OW27838   2.259   2.948   5.493
 8980SOL    HW127839   2.218   2.912   5.409
 8980SOL    HW227840   2.307   3.033   5.473
 8981SOL     OW27841   3.705   1.842   5.028
 8981SOL    HW127842   3.734   1.935   5.048
 8981SOL    HW227843   3.676   1.835   4.933
 8982SOL     OW27844   1.494   2.581   0.293
 8982SOL    HW127845   1.501   2.494   0.243
 8982SOL    HW227846   1.423   2.573   0.363
 8983SOL     OW27847   2.782   6.127   6.327
 8983SOL    HW127848   2.776   6.199   6.395
 8983SOL    HW227849   2.766   6.038   6.371
 8984SOL     OW27850   1.188   0.158   3.948
 8984SOL    HW127851   1.195   0.170   4.047
 8984SOL    HW227852   1.228   0.071   3.922
 8985SOL     OW27853   3.658   2.106   0.998
 8985SOL    HW127854   3.648   2.133   0.902
 8985SOL    HW227855   3.719   2.028   1.004
 8986SOL     OW27856   4.442   5.741   2.512
 8986SOL    HW127857   4.450   5.678   2.434
 8986SOL    HW227858   4.369   5.709   2.573
 8987SOL     OW27859   3.989   6.421   2.016
 8987SOL    HW127860   3.972   6.371   1.930
 8987SOL    HW227861   4.088   6.433   2.028
 8988SOL     OW27862   1.591   4.726   4.251
 8988SOL    HW127863   1.648   4.714   4.170
 8988SOL    HW227864   1.616   4.657   4.320
 8989SOL     OW27865   4.786   3.471   6.514
 8989SOL    HW127866   4.763   3.387   6.466
 8989SOL    HW227867   4.726   3.482   6.593
 8990SOL     OW27868   1.301   5.130   4.684
 8990SOL    HW127869   1.326   5.082   4.600
 8990SOL    HW227870   1.332   5.225   4.678
 8991SOL     OW27871   1.933   3.299   4.895
 8991SOL    HW127872   1.926   3.202   4.870
 8991SOL    HW227873   2.030   3.325   4.899
 8992SOL     OW27874   4.762   1.859   0.823
 8992SOL    HW127875   4.674   1.853   0.777
 8992SOL    HW227876   4.831   1.811   0.769
 8993SOL     OW27877   3.633   2.733   0.431
 8993SOL    HW127878   3.698   2.662   0.403
 8993SOL    HW227879   3.552   2.729   0.373
 8994SOL     OW27880   1.645   4.120   5.405
 8994SOL    HW127881   1.724   4.173   5.435
 8994SOL    HW227882   1.626   4.048   5.471
 8995SOL     OW27883   0.562   1.742   0.302
 8995SOL    HW127884   0.598   1.650   0.284
 8995SOL    HW227885   0.515   1.743   0.390
 8996SOL     OW27886   5.487   4.257   6.424
 8996SOL    HW127887   5.549   4.201   6.479
 8996SOL    HW227888   5.484   4.349   6.461
 8997SOL     OW27889   4.956   1.439   6.279
 8997SOL    HW127890   4.934   1.510   6.212
 8997SOL    HW227891   4.927   1.468   6.370
 8998SOL     OW27892   5.981   3.788   4.114
 8998SOL    HW127893   5.931   3.870   4.144
 8998SOL    HW227894   5.922   3.708   4.125
 8999SOL     OW27895   4.454   6.492   6.477
 8999SOL    HW127896   4.539   6.513   6.427
 8999SOL    HW227897   4.467   6.513   6.574
 9000SOL     OW27898   1.889   3.242   2.383
 9000SOL    HW127899   1.796   3.262   2.353
 9000SOL    HW227900   1.954   3.278   2.317
 9001SOL     OW27901   1.307   4.772   1.955
 9001SOL    HW127902   1.269   4.759   2.046
 9001SOL    HW227903   1.348   4.686   1.923
 9002SOL     OW27904   1.914   5.243   5.037
 9002SOL    HW127905   1.884   5.317   4.977
 9002SOL    HW227906   1.937   5.163   4.982
 9003SOL     OW27907   5.432   4.330   1.137
 9003SOL    HW127908   5.409   4.233   1.150
 9003SOL    HW227909   5.531   4.340   1.131
 9004SOL     OW27910   4.058   5.343   0.625
 9004SOL    HW127911   4.145   5.387   0.646
 9004SOL    HW227912   4.036   5.276   0.696
 9005SOL     OW27913   6.631   1.689   5.457
 9005SOL    HW127914   6.609   1.682   5.555
 9005SOL    HW227915   6.729   1.707   5.446
 9006SOL     OW27916   2.403   5.861   1.233
 9006SOL    HW127917   2.403   5.790   1.163
 9006SOL    HW227918   2.470   5.932   1.209
 9007SOL     OW27919   3.229   0.751   3.269
 9007SOL    HW127920   3.204   0.656   3.285
 9007SOL    HW227921   3.219   0.772   3.171
 9008SOL     OW27922   0.455   5.458   2.683
 9008SOL    HW127923   0.506   5.516   2.619
 9008SOL    HW227924   0.428   5.513   2.762
 9009SOL     OW27925   3.327   4.850   0.782
 9009SOL    HW127926   3.345   4.942   0.747
 9009SOL    HW227927   3.351   4.846   0.879
 9010SOL     OW27928   1.748   6.436   3.893
 9010SOL    HW127929   1.819   6.433   3.823
 9010SOL    HW227930   1.735   6.344   3.932
 9011SOL     OW27931   4.545   0.848   1.213
 9011SOL    HW127932   4.609   0.834   1.138
 9011SOL    HW227933   4.592   0.832   1.300
 9012SOL     OW27934   2.143   5.113   6.715
 9012SOL    HW127935   2.176   5.203   6.687
 9012SOL    HW227936   2.195   5.042   6.668
 9013SOL     OW27937   0.812   0.621   6.002
 9013SOL    HW127938   0.752   0.566   5.944
 9013SOL    HW227939   0.904   0.621   5.964
 9014SOL     OW27940   0.197   2.036   0.792
 9014SOL    HW127941   0.207   2.124   0.745
 9014SOL    HW227942   0.132   2.047   0.868
 9015SOL     OW27943   4.806   2.389   1.641
 9015SOL    HW127944   4.735   2.446   1.599
 9015SOL    HW227945   4.873   2.364   1.571
 9016SOL     OW27946   6.308   5.984   6.640
 9016SOL    HW127947   6.404   5.957   6.651
 9016SOL    HW227948   6.289   6.062   6.700
 9017SOL     OW27949   4.652   1.547   4.015
 9017SOL    HW127950   4.590   1.599   4.074
 9017SOL    HW227951   4.632   1.567   3.919
 9018SOL     OW27952   2.568   3.393   5.913
 9018SOL    HW127953   2.667   3.383   5.906
 9018SOL    HW227954   2.523   3.317   5.865
 9019SOL     OW27955   1.190   5.443   2.664
 9019SOL    HW127956   1.212   5.364   2.722
 9019SOL    HW227957   1.093   5.467   2.676
 9020SOL     OW27958   6.973   4.287   0.843
 9020SOL    HW127959   7.015   4.366   0.888
 9020SOL    HW227960   0.013   4.207   0.856
 9021SOL     OW27961   6.956   1.576   3.572
 9021SOL    HW127962   6.919   1.484   3.555
 9021SOL    HW227963   6.880   1.641   3.575
 9022SOL     OW27964   3.041   1.182   6.952
 9022SOL    HW127965   3.040   1.281   6.968
 9022SOL    HW227966   3.046   1.134   0.021
 9023SOL     OW27967   3.769   3.588   1.909
 9023SOL    HW127968   3.673   3.564   1.919
 9023SOL    HW227969   3.822   3.505   1.890
 9024SOL     OW27970   1.296   3.846   5.876
 9024SOL    HW127971   1.209   3.891   5.853
 9024SOL    HW227972   1.329   3.795   5.797
 9025SOL     OW27973   0.387   5.105   0.789
 9025SOL    HW127974   0.430   5.089   0.878
 9025SOL    HW227975   0.436   5.178   0.741
 9026SOL     OW27976   3.400   2.251   1.003
 9026SOL    HW127977   3.449   2.309   1.068
 9026SOL    HW227978   3.466   2.199   0.948
 9027SOL     OW27979   0.504   3.442   3.061
 9027SOL    HW127980   0.549   3.516   3.011
 9027SOL    HW227981   0.431   3.479   3.118
 9028SOL     OW27982   3.350   3.146   5.398
 9028SOL    HW127983   3.409   3.065   5.404
 9028SOL    HW227984   3.332   3.166   5.302
 9029SOL     OW27985   4.151   6.636   4.810
 9029SOL    HW127986   4.061   6.650   4.851
 9029SOL    HW227987   4.220   6.690   4.858
 9030SOL     OW27988   2.352   1.885   3.456
 9030SOL    HW127989   2.363   1.927   3.546
 9030SOL    HW227990   2.409   1.803   3.450
 9031SOL     OW27991   4.175   6.403   3.768
 9031SOL    HW127992   4.153   6.307   3.756
 9031SOL    HW227993   4.105   6.459   3.724
 9032SOL     OW27994   4.722   4.530   0.822
 9032SOL    HW127995   4.716   4.556   0.725
 9032SOL    HW227996   4.811   4.558   0.858
 9033SOL     OW27997   0.696   4.738   2.920
 9033SOL    HW127998   0.782   4.768   2.878
 9033SOL    HW227999   0.644   4.683   2.854
 9034SOL     OW28000   2.695   5.900   4.823
 9034SOL    HW128001   2.787   5.873   4.795
 9034SOL    HW228002   2.637   5.909   4.742
 9035SOL     OW28003   2.039   4.744   0.265
 9035SOL    HW128004   1.966   4.682   0.237
 9035SOL    HW228005   2.080   4.786   0.184
 9036SOL     OW28006   2.111   3.207   5.925
 9036SOL    HW128007   2.136   3.273   5.854
 9036SOL    HW228008   2.134   3.115   5.894
 9037SOL     OW28009   1.241   3.950   3.321
 9037SOL    HW128010   1.224   3.958   3.419
 9037SOL    HW228011   1.329   3.905   3.306
 9038SOL     OW28012   4.672   2.550   6.831
 9038SOL    HW128013   4.698   2.646   6.837
 9038SOL    HW228014   4.577   2.543   6.800
 9039SOL     OW28015   2.249   4.724   6.416
 9039SOL    HW128016   2.169   4.722   6.354
 9039SOL    HW228017   2.248   4.643   6.474
 9040SOL     OW28018   2.576   2.508   2.654
 9040SOL    HW128019   2.566   2.583   2.588
 9040SOL    HW228020   2.487   2.489   2.695
 9041SOL     OW28021   1.114   2.146   0.845
 9041SOL    HW128022   1.200   2.162   0.796
 9041SOL    HW228023   1.038   2.186   0.794
 9042SOL     OW28024   3.932   0.245   4.193
 9042SOL    HW128025   3.939   0.241   4.093
 9042SOL    HW228026   3.987   0.172   4.233
 9043SOL     OW28027   2.570   0.781   6.734
 9043SOL    HW128028   2.614   0.751   6.649
 9043SOL    HW228029   2.536   0.874   6.722
 9044SOL     OW28030   6.719   0.871   0.421
 9044SOL    HW128031   6.743   0.960   0.458
 9044SOL    HW228032   6.677   0.816   0.493
 9045SOL     OW28033   3.667   0.968   2.380
 9045SOL    HW128034   3.755   0.980   2.425
 9045SOL    HW228035   3.681   0.948   2.283
 9046SOL     OW28036   3.582   4.110   2.878
 9046SOL    HW128037   3.681   4.100   2.891
 9046SOL    HW228038   3.535   4.075   2.959
 9047SOL     OW28039   1.738   3.670   4.890
 9047SOL    HW128040   1.733   3.658   4.790
 9047SOL    HW228041   1.692   3.594   4.935
 9048SOL     OW28042   6.787   2.719   5.998
 9048SOL    HW128043   6.688   2.716   5.990
 9048SOL    HW228044   6.814   2.690   6.090
 9049SOL     OW28045   4.306   0.035   5.608
 9049SOL    HW128046   4.248   0.100   5.559
 9049SOL    HW228047   4.281   6.960   5.583
 9050SOL     OW28048   0.461   3.707   1.278
 9050SOL    HW128049   0.423   3.755   1.199
 9050SOL    HW228050   0.545   3.661   1.252
 9051SOL     OW28051   2.282   0.267   1.438
 9051SOL    HW128052   2.371   0.307   1.461
 9051SOL    HW228053   2.235   0.239   1.521
 9052SOL     OW28054   2.356   2.750   4.339
 9052SOL    HW128055   2.363   2.680   4.411
 9052SOL    HW228056   2.387   2.711   4.253
 9053SOL     OW28057   2.095   0.921   2.123
 9053SOL    HW128058   2.025   0.993   2.124
 9053SOL    HW228059   2.179   0.956   2.084
 9054SOL     OW28060   2.709   5.559   4.686
 9054SOL    HW128061   2.800   5.585   4.657
 9054SOL    HW228062   2.711   5.466   4.724
 9055SOL     OW28063   5.931   2.347   3.846
 9055SOL    HW128064   5.959   2.420   3.908
 9055SOL    HW228065   6.011   2.307   3.802
 9056SOL     OW28066   0.079   1.860   1.369
 9056SOL    HW128067   0.175   1.835   1.380
 9056SOL    HW228068   0.042   1.815   1.288
 9057SOL     OW28069   4.513   2.506   5.259
 9057SOL    HW128070   4.551   2.460   5.340
 9057SOL    HW228071   4.569   2.585   5.236
 9058SOL     OW28072   1.702   1.389   1.719
 9058SOL    HW128073   1.747   1.307   1.683
 9058SOL    HW228074   1.652   1.366   1.802
 9059SOL     OW28075   1.401   2.224   3.265
 9059SOL    HW128076   1.437   2.311   3.297
 9059SOL    HW228077   1.308   2.237   3.230
 9060SOL     OW28078   5.905   2.930   4.542
 9060SOL    HW128079   5.849   2.868   4.597
 9060SOL    HW228080   5.999   2.931   4.579
 9061SOL     OW28081   2.907   5.441   2.370
 9061SOL    HW128082   2.809   5.459   2.362
 9061SOL    HW228083   2.943   5.416   2.280
 9062SOL     OW28084   1.152   6.014   1.823
 9062SOL    HW128085   1.170   5.965   1.738
 9062SOL    HW228086   1.235   6.060   1.854
 9063SOL     OW28087   3.094   0.186   3.918
 9063SOL    HW128088   3.136   0.200   3.828
 9063SOL    HW228089   3.033   0.261   3.939
 9064SOL     OW28090   6.195   3.330   6.363
 9064SOL    HW128091   6.219   3.391   6.438
 9064SOL    HW228092   6.116   3.367   6.314
 9065SOL     OW28093   3.784   0.382   0.308
 9065SOL    HW128094   3.806   0.479   0.306
 9065SOL    HW228095   3.706   0.364   0.247
 9066SOL     OW28096   4.969   6.987   0.392
 9066SOL    HW128097   5.047   0.012   0.346
 9066SOL    HW228098   4.969   6.890   0.371
 9067SOL     OW28099   1.162   0.562   3.708
 9067SOL    HW128100   1.160   0.654   3.668
 9067SOL    HW228101   1.096   0.558   3.783
 9068SOL     OW28102   1.440   6.698   4.818
 9068SOL    HW128103   1.525   6.684   4.869
 9068SOL    HW228104   1.422   6.619   4.761
 9069SOL     OW28105   1.399   2.985   0.499
 9069SOL    HW128106   1.361   3.073   0.471
 9069SOL    HW228107   1.400   2.923   0.420
 9070SOL     OW28108   1.925   3.612   5.234
 9070SOL    HW128109   1.904   3.677   5.162
 9070SOL    HW228110   1.893   3.521   5.208
 9071SOL     OW28111   6.472   6.437   0.647
 9071SOL    HW128112   6.417   6.396   0.574
 9071SOL    HW228113   6.520   6.517   0.611
 9072SOL     OW28114   6.997   2.958   0.910
 9072SOL    HW128115   0.010   2.864   0.907
 9072SOL    HW228116   7.007   2.994   1.003
 9073SOL     OW28117   2.074   6.969   1.804
 9073SOL    HW128118   2.077   6.916   1.719
 9073SOL    HW228119   1.985   7.013   1.812
 9074SOL     OW28120   1.142   0.397   2.885
 9074SOL    HW128121   1.139   0.366   2.789
 9074SOL    HW228122   1.228   0.369   2.926
 9075SOL     OW28123   6.793   1.331   2.610
 9075SOL    HW128124   6.727   1.341   2.684
 9075SOL    HW228125   6.867   1.270   2.640
 9076SOL     OW28126   0.659   1.115   6.442
 9076SOL    HW128127   0.634   1.135   6.536
 9076SOL    HW228128   0.748   1.157   6.422
 9077SOL     OW28129   4.285   6.439   1.221
 9077SOL    HW128130   4.221   6.434   1.144
 9077SOL    HW228131   4.321   6.348   1.240
 9078SOL     OW28132   3.503   2.837   4.756
 9078SOL    HW128133   3.471   2.847   4.850
 9078SOL    HW228134   3.495   2.741   4.728
 9079SOL     OW28135   2.859   0.391   4.707
 9079SOL    HW128136   2.896   0.484   4.705
 9079SOL    HW228137   2.837   0.367   4.802
 9080SOL     OW28138   5.428   3.040   6.568
 9080SOL    HW128139   5.433   3.047   6.469
 9080SOL    HW228140   5.445   3.129   6.609
 9081SOL     OW28141   4.947   6.100   2.580
 9081SOL    HW128142   5.028   6.136   2.627
 9081SOL    HW228143   4.896   6.041   2.642
 9082SOL     OW28144   1.848   0.307   4.572
 9082SOL    HW128145   1.917   0.281   4.639
 9082SOL    HW228146   1.788   0.230   4.552
 9083SOL     OW28147   5.091   4.762   5.938
 9083SOL    HW128148   4.998   4.797   5.951
 9083SOL    HW228149   5.157   4.837   5.946
 9084SOL     OW28150   4.036   3.814   3.262
 9084SOL    HW128151   3.939   3.825   3.240
 9084SOL    HW228152   4.064   3.886   3.326
 9085SOL     OW28153   2.300   0.702   0.839
 9085SOL    HW128154   2.235   0.693   0.915
 9085SOL    HW228155   2.250   0.707   0.753
 9086SOL     OW28156   0.415   4.521   0.594
 9086SOL    HW128157   0.444   4.443   0.537
 9086SOL    HW228158   0.446   4.606   0.551
 9087SOL     OW28159   5.132   2.953   2.134
 9087SOL    HW128160   5.179   2.867   2.157
 9087SOL    HW228161   5.199   3.020   2.104
 9088SOL     OW28162   6.091   0.384   0.804
 9088SOL    HW128163   6.187   0.361   0.819
 9088SOL    HW228164   6.082   0.442   0.724
 9089SOL     OW28165   5.209   6.420   5.557
 9089SOL    HW128166   5.143   6.412   5.631
 9089SOL    HW228167   5.228   6.517   5.540
 9090SOL     OW28168   5.934   1.311   5.171
 9090SOL    HW128169   5.949   1.258   5.255
 9090SOL    HW228170   5.991   1.394   5.173
 9091SOL     OW28171   3.045   3.483   6.672
 9091SOL    HW128172   2.979   3.543   6.627
 9091SOL    HW228173   3.063   3.517   6.764
 9092SOL     OW28174   6.676   1.182   0.243
 9092SOL    HW128175   6.735   1.178   0.163
 9092SOL    HW228176   6.605   1.251   0.229
 9093SOL     OW28177   1.725   5.897   5.365
 9093SOL    HW128178   1.691   5.941   5.281
 9093SOL    HW228179   1.789   5.825   5.340
 9094SOL     OW28180   0.244   3.948   3.318
 9094SOL    HW128181   0.190   3.869   3.350
 9094SOL    HW228182   0.316   3.916   3.256
 9095SOL     OW28183   4.857   4.831   6.024
 9095SOL    HW128184   4.878   4.883   6.107
 9095SOL    HW228185   4.759   4.813   6.019
 9096SOL     OW28186   6.746   4.720   3.568
 9096SOL    HW128187   6.713   4.634   3.529
 9096SOL    HW228188   6.715   4.797   3.512
 9097SOL     OW28189   1.554   2.445   6.409
 9097SOL    HW128190   1.477   2.499   6.376
 9097SOL    HW228191   1.606   2.498   6.476
 9098SOL     OW28192   2.185   2.156   5.216
 9098SOL    HW128193   2.183   2.112   5.126
 9098SOL    HW228194   2.186   2.255   5.205
 9099SOL     OW28195   2.361   2.869   6.395
 9099SOL    HW128196   2.332   2.910   6.309
 9099SOL    HW228197   2.281   2.828   6.440
 9100SOL     OW28198   0.830   3.755   2.357
 9100SOL    HW128199   0.909   3.713   2.402
 9100SOL    HW228200   0.802   3.697   2.281
 9101SOL     OW28201   2.895   1.640   2.887
 9101SOL    HW128202   2.970   1.621   2.824
 9101SOL    HW228203   2.808   1.637   2.838
 9102SOL     OW28204   4.181   6.575   2.224
 9102SOL    HW128205   4.214   6.601   2.134
 9102SOL    HW228206   4.165   6.656   2.279
 9103SOL     OW28207   6.035   1.535   6.729
 9103SOL    HW128208   5.969   1.465   6.753
 9103SOL    HW228209   6.017   1.568   6.636
 9104SOL     OW28210   6.616   0.712   1.921
 9104SOL    HW128211   6.706   0.668   1.926
 9104SOL    HW228212   6.594   0.732   1.826
 9105SOL     OW28213   0.985   6.960   5.489
 9105SOL    HW128214   0.964   6.955   5.392
 9105SOL    HW228215   0.979   0.037   5.520
 9106SOL     OW28216   0.472   4.084   0.272
 9106SOL    HW128217   0.372   4.090   0.273
 9106SOL    HW228218   0.499   4.010   0.210
 9107SOL     OW28219   2.383   0.190   6.360
 9107SOL    HW128220   2.336   0.239   6.434
 9107SOL    HW228221   2.341   0.101   6.347
 9108SOL     OW28222   5.256   4.693   5.437
 9108SOL    HW128223   5.249   4.644   5.524
 9108SOL    HW228224   5.254   4.628   5.361
 9109SOL     OW28225   5.028   3.135   2.492
 9109SOL    HW128226   4.984   3.095   2.573
 9109SOL    HW228227   4.993   3.090   2.410
 9110SOL     OW28228   0.865   5.850   4.397
 9110SOL    HW128229   0.892   5.811   4.485
 9110SOL    HW228230   0.769   5.878   4.401
 9111SOL     OW28231   4.688   2.859   6.017
 9111SOL    HW128232   4.602   2.810   6.023
 9111SOL    HW228233   4.735   2.855   6.105
 9112SOL     OW28234   1.818   5.132   2.676
 9112SOL    HW128235   1.824   5.099   2.771
 9112SOL    HW228236   1.786   5.059   2.617
 9113SOL     OW28237   5.549   2.731   3.536
 9113SOL    HW128238   5.620   2.799   3.517
 9113SOL    HW228239   5.583   2.640   3.513
 9114SOL     OW28240   1.473   6.260   3.801
 9114SOL    HW128241   1.513   6.351   3.793
 9114SOL    HW228242   1.492   6.222   3.892
 9115SOL     OW28243   5.921   4.593   3.246
 9115SOL    HW128244   5.923   4.677   3.300
 9115SOL    HW228245   5.888   4.518   3.303
 9116SOL     OW28246   0.289   6.710   3.287
 9116SOL    HW128247   0.258   6.805   3.284
 9116SOL    HW228248   0.228   6.657   3.346
 9117SOL     OW28249   4.383   1.412   6.871
 9117SOL    HW128250   4.319   1.394   6.796
 9117SOL    HW228251   4.341   1.383   6.958
 9118SOL     OW28252   6.074   3.708   0.421
 9118SOL    HW128253   6.001   3.678   0.483
 9118SOL    HW228254   6.054   3.675   0.329
 9119SOL     OW28255   3.531   6.439   1.173
 9119SOL    HW128256   3.522   6.488   1.087
 9119SOL    HW228257   3.615   6.466   1.219
 9120SOL     OW28258   6.840   2.602   6.230
 9120SOL    HW128259   6.937   2.578   6.238
 9120SOL    HW228260   6.785   2.519   6.231
 9121SOL     OW28261   3.996   0.467   5.692
 9121SOL    HW128262   3.979   0.561   5.661
 9121SOL    HW228263   4.092   0.443   5.674
 9122SOL     OW28264   2.178   4.034   2.102
 9122SOL    HW128265   2.166   4.064   2.007
 9122SOL    HW228266   2.229   4.103   2.152
 9123SOL     OW28267   1.462   7.016   3.557
 9123SOL    HW128268   1.455   0.087   3.512
 9123SOL    HW228269   1.496   0.010   3.650
 9124SOL     OW28270   3.588   4.792   1.494
 9124SOL    HW128271   3.667   4.731   1.506
 9124SOL    HW228272   3.539   4.799   1.581
 9125SOL     OW28273   3.344   5.806   7.010
 9125SOL    HW128274   3.376   5.765   6.924
 9125SOL    HW228275   3.349   5.738   0.065
 9126SOL     OW28276   4.524   4.670   1.003
 9126SOL    HW128277   4.602   4.613   0.979
 9126SOL    HW228278   4.555   4.757   1.040
 9127SOL     OW28279   0.072   3.513   5.002
 9127SOL    HW128280   0.044   3.497   5.096
 9127SOL    HW228281   7.013   3.548   4.950
 9128SOL     OW28282   6.268   3.216   4.811
 9128SOL    HW128283   6.338   3.190   4.744
 9128SOL    HW228284   6.225   3.134   4.848
 9129SOL     OW28285   2.246   1.911   1.157
 9129SOL    HW128286   2.333   1.959   1.169
 9129SOL    HW228287   2.178   1.948   1.221
 9130SOL     OW28288   3.082   4.240   5.557
 9130SOL    HW128289   3.024   4.297   5.615
 9130SOL    HW228290   3.058   4.254   5.461
 9131SOL     OW28291   6.072   2.707   1.031
 9131SOL    HW128292   6.086   2.732   0.935
 9131SOL    HW228293   5.975   2.695   1.048
 9132SOL     OW28294   0.965   4.642   3.677
 9132SOL    HW128295   0.990   4.576   3.748
 9132SOL    HW228296   0.898   4.600   3.616
 9133SOL     OW28297   3.837   0.810   1.000
 9133SOL    HW128298   3.886   0.741   1.054
 9133SOL    HW228299   3.899   0.885   0.977
 9134SOL     OW28300   4.414   5.216   0.934
 9134SOL    HW128301   4.485   5.281   0.964
 9134SOL    HW228302   4.395   5.151   1.008
 9135SOL     OW28303   1.181   5.828   1.625
 9135SOL    HW128304   1.208   5.883   1.546
 9135SOL    HW228305   1.154   5.737   1.594
 9136SOL     OW28306   5.277   5.115   6.457
 9136SOL    HW128307   5.315   5.049   6.392
 9136SOL    HW228308   5.329   5.113   6.542
 9137SOL     OW28309   4.865   6.225   6.324
 9137SOL    HW128310   4.869   6.215   6.423
 9137SOL    HW228311   4.798   6.161   6.286
 9138SOL     OW28312   2.445   3.003   0.282
 9138SOL    HW128313   2.438   2.907   0.255
 9138SOL    HW228314   2.360   3.031   0.327
 9139SOL     OW28315   6.848   0.266   1.462
 9139SOL    HW128316   6.785   0.343   1.477
 9139SOL    HW228317   6.798   0.190   1.422
 9140SOL     OW28318   0.729   4.234   2.343
 9140SOL    HW128319   0.698   4.182   2.263
 9140SOL    HW228320   0.695   4.190   2.426
 9141SOL     OW28321   6.977   5.571   5.902
 9141SOL    HW128322   6.929   5.649   5.942
 9141SOL    HW228323   6.946   5.486   5.946
 9142SOL     OW28324   1.206   3.493   2.720
 9142SOL    HW128325   1.141   3.504   2.644
 9142SOL    HW228326   1.192   3.565   2.787
 9143SOL     OW28327   0.398   3.782   2.565
 9143SOL    HW128328   0.302   3.755   2.554
 9143SOL    HW228329   0.404   3.861   2.626
 9144SOL     OW28330   2.590   4.950   4.885
 9144SOL    HW128331   2.493   4.959   4.909
 9144SOL    HW228332   2.610   5.008   4.807
 9145SOL     OW28333   0.916   0.068   6.418
 9145SOL    HW128334   0.890   6.989   6.417
 9145SOL    HW228335   0.837   0.124   6.393
 9146SOL     OW28336   5.950   3.203   3.525
 9146SOL    HW128337   6.035   3.196   3.472
 9146SOL    HW228338   5.962   3.269   3.599
 9147SOL     OW28339   5.748   6.887   3.682
 9147SOL    HW128340   5.686   6.958   3.715
 9147SOL    HW228341   5.843   6.917   3.691
 9148SOL     OW28342   6.510   0.061   1.469
 9148SOL    HW128343   6.522   7.016   1.545
 9148SOL    HW228344   6.416   0.057   1.436
 9149SOL     OW28345   6.129   3.658   1.066
 9149SOL    HW128346   6.066   3.730   1.094
 9149SOL    HW228347   6.222   3.684   1.093
 9150SOL     OW28348   2.579   4.064   6.886
 9150SOL    HW128349   2.480   4.071   6.872
 9150SOL    HW228350   2.627   4.107   6.809
 9151SOL     OW28351   1.516   3.841   3.868
 9151SOL    HW128352   1.571   3.921   3.844
 9151SOL    HW228353   1.507   3.781   3.789
 9152SOL     OW28354   1.896   4.143   3.986
 9152SOL    HW128355   1.905   4.093   4.072
 9152SOL    HW228356   1.932   4.236   3.998
 9153SOL     OW28357   0.084   2.170   6.510
 9153SOL    HW128358   0.006   2.108   6.512
 9153SOL    HW228359   0.162   2.124   6.466
 9154SOL     OW28360   6.341   5.214   3.433
 9154SOL    HW128361   6.375   5.263   3.353
 9154SOL    HW228362   6.399   5.235   3.512
 9155SOL     OW28363   1.032   6.128   2.593
 9155SOL    HW128364   1.012   6.098   2.500
 9155SOL    HW228365   0.991   6.218   2.608
 9156SOL     OW28366   6.872   3.960   0.243
 9156SOL    HW128367   6.792   3.995   0.194
 9156SOL    HW228368   6.867   3.990   0.339
 9157SOL     OW28369   3.361   4.289   6.411
 9157SOL    HW128370   3.425   4.354   6.371
 9157SOL    HW228371   3.283   4.276   6.350
 9158SOL     OW28372   6.945   3.835   4.129
 9158SOL    HW128373   6.906   3.786   4.051
 9158SOL    HW228374   6.982   3.922   4.098
 9159SOL     OW28375   3.751   6.757   3.256
 9159SOL    HW128376   3.765   6.686   3.325
 9159SOL    HW228377   3.698   6.832   3.296
 9160SOL     OW28378   0.601   4.722   6.529
 9160SOL    HW128379   0.603   4.634   6.576
 9160SOL    HW228380   0.636   4.711   6.436
 9161SOL     OW28381   5.759   4.108   1.524
 9161SOL    HW128382   5.813   4.033   1.561
 9161SOL    HW228383   5.715   4.079   1.439
 9162SOL     OW28384   4.719   2.101   2.183
 9162SOL    HW128385   4.794   2.060   2.234
 9162SOL    HW228386   4.726   2.201   2.188
 9163SOL     OW28387   1.658   2.099   3.324
 9163SOL    HW128388   1.559   2.105   3.313
 9163SOL    HW228389   1.680   2.051   3.409
 9164SOL     OW28390   2.640   0.232   6.856
 9164SOL    HW128391   2.584   0.267   6.781
 9164SOL    HW228392   2.670   0.308   6.914
 9165SOL     OW28393   4.968   2.372   5.247
 9165SOL    HW128394   4.897   2.312   5.211
 9165SOL    HW228395   4.935   2.415   5.331
 9166SOL     OW28396   4.717   5.963   1.544
 9166SOL    HW128397   4.646   5.925   1.485
 9166SOL    HW228398   4.684   5.968   1.638
 9167SOL     OW28399   1.288   1.081   5.912
 9167SOL    HW128400   1.226   1.002   5.914
 9167SOL    HW228401   1.235   1.165   5.907
 9168SOL     OW28402   6.502   5.283   4.299
 9168SOL    HW128403   6.511   5.381   4.283
 9168SOL    HW228404   6.406   5.259   4.309
 9169SOL     OW28405   6.140   6.074   0.162
 9169SOL    HW128406   6.137   6.027   0.250
 9169SOL    HW228407   6.056   6.127   0.149
 9170SOL     OW28408   1.207   1.355   6.429
 9170SOL    HW128409   1.297   1.398   6.420
 9170SOL    HW228410   1.183   1.348   6.525
 9171SOL     OW28411   3.482   4.815   0.498
 9171SOL    HW128412   3.491   4.715   0.497
 9171SOL    HW228413   3.388   4.840   0.519
 9172SOL     OW28414   5.187   1.456   4.525
 9172SOL    HW128415   5.147   1.381   4.579
 9172SOL    HW228416   5.151   1.543   4.558
 9173SOL     OW28417   6.198   2.256   4.015
 9173SOL    HW128418   6.190   2.157   4.025
 9173SOL    HW228419   6.156   2.301   4.093
 9174SOL     OW28420   0.908   5.664   6.956
 9174SOL    HW128421   0.908   5.763   6.945
 9174SOL    HW228422   0.996   5.626   6.928
 9175SOL     OW28423   1.703   6.667   0.001
 9175SOL    HW128424   1.798   6.639   0.016
 9175SOL    HW228425   1.660   6.682   0.090
 9176SOL     OW28426   1.870   1.485   2.866
 9176SOL    HW128427   1.919   1.548   2.806
 9176SOL    HW228428   1.878   1.392   2.830
 9177SOL     OW28429   0.083   4.989   4.001
 9177SOL    HW128430   0.135   4.997   4.086
 9177SOL    HW228431   0.147   4.983   3.924
 9178SOL     OW28432   1.883   6.125   0.186
 9178SOL    HW128433   1.786   6.130   0.211
 9178SOL    HW228434   1.939   6.155   0.263
 9179SOL     OW28435   4.450   6.236   5.056
 9179SOL    HW128436   4.411   6.175   5.124
 9179SOL    HW228437   4.400   6.323   5.056
 9180SOL     OW28438   0.068   2.055   4.220
 9180SOL    HW128439   7.006   2.001   4.197
 9180SOL    HW228440   0.102   2.101   4.139
 9181SOL     OW28441   3.892   1.811   3.717
 9181SOL    HW128442   3.837   1.823   3.799
 9181SOL    HW228443   3.895   1.897   3.666
 9182SOL     OW28444   2.209   1.237   3.153
 9182SOL    HW128445   2.185   1.205   3.245
 9182SOL    HW228446   2.140   1.304   3.122
 9183SOL     OW28447   5.299   2.242   6.171
 9183SOL    HW128448   5.365   2.220   6.242
 9183SOL    HW228449   5.232   2.168   6.163
 9184SOL     OW28450   3.323   2.803   1.022
 9184SOL    HW128451   3.343   2.807   1.120
 9184SOL    HW228452   3.394   2.852   0.972
 9185SOL     OW28453   0.378   0.629   6.792
 9185SOL    HW128454   0.454   0.692   6.779
 9185SOL    HW228455   0.413   0.536   6.804
 9186SOL     OW28456   5.165   0.428   5.983
 9186SOL    HW128457   5.184   0.514   5.934
 9186SOL    HW228458   5.221   0.355   5.944
 9187SOL     OW28459   5.219   1.950   0.354
 9187SOL    HW128460   5.284   1.955   0.278
 9187SOL    HW228461   5.217   2.038   0.402
 9188SOL     OW28462   1.156   0.051   1.932
 9188SOL    HW128463   1.092   0.053   2.008
 9188SOL    HW228464   1.106   0.057   1.845
 9189SOL     OW28465   2.927   1.418   3.653
 9189SOL    HW128466   3.000   1.355   3.630
 9189SOL    HW228467   2.920   1.427   3.752
 9190SOL     OW28468   5.734   3.980   5.405
 9190SOL    HW128469   5.758   4.000   5.500
 9190SOL    HW228470   5.791   3.905   5.372
 9191SOL     OW28471   5.117   6.263   6.176
 9191SOL    HW128472   5.018   6.266   6.191
 9191SOL    HW228473   5.137   6.277   6.079
 9192SOL     OW28474   6.761   3.909   5.953
 9192SOL    HW128475   6.861   3.907   5.947
 9192SOL    HW228476   6.733   3.904   6.049
 9193SOL     OW28477   3.838   3.100   3.303
 9193SOL    HW128478   3.898   3.180   3.300
 9193SOL    HW228479   3.753   3.124   3.350
 9194SOL     OW28480   2.845   5.669   3.023
 9194SOL    HW128481   2.915   5.666   3.095
 9194SOL    HW228482   2.890   5.669   2.933
 9195SOL     OW28483   0.551   3.052   3.751
 9195SOL    HW128484   0.619   3.017   3.815
 9195SOL    HW228485   0.591   3.055   3.659
 9196SOL     OW28486   4.196   0.562   2.995
 9196SOL    HW128487   4.291   0.533   2.993
 9196SOL    HW228488   4.179   0.628   2.922
 9197SOL     OW28489   2.935   3.001   6.543
 9197SOL    HW128490   2.979   2.962   6.462
 9197SOL    HW228491   2.931   3.101   6.534
 9198SOL     OW28492   5.664   3.022   5.545
 9198SOL    HW128493   5.629   3.052   5.634
 9198SOL    HW228494   5.653   3.095   5.478
 9199SOL     OW28495   1.677   4.155   6.598
 9199SOL    HW128496   1.614   4.113   6.664
 9199SOL    HW228497   1.626   4.218   6.539
 9200SOL     OW28498   6.265   0.203   0.364
 9200SOL    HW128499   6.364   0.203   0.373
 9200SOL    HW228500   6.231   0.297   0.365
 9201SOL     OW28501   0.045   4.310   2.002
 9201SOL    HW128502   0.050   4.242   2.075
 9201SOL    HW228503   0.082   4.271   1.918
 9202SOL     OW28504   2.702   5.085   4.254
 9202SOL    HW128505   2.724   5.036   4.338
 9202SOL    HW228506   2.784   5.091   4.197
 9203SOL     OW28507   5.236   0.926   5.505
 9203SOL    HW128508   5.315   0.872   5.473
 9203SOL    HW228509   5.260   0.971   5.591
 9204SOL     OW28510   5.582   4.213   3.037
 9204SOL    HW128511   5.597   4.144   2.967
 9204SOL    HW228512   5.567   4.302   2.994
 9205SOL     OW28513   6.152   2.734   2.757
 9205SOL    HW128514   6.064   2.763   2.795
 9205SOL    HW228515   6.150   2.743   2.657
 9206SOL     OW28516   1.640   6.466   3.355
 9206SOL    HW128517   1.666   6.562   3.349
 9206SOL    HW228518   1.687   6.413   3.284
 9207SOL     OW28519   4.018   5.916   6.721
 9207SOL    HW128520   3.947   5.850   6.696
 9207SOL    HW228521   3.980   6.009   6.716
 9208SOL     OW28522   4.915   3.672   2.277
 9208SOL    HW128523   4.982   3.626   2.219
 9208SOL    HW228524   4.836   3.611   2.291
 9209SOL     OW28525   3.661   1.219   2.544
 9209SOL    HW128526   3.637   1.148   2.479
 9209SOL    HW228527   3.612   1.303   2.522
 9210SOL     OW28528   2.151   0.047   1.004
 9210SOL    HW128529   2.211   0.075   1.079
 9210SOL    HW228530   2.056   0.069   1.026
 9211SOL     OW28531   4.780   1.924   6.900
 9211SOL    HW128532   4.694   1.908   6.948
 9211SOL    HW228533   4.778   1.876   6.812
 9212SOL     OW28534   5.436   4.637   4.544
 9212SOL    HW128535   5.509   4.572   4.523
 9212SOL    HW228536   5.359   4.589   4.586
 9213SOL     OW28537   6.115   6.607   3.529
 9213SOL    HW128538   6.075   6.591   3.438
 9213SOL    HW228539   6.042   6.612   3.597
 9214SOL     OW28540   2.287   2.610   4.570
 9214SOL    HW128541   2.371   2.556   4.577
 9214SOL    HW228542   2.211   2.551   4.542
 9215SOL     OW28543   0.705   4.093   2.604
 9215SOL    HW128544   0.779   4.075   2.669
 9215SOL    HW228545   0.685   4.009   2.553
 9216SOL     OW28546   2.667   5.910   5.399
 9216SOL    HW128547   2.708   5.970   5.329
 9216SOL    HW228548   2.579   5.877   5.366
 9217SOL     OW28549   4.669   1.391   6.145
 9217SOL    HW128550   4.704   1.316   6.201
 9217SOL    HW228551   4.724   1.473   6.159
 9218SOL     OW28552   5.918   6.446   5.970
 9218SOL    HW128553   5.827   6.422   5.938
 9218SOL    HW228554   5.931   6.545   5.963
 9219SOL     OW28555   3.697   3.235   5.424
 9219SOL    HW128556   3.636   3.207   5.350
 9219SOL    HW228557   3.648   3.231   5.511
 9220SOL     OW28558   1.654   6.620   2.858
 9220SOL    HW128559   1.733   6.563   2.880
 9220SOL    HW228560   1.621   6.666   2.940
 9221SOL     OW28561   2.496   0.369   6.655
 9221SOL    HW128562   2.516   0.387   6.558
 9221SOL    HW228563   2.429   0.436   6.687
 9222SOL     OW28564   1.699   4.385   3.549
 9222SOL    HW128565   1.783   4.402   3.496
 9222SOL    HW228566   1.646   4.469   3.555
 9223SOL     OW28567   1.658   3.688   4.633
 9223SOL    HW128568   1.599   3.768   4.635
 9223SOL    HW228569   1.692   3.674   4.540
 9224SOL     OW28570   1.931   4.207   3.695
 9224SOL    HW128571   1.910   4.157   3.779
 9224SOL    HW228572   1.850   4.213   3.637
 9225SOL     OW28573   4.592   0.048   6.210
 9225SOL    HW128574   4.558   7.002   6.141
 9225SOL    HW228575   4.683   0.079   6.184
 9226SOL     OW28576   0.967   6.924   0.765
 9226SOL    HW128577   0.873   6.955   0.751
 9226SOL    HW228578   1.030   7.000   0.750
 9227SOL     OW28579   2.717   5.219   0.623
 9227SOL    HW128580   2.788   5.281   0.658
 9227SOL    HW228581   2.715   5.223   0.523
 9228SOL     OW28582   2.653   2.473   5.813
 9228SOL    HW128583   2.648   2.375   5.835
 9228SOL    HW228584   2.703   2.485   5.727
 9229SOL     OW28585   0.195   4.733   6.579
 9229SOL    HW128586   0.144   4.664   6.630
 9229SOL    HW228587   0.145   4.820   6.581
 9230SOL     OW28588   4.632   2.150   3.825
 9230SOL    HW128589   4.698   2.225   3.833
 9230SOL    HW228590   4.676   2.071   3.784
 9231SOL     OW28591   0.751   5.151   5.230
 9231SOL    HW128592   0.813   5.161   5.308
 9231SOL    HW228593   0.741   5.239   5.183
 9232SOL     OW28594   1.647   5.840   1.506
 9232SOL    HW128595   1.681   5.768   1.566
 9232SOL    HW228596   1.708   5.919   1.513
 9233SOL     OW28597   0.726   0.587   7.007
 9233SOL    HW128598   0.654   0.557   0.052
 9233SOL    HW228599   0.812   0.600   0.039
 9234SOL     OW28600   2.446   4.739   0.615
 9234SOL    HW128601   2.525   4.711   0.670
 9234SOL    HW228602   2.367   4.683   0.639
 9235SOL     OW28603   2.497   2.611   4.120
 9235SOL    HW128604   2.494   2.606   4.020
 9235SOL    HW228605   2.536   2.526   4.156
 9236SOL     OW28606   1.923   3.231   6.471
 9236SOL    HW128607   1.838   3.235   6.420
 9236SOL    HW228608   1.976   3.315   6.455
 9237SOL     OW28609   5.553   5.297   3.109
 9237SOL    HW128610   5.620   5.301   3.035
 9237SOL    HW228611   5.461   5.296   3.069
 9238SOL     OW28612   1.518   3.249   5.093
 9238SOL    HW128613   1.517   3.154   5.064
 9238SOL    HW228614   1.495   3.255   5.190
 9239SOL     OW28615   0.675   4.649   0.290
 9239SOL    HW128616   0.597   4.670   0.348
 9239SOL    HW228617   0.759   4.681   0.335
 9240SOL     OW28618   4.885   2.758   2.704
 9240SOL    HW128619   4.877   2.847   2.747
 9240SOL    HW228620   4.977   2.748   2.665
 9241SOL     OW28621   6.198   6.618   0.573
 9241SOL    HW128622   6.231   6.616   0.479
 9241SOL    HW228623   6.118   6.558   0.581
 9242SOL     OW28624   1.416   2.077   1.949
 9242SOL    HW128625   1.389   2.172   1.934
 9242SOL    HW228626   1.403   2.025   1.864
 9243SOL     OW28627   0.524   0.448   1.681
 9243SOL    HW128628   0.536   0.514   1.607
 9243SOL    HW228629   0.559   0.359   1.653
 9244SOL     OW28630   4.319   6.778   4.976
 9244SOL    HW128631   4.313   6.786   5.076
 9244SOL    HW228632   4.411   6.750   4.950
 9245SOL     OW28633   1.293   4.584   3.299
 9245SOL    HW128634   1.323   4.667   3.253
 9245SOL    HW228635   1.194   4.585   3.310
 9246SOL     OW28636   6.307   1.017   4.563
 9246SOL    HW128637   6.312   0.917   4.561
 9246SOL    HW228638   6.334   1.054   4.474
 9247SOL     OW28639   3.517   5.678   3.342
 9247SOL    HW128640   3.420   5.687   3.365
 9247SOL    HW228641   3.527   5.621   3.261
 9248SOL     OW28642   2.686   1.529   5.393
 9248SOL    HW128643   2.691   1.431   5.414
 9248SOL    HW228644   2.723   1.545   5.302
 9249SOL     OW28645   3.757   4.855   1.757
 9249SOL    HW128646   3.694   4.780   1.777
 9249SOL    HW228647   3.778   4.903   1.842
 9250SOL     OW28648   0.153   3.541   4.315
 9250SOL    HW128649   0.172   3.525   4.218
 9250SOL    HW228650   0.213   3.613   4.349
 9251SOL     OW28651   3.662   2.445   0.724
 9251SOL    HW128652   3.742   2.386   0.713
 9251SOL    HW228653   3.689   2.540   0.708
 9252SOL     OW28654   4.401   0.485   5.236
 9252SOL    HW128655   4.320   0.497   5.178
 9252SOL    HW228656   4.407   0.562   5.300
 9253SOL     OW28657   0.921   4.695   5.763
 9253SOL    HW128658   0.842   4.664   5.815
 9253SOL    HW228659   0.938   4.792   5.783
 9254SOL     OW28660   6.459   4.489   2.465
 9254SOL    HW128661   6.422   4.460   2.553
 9254SOL    HW228662   6.531   4.426   2.436
 9255SOL     OW28663   6.062   4.624   0.437
 9255SOL    HW128664   6.143   4.679   0.455
 9255SOL    HW228665   6.015   4.605   0.524
 9256SOL     OW28666   1.994   6.608   1.770
 9256SOL    HW128667   2.039   6.568   1.850
 9256SOL    HW228668   1.895   6.598   1.779
 9257SOL     OW28669   0.107   5.607   3.848
 9257SOL    HW128670   0.034   5.671   3.870
 9257SOL    HW228671   0.104   5.530   3.911
 9258SOL     OW28672   3.577   3.414   0.875
 9258SOL    HW128673   3.556   3.463   0.790
 9258SOL    HW228674   3.628   3.475   0.936
 9259SOL     OW28675   2.158   1.707   6.600
 9259SOL    HW128676   2.177   1.702   6.698
 9259SOL    HW228677   2.059   1.702   6.585
 9260SOL     OW28678   5.565   2.621   5.561
 9260SOL    HW128679   5.483   2.601   5.615
 9260SOL    HW228680   5.635   2.552   5.580
 9261SOL     OW28681   4.152   2.185   1.019
 9261SOL    HW128682   4.120   2.278   1.039
 9261SOL    HW228683   4.095   2.144   0.948
 9262SOL     OW28684   6.524   6.363   4.107
 9262SOL    HW128685   6.592   6.310   4.157
 9262SOL    HW228686   6.491   6.438   4.165
 9263SOL     OW28687   2.424   4.530   2.980
 9263SOL    HW128688   2.341   4.580   2.956
 9263SOL    HW228689   2.500   4.562   2.924
 9264SOL     OW28690   5.421   3.978   6.663
 9264SOL    HW128691   5.327   3.950   6.684
 9264SOL    HW228692   5.448   3.939   6.575
 9265SOL     OW28693   4.433   2.099   6.998
 9265SOL    HW128694   4.526   2.127   0.004
 9265SOL    HW228695   4.433   2.003   6.973
 9266SOL     OW28696   0.407   4.359   1.175
 9266SOL    HW128697   0.342   4.412   1.229
 9266SOL    HW228698   0.466   4.421   1.124
 9267SOL     OW28699   0.502   0.904   3.645
 9267SOL    HW128700   0.468   0.914   3.738
 9267SOL    HW228701   0.428   0.876   3.585
 9268SOL     OW28702   0.508   6.561   1.487
 9268SOL    HW128703   0.576   6.537   1.556
 9268SOL    HW228704   0.552   6.607   1.410
 9269SOL     OW28705   4.524   0.070   0.470
 9269SOL    HW128706   4.571   7.015   0.518
 9269SOL    HW228707   4.506   0.145   0.533
 9270SOL     OW28708   3.433   1.021   6.421
 9270SOL    HW128709   3.367   1.037   6.348
 9270SOL    HW228710   3.503   0.958   6.390
 9271SOL     OW28711   0.947   0.459   6.753
 9271SOL    HW128712   0.944   0.435   6.850
 9271SOL    HW228713   0.858   0.497   6.726
 9272SOL     OW28714   6.568   6.496   6.172
 9272SOL    HW128715   6.648   6.553   6.189
 9272SOL    HW228716   6.593   6.399   6.177
 9273SOL     OW28717   5.003   5.512   3.685
 9273SOL    HW128718   4.986   5.432   3.743
 9273SOL    HW228719   5.007   5.594   3.741
 9274SOL     OW28720   0.638   3.134   0.139
 9274SOL    HW128721   0.641   3.163   0.234
 9274SOL    HW228722   0.550   3.157   0.099
 9275SOL     OW28723   0.779   6.660   1.296
 9275SOL    HW128724   0.778   6.594   1.221
 9275SOL    HW228725   0.871   6.662   1.337
 9276SOL     OW28726   3.370   4.151   0.311
 9276SOL    HW128727   3.449   4.201   0.346
 9276SOL    HW228728   3.290   4.211   0.308
 9277SOL     OW28729   4.351   4.591   2.528
 9277SOL    HW128730   4.378   4.554   2.439
 9277SOL    HW228731   4.357   4.691   2.526
 9278SOL     OW28732   0.547   0.838   4.414
 9278SOL    HW128733   0.615   0.803   4.350
 9278SOL    HW228734   0.579   0.824   4.508
 9279SOL     OW28735   3.678   5.064   1.353
 9279SOL    HW128736   3.646   5.158   1.345
 9279SOL    HW228737   3.643   5.025   1.439
 9280SOL     OW28738   1.402   1.332   2.835
 9280SOL    HW128739   1.346   1.251   2.816
 9280SOL    HW228740   1.423   1.379   2.749
 9281SOL     OW28741   3.304   4.055   6.541
 9281SOL    HW128742   3.210   4.025   6.526
 9281SOL    HW228743   3.313   4.151   6.513
 9282SOL     OW28744   3.715   0.077   4.758
 9282SOL    HW128745   3.787   0.085   4.689
 9282SOL    HW228746   3.664   7.011   4.742
 9283SOL     OW28747   4.854   6.242   6.609
 9283SOL    HW128748   4.877   6.146   6.625
 9283SOL    HW228749   4.764   6.249   6.567
 9284SOL     OW28750   3.006   4.041   5.096
 9284SOL    HW128751   2.964   4.100   5.165
 9284SOL    HW228752   3.095   4.009   5.129
 9285SOL     OW28753   6.367   3.177   2.535
 9285SOL    HW128754   6.345   3.262   2.488
 9285SOL    HW228755   6.461   3.150   2.515
 9286SOL     OW28756   4.666   6.038   0.733
 9286SOL    HW128757   4.608   6.101   0.785
 9286SOL    HW228758   4.625   5.947   0.732
 9287SOL     OW28759   3.003   4.806   5.884
 9287SOL    HW128760   3.007   4.905   5.897
 9287SOL    HW228761   3.054   4.761   5.957
 9288SOL     OW28762   4.376   2.251   3.804
 9288SOL    HW128763   4.321   2.225   3.883
 9288SOL    HW228764   4.465   2.206   3.808
 9289SOL     OW28765   4.389   6.157   6.759
 9289SOL    HW128766   4.400   6.074   6.704
 9289SOL    HW228767   4.402   6.134   6.855
 9290SOL     OW28768   5.546   0.520   4.643
 9290SOL    HW128769   5.615   0.546   4.710
 9290SOL    HW228770   5.582   0.537   4.551
 9291SOL     OW28771   1.214   5.382   5.411
 9291SOL    HW128772   1.297   5.356   5.461
 9291SOL    HW228773   1.220   5.478   5.384
 9292SOL     OW28774   1.121   1.183   6.230
 9292SOL    HW128775   1.143   1.247   6.304
 9292SOL    HW228776   1.099   1.233   6.147
 9293SOL     OW28777   4.911   2.842   5.644
 9293SOL    HW128778   4.961   2.843   5.557
 9293SOL    HW228779   4.836   2.775   5.638
 9294SOL     OW28780   4.584   1.083   0.426
 9294SOL    HW128781   4.537   1.005   0.468
 9294SOL    HW228782   4.679   1.084   0.456
 9295SOL     OW28783   0.943   0.732   4.919
 9295SOL    HW128784   1.023   0.700   4.969
 9295SOL    HW228785   0.972   0.795   4.847
 9296SOL     OW28786   2.612   4.451   0.853
 9296SOL    HW128787   2.590   4.417   0.944
 9296SOL    HW228788   2.619   4.374   0.790
 9297SOL     OW28789   6.715   6.635   3.354
 9297SOL    HW128790   6.666   6.606   3.272
 9297SOL    HW228791   6.796   6.577   3.367
 9298SOL     OW28792   1.414   6.360   5.551
 9298SOL    HW128793   1.319   6.341   5.576
 9298SOL    HW228794   1.471   6.354   5.633
 9299SOL     OW28795   2.168   2.417   5.067
 9299SOL    HW128796   2.113   2.498   5.091
 9299SOL    HW228797   2.260   2.446   5.040
 9300SOL     OW28798   1.515   5.789   5.522
 9300SOL    HW128799   1.583   5.831   5.461
 9300SOL    HW228800   1.440   5.854   5.536
 9301SOL     OW28801   0.488   4.119   4.638
 9301SOL    HW128802   0.469   4.037   4.692
 9301SOL    HW228803   0.416   4.131   4.570
 9302SOL     OW28804   2.232   3.189   5.183
 9302SOL    HW128805   2.277   3.228   5.263
 9302SOL    HW228806   2.297   3.133   5.132
 9303SOL     OW28807   3.019   4.093   0.367
 9303SOL    HW128808   2.998   4.007   0.319
 9303SOL    HW228809   3.053   4.160   0.301
 9304SOL     OW28810   5.158   4.816   0.501
 9304SOL    HW128811   5.180   4.907   0.538
 9304SOL    HW228812   5.150   4.822   0.402
 9305SOL     OW28813   2.686   1.479   0.764
 9305SOL    HW128814   2.591   1.511   0.760
 9305SOL    HW228815   2.748   1.554   0.743
 9306SOL     OW28816   0.644   4.325   5.279
 9306SOL    HW128817   0.630   4.310   5.377
 9306SOL    HW228818   0.601   4.251   5.228
 9307SOL     OW28819   2.463   2.902   1.197
 9307SOL    HW128820   2.478   2.854   1.110
 9307SOL    HW228821   2.377   2.872   1.238
 9308SOL     OW28822   1.805   3.976   1.385
 9308SOL    HW128823   1.737   3.932   1.326
 9308SOL    HW228824   1.785   4.074   1.392
 9309SOL     OW28825   4.367   6.058   5.243
 9309SOL    HW128826   4.279   6.083   5.283
 9309SOL    HW228827   4.419   6.002   5.309
 9310SOL     OW28828   4.265   6.240   5.897
 9310SOL    HW128829   4.312   6.156   5.925
 9310SOL    HW228830   4.232   6.289   5.978
 9311SOL     OW28831   4.481   3.452   1.602
 9311SOL    HW128832   4.551   3.385   1.627
 9311SOL    HW228833   4.402   3.443   1.663
 9312SOL     OW28834   0.666   2.168   0.982
 9312SOL    HW128835   0.662   2.211   1.072
 9312SOL    HW228836   0.592   2.203   0.925
 9313SOL     OW28837   1.068   6.399   1.791
 9313SOL    HW128838   1.168   6.406   1.792
 9313SOL    HW228839   1.042   6.307   1.762
 9314SOL     OW28840   5.242   2.476   0.553
 9314SOL    HW128841   5.222   2.573   0.557
 9314SOL    HW228842   5.157   2.424   0.546
 9315SOL     OW28843   5.794   1.384   6.633
 9315SOL    HW128844   5.774   1.367   6.537
 9315SOL    HW228845   5.743   1.465   6.664
 9316SOL     OW28846   4.746   0.824   5.469
 9316SOL    HW128847   4.833   0.864   5.441
 9316SOL    HW228848   4.732   0.840   5.567
 9317SOL     OW28849   2.885   5.945   4.206
 9317SOL    HW128850   2.873   6.008   4.283
 9317SOL    HW228851   2.898   5.852   4.241
 9318SOL     OW28852   4.645   6.296   0.275
 9318SOL    HW128853   4.577   6.331   0.339
 9318SOL    HW228854   4.649   6.196   0.282
 9319SOL     OW28855   2.361   4.493   0.721
 9319SOL    HW128856   2.438   4.482   0.784
 9319SOL    HW228857   2.330   4.403   0.690
 9320SOL     OW28858   6.056   0.355   5.978
 9320SOL    HW128859   6.052   0.307   6.066
 9320SOL    HW228860   6.075   0.452   5.995
 9321SOL     OW28861   0.302   2.946   5.680
 9321SOL    HW128862   0.291   3.012   5.606
 9321SOL    HW228863   0.211   2.917   5.712
 9322SOL     OW28864   6.155   4.048   5.593
 9322SOL    HW128865   6.115   4.100   5.517
 9322SOL    HW228866   6.254   4.063   5.594
 9323SOL     OW28867   1.310   3.216   3.201
 9323SOL    HW128868   1.396   3.238   3.155
 9323SOL    HW228869   1.250   3.296   3.197
 9324SOL     OW28870   1.107   3.932   1.231
 9324SOL    HW128871   1.171   3.858   1.251
 9324SOL    HW228872   1.015   3.903   1.256
 9325SOL     OW28873   1.547   5.510   2.586
 9325SOL    HW128874   1.633   5.507   2.534
 9325SOL    HW228875   1.536   5.601   2.626
 9326SOL     OW28876   3.958   4.130   0.232
 9326SOL    HW128877   4.037   4.161   0.284
 9326SOL    HW228878   3.987   4.098   0.142
 9327SOL     OW28879   4.751   0.976   3.107
 9327SOL    HW128880   4.690   0.935   3.040
 9327SOL    HW228881   4.722   0.949   3.199
 9328SOL     OW28882   2.832   6.548   4.215
 9328SOL    HW128883   2.834   6.452   4.188
 9328SOL    HW228884   2.920   6.575   4.253
 9329SOL     OW28885   0.238   6.233   6.421
 9329SOL    HW128886   0.172   6.188   6.482
 9329SOL    HW228887   0.316   6.173   6.407
 9330SOL     OW28888   5.926   6.941   6.500
 9330SOL    HW128889   5.921   7.003   6.578
 9330SOL    HW228890   5.856   6.967   6.432
 9331SOL     OW28891   1.792   3.336   5.137
 9331SOL    HW128892   1.849   3.347   5.055
 9331SOL    HW228893   1.696   3.346   5.112
 9332SOL     OW28894   4.463   5.861   0.712
 9332SOL    HW128895   4.391   5.882   0.778
 9332SOL    HW228896   4.504   5.773   0.733
 9333SOL     OW28897   3.581   5.403   0.625
 9333SOL    HW128898   3.515   5.475   0.604
 9333SOL    HW228899   3.633   5.429   0.707
 9334SOL     OW28900   4.634   6.787   5.448
 9334SOL    HW128901   4.727   6.773   5.412
 9334SOL    HW228902   4.574   6.715   5.414
 9335SOL     OW28903   2.555   2.032   1.892
 9335SOL    HW128904   2.559   2.092   1.812
 9335SOL    HW228905   2.634   2.049   1.950
 9336SOL     OW28906   6.453   1.062   4.907
 9336SOL    HW128907   6.408   1.044   4.994
 9336SOL    HW228908   6.441   1.158   4.883
 9337SOL     OW28909   4.650   0.915   5.735
 9337SOL    HW128910   4.686   0.841   5.792
 9337SOL    HW228911   4.627   0.993   5.793
 9338SOL     OW28912   6.628   5.917   0.066
 9338SOL    HW128913   6.596   5.829   0.034
 9338SOL    HW228914   6.551   5.969   0.104
 9339SOL     OW28915   6.190   4.918   6.069
 9339SOL    HW128916   6.193   4.877   5.978
 9339SOL    HW228917   6.139   5.004   6.065
 9340SOL     OW28918   3.477   6.045   2.443
 9340SOL    HW128919   3.549   6.112   2.424
 9340SOL    HW228920   3.493   5.962   2.390
 9341SOL     OW28921   5.771   4.277   6.639
 9341SOL    HW128922   5.854   4.221   6.651
 9341SOL    HW228923   5.783   4.336   6.559
 9342SOL     OW28924   2.740   0.211   4.529
 9342SOL    HW128925   2.755   0.131   4.587
 9342SOL    HW228926   2.793   0.288   4.565
 9343SOL     OW28927   4.775   4.366   1.951
 9343SOL    HW128928   4.684   4.338   1.981
 9343SOL    HW228929   4.835   4.286   1.950
 9344SOL     OW28930   5.884   5.203   5.630
 9344SOL    HW128931   5.901   5.283   5.687
 9344SOL    HW228932   5.894   5.228   5.533
 9345SOL     OW28933   0.026   6.079   0.065
 9345SOL    HW128934   0.097   6.073   0.135
 9345SOL    HW228935   0.009   5.988   0.028
 9346SOL     OW28936   5.566   6.872   1.828
 9346SOL    HW128937   5.559   6.971   1.828
 9346SOL    HW228938   5.606   6.842   1.741
 9347SOL     OW28939   3.720   5.376   1.124
 9347SOL    HW128940   3.621   5.380   1.133
 9347SOL    HW228941   3.744   5.300   1.063
 9348SOL     OW28942   2.426   6.030   2.771
 9348SOL    HW128943   2.407   5.934   2.791
 9348SOL    HW228944   2.491   6.035   2.695
 9349SOL     OW28945   6.476   5.561   2.152
 9349SOL    HW128946   6.540   5.500   2.198
 9349SOL    HW228947   6.477   5.651   2.195
 9350SOL     OW28948   6.920   1.704   4.711
 9350SOL    HW128949   6.834   1.670   4.749
 9350SOL    HW228950   6.967   1.629   4.664
 9351SOL     OW28951   2.503   0.664   5.517
 9351SOL    HW128952   2.600   0.642   5.507
 9351SOL    HW228953   2.470   0.710   5.435
 9352SOL     OW28954   2.353   2.178   5.885
 9352SOL    HW128955   2.354   2.112   5.809
 9352SOL    HW228956   2.293   2.254   5.862
 9353SOL     OW28957   0.993   4.120   1.434
 9353SOL    HW128958   0.917   4.167   1.389
 9353SOL    HW228959   1.036   4.057   1.369
 9354SOL     OW28960   6.612   2.269   1.409
 9354SOL    HW128961   6.542   2.258   1.338
 9354SOL    HW228962   6.699   2.293   1.366
 9355SOL     OW28963   6.984   0.490   4.353
 9355SOL    HW128964   0.045   0.510   4.410
 9355SOL    HW228965   6.995   0.398   4.313
 9356SOL     OW28966   4.249   5.140   1.901
 9356SOL    HW128967   4.167   5.106   1.949
 9356SOL    HW228968   4.296   5.206   1.960
 9357SOL     OW28969   2.886   3.186   0.423
 9357SOL    HW128970   2.786   3.187   0.431
 9357SOL    HW228971   2.919   3.092   0.423
 9358SOL     OW28972   5.909   4.600   1.578
 9358SOL    HW128973   5.971   4.678   1.590
 9358SOL    HW228974   5.815   4.630   1.594
 9359SOL     OW28975   6.850   4.322   6.485
 9359SOL    HW128976   6.791   4.350   6.561
 9359SOL    HW228977   6.922   4.390   6.473
 9360SOL     OW28978   2.212   7.010   5.687
 9360SOL    HW128979   2.193   0.056   5.614
 9360SOL    HW228980   2.295   0.020   5.736
 9361SOL     OW28981   3.076   6.153   2.649
 9361SOL    HW128982   3.076   6.165   2.748
 9361SOL    HW228983   3.144   6.084   2.623
 9362SOL     OW28984   2.247   1.242   2.403
 9362SOL    HW128985   2.257   1.232   2.304
 9362SOL    HW228986   2.208   1.159   2.442
 9363SOL     OW28987   3.491   5.768   2.620
 9363SOL    HW128988   3.486   5.705   2.542
 9363SOL    HW228989   3.506   5.861   2.587
 9364SOL     OW28990   4.536   2.951   6.423
 9364SOL    HW128991   4.489   2.969   6.336
 9364SOL    HW228992   4.489   2.999   6.497
 9365SOL     OW28993   2.659   2.325   4.989
 9365SOL    HW128994   2.584   2.376   4.948
 9365SOL    HW228995   2.688   2.370   5.074
 9366SOL     OW28996   3.199   1.783   0.761
 9366SOL    HW128997   3.226   1.762   0.855
 9366SOL    HW228998   3.123   1.725   0.734
 9367SOL     OW28999   0.020   5.342   4.065
 9367SOL    HW129000   0.002   5.352   3.967
 9367SOL    HW229001   6.962   5.381   4.116
 9368SOL     OW29002   3.653   1.801   1.833
 9368SOL    HW129003   3.700   1.877   1.786
 9368SOL    HW229004   3.574   1.772   1.779
 9369SOL     OW29005   6.486   1.371   5.996
 9369SOL    HW129006   6.416   1.300   6.004
 9369SOL    HW229007   6.557   1.340   5.932
 9370SOL     OW29008   5.933   1.231   3.298
 9370SOL    HW129009   5.848   1.282   3.285
 9370SOL    HW229010   5.925   1.176   3.381
 9371SOL     OW29011   0.922   5.493   0.332
 9371SOL    HW129012   1.014   5.509   0.296
 9371SOL    HW229013   0.920   5.406   0.382
 9372SOL     OW29014   5.530   6.437   3.309
 9372SOL    HW129015   5.599   6.365   3.317
 9372SOL    HW229016   5.565   6.510   3.249
 9373SOL     OW29017   4.503   1.685   3.246
 9373SOL    HW129018   4.532   1.709   3.154
 9373SOL    HW229019   4.474   1.767   3.295
 9374SOL     OW29020   6.031   2.989   0.457
 9374SOL    HW129021   5.989   2.910   0.413
 9374SOL    HW229022   6.100   2.958   0.522
 9375SOL     OW29023   6.796   1.814   3.311
 9375SOL    HW129024   6.887   1.782   3.337
 9375SOL    HW229025   6.801   1.863   3.224
 9376SOL     OW29026   3.544   3.838   1.145
 9376SOL    HW129027   3.581   3.746   1.158
 9376SOL    HW229028   3.562   3.867   1.051
 9377SOL     OW29029   6.510   5.311   3.653
 9377SOL    HW129030   6.590   5.262   3.688
 9377SOL    HW229031   6.454   5.341   3.730
 9378SOL     OW29032   2.606   6.929   6.051
 9378SOL    HW129033   2.509   6.920   6.032
 9378SOL    HW229034   2.620   6.995   6.125
 9379SOL     OW29035   4.736   4.721   4.607
 9379SOL    HW129036   4.749   4.803   4.663
 9379SOL    HW229037   4.774   4.642   4.655
 9380SOL     OW29038   6.560   6.595   5.477
 9380SOL    HW129039   6.494   6.631   5.543
 9380SOL    HW229040   6.625   6.535   5.524
 9381SOL     OW29041   2.743   2.769   5.584
 9381SOL    HW129042   2.778   2.850   5.630
 9381SOL    HW229043   2.660   2.792   5.533
 9382SOL     OW29044   4.240   0.878   3.167
 9382SOL    HW129045   4.152   0.920   3.186
 9382SOL    HW229046   4.239   0.835   3.076
 9383SOL     OW29047   3.449   6.503   4.722
 9383SOL    HW129048   3.529   6.455   4.758
 9383SOL    HW229049   3.443   6.594   4.763
 9384SOL     OW29050   3.991   5.799   2.321
 9384SOL    HW129051   4.043   5.717   2.297
 9384SOL    HW229052   4.017   5.874   2.259
 9385SOL     OW29053   4.131   1.920   2.661
 9385SOL    HW129054   4.040   1.879   2.655
 9385SOL    HW229055   4.122   2.019   2.668
 9386SOL     OW29056   3.494   5.901   4.559
 9386SOL    HW129057   3.488   5.944   4.649
 9386SOL    HW229058   3.467   5.805   4.565
 9387SOL     OW29059   4.016   6.731   1.308
 9387SOL    HW129060   3.963   6.700   1.228
 9387SOL    HW229061   4.096   6.673   1.319
 9388SOL     OW29062   1.446   6.279   2.273
 9388SOL    HW129063   1.354   6.275   2.235
 9388SOL    HW229064   1.494   6.193   2.254
 9389SOL     OW29065   2.369   0.308   5.281
 9389SOL    HW129066   2.345   0.364   5.361
 9389SOL    HW229067   2.421   0.228   5.312
 9390SOL     OW29068   3.833   6.010   3.375
 9390SOL    HW129069   3.838   5.941   3.303
 9390SOL    HW229070   3.924   6.049   3.390
 9391SOL     OW29071   2.105   1.066   5.748
 9391SOL    HW129072   2.090   1.008   5.668
 9391SOL    HW229073   2.130   1.159   5.717
 9392SOL     OW29074   0.500   6.847   4.866
 9392SOL    HW129075   0.456   6.936   4.879
 9392SOL    HW229076   0.445   6.776   4.910
 9393SOL     OW29077   3.775   1.775   4.293
 9393SOL    HW129078   3.766   1.695   4.352
 9393SOL    HW229079   3.688   1.792   4.247
 9394SOL     OW29080   6.157   2.453   3.375
 9394SOL    HW129081   6.202   2.459   3.286
 9394SOL    HW229082   6.141   2.357   3.399
 9395SOL     OW29083   2.546   2.149   0.647
 9395SOL    HW129084   2.455   2.120   0.618
 9395SOL    HW229085   2.556   2.134   0.745
 9396SOL     OW29086   0.086   6.570   4.638
 9396SOL    HW129087   0.125   6.482   4.610
 9396SOL    HW229088   7.018   6.585   4.591
 9397SOL     OW29089   2.595   0.124   0.283
 9397SOL    HW129090   2.652   0.205   0.268
 9397SOL    HW229091   2.632   0.072   0.360
 9398SOL     OW29092   1.950   0.524   6.983
 9398SOL    HW129093   1.854   0.505   7.003
 9398SOL    HW229094   2.005   0.511   0.047
 9399SOL     OW29095   6.817   1.929   0.338
 9399SOL    HW129096   6.735   1.957   0.389
 9399SOL    HW229097   6.790   1.902   0.245
 9400SOL     OW29098   5.142   3.627   1.696
 9400SOL    HW129099   5.197   3.708   1.675
 9400SOL    HW229100   5.061   3.654   1.748
 9401SOL     OW29101   2.771   6.651   3.530
 9401SOL    HW129102   2.787   6.634   3.433
 9401SOL    HW229103   2.815   6.579   3.584
 9402SOL     OW29104   1.816   4.785   6.022
 9402SOL    HW129105   1.750   4.758   5.952
 9402SOL    HW229106   1.844   4.705   6.074
 9403SOL     OW29107   5.023   2.002   2.677
 9403SOL    HW129108   4.923   2.005   2.681
 9403SOL    HW229109   5.060   2.095   2.682
 9404SOL     OW29110   0.956   4.626   6.538
 9404SOL    HW129111   1.028   4.599   6.475
 9404SOL    HW229112   0.997   4.666   6.621
 9405SOL     OW29113   6.433   6.573   1.884
 9405SOL    HW129114   6.466   6.493   1.933
 9405SOL    HW229115   6.510   6.624   1.847
 9406SOL     OW29116   0.445   1.566   5.630
 9406SOL    HW129117   0.401   1.492   5.681
 9406SOL    HW229118   0.458   1.538   5.535
 9407SOL     OW29119   2.783   6.869   2.078
 9407SOL    HW129120   2.759   6.787   2.129
 9407SOL    HW229121   2.804   6.943   2.143
 9408SOL     OW29122   3.454   1.347   5.840
 9408SOL    HW129123   3.418   1.256   5.826
 9408SOL    HW229124   3.381   1.414   5.832
 9409SOL     OW29125   4.734   4.191   4.743
 9409SOL    HW129126   4.665   4.256   4.774
 9409SOL    HW229127   4.764   4.135   4.820
 9410SOL     OW29128   3.626   5.528   1.569
 9410SOL    HW129129   3.676   5.608   1.536
 9410SOL    HW229130   3.567   5.554   1.645
 9411SOL     OW29131   3.706   4.545   1.067
 9411SOL    HW129132   3.792   4.592   1.048
 9411SOL    HW229133   3.656   4.594   1.139
 9412SOL     OW29134   0.807   3.436   1.541
 9412SOL    HW129135   0.866   3.464   1.465
 9412SOL    HW229136   0.787   3.516   1.598
 9413SOL     OW29137   4.213   5.551   5.220
 9413SOL    HW129138   4.190   5.626   5.158
 9413SOL    HW229139   4.154   5.555   5.301
 9414SOL     OW29140   3.397   1.624   3.116
 9414SOL    HW129141   3.463   1.644   3.044
 9414SOL    HW229142   3.389   1.702   3.177
 9415SOL     OW29143   2.155   6.310   2.382
 9415SOL    HW129144   2.237   6.269   2.422
 9415SOL    HW229145   2.088   6.328   2.455
 9416SOL     OW29146   0.364   1.338   1.672
 9416SOL    HW129147   0.320   1.426   1.685
 9416SOL    HW229148   0.394   1.303   1.760
 9417SOL     OW29149   2.818   6.968   5.629
 9417SOL    HW129150   2.878   0.030   5.633
 9417SOL    HW229151   2.862   6.896   5.575
 9418SOL     OW29152   2.490   6.217   0.684
 9418SOL    HW129153   2.408   6.263   0.718
 9418SOL    HW229154   2.477   6.193   0.588
 9419SOL     OW29155   3.659   6.217   5.186
 9419SOL    HW129156   3.724   6.148   5.152
 9419SOL    HW229157   3.683   6.306   5.148
 9420SOL     OW29158   0.703   1.692   5.258
 9420SOL    HW129159   0.791   1.650   5.237
 9420SOL    HW229160   0.642   1.683   5.180
 9421SOL     OW29161   2.346   5.840   5.682
 9421SOL    HW129162   2.291   5.884   5.611
 9421SOL    HW229163   2.346   5.741   5.668
 9422SOL     OW29164   5.413   0.150   2.441
 9422SOL    HW129165   5.468   0.114   2.517
 9422SOL    HW229166   5.413   0.084   2.367
 9423SOL     OW29167   4.267   0.850   2.894
 9423SOL    HW129168   4.282   0.935   2.842
 9423SOL    HW229169   4.197   0.795   2.848
 9424SOL     OW29170   4.995   0.456   5.589
 9424SOL    HW129171   4.918   0.393   5.585
 9424SOL    HW229172   4.984   0.528   5.520
 9425SOL     OW29173   6.675   3.356   6.234
 9425SOL    HW129174   6.632   3.273   6.270
 9425SOL    HW229175   6.720   3.335   6.147
 9426SOL     OW29176   2.451   1.563   0.080
 9426SOL    HW129177   2.406   1.602   0.161
 9426SOL    HW229178   2.452   1.464   0.088
 9427SOL     OW29179   2.482   4.691   5.407
 9427SOL    HW129180   2.536   4.745   5.341
 9427SOL    HW229181   2.537   4.614   5.438
 9428SOL     OW29182   5.209   0.268   2.265
 9428SOL    HW129183   5.257   0.350   2.236
 9428SOL    HW229184   5.263   0.221   2.336
 9429SOL     OW29185   1.127   4.307   1.639
 9429SOL    HW129186   1.208   4.290   1.582
 9429SOL    HW229187   1.046   4.269   1.594
 9430SOL     OW29188   6.448   6.170   1.886
 9430SOL    HW129189   6.433   6.073   1.908
 9430SOL    HW229190   6.384   6.226   1.938
 9431SOL     OW29191   5.614   4.185   0.442
 9431SOL    HW129192   5.629   4.152   0.349
 9431SOL    HW229193   5.677   4.260   0.462
 9432SOL     OW29194   6.669   0.215   3.583
 9432SOL    HW129195   6.710   0.237   3.495
 9432SOL    HW229196   6.621   0.127   3.576
 9433SOL     OW29197   2.913   4.788   4.108
 9433SOL    HW129198   2.831   4.774   4.162
 9433SOL    HW229199   2.989   4.815   4.168
 9434SOL     OW29200   5.504   4.784   3.576
 9434SOL    HW129201   5.539   4.874   3.550
 9434SOL    HW229202   5.580   4.726   3.604
 9435SOL     OW29203   1.362   1.197   4.257
 9435SOL    HW129204   1.394   1.213   4.164
 9435SOL    HW229205   1.352   1.284   4.305
 9436SOL     OW29206   1.371   3.528   2.039
 9436SOL    HW129207   1.451   3.467   2.038
 9436SOL    HW229208   1.381   3.595   1.966
 9437SOL     OW29209   1.100   6.105   3.535
 9437SOL    HW129210   1.062   6.026   3.584
 9437SOL    HW229211   1.198   6.111   3.552
 9438SOL     OW29212   0.974   6.347   0.994
 9438SOL    HW129213   1.015   6.324   0.906
 9438SOL    HW229214   1.038   6.402   1.047
 9439SOL     OW29215   0.274   3.286   2.160
 9439SOL    HW129216   0.368   3.261   2.137
 9439SOL    HW229217   0.262   3.385   2.150
 9440SOL     OW29218   4.818   5.369   4.365
 9440SOL    HW129219   4.854   5.276   4.365
 9440SOL    HW229220   4.894   5.434   4.368
 9441SOL     OW29221   1.495   5.240   5.025
 9441SOL    HW129222   1.558   5.292   5.083
 9441SOL    HW229223   1.448   5.302   4.963
 9442SOL     OW29224   6.158   1.548   0.053
 9442SOL    HW129225   6.191   1.618   7.009
 9442SOL    HW229226   6.211   1.464   0.040
 9443SOL     OW29227   2.133   4.264   1.377
 9443SOL    HW129228   2.166   4.208   1.301
 9443SOL    HW229229   2.160   4.359   1.362
 9444SOL     OW29230   0.564   3.394   6.833
 9444SOL    HW129231   0.586   3.383   6.930
 9444SOL    HW229232   0.642   3.434   6.786
 9445SOL     OW29233   5.466   3.444   2.387
 9445SOL    HW129234   5.464   3.359   2.335
 9445SOL    HW229235   5.373   3.478   2.399
 9446SOL     OW29236   6.565   6.996   2.650
 9446SOL    HW129237   6.552   6.968   2.744
 9446SOL    HW229238   6.654   6.963   2.617
 9447SOL     OW29239   5.513   3.169   3.342
 9447SOL    HW129240   5.459   3.249   3.318
 9447SOL    HW229241   5.457   3.087   3.335
 9448SOL     OW29242   5.382   6.355   5.756
 9448SOL    HW129243   5.309   6.393   5.814
 9448SOL    HW229244   5.352   6.356   5.661
 9449SOL     OW29245   0.064   5.490   6.285
 9449SOL    HW129246   0.042   5.563   6.221
 9449SOL    HW229247   0.083   5.529   6.375
 9450SOL     OW29248   2.759   5.313   4.796
 9450SOL    HW129249   2.855   5.310   4.768
 9450SOL    HW229250   2.748   5.264   4.882
 9451SOL     OW29251   4.720   5.754   5.943
 9451SOL    HW129252   4.692   5.843   5.906
 9451SOL    HW229253   4.638   5.699   5.961
 9452SOL     OW29254   1.733   3.170   1.252
 9452SOL    HW129255   1.711   3.129   1.163
 9452SOL    HW229256   1.661   3.146   1.318
 9453SOL     OW29257   2.165   4.111   3.147
 9453SOL    HW129258   2.148   4.036   3.083
 9453SOL    HW229259   2.214   4.185   3.100
 9454SOL     OW29260   2.364   3.615   5.864
 9454SOL    HW129261   2.401   3.534   5.910
 9454SOL    HW229262   2.307   3.666   5.927
 9455SOL     OW29263   3.318   1.326   2.353
 9455SOL    HW129264   3.326   1.267   2.433
 9455SOL    HW229265   3.363   1.413   2.370
 9456SOL     OW29266   0.194   4.568   0.390
 9456SOL    HW129267   0.120   4.600   0.450
 9456SOL    HW229268   0.263   4.521   0.445
 9457SOL     OW29269   1.275   3.679   6.588
 9457SOL    HW129270   1.297   3.727   6.503
 9457SOL    HW229271   1.265   3.581   6.570
 9458SOL     OW29272   1.098   4.663   6.762
 9458SOL    HW129273   1.077   4.755   6.794
 9458SOL    HW229274   1.026   4.600   6.791
 9459SOL     OW29275   6.523   5.305   2.360
 9459SOL    HW129276   6.598   5.241   2.377
 9459SOL    HW229277   6.437   5.265   2.390
 9460SOL     OW29278   0.245   1.824   5.305
 9460SOL    HW129279   0.190   1.743   5.282
 9460SOL    HW229280   0.265   1.875   5.222
 9461SOL     OW29281   6.114   1.730   3.448
 9461SOL    HW129282   6.089   1.755   3.354
 9461SOL    HW229283   6.104   1.809   3.508
 9462SOL     OW29284   1.833   3.512   3.082
 9462SOL    HW129285   1.824   3.445   3.156
 9462SOL    HW229286   1.830   3.465   2.994
 9463SOL     OW29287   0.261   0.809   1.150
 9463SOL    HW129288   0.235   0.739   1.217
 9463SOL    HW229289   0.341   0.778   1.100
 9464SOL     OW29290   5.368   6.437   6.709
 9464SOL    HW129291   5.291   6.394   6.661
 9464SOL    HW229292   5.425   6.486   6.644
 9465SOL     OW29293   6.984   0.582   3.349
 9465SOL    HW129294   7.018   0.548   3.436
 9465SOL    HW229295   0.037   0.575   3.280
 9466SOL     OW29296   4.225   3.482   5.171
 9466SOL    HW129297   4.205   3.463   5.075
 9466SOL    HW229298   4.179   3.567   5.198
 9467SOL     OW29299   1.168   2.953   1.366
 9467SOL    HW129300   1.130   3.046   1.358
 9467SOL    HW229301   1.232   2.937   1.291
 9468SOL     OW29302   6.075   2.551   6.412
 9468SOL    HW129303   6.126   2.538   6.498
 9468SOL    HW229304   6.037   2.463   6.383
 9469SOL     OW29305   5.989   5.196   1.918
 9469SOL    HW129306   5.960   5.263   1.985
 9469SOL    HW229307   5.952   5.221   1.828
 9470SOL     OW29308   5.534   2.945   6.217
 9470SOL    HW129309   5.544   3.029   6.164
 9470SOL    HW229310   5.443   2.906   6.201
 9471SOL     OW29311   0.008   2.911   5.508
 9471SOL    HW129312   6.935   2.879   5.534
 9471SOL    HW229313   0.071   2.834   5.503
 9472SOL     OW29314   6.683   3.620   4.355
 9472SOL    HW129315   6.759   3.558   4.339
 9472SOL    HW229316   6.705   3.682   4.430
 9473SOL     OW29317   3.975   6.544   5.426
 9473SOL    HW129318   3.962   6.447   5.445
 9473SOL    HW229319   3.946   6.598   5.504
 9474SOL     OW29320   6.035   3.834   1.254
 9474SOL    HW129321   6.096   3.800   1.325
 9474SOL    HW229322   5.949   3.784   1.257
 9475SOL     OW29323   3.223   3.487   0.654
 9475SOL    HW129324   3.233   3.484   0.753
 9475SOL    HW229325   3.149   3.426   0.626
 9476SOL     OW29326   2.876   3.489   4.747
 9476SOL    HW129327   2.890   3.588   4.756
 9476SOL    HW229328   2.885   3.446   4.837
 9477SOL     OW29329   0.432   3.371   1.654
 9477SOL    HW129330   0.456   3.423   1.572
 9477SOL    HW229331   0.400   3.434   1.725
 9478SOL     OW29332   5.869   3.902   6.105
 9478SOL    HW129333   5.830   3.846   6.032
 9478SOL    HW229334   5.934   3.848   6.157
 9479SOL     OW29335   5.740   6.663   6.137
 9479SOL    HW129336   5.794   6.674   6.220
 9479SOL    HW229337   5.791   6.697   6.058
 9480SOL     OW29338   4.239   4.386   6.418
 9480SOL    HW129339   4.321   4.377   6.360
 9480SOL    HW229340   4.267   4.400   6.513
 9481SOL     OW29341   5.807   3.647   1.144
 9481SOL    HW129342   5.768   3.579   1.207
 9481SOL    HW229343   5.816   3.606   1.053
 9482SOL     OW29344   6.196   1.292   3.334
 9482SOL    HW129345   6.100   1.273   3.316
 9482SOL    HW229346   6.250   1.209   3.322
 9483SOL     OW29347   1.989   1.242   1.207
 9483SOL    HW129348   2.036   1.324   1.175
 9483SOL    HW229349   1.919   1.268   1.274
 9484SOL     OW29350   5.318   1.761   3.079
 9484SOL    HW129351   5.282   1.828   3.014
 9484SOL    HW229352   5.271   1.771   3.167
 9485SOL     OW29353   0.755   6.816   1.676
 9485SOL    HW129354   0.683   6.880   1.699
 9485SOL    HW229355   0.789   6.771   1.759
 9486SOL     OW29356   2.200   4.914   0.731
 9486SOL    HW129357   2.163   4.999   0.695
 9486SOL    HW229358   2.157   4.836   0.684
 9487SOL     OW29359   2.866   3.558   4.021
 9487SOL    HW129360   2.799   3.570   3.947
 9487SOL    HW229361   2.955   3.593   3.991
 9488SOL     OW29362   2.522   6.343   1.425
 9488SOL    HW129363   2.501   6.389   1.512
 9488SOL    HW229364   2.458   6.267   1.412
 9489SOL     OW29365   3.144   3.796   1.278
 9489SOL    HW129366   3.108   3.813   1.369
 9489SOL    HW229367   3.118   3.703   1.249
 9490SOL     OW29368   5.520   0.040   0.310
 9490SOL    HW129369   5.583   0.034   0.232
 9490SOL    HW229370   5.428   0.061   0.276
 9491SOL     OW29371   6.774   4.921   4.752
 9491SOL    HW129372   6.750   4.907   4.656
 9491SOL    HW229373   6.694   4.952   4.803
 9492SOL     OW29374   3.161   3.576   2.673
 9492SOL    HW129375   3.205   3.665   2.672
 9492SOL    HW229376   3.224   3.507   2.638
 9493SOL     OW29377   4.308   5.387   3.862
 9493SOL    HW129378   4.252   5.470   3.865
 9493SOL    HW229379   4.292   5.339   3.776
 9494SOL     OW29380   4.752   3.870   0.801
 9494SOL    HW129381   4.845   3.895   0.773
 9494SOL    HW229382   4.748   3.860   0.900
 9495SOL     OW29383   6.497   2.059   4.345
 9495SOL    HW129384   6.522   1.972   4.386
 9495SOL    HW229385   6.399   2.061   4.326
 9496SOL     OW29386   5.168   4.633   6.845
 9496SOL    HW129387   5.169   4.552   6.786
 9496SOL    HW229388   5.204   4.610   6.935
 9497SOL     OW29389   4.584   3.774   0.439
 9497SOL    HW129390   4.550   3.709   0.370
 9497SOL    HW229391   4.601   3.725   0.525
 9498SOL     OW29392   5.366   0.693   5.942
 9498SOL    HW129393   5.383   0.630   6.018
 9498SOL    HW229394   5.289   0.660   5.888
 9499SOL     OW29395   2.360   3.566   5.585
 9499SOL    HW129396   2.319   3.644   5.539
 9499SOL    HW229397   2.367   3.585   5.683
 9500SOL     OW29398   3.127   6.371   1.977
 9500SOL    HW129399   3.146   6.461   1.936
 9500SOL    HW229400   3.213   6.330   2.008
 9501SOL     OW29401   3.410   1.411   4.984
 9501SOL    HW129402   3.479   1.371   5.044
 9501SOL    HW229403   3.429   1.508   4.972
 9502SOL     OW29404   0.211   1.879   5.025
 9502SOL    HW129405   0.253   1.828   4.950
 9502SOL    HW229406   0.220   1.977   5.006
 9503SOL     OW29407   0.280   1.137   1.529
 9503SOL    HW129408   0.317   1.221   1.568
 9503SOL    HW229409   0.194   1.157   1.482
 9504SOL     OW29410   6.899   2.115   0.899
 9504SOL    HW129411   6.971   2.095   0.965
 9504SOL    HW229412   6.934   2.174   0.827
 9505SOL     OW29413   5.819   3.781   3.331
 9505SOL    HW129414   5.772   3.713   3.275
 9505SOL    HW229415   5.778   3.871   3.317
 9506SOL     OW29416   0.781   3.243   6.460
 9506SOL    HW129417   0.719   3.322   6.449
 9506SOL    HW229418   0.758   3.174   6.392
 9507SOL     OW29419   2.167   1.315   4.327
 9507SOL    HW129420   2.125   1.244   4.270
 9507SOL    HW229421   2.241   1.275   4.381
 9508SOL     OW29422   6.215   2.636   0.761
 9508SOL    HW129423   6.245   2.553   0.808
 9508SOL    HW229424   6.249   2.636   0.667
 9509SOL     OW29425   1.177   6.532   5.330
 9509SOL    HW129426   1.227   6.450   5.304
 9509SOL    HW229427   1.125   6.566   5.252
 9510SOL     OW29428   0.608   4.090   1.620
 9510SOL    HW129429   0.602   4.075   1.521
 9510SOL    HW229430   0.543   4.161   1.647
 9511SOL     OW29431   0.666   1.913   6.898
 9511SOL    HW129432   0.685   2.005   6.863
 9511SOL    HW229433   0.632   1.920   6.992
 9512SOL     OW29434   5.722   1.967   3.361
 9512SOL    HW129435   5.707   2.064   3.381
 9512SOL    HW229436   5.740   1.918   3.447
 9513SOL     OW29437   1.722   3.334   4.709
 9513SOL    HW129438   1.802   3.348   4.768
 9513SOL    HW229439   1.660   3.412   4.718
 9514SOL     OW29440   1.680   4.091   0.219
 9514SOL    HW129441   1.647   4.066   0.310
 9514SOL    HW229442   1.779   4.106   0.222
 9515SOL     OW29443   1.766   5.677   6.826
 9515SOL    HW129444   1.725   5.735   6.897
 9515SOL    HW229445   1.693   5.630   6.776
 9516SOL     OW29446   5.019   3.641   4.652
 9516SOL    HW129447   4.994   3.561   4.707
 9516SOL    HW229448   4.956   3.649   4.575
 9517SOL     OW29449   1.385   4.769   1.127
 9517SOL    HW129450   1.461   4.726   1.080
 9517SOL    HW229451   1.398   4.763   1.226
 9518SOL     OW29452   1.486   2.181   6.888
 9518SOL    HW129453   1.581   2.203   6.871
 9518SOL    HW229454   1.473   2.082   6.881
 9519SOL     OW29455   3.176   3.460   2.914
 9519SOL    HW129456   3.209   3.538   2.968
 9519SOL    HW229457   3.157   3.490   2.821
 9520SOL     OW29458   6.346   1.763   4.334
 9520SOL    HW129459   6.441   1.795   4.338
 9520SOL    HW229460   6.336   1.679   4.387
 9521SOL     OW29461   3.489   4.171   1.659
 9521SOL    HW129462   3.394   4.168   1.628
 9521SOL    HW229463   3.550   4.175   1.579
 9522SOL     OW29464   4.232   5.622   2.690
 9522SOL    HW129465   4.178   5.539   2.675
 9522SOL    HW229466   4.175   5.691   2.733
 9523SOL     OW29467   2.522   5.300   5.115
 9523SOL    HW129468   2.542   5.397   5.130
 9523SOL    HW229469   2.606   5.252   5.090
 9524SOL     OW29470   1.650   2.807   1.557
 9524SOL    HW129471   1.627   2.712   1.536
 9524SOL    HW229472   1.578   2.848   1.613
 9525SOL     OW29473   1.806   1.718   5.813
 9525SOL    HW129474   1.871   1.664   5.866
 9525SOL    HW229475   1.849   1.806   5.788
 9526SOL     OW29476   5.989   4.936   0.603
 9526SOL    HW129477   5.949   4.970   0.688
 9526SOL    HW229478   6.043   4.854   0.622
 9527SOL     OW29479   2.384   0.127   4.664
 9527SOL    HW129480   2.415   0.173   4.581
 9527SOL    HW229481   2.340   0.040   4.640
 9528SOL     OW29482   6.096   1.628   1.221
 9528SOL    HW129483   6.061   1.589   1.307
 9528SOL    HW229484   6.158   1.703   1.242
 9529SOL     OW29485   5.360   3.644   0.766
 9529SOL    HW129486   5.429   3.714   0.785
 9529SOL    HW229487   5.269   3.684   0.772
 9530SOL     OW29488   1.230   4.343   4.633
 9530SOL    HW129489   1.224   4.413   4.562
 9530SOL    HW229490   1.281   4.379   4.711
 9531SOL     OW29491   4.172   5.022   3.309
 9531SOL    HW129492   4.162   5.090   3.237
 9531SOL    HW229493   4.248   4.961   3.287
 9532SOL     OW29494   6.519   5.079   1.040
 9532SOL    HW129495   6.473   5.083   1.129
 9532SOL    HW229496   6.543   4.984   1.019
 9533SOL     OW29497   0.880   5.341   3.860
 9533SOL    HW129498   0.807   5.331   3.927
 9533SOL    HW229499   0.850   5.302   3.773
 9534SOL     OW29500   5.745   4.319   4.587
 9534SOL    HW129501   5.807   4.254   4.631
 9534SOL    HW229502   5.785   4.352   4.502
 9535SOL     OW29503   1.976   0.956   6.341
 9535SOL    HW129504   2.050   0.914   6.394
 9535SOL    HW229505   1.956   0.898   6.262
 9536SOL     OW29506   3.767   3.501   5.400
 9536SOL    HW129507   3.814   3.563   5.462
 9536SOL    HW229508   3.765   3.409   5.440
 9537SOL     OW29509   3.202   1.730   4.701
 9537SOL    HW129510   3.169   1.736   4.607
 9537SOL    HW229511   3.146   1.787   4.761
 9538SOL     OW29512   4.665   0.768   4.222
 9538SOL    HW129513   4.706   0.766   4.313
 9538SOL    HW229514   4.667   0.862   4.187
 9539SOL     OW29515   2.919   3.572   4.338
 9539SOL    HW129516   2.872   3.605   4.256
 9539SOL    HW229517   2.926   3.647   4.404
 9540SOL     OW29518   5.350   5.553   4.455
 9540SOL    HW129519   5.426   5.596   4.406
 9540SOL    HW229520   5.342   5.457   4.427
 9541SOL     OW29521   1.854   0.653   5.832
 9541SOL    HW129522   1.943   0.682   5.867
 9541SOL    HW229523   1.842   0.687   5.738
 9542SOL     OW29524   5.466   5.256   4.100
 9542SOL    HW129525   5.440   5.167   4.062
 9542SOL    HW229526   5.447   5.258   4.198
 9543SOL     OW29527   3.763   0.453   6.153
 9543SOL    HW129528   3.808   0.483   6.069
 9543SOL    HW229529   3.768   0.353   6.159
 9544SOL     OW29530   5.277   3.543   4.051
 9544SOL    HW129531   5.287   3.451   4.088
 9544SOL    HW229532   5.280   3.539   3.951
 9545SOL     OW29533   6.333   5.114   2.482
 9545SOL    HW129534   6.283   5.159   2.556
 9545SOL    HW229535   6.304   5.018   2.476
 9546SOL     OW29536   3.858   1.598   5.999
 9546SOL    HW129537   3.839   1.684   5.951
 9546SOL    HW229538   3.827   1.606   6.094
 9547SOL     OW29539   2.247   5.457   4.028
 9547SOL    HW129540   2.266   5.424   3.935
 9547SOL    HW229541   2.260   5.382   4.093
 9548SOL     OW29542   0.515   5.550   4.860
 9548SOL    HW129543   0.543   5.614   4.931
 9548SOL    HW229544   0.487   5.602   4.778
 9549SOL     OW29545   2.462   1.240   2.209
 9549SOL    HW129546   2.469   1.287   2.121
 9549SOL    HW229547   2.542   1.262   2.265
 9550SOL     OW29548   6.287   2.506   1.133
 9550SOL    HW129549   6.244   2.584   1.086
 9550SOL    HW229550   6.257   2.421   1.090
 9551SOL     OW29551   5.878   3.143   5.792
 9551SOL    HW129552   5.856   3.046   5.785
 9551SOL    HW229553   5.943   3.167   5.719
 9552SOL     OW29554   2.462   6.238   5.918
 9552SOL    HW129555   2.493   6.241   6.013
 9552SOL    HW229556   2.509   6.308   5.866
 9553SOL     OW29557   5.767   2.474   0.031
 9553SOL    HW129558   5.787   2.545   6.982
 9553SOL    HW229559   5.703   2.509   0.099
 9554SOL     OW29560   1.453   6.590   3.531
 9554SOL    HW129561   1.533   6.544   3.568
 9554SOL    HW229562   1.372   6.532   3.541
 9555SOL     OW29563   0.526   1.298   3.301
 9555SOL    HW129564   0.457   1.352   3.254
 9555SOL    HW229565   0.487   1.258   3.384
 9556SOL     OW29566   1.670   3.578   0.936
 9556SOL    HW129567   1.749   3.638   0.922
 9556SOL    HW229568   1.679   3.531   1.024
 9557SOL     OW29569   5.486   7.016   1.356
 9557SOL    HW129570   5.461   6.926   1.393
 9557SOL    HW229571   5.476   0.067   1.428
 9558SOL     OW29572   5.832   6.267   5.182
 9558SOL    HW129573   5.781   6.181   5.188
 9558SOL    HW229574   5.921   6.256   5.226
 9559SOL     OW29575   1.044   3.824   0.311
 9559SOL    HW129576   1.010   3.733   0.289
 9559SOL    HW229577   0.967   3.884   0.335
 9560SOL     OW29578   2.532   1.093   2.796
 9560SOL    HW129579   2.452   1.097   2.856
 9560SOL    HW229580   2.575   1.183   2.791
 9561SOL     OW29581   0.314   0.108   1.444
 9561SOL    HW129582   0.237   0.147   1.494
 9561SOL    HW229583   0.306   0.132   1.347
 9562SOL     OW29584   2.636   6.500   4.440
 9562SOL    HW129585   2.571   6.434   4.404
 9562SOL    HW229586   2.716   6.504   4.379
 9563SOL     OW29587   0.286   6.832   6.826
 9563SOL    HW129588   0.358   6.767   6.849
 9563SOL    HW229589   0.297   6.915   6.880
 9564SOL     OW29590   2.472   0.938   0.882
 9564SOL    HW129591   2.409   0.861   0.870
 9564SOL    HW229592   2.565   0.910   0.858
 9565SOL     OW29593   3.310   1.128   5.845
 9565SOL    HW129594   3.375   1.056   5.824
 9565SOL    HW229595   3.217   1.095   5.827
 9566SOL     OW29596   2.720   6.011   0.491
 9566SOL    HW129597   2.810   6.030   0.532
 9566SOL    HW229598   2.667   6.095   0.486
 9567SOL     OW29599   5.297   4.213   0.039
 9567SOL    HW129600   5.232   4.189   0.111
 9567SOL    HW229601   5.382   4.245   0.080
 9568SOL     OW29602   4.237   1.697   0.151
 9568SOL    HW129603   4.145   1.659   0.161
 9568SOL    HW229604   4.241   1.785   0.198
 9569SOL     OW29605   7.011   1.262   1.885
 9569SOL    HW129606   6.960   1.305   1.960
 9569SOL    HW229607   0.091   1.272   1.902
 9570SOL     OW29608   0.387   2.802   1.200
 9570SOL    HW129609   0.349   2.894   1.194
 9570SOL    HW229610   0.438   2.792   1.285
 9571SOL     OW29611   2.853   3.289   5.512
 9571SOL    HW129612   2.784   3.220   5.489
 9571SOL    HW229613   2.943   3.257   5.484
 9572SOL     OW29614   1.794   5.169   2.270
 9572SOL    HW129615   1.789   5.072   2.294
 9572SOL    HW229616   1.746   5.185   2.183
 9573SOL     OW29617   0.513   1.744   6.763
 9573SOL    HW129618   0.462   1.691   6.830
 9573SOL    HW229619   0.574   1.808   6.810
 9574SOL     OW29620   3.365   2.929   2.603
 9574SOL    HW129621   3.353   2.953   2.700
 9574SOL    HW229622   3.281   2.949   2.553
 9575SOL     OW29623   6.965   1.371   2.123
 9575SOL    HW129624   6.897   1.342   2.191
 9575SOL    HW229625   0.019   1.423   2.169
 9576SOL     OW29626   1.959   2.053   0.837
 9576SOL    HW129627   1.917   1.991   0.770
 9576SOL    HW229628   2.054   2.028   0.851
 9577SOL     OW29629   0.708   7.015   5.807
 9577SOL    HW129630   0.723   0.052   5.725
 9577SOL    HW229631   0.796   6.978   5.838
 9578SOL     OW29632   1.138   2.857   3.124
 9578SOL    HW129633   1.118   2.951   3.098
 9578SOL    HW229634   1.064   2.822   3.182
 9579SOL     OW29635   0.280   6.225   3.318
 9579SOL    HW129636   0.311   6.264   3.405
 9579SOL    HW229637   0.183   6.204   3.324
 9580SOL     OW29638   4.590   3.061   0.661
 9580SOL    HW129639   4.569   3.130   0.592
 9580SOL    HW229640   4.525   2.986   0.654
 9581SOL     OW29641   0.442   0.462   6.462
 9581SOL    HW129642   0.347   0.464   6.429
 9581SOL    HW229643   0.474   0.555   6.478
 9582SOL     OW29644   4.149   5.755   4.977
 9582SOL    HW129645   4.141   5.748   4.878
 9582SOL    HW229646   4.240   5.788   5.001
 9583SOL     OW29647   3.026   3.816   1.505
 9583SOL    HW129648   2.958   3.744   1.515
 9583SOL    HW229649   3.073   3.830   1.592
 9584SOL     OW29650   6.808   4.679   5.819
 9584SOL    HW129651   6.867   4.655   5.896
 9584SOL    HW229652   6.712   4.674   5.848
 9585SOL     OW29653   5.577   6.689   3.195
 9585SOL    HW129654   5.621   6.696   3.285
 9585SOL    HW229655   5.616   6.758   3.134
 9586SOL     OW29656   4.735   5.434   2.314
 9586SOL    HW129657   4.697   5.391   2.396
 9586SOL    HW229658   4.756   5.530   2.333
 9587SOL     OW29659   0.746   6.937   1.241
 9587SOL    HW129660   0.692   6.966   1.319
 9587SOL    HW229661   0.762   6.838   1.247
 9588SOL     OW29662   5.940   6.801   0.656
 9588SOL    HW129663   6.036   6.779   0.640
 9588SOL    HW229664   5.925   6.898   0.640
 9589SOL     OW29665   1.610   4.603   0.331
 9589SOL    HW129666   1.607   4.540   0.253
 9589SOL    HW229667   1.518   4.632   0.354
 9590SOL     OW29668   6.120   3.029   1.885
 9590SOL    HW129669   6.212   3.050   1.917
 9590SOL    HW229670   6.063   3.111   1.891
 9591SOL     OW29671   3.058   5.453   5.986
 9591SOL    HW129672   2.961   5.448   6.011
 9591SOL    HW229673   3.099   5.362   5.992
 9592SOL     OW29674   2.762   4.675   0.605
 9592SOL    HW129675   2.731   4.609   0.536
 9592SOL    HW229676   2.801   4.755   0.560
 9593SOL     OW29677   1.014   1.217   6.620
 9593SOL    HW129678   0.977   1.229   6.528
 9593SOL    HW229679   1.082   1.143   6.619
 9594SOL     OW29680   2.092   5.277   4.344
 9594SOL    HW129681   2.122   5.183   4.329
 9594SOL    HW229682   2.168   5.340   4.323
 9595SOL     OW29683   0.210   2.988   3.863
 9595SOL    HW129684   0.297   3.036   3.860
 9595SOL    HW229685   0.203   2.936   3.948
 9596SOL     OW29686   0.622   4.995   6.576
 9596SOL    HW129687   0.591   4.900   6.576
 9596SOL    HW229688   0.672   5.015   6.492
 9597SOL     OW29689   6.923   4.338   1.692
 9597SOL    HW129690   6.957   4.368   1.603
 9597SOL    HW229691   6.898   4.419   1.747
 9598SOL     OW29692   2.130   4.497   3.057
 9598SOL    HW129693   2.154   4.431   3.128
 9598SOL    HW229694   2.093   4.449   2.978
 9599SOL     OW29695   2.561   0.428   4.267
 9599SOL    HW129696   2.520   0.518   4.252
 9599SOL    HW229697   2.494   0.368   4.309
 9600SOL     OW29698   3.160   6.884   6.939
 9600SOL    HW129699   3.152   6.823   6.861
 9600SOL    HW229700   3.076   6.938   6.949
 9601SOL     OW29701   5.384   4.369   0.400
 9601SOL    HW129702   5.477   4.346   0.370
 9601SOL    HW229703   5.366   4.324   0.488
 9602SOL     OW29704   5.989   4.011   6.516
 9602SOL    HW129705   6.016   4.056   6.601
 9602SOL    HW229706   6.063   3.951   6.485
 9603SOL     OW29707   4.407   1.365   6.032
 9603SOL    HW129708   4.324   1.356   6.087
 9603SOL    HW229709   4.484   1.388   6.091
 9604SOL     OW29710   4.897   0.088   0.924
 9604SOL    HW129711   4.884   0.149   0.846
 9604SOL    HW229712   4.995   0.081   0.945
 9605SOL     OW29713   1.129   6.237   3.313
 9605SOL    HW129714   1.225   6.264   3.317
 9605SOL    HW229715   1.105   6.188   3.396
 9606SOL     OW29716   1.991   5.878   0.063
 9606SOL    HW129717   2.077   5.855   0.017
 9606SOL    HW229718   1.991   5.975   0.087
 9607SOL     OW29719   2.455   1.021   6.892
 9607SOL    HW129720   2.378   1.032   6.830
 9607SOL    HW229721   2.515   1.101   6.886
 9608SOL     OW29722   0.210   4.657   1.817
 9608SOL    HW129723   0.248   4.742   1.783
 9608SOL    HW229724   0.264   4.580   1.784
 9609SOL     OW29725   2.605   2.648   0.314
 9609SOL    HW129726   2.506   2.655   0.302
 9609SOL    HW229727   2.626   2.632   0.411
 9610SOL     OW29728   1.834   5.001   4.088
 9610SOL    HW129729   1.874   4.976   3.999
 9610SOL    HW229730   1.789   5.090   4.079
 9611SOL     OW29731   1.130   6.310   0.370
 9611SOL    HW129732   1.146   6.399   0.413
 9611SOL    HW229733   1.204   6.247   0.395
 9612SOL     OW29734   0.289   3.740   1.511
 9612SOL    HW129735   0.239   3.655   1.495
 9612SOL    HW229736   0.348   3.760   1.432
 9613SOL     OW29737   5.181   0.268   3.408
 9613SOL    HW129738   5.191   0.349   3.466
 9613SOL    HW229739   5.211   0.290   3.315
 9614SOL     OW29740   4.105   2.506   1.729
 9614SOL    HW129741   4.101   2.407   1.745
 9614SOL    HW229742   4.014   2.540   1.707
 9615SOL     OW29743   2.518   0.419   0.696
 9615SOL    HW129744   2.507   0.454   0.789
 9615SOL    HW229745   2.614   0.402   0.677
 9616SOL     OW29746   3.669   3.833   1.524
 9616SOL    HW129747   3.718   3.806   1.441
 9616SOL    HW229748   3.729   3.823   1.603
 9617SOL     OW29749   1.605   3.053   3.361
 9617SOL    HW129750   1.567   3.145   3.354
 9617SOL    HW229751   1.594   3.020   3.455
 9618SOL     OW29752   3.303   6.674   0.389
 9618SOL    HW129753   3.208   6.694   0.414
 9618SOL    HW229754   3.305   6.618   0.307
 9619SOL     OW29755   1.576   6.688   6.601
 9619SOL    HW129756   1.483   6.691   6.564
 9619SOL    HW229757   1.640   6.668   6.527
 9620SOL     OW29758   4.276   0.663   6.399
 9620SOL    HW129759   4.328   0.684   6.316
 9620SOL    HW229760   4.328   0.599   6.455
 9621SOL     OW29761   1.363   2.428   2.065
 9621SOL    HW129762   1.333   2.485   1.989
 9621SOL    HW229763   1.454   2.391   2.045
 9622SOL     OW29764   0.121   1.273   0.303
 9622SOL    HW129765   0.048   1.289   0.369
 9622SOL    HW229766   0.103   1.187   0.255
 9623SOL     OW29767   2.825   3.483   5.701
 9623SOL    HW129768   2.857   3.411   5.640
 9623SOL    HW229769   2.822   3.570   5.652
 9624SOL     OW29770   7.003   3.705   3.083
 9624SOL    HW129771   6.957   3.617   3.075
 9624SOL    HW229772   0.035   3.723   2.998
 9625SOL     OW29773   4.859   5.959   6.645
 9625SOL    HW129774   4.793   5.895   6.606
 9625SOL    HW229775   4.938   5.908   6.681
 9626SOL     OW29776   3.938   5.170   0.430
 9626SOL    HW129777   3.846   5.206   0.444
 9626SOL    HW229778   4.002   5.217   0.489
 9627SOL     OW29779   6.903   6.202   5.002
 9627SOL    HW129780   6.914   6.115   4.953
 9627SOL    HW229781   6.808   6.231   4.997
 9628SOL     OW29782   4.833   4.776   0.348
 9628SOL    HW129783   4.891   4.817   0.419
 9628SOL    HW229784   4.747   4.826   0.344
 9629SOL     OW29785   0.551   0.015   1.719
 9629SOL    HW129786   0.475   0.077   1.701
 9629SOL    HW229787   0.539   6.992   1.809
 9630SOL     OW29788   6.448   0.083   4.630
 9630SOL    HW129789   6.506   0.079   4.711
 9630SOL    HW229790   6.389   0.164   4.635
 9631SOL     OW29791   6.748   6.658   6.981
 9631SOL    HW129792   6.713   6.733   6.926
 9631SOL    HW229793   6.823   6.690   0.019
 9632SOL     OW29794   1.081   0.046   2.527
 9632SOL    HW129795   1.157   0.043   2.462
 9632SOL    HW229796   1.067   6.974   2.565
 9633SOL     OW29797   5.248   5.265   5.992
 9633SOL    HW129798   5.303   5.182   6.007
 9633SOL    HW229799   5.267   5.300   5.900
 9634SOL     OW29800   0.939   6.034   4.056
 9634SOL    HW129801   0.945   6.100   4.132
 9634SOL    HW229802   1.028   6.026   4.012
 9635SOL     OW29803   1.706   4.865   5.483
 9635SOL    HW129804   1.710   4.896   5.388
 9635SOL    HW229805   1.618   4.820   5.500
 9636SOL     OW29806   3.784   2.121   5.979
 9636SOL    HW129807   3.740   2.032   5.964
 9636SOL    HW229808   3.729   2.193   5.935
 9637SOL     OW29809   2.136   1.622   6.328
 9637SOL    HW129810   2.165   1.695   6.391
 9637SOL    HW229811   2.038   1.607   6.337
 9638SOL     OW29812   6.429   3.681   6.712
 9638SOL    HW129813   6.397   3.754   6.772
 9638SOL    HW229814   6.500   3.717   6.651
 9639SOL     OW29815   3.934   1.325   2.505
 9639SOL    HW129816   3.856   1.264   2.511
 9639SOL    HW229817   3.989   1.301   2.425
 9640SOL     OW29818   2.364   2.771   3.726
 9640SOL    HW129819   2.417   2.752   3.643
 9640SOL    HW229820   2.322   2.862   3.719
 9641SOL     OW29821   3.775   6.024   0.757
 9641SOL    HW129822   3.749   6.082   0.680
 9641SOL    HW229823   3.869   5.992   0.744
 9642SOL     OW29824   3.399   6.714   4.901
 9642SOL    HW129825   3.487   6.743   4.938
 9642SOL    HW229826   3.341   6.680   4.975
 9643SOL     OW29827   5.565   5.656   4.332
 9643SOL    HW129828   5.518   5.670   4.245
 9643SOL    HW229829   5.567   5.743   4.383
 9644SOL     OW29830   0.960   4.226   6.260
 9644SOL    HW129831   0.874   4.275   6.249
 9644SOL    HW229832   1.005   4.255   6.345
 9645SOL     OW29833   2.613   5.641   4.380
 9645SOL    HW129834   2.645   5.547   4.366
 9645SOL    HW229835   2.566   5.647   4.468
 9646SOL     OW29836   2.866   4.824   1.857
 9646SOL    HW129837   2.841   4.807   1.762
 9646SOL    HW229838   2.833   4.748   1.914
 9647SOL     OW29839   6.482   5.631   1.891
 9647SOL    HW129840   6.485   5.603   1.987
 9647SOL    HW229841   6.480   5.549   1.833
 9648SOL     OW29842   4.277   1.354   0.389
 9648SOL    HW129843   4.212   1.279   0.378
 9648SOL    HW229844   4.354   1.323   0.444
 9649SOL     OW29845   2.898   6.376   0.013
 9649SOL    HW129846   2.836   6.338   6.962
 9649SOL    HW229847   2.968   6.308   0.035
 9650SOL     OW29848   6.193   5.218   2.221
 9650SOL    HW129849   6.224   5.310   2.195
 9650SOL    HW229850   6.238   5.192   2.307
 9651SOL     OW29851   0.208   1.005   6.216
 9651SOL    HW129852   0.304   0.994   6.188
 9651SOL    HW229853   0.157   1.050   6.143
 9652SOL     OW29854   2.019   4.132   0.671
 9652SOL    HW129855   2.014   4.048   0.617
 9652SOL    HW229856   1.951   4.197   0.638
 9653SOL     OW29857   4.087   4.910   4.639
 9653SOL    HW129858   4.157   4.980   4.650
 9653SOL    HW229859   4.130   4.819   4.644
 9654SOL     OW29860   3.164   2.638   1.469
 9654SOL    HW129861   3.255   2.597   1.471
 9654SOL    HW229862   3.164   2.717   1.408
 9655SOL     OW29863   0.351   0.933   0.478
 9655SOL    HW129864   0.286   0.857   0.476
 9655SOL    HW229865   0.403   0.935   0.392
 9656SOL     OW29866   2.558   1.390   1.207
 9656SOL    HW129867   2.569   1.292   1.222
 9656SOL    HW229868   2.546   1.436   1.295
 9657SOL     OW29869   5.435   0.577   3.643
 9657SOL    HW129870   5.352   0.522   3.656
 9657SOL    HW229871   5.491   0.535   3.572
 9658SOL     OW29872   6.318   2.050   3.432
 9658SOL    HW129873   6.365   2.115   3.492
 9658SOL    HW229874   6.385   1.991   3.387
 9659SOL     OW29875   6.749   4.546   0.081
 9659SOL    HW129876   6.706   4.463   0.114
 9659SOL    HW229877   6.681   4.603   0.036
 9660SOL     OW29878   0.230   5.357   0.429
 9660SOL    HW129879   0.132   5.379   0.427
 9660SOL    HW229880   0.256   5.311   0.344
 9661SOL     OW29881   4.220   5.475   1.163
 9661SOL    HW129882   4.286   5.401   1.175
 9661SOL    HW229883   4.221   5.535   1.243
 9662SOL     OW29884   6.341   2.797   4.565
 9662SOL    HW129885   6.430   2.795   4.610
 9662SOL    HW229886   6.351   2.767   4.470
 9663SOL     OW29887   1.349   5.658   4.129
 9663SOL    HW129888   1.447   5.675   4.125
 9663SOL    HW229889   1.309   5.677   4.039
 9664SOL     OW29890   5.827   0.239   2.821
 9664SOL    HW129891   5.781   0.304   2.760
 9664SOL    HW229892   5.759   0.180   2.864
 9665SOL     OW29893   5.423   5.258   5.481
 9665SOL    HW129894   5.368   5.330   5.524
 9665SOL    HW229895   5.368   5.175   5.470
 9666SOL     OW29896   5.272   4.130   1.631
 9666SOL    HW129897   5.225   4.195   1.691
 9666SOL    HW229898   5.371   4.145   1.637
 9667SOL     OW29899   3.915   3.154   4.055
 9667SOL    HW129900   3.830   3.198   4.083
 9667SOL    HW229901   3.969   3.131   4.136
 9668SOL     OW29902   6.621   1.405   6.236
 9668SOL    HW129903   6.579   1.367   6.154
 9668SOL    HW229904   6.555   1.404   6.311
 9669SOL     OW29905   0.990   1.335   1.145
 9669SOL    HW129906   1.074   1.306   1.099
 9669SOL    HW229907   0.921   1.263   1.136
 9670SOL     OW29908   4.898   4.959   6.246
 9670SOL    HW129909   4.838   4.988   6.321
 9670SOL    HW229910   4.950   5.038   6.213
 9671SOL     OW29911   0.521   5.367   6.309
 9671SOL    HW129912   0.496   5.366   6.212
 9671SOL    HW229913   0.612   5.408   6.319
 9672SOL     OW29914   1.544   6.890   4.573
 9672SOL    HW129915   1.453   6.898   4.615
 9672SOL    HW229916   1.613   6.884   4.645
 9673SOL     OW29917   5.364   4.248   6.799
 9673SOL    HW129918   5.308   4.233   6.880
 9673SOL    HW229919   5.404   4.161   6.770
 9674SOL     OW29920   2.978   6.096   2.905
 9674SOL    HW129921   2.887   6.054   2.897
 9674SOL    HW229922   3.032   6.045   2.971
 9675SOL     OW29923   5.806   1.202   1.729
 9675SOL    HW129924   5.748   1.170   1.655
 9675SOL    HW229925   5.770   1.289   1.765
 9676SOL     OW29926   1.291   3.714   5.408
 9676SOL    HW129927   1.252   3.666   5.329
 9676SOL    HW229928   1.367   3.771   5.377
 9677SOL     OW29929   2.804   4.437   6.112
 9677SOL    HW129930   2.878   4.424   6.046
 9677SOL    HW229931   2.751   4.352   6.119
 9678SOL     OW29932   3.290   4.101   2.891
 9678SOL    HW129933   3.338   4.134   2.972
 9678SOL    HW229934   3.335   4.137   2.809
 9679SOL     OW29935   1.049   1.392   1.751
 9679SOL    HW129936   1.069   1.482   1.791
 9679SOL    HW229937   0.982   1.404   1.676
 9680SOL     OW29938   6.427   0.338   3.523
 9680SOL    HW129939   6.506   0.282   3.547
 9680SOL    HW229940   6.349   0.278   3.503
 9681SOL     OW29941   2.559   0.350   1.453
 9681SOL    HW129942   2.619   0.414   1.405
 9681SOL    HW229943   2.591   0.257   1.440
 9682SOL     OW29944   5.041   5.014   3.168
 9682SOL    HW129945   5.055   4.945   3.096
 9682SOL    HW229946   5.062   4.974   3.257
 9683SOL     OW29947   3.722   5.176   0.906
 9683SOL    HW129948   3.720   5.104   0.975
 9683SOL    HW229949   3.629   5.202   0.882
 9684SOL     OW29950   0.321   3.216   5.159
 9684SOL    HW129951   0.279   3.210   5.069
 9684SOL    HW229952   0.382   3.137   5.172
 9685SOL     OW29953   2.010   2.990   1.239
 9685SOL    HW129954   1.930   2.932   1.250
 9685SOL    HW229955   1.999   3.073   1.294
 9686SOL     OW29956   6.479   2.170   0.740
 9686SOL    HW129957   6.576   2.173   0.714
 9686SOL    HW229958   6.439   2.083   0.711
 9687SOL     OW29959   1.949   0.570   3.528
 9687SOL    HW129960   1.960   0.630   3.608
 9687SOL    HW229961   1.933   0.477   3.559
 9688SOL     OW29962   6.453   2.220   3.599
 9688SOL    HW129963   6.528   2.171   3.644
 9688SOL    HW229964   6.475   2.317   3.595
 9689SOL     OW29965   1.650   6.435   0.629
 9689SOL    HW129966   1.558   6.466   0.606
 9689SOL    HW229967   1.652   6.408   0.726
 9690SOL     OW29968   5.752   5.396   6.268
 9690SOL    HW129969   5.712   5.324   6.324
 9690SOL    HW229970   5.775   5.360   6.177
 9691SOL     OW29971   2.430   4.627   1.529
 9691SOL    HW129972   2.483   4.666   1.453
 9691SOL    HW229973   2.468   4.539   1.554
 9692SOL     OW29974   2.221   5.221   2.601
 9692SOL    HW129975   2.215   5.122   2.618
 9692SOL    HW229976   2.154   5.268   2.658
 9693SOL     OW29977   6.969   5.314   2.125
 9693SOL    HW129978   0.024   5.250   2.149
 9693SOL    HW229979   6.950   5.373   2.204
 9694SOL     OW29980   2.349   0.904   6.279
 9694SOL    HW129981   2.281   0.847   6.323
 9694SOL    HW229982   2.362   0.874   6.184
 9695SOL     OW29983   6.211   4.286   1.305
 9695SOL    HW129984   6.262   4.322   1.227
 9695SOL    HW229985   6.137   4.228   1.272
 9696SOL     OW29986   5.118   2.505   1.254
 9696SOL    HW129987   5.156   2.597   1.244
 9696SOL    HW229988   5.134   2.453   1.169
 9697SOL     OW29989   6.878   5.105   6.837
 9697SOL    HW129990   6.861   5.006   6.837
 9697SOL    HW229991   6.894   5.136   6.743
 9698SOL     OW29992   6.097   1.206   5.430
 9698SOL    HW129993   6.069   1.113   5.408
 9698SOL    HW229994   6.175   1.233   5.373
 9699SOL     OW29995   0.024   4.489   6.382
 9699SOL    HW129996   0.033   4.582   6.345
 9699SOL    HW229997   0.092   4.430   6.340
 9700SOL     OW29998   4.040   5.204   5.875
 9700SOL    HW129999   4.074   5.111   5.884
 9700SOL    HW230000   3.943   5.203   5.854
 9701SOL     OW30001   3.641   5.545   4.606
 9701SOL    HW130002   3.729   5.498   4.612
 9701SOL    HW230003   3.651   5.638   4.642
 9702SOL     OW30004   5.386   0.314   6.481
 9702SOL    HW130005   5.302   0.297   6.534
 9702SOL    HW230006   5.384   0.407   6.445
 9703SOL     OW30007   3.338   5.506   4.227
 9703SOL    HW130008   3.393   5.529   4.147
 9703SOL    HW230009   3.295   5.416   4.214
 9704SOL     OW30010   2.899   0.960   2.365
 9704SOL    HW130011   2.946   1.031   2.418
 9704SOL    HW230012   2.861   0.892   2.427
 9705SOL     OW30013   5.204   5.073   0.611
 9705SOL    HW130014   5.228   5.170   0.611
 9705SOL    HW230015   5.267   5.023   0.672
 9706SOL     OW30016   0.309   1.968   1.138
 9706SOL    HW130017   0.325   1.884   1.087
 9706SOL    HW230018   0.239   2.022   1.091
 9707SOL     OW30019   6.541   4.170   2.146
 9707SOL    HW130020   6.519   4.267   2.142
 9707SOL    HW230021   6.556   4.135   2.053
 9708SOL     OW30022   2.000   2.622   3.200
 9708SOL    HW130023   1.984   2.525   3.222
 9708SOL    HW230024   1.976   2.678   3.280
 9709SOL     OW30025   0.125   5.782   3.488
 9709SOL    HW130026   0.188   5.760   3.563
 9709SOL    HW230027   0.177   5.811   3.408
 9710SOL     OW30028   0.592   1.636   2.596
 9710SOL    HW130029   0.649   1.717   2.605
 9710SOL    HW230030   0.581   1.612   2.500
 9711SOL     OW30031   1.545   3.162   6.394
 9711SOL    HW130032   1.531   3.069   6.360
 9711SOL    HW230033   1.624   3.202   6.348
 9712SOL     OW30034   5.300   3.338   4.723
 9712SOL    HW130035   5.286   3.357   4.626
 9712SOL    HW230036   5.276   3.419   4.776
 9713SOL     OW30037   0.323   5.172   3.005
 9713SOL    HW130038   0.291   5.140   3.095
 9713SOL    HW230039   0.423   5.169   3.002
 9714SOL     OW30040   1.789   0.781   1.820
 9714SOL    HW130041   1.821   0.873   1.800
 9714SOL    HW230042   1.851   0.714   1.778
 9715SOL     OW30043   6.701   5.781   4.615
 9715SOL    HW130044   6.733   5.729   4.536
 9715SOL    HW230045   6.614   5.825   4.593
 9716SOL     OW30046   4.165   2.584   0.082
 9716SOL    HW130047   4.102   2.581   0.004
 9716SOL    HW230048   4.172   2.677   0.116
 9717SOL     OW30049   5.684   6.057   5.293
 9717SOL    HW130050   5.609   6.005   5.253
 9717SOL    HW230051   5.696   6.031   5.389
 9718SOL     OW30052   4.622   3.216   1.668
 9718SOL    HW130053   4.614   3.144   1.737
 9718SOL    HW230054   4.595   3.180   1.579
 9719SOL     OW30055   0.570   1.959   0.152
 9719SOL    HW130056   0.545   1.873   0.197
 9719SOL    HW230057   0.558   2.035   0.216
 9720SOL     OW30058   0.634   5.583   1.744
 9720SOL    HW130059   0.663   5.574   1.649
 9720SOL    HW230060   0.563   5.515   1.764
 9721SOL     OW30061   0.945   2.553   1.852
 9721SOL    HW130062   0.926   2.544   1.949
 9721SOL    HW230063   0.876   2.502   1.800
 9722SOL     OW30064   0.411   6.914   3.783
 9722SOL    HW130065   0.322   6.928   3.827
 9722SOL    HW230066   0.451   7.003   3.760
 9723SOL     OW30067   1.559   6.210   2.648
 9723SOL    HW130068   1.575   6.285   2.584
 9723SOL    HW230069   1.645   6.186   2.694
 9724SOL     OW30070   3.232   2.841   1.310
 9724SOL    HW130071   3.165   2.912   1.289
 9724SOL    HW230072   3.315   2.883   1.346
 9725SOL     OW30073   4.433   3.501   5.969
 9725SOL    HW130074   4.393   3.493   6.060
 9725SOL    HW230075   4.524   3.543   5.976
 9726SOL     OW30076   4.344   0.489   4.687
 9726SOL    HW130077   4.311   0.396   4.673
 9726SOL    HW230078   4.318   0.546   4.609
 9727SOL     OW30079   1.370   3.418   5.452
 9727SOL    HW130080   1.421   3.459   5.528
 9727SOL    HW230081   1.349   3.488   5.384
 9728SOL     OW30082   1.099   6.363   6.527
 9728SOL    HW130083   1.085   6.364   6.428
 9728SOL    HW230084   1.023   6.410   6.571
 9729SOL     OW30085   1.466   4.598   2.912
 9729SOL    HW130086   1.405   4.583   2.834
 9729SOL    HW230087   1.473   4.514   2.966
 9730SOL     OW30088   6.983   3.513   2.383
 9730SOL    HW130089   0.062   3.536   2.383
 9730SOL    HW230090   6.962   3.457   2.462
 9731SOL     OW30091   4.583   4.862   0.624
 9731SOL    HW130092   4.576   4.881   0.526
 9731SOL    HW230093   4.524   4.784   0.647
 9732SOL     OW30094   6.095   6.217   2.701
 9732SOL    HW130095   6.122   6.139   2.644
 9732SOL    HW230096   6.122   6.200   2.796
 9733SOL     OW30097   5.658   5.296   4.792
 9733SOL    HW130098   5.724   5.222   4.779
 9733SOL    HW230099   5.565   5.258   4.795
 9734SOL     OW30100   5.247   2.132   3.977
 9734SOL    HW130101   5.293   2.157   4.062
 9734SOL    HW230102   5.303   2.163   3.900
 9735SOL     OW30103   1.636   4.667   2.567
 9735SOL    HW130104   1.643   4.625   2.657
 9735SOL    HW230105   1.649   4.597   2.497
 9736SOL     OW30106   5.433   1.407   5.760
 9736SOL    HW130107   5.466   1.339   5.695
 9736SOL    HW230108   5.478   1.395   5.848
 9737SOL     OW30109   4.666   2.723   4.851
 9737SOL    HW130110   4.634   2.653   4.787
 9737SOL    HW230111   4.644   2.695   4.945
 9738SOL     OW30112   1.871   6.929   3.356
 9738SOL    HW130113   1.948   6.866   3.347
 9738SOL    HW230114   1.814   6.902   3.433
 9739SOL     OW30115   0.650   4.637   1.720
 9739SOL    HW130116   0.734   4.614   1.768
 9739SOL    HW230117   0.669   4.707   1.651
 9740SOL     OW30118   6.147   3.118   3.289
 9740SOL    HW130119   6.210   3.173   3.235
 9740SOL    HW230120   6.133   3.029   3.246
 9741SOL     OW30121   4.448   1.161   2.472
 9741SOL    HW130122   4.544   1.174   2.496
 9741SOL    HW230123   4.397   1.245   2.490
 9742SOL     OW30124   4.795   0.246   3.261
 9742SOL    HW130125   4.844   0.159   3.265
 9742SOL    HW230126   4.816   0.300   3.343
 9743SOL     OW30127   2.151   1.711   5.416
 9743SOL    HW130128   2.062   1.756   5.428
 9743SOL    HW230129   2.174   1.707   5.319
 9744SOL     OW30130   0.613   0.387   2.963
 9744SOL    HW130131   0.552   0.368   2.886
 9744SOL    HW230132   0.606   0.314   3.030
 9745SOL     OW30133   0.325   2.334   5.614
 9745SOL    HW130134   0.374   2.253   5.582
 9745SOL    HW230135   0.351   2.413   5.558
 9746SOL     OW30136   5.707   1.838   5.308
 9746SOL    HW130137   5.624   1.782   5.308
 9746SOL    HW230138   5.691   1.920   5.253
 9747SOL     OW30139   1.374   1.007   1.655
 9747SOL    HW130140   1.319   1.088   1.633
 9747SOL    HW230141   1.417   1.020   1.744
 9748SOL     OW30142   1.137   0.061   4.817
 9748SOL    HW130143   1.162   6.994   4.773
 9748SOL    HW230144   1.199   0.134   4.786
 9749SOL     OW30145   1.989   2.249   5.618
 9749SOL    HW130146   1.895   2.280   5.635
 9749SOL    HW230147   2.048   2.279   5.693
 9750SOL     OW30148   5.826   4.990   4.362
 9750SOL    HW130149   5.731   5.020   4.361
 9750SOL    HW230150   5.884   5.063   4.326
 9751SOL     OW30151   2.215   2.632   1.455
 9751SOL    HW130152   2.314   2.621   1.445
 9751SOL    HW230153   2.180   2.563   1.519
 9752SOL     OW30154   4.587   0.861   6.362
 9752SOL    HW130155   4.540   0.857   6.274
 9752SOL    HW230156   4.638   0.776   6.377
 9753SOL     OW30157   6.324   6.346   4.870
 9753SOL    HW130158   6.319   6.257   4.824
 9753SOL    HW230159   6.232   6.382   4.883
 9754SOL     OW30160   0.967   1.780   6.920
 9754SOL    HW130161   0.867   1.782   6.914
 9754SOL    HW230162   0.995   1.806   7.012
 9755SOL     OW30163   4.123   3.436   4.900
 9755SOL    HW130164   4.136   3.338   4.890
 9755SOL    HW230165   4.038   3.463   4.854
 9756SOL     OW30166   6.363   2.674   0.115
 9756SOL    HW130167   6.459   2.690   0.093
 9756SOL    HW230168   6.352   2.669   0.214
 9757SOL     OW30169   5.125   3.094   3.373
 9757SOL    HW130170   5.147   3.188   3.402
 9757SOL    HW230171   5.209   3.040   3.368
 9758SOL     OW30172   1.565   6.660   6.225
 9758SOL    HW130173   1.500   6.718   6.275
 9758SOL    HW230174   1.649   6.651   6.279
 9759SOL     OW30175   2.322   6.653   1.092
 9759SOL    HW130176   2.288   6.667   1.185
 9759SOL    HW230177   2.356   6.739   1.056
 9760SOL     OW30178   5.185   4.067   5.137
 9760SOL    HW130179   5.124   4.095   5.062
 9760SOL    HW230180   5.194   3.967   5.137
 9761SOL     OW30181   5.573   6.241   2.057
 9761SOL    HW130182   5.478   6.270   2.053
 9761SOL    HW230183   5.578   6.149   2.097
 9762SOL     OW30184   2.790   2.178   4.644
 9762SOL    HW130185   2.750   2.269   4.632
 9762SOL    HW230186   2.819   2.165   4.739
 9763SOL     OW30187   4.665   2.262   1.889
 9763SOL    HW130188   4.704   2.255   1.796
 9763SOL    HW230189   4.622   2.176   1.913
 9764SOL     OW30190   1.299   1.988   3.440
 9764SOL    HW130191   1.306   2.066   3.378
 9764SOL    HW230192   1.352   1.911   3.405
 9765SOL     OW30193   6.610   1.864   4.886
 9765SOL    HW130194   6.586   1.829   4.977
 9765SOL    HW230195   6.672   1.799   4.842
 9766SOL     OW30196   2.547   0.362   2.956
 9766SOL    HW130197   2.641   0.330   2.954
 9766SOL    HW230198   2.503   0.344   2.868
 9767SOL     OW30199   5.052   2.161   4.853
 9767SOL    HW130200   5.087   2.187   4.763
 9767SOL    HW230201   5.091   2.222   4.922
 9768SOL     OW30202   5.416   2.265   2.147
 9768SOL    HW130203   5.457   2.311   2.069
 9768SOL    HW230204   5.417   2.166   2.132
 9769SOL     OW30205   1.642   1.286   1.965
 9769SOL    HW130206   1.660   1.218   2.036
 9769SOL    HW230207   1.681   1.374   1.992
 9770SOL     OW30208   5.782   6.327   6.186
 9770SOL    HW130209   5.697   6.342   6.137
 9770SOL    HW230210   5.858   6.369   6.136
 9771SOL     OW30211   4.406   4.614   1.286
 9771SOL    HW130212   4.452   4.541   1.235
 9771SOL    HW230213   4.461   4.697   1.283
 9772SOL     OW30214   7.001   6.746   1.760
 9772SOL    HW130215   0.043   6.668   1.775
 9772SOL    HW230216   0.038   6.825   1.731
 9773SOL     OW30217   5.718   6.266   3.358
 9773SOL    HW130218   5.694   6.172   3.380
 9773SOL    HW230219   5.806   6.269   3.312
 9774SOL     OW30220   5.905   5.344   2.994
 9774SOL    HW130221   5.875   5.264   2.942
 9774SOL    HW230222   5.855   5.424   2.964
 9775SOL     OW30223   2.248   2.222   4.420
 9775SOL    HW130224   2.195   2.306   4.408
 9775SOL    HW230225   2.277   2.188   4.330
 9776SOL     OW30226   0.047   5.713   5.003
 9776SOL    HW130227   0.049   5.621   5.043
 9776SOL    HW230228   6.973   5.733   4.970
 9777SOL     OW30229   5.534   5.103   6.594
 9777SOL    HW130230   5.470   5.082   6.668
 9777SOL    HW230231   5.620   5.053   6.609
 9778SOL     OW30232   5.628   0.360   3.795
 9778SOL    HW130233   5.698   0.321   3.734
 9778SOL    HW230234   5.551   0.391   3.740
 9779SOL     OW30235   2.646   1.486   4.837
 9779SOL    HW130236   2.693   1.413   4.886
 9779SOL    HW230237   2.697   1.571   4.848
 9780SOL     OW30238   2.542   2.136   0.919
 9780SOL    HW130239   2.443   2.131   0.905
 9780SOL    HW230240   2.568   2.077   0.994
 9781SOL     OW30241   2.005   4.409   4.060
 9781SOL    HW130242   1.969   4.463   3.984
 9781SOL    HW230243   1.946   4.419   4.140
 9782SOL     OW30244   6.756   0.356   0.823
 9782SOL    HW130245   6.694   0.429   0.795
 9782SOL    HW230246   6.763   0.354   0.923
 9783SOL     OW30247   6.142   1.192   1.948
 9783SOL    HW130248   6.104   1.112   1.993
 9783SOL    HW230249   6.117   1.190   1.851
 9784SOL     OW30250   4.488   1.447   3.380
 9784SOL    HW130251   4.529   1.360   3.351
 9784SOL    HW230252   4.504   1.516   3.310
 9785SOL     OW30253   6.996   2.875   3.352
 9785SOL    HW130254   6.980   2.776   3.355
 9785SOL    HW230255   6.927   2.921   3.409
 9786SOL     OW30256   1.667   5.094   5.675
 9786SOL    HW130257   1.674   5.021   5.607
 9786SOL    HW230258   1.574   5.095   5.713
 9787SOL     OW30259   5.252   3.868   2.054
 9787SOL    HW130260   5.292   3.777   2.062
 9787SOL    HW230261   5.160   3.867   2.092
 9788SOL     OW30262   0.579   0.597   3.850
 9788SOL    HW130263   0.568   0.647   3.764
 9788SOL    HW230264   0.489   0.570   3.884
 9789SOL     OW30265   1.993   5.432   5.992
 9789SOL    HW130266   2.088   5.461   5.992
 9789SOL    HW230267   1.981   5.355   6.055
 9790SOL     OW30268   5.822   2.769   4.836
 9790SOL    HW130269   5.731   2.729   4.844
 9790SOL    HW230270   5.819   2.864   4.869
 9791SOL     OW30271   0.790   0.791   1.970
 9791SOL    HW130272   0.828   0.753   2.055
 9791SOL    HW230273   0.865   0.812   1.907
 9792SOL     OW30274   4.512   5.092   2.063
 9792SOL    HW130275   4.450   5.165   2.092
 9792SOL    HW230276   4.568   5.063   2.140
 9793SOL     OW30277   4.812   5.887   2.756
 9793SOL    HW130278   4.845   5.807   2.707
 9793SOL    HW230279   4.718   5.872   2.786
 9794SOL     OW30280   5.580   3.446   6.601
 9794SOL    HW130281   5.645   3.472   6.672
 9794SOL    HW230282   5.490   3.431   6.641
 9795SOL     OW30283   1.194   2.699   3.980
 9795SOL    HW130284   1.098   2.672   3.978
 9795SOL    HW230285   1.203   2.786   4.029
 9796SOL     OW30286   3.020   4.525   0.745
 9796SOL    HW130287   2.969   4.490   0.824
 9796SOL    HW230288   2.964   4.515   0.663
 9797SOL     OW30289   4.453   3.612   0.168
 9797SOL    HW130290   4.512   3.533   0.151
 9797SOL    HW230291   4.361   3.593   0.134
 9798SOL     OW30292   2.614   0.742   1.095
 9798SOL    HW130293   2.524   0.774   1.125
 9798SOL    HW230294   2.643   0.665   1.152
 9799SOL     OW30295   3.370   3.395   2.667
 9799SOL    HW130296   3.400   3.311   2.711
 9799SOL    HW230297   3.428   3.471   2.696
 9800SOL     OW30298   4.160   6.119   5.679
 9800SOL    HW130299   4.217   6.155   5.753
 9800SOL    HW230300   4.186   6.025   5.659
 9801SOL     OW30301   4.299   5.363   0.002
 9801SOL    HW130302   4.344   5.376   6.932
 9801SOL    HW230303   4.210   5.409   0.000
 9802SOL     OW30304   0.213   3.364   1.860
 9802SOL    HW130305   0.153   3.309   1.917
 9802SOL    HW230306   0.167   3.384   1.773
 9803SOL     OW30307   6.167   0.490   6.524
 9803SOL    HW130308   6.180   0.426   6.600
 9803SOL    HW230309   6.255   0.530   6.498
 9804SOL     OW30310   0.278   4.892   3.795
 9804SOL    HW130311   0.354   4.956   3.806
 9804SOL    HW230312   0.236   4.906   3.705
 9805SOL     OW30313   1.163   5.476   6.621
 9805SOL    HW130314   1.153   5.574   6.638
 9805SOL    HW230315   1.183   5.461   6.524
 9806SOL     OW30316   0.685   2.474   1.490
 9806SOL    HW130317   0.623   2.397   1.473
 9806SOL    HW230318   0.736   2.494   1.406
 9807SOL     OW30319   3.384   2.016   6.970
 9807SOL    HW130320   3.355   2.107   7.002
 9807SOL    HW230321   3.484   2.013   6.966
 9808SOL     OW30322   5.966   0.478   5.683
 9808SOL    HW130323   5.935   0.571   5.703
 9808SOL    HW230324   5.961   0.422   5.766
 9809SOL     OW30325   1.090   1.282   5.869
 9809SOL    HW130326   1.008   1.270   5.812
 9809SOL    HW230327   1.157   1.336   5.819
 9810SOL     OW30328   2.773   1.869   3.160
 9810SOL    HW130329   2.737   1.905   3.246
 9810SOL    HW230330   2.835   1.793   3.179
 9811SOL     OW30331   6.130   6.007   3.673
 9811SOL    HW130332   6.110   6.001   3.771
 9811SOL    HW230333   6.183   5.927   3.645
 9812SOL     OW30334   3.967   2.137   6.410
 9812SOL    HW130335   4.004   2.197   6.481
 9812SOL    HW230336   4.014   2.049   6.412
 9813SOL     OW30337   6.472   5.438   0.202
 9813SOL    HW130338   6.382   5.468   0.170
 9813SOL    HW230339   6.528   5.517   0.224
 9814SOL     OW30340   6.570   0.521   6.172
 9814SOL    HW130341   6.661   0.534   6.134
 9814SOL    HW230342   6.519   0.457   6.114
 9815SOL     OW30343   0.077   2.657   0.783
 9815SOL    HW130344   0.100   2.691   0.692
 9815SOL    HW230345   6.996   2.656   0.794
 9816SOL     OW30346   6.097   0.959   6.533
 9816SOL    HW130347   6.088   0.867   6.570
 9816SOL    HW230348   6.011   0.987   6.490
 9817SOL     OW30349   3.261   5.413   1.773
 9817SOL    HW130350   3.169   5.392   1.807
 9817SOL    HW230351   3.254   5.475   1.694
 9818SOL     OW30352   2.032   1.426   3.110
 9818SOL    HW130353   2.051   1.496   3.178
 9818SOL    HW230354   1.934   1.425   3.090
 9819SOL     OW30355   5.709   3.926   4.607
 9819SOL    HW130356   5.679   3.933   4.512
 9819SOL    HW230357   5.730   3.831   4.629
 9820SOL     OW30358   3.023   2.095   6.795
 9820SOL    HW130359   2.937   2.121   6.752
 9820SOL    HW230360   3.095   2.088   6.726
 9821SOL     OW30361   4.462   2.320   1.540
 9821SOL    HW130362   4.404   2.298   1.619
 9821SOL    HW230363   4.496   2.414   1.549
 9822SOL     OW30364   4.328   5.877   4.399
 9822SOL    HW130365   4.240   5.831   4.408
 9822SOL    HW230366   4.317   5.974   4.421
 9823SOL     OW30367   1.357   0.725   2.238
 9823SOL    HW130368   1.337   0.773   2.323
 9823SOL    HW230369   1.311   0.636   2.238
 9824SOL     OW30370   2.413   5.971   5.907
 9824SOL    HW130371   2.381   5.917   5.828
 9824SOL    HW230372   2.392   6.068   5.891
 9825SOL     OW30373   5.242   5.863   5.312
 9825SOL    HW130374   5.267   5.945   5.261
 9825SOL    HW230375   5.162   5.882   5.369
 9826SOL     OW30376   3.732   0.149   5.757
 9826SOL    HW130377   3.743   0.135   5.658
 9826SOL    HW230378   3.759   0.065   5.805
 9827SOL     OW30379   2.016   5.650   2.744
 9827SOL    HW130380   1.993   5.553   2.732
 9827SOL    HW230381   2.097   5.672   2.689
 9828SOL     OW30382   3.509   2.093   4.872
 9828SOL    HW130383   3.452   2.021   4.913
 9828SOL    HW230384   3.553   2.146   4.944
 9829SOL     OW30385   4.830   6.338   6.044
 9829SOL    HW130386   4.868   6.247   6.030
 9829SOL    HW230387   4.786   6.343   6.134
 9830SOL     OW30388   6.013   1.303   2.622
 9830SOL    HW130389   6.112   1.310   2.614
 9830SOL    HW230390   5.988   1.288   2.718
 9831SOL     OW30391   0.301   4.047   2.375
 9831SOL    HW130392   0.366   4.042   2.299
 9831SOL    HW230393   0.248   3.962   2.379
 9832SOL     OW30394   5.074   4.697   4.405
 9832SOL    HW130395   4.992   4.670   4.354
 9832SOL    HW230396   5.153   4.696   4.344
 9833SOL     OW30397   3.749   4.039   3.749
 9833SOL    HW130398   3.759   4.064   3.845
 9833SOL    HW230399   3.664   3.989   3.736
 9834SOL     OW30400   2.536   5.329   5.605
 9834SOL    HW130401   2.621   5.335   5.657
 9834SOL    HW230402   2.541   5.388   5.525
 9835SOL     OW30403   3.900   4.078   4.699
 9835SOL    HW130404   3.899   3.979   4.686
 9835SOL    HW230405   3.942   4.100   4.787
 9836SOL     OW30406   1.030   3.894   6.436
 9836SOL    HW130407   1.093   3.904   6.512
 9836SOL    HW230408   1.081   3.885   6.350
 9837SOL     OW30409   5.950   2.055   1.496
 9837SOL    HW130410   5.868   2.034   1.549
 9837SOL    HW230411   6.031   2.047   1.554
 9838SOL     OW30412   1.037   5.828   1.249
 9838SOL    HW130413   0.968   5.839   1.321
 9838SOL    HW230414   1.098   5.752   1.272
 9839SOL     OW30415   4.454   1.100   3.536
 9839SOL    HW130416   4.510   1.082   3.617
 9839SOL    HW230417   4.414   1.015   3.503
 9840SOL     OW30418   5.177   1.813   6.774
 9840SOL    HW130419   5.233   1.896   6.779
 9840SOL    HW230420   5.110   1.814   6.848
 9841SOL     OW30421   0.333   5.410   3.623
 9841SOL    HW130422   0.299   5.500   3.652
 9841SOL    HW230423   0.373   5.363   3.701
 9842SOL     OW30424   3.900   2.653   0.208
 9842SOL    HW130425   3.992   2.663   0.169
 9842SOL    HW230426   3.894   2.569   0.260
 9843SOL     OW30427   6.837   6.481   1.002
 9843SOL    HW130428   6.801   6.575   1.005
 9843SOL    HW230429   6.933   6.482   1.031
 9844SOL     OW30430   5.429   0.559   4.350
 9844SOL    HW130431   5.370   0.547   4.271
 9844SOL    HW230432   5.403   0.494   4.422
 9845SOL     OW30433   1.040   2.232   2.136
 9845SOL    HW130434   0.975   2.249   2.210
 9845SOL    HW230435   1.130   2.267   2.162
 9846SOL     OW30436   5.551   1.290   1.242
 9846SOL    HW130437   5.625   1.309   1.177
 9846SOL    HW230438   5.548   1.192   1.261
 9847SOL     OW30439   3.924   3.309   1.341
 9847SOL    HW130440   3.971   3.395   1.361
 9847SOL    HW230441   3.943   3.242   1.413
 9848SOL     OW30442   3.309   3.662   5.628
 9848SOL    HW130443   3.306   3.750   5.581
 9848SOL    HW230444   3.266   3.592   5.571
 9849SOL     OW30445   1.338   0.703   6.729
 9849SOL    HW130446   1.417   0.758   6.758
 9849SOL    HW230447   1.333   0.703   6.629
 9850SOL     OW30448   6.947   0.728   4.176
 9850SOL    HW130449   6.970   0.631   4.179
 9850SOL    HW230450   6.857   0.740   4.134
 9851SOL     OW30451   3.849   5.314   4.315
 9851SOL    HW130452   3.819   5.223   4.343
 9851SOL    HW230453   3.888   5.310   4.223
 9852SOL     OW30454   1.406   1.308   6.747
 9852SOL    HW130455   1.354   1.226   6.724
 9852SOL    HW230456   1.492   1.281   6.790
 9853SOL     OW30457   0.267   4.233   4.465
 9853SOL    HW130458   0.223   4.145   4.444
 9853SOL    HW230459   0.200   4.306   4.459
 9854SOL     OW30460   0.579   5.958   5.931
 9854SOL    HW130461   0.608   6.038   5.878
 9854SOL    HW230462   0.479   5.954   5.932
 9855SOL     OW30463   0.717   3.371   0.876
 9855SOL    HW130464   0.796   3.403   0.824
 9855SOL    HW230465   0.633   3.403   0.831
 9856SOL     OW30466   5.889   4.881   3.308
 9856SOL    HW130467   5.964   4.939   3.341
 9856SOL    HW230468   5.804   4.910   3.352
 9857SOL     OW30469   5.116   2.478   3.062
 9857SOL    HW130470   5.186   2.474   2.992
 9857SOL    HW230471   5.035   2.526   3.027
 9858SOL     OW30472   1.098   6.533   2.500
 9858SOL    HW130473   1.190   6.508   2.532
 9858SOL    HW230474   1.031   6.470   2.538
 9859SOL     OW30475   0.269   4.954   5.291
 9859SOL    HW130476   0.225   4.973   5.203
 9859SOL    HW230477   0.310   4.863   5.289
 9860SOL     OW30478   1.925   1.856   5.336
 9860SOL    HW130479   1.898   1.850   5.240
 9860SOL    HW230480   1.931   1.952   5.363
 9861SOL     OW30481   2.853   1.375   4.067
 9861SOL    HW130482   2.874   1.473   4.076
 9861SOL    HW230483   2.774   1.364   4.007
 9862SOL     OW30484   2.142   4.823   0.981
 9862SOL    HW130485   2.177   4.840   0.889
 9862SOL    HW230486   2.201   4.867   1.048
 9863SOL     OW30487   2.965   5.689   1.021
 9863SOL    HW130488   3.003   5.683   0.929
 9863SOL    HW230489   3.027   5.645   1.086
 9864SOL     OW30490   2.798   6.310   5.318
 9864SOL    HW130491   2.766   6.230   5.268
 9864SOL    HW230492   2.765   6.393   5.273
 9865SOL     OW30493   0.424   7.001   5.365
 9865SOL    HW130494   0.374   0.069   5.376
 9865SOL    HW230495   0.515   0.001   5.328
 9866SOL     OW30496   6.384   4.562   4.441
 9866SOL    HW130497   6.469   4.513   4.458
 9866SOL    HW230498   6.405   4.654   4.408
 9867SOL     OW30499   5.045   2.043   2.137
 9867SOL    HW130500   4.988   1.985   2.195
 9867SOL    HW230501   5.134   1.999   2.124
 9868SOL     OW30502   1.396   4.545   3.536
 9868SOL    HW130503   1.478   4.596   3.511
 9868SOL    HW230504   1.337   4.536   3.456
 9869SOL     OW30505   0.126   2.651   1.200
 9869SOL    HW130506   0.122   2.567   1.145
 9869SOL    HW230507   0.210   2.700   1.181
 9870SOL     OW30508   3.448   1.309   1.619
 9870SOL    HW130509   3.414   1.343   1.532
 9870SOL    HW230510   3.385   1.334   1.693
 9871SOL     OW30511   6.982   3.515   5.301
 9871SOL    HW130512   6.888   3.541   5.324
 9871SOL    HW230513   7.010   3.436   5.356
 9872SOL     OW30514   2.146   5.670   5.120
 9872SOL    HW130515   2.218   5.698   5.058
 9872SOL    HW230516   2.146   5.570   5.129
 9873SOL     OW30517   1.958   1.985   6.009
 9873SOL    HW130518   1.881   2.008   6.068
 9873SOL    HW230519   2.044   2.010   6.054
 9874SOL     OW30520   0.744   2.795   4.888
 9874SOL    HW130521   0.769   2.698   4.881
 9874SOL    HW230522   0.825   2.851   4.872
 9875SOL     OW30523   6.774   6.262   0.829
 9875SOL    HW130524   6.855   6.267   0.770
 9875SOL    HW230525   6.780   6.334   0.898
 9876SOL     OW30526   2.964   6.971   3.185
 9876SOL    HW130527   2.870   7.000   3.203
 9876SOL    HW230528   3.011   6.955   3.272
 9877SOL     OW30529   0.487   4.883   4.985
 9877SOL    HW130530   0.571   4.828   4.982
 9877SOL    HW230531   0.454   4.899   4.892
 9878SOL     OW30532   1.771   3.227   0.370
 9878SOL    HW130533   1.782   3.274   0.283
 9878SOL    HW230534   1.832   3.148   0.374
 9879SOL     OW30535   1.618   4.414   6.158
 9879SOL    HW130536   1.623   4.329   6.105
 9879SOL    HW230537   1.523   4.444   6.163
 9880SOL     OW30538   2.356   0.837   0.084
 9880SOL    HW130539   2.395   0.908   0.024
 9880SOL    HW230540   2.259   0.828   0.064
 9881SOL     OW30541   5.095   0.772   4.553
 9881SOL    HW130542   5.069   0.868   4.559
 9881SOL    HW230543   5.084   0.728   4.642
 9882SOL     OW30544   3.930   3.017   4.680
 9882SOL    HW130545   3.844   3.059   4.652
 9882SOL    HW230546   4.006   3.070   4.642
 9883SOL     OW30547   2.073   6.105   0.830
 9883SOL    HW130548   2.100   6.041   0.902
 9883SOL    HW230549   2.147   6.172   0.817
 9884SOL     OW30550   1.493   3.132   6.859
 9884SOL    HW130551   1.480   3.129   6.760
 9884SOL    HW230552   1.535   3.219   6.884
 9885SOL     OW30553   6.569   3.214   3.708
 9885SOL    HW130554   6.661   3.229   3.673
 9885SOL    HW230555   6.569   3.135   3.769
 9886SOL     OW30556   5.378   6.318   1.378
 9886SOL    HW130557   5.435   6.372   1.316
 9886SOL    HW230558   5.364   6.370   1.463
 9887SOL     OW30559   3.675   6.502   0.488
 9887SOL    HW130560   3.688   6.600   0.473
 9887SOL    HW230561   3.614   6.488   0.566
 9888SOL     OW30562   5.657   6.029   2.504
 9888SOL    HW130563   5.678   5.950   2.561
 9888SOL    HW230564   5.738   6.087   2.496
 9889SOL     OW30565   0.367   4.857   3.287
 9889SOL    HW130566   0.432   4.846   3.212
 9889SOL    HW230567   0.366   4.952   3.317
 9890SOL     OW30568   6.552   3.410   0.952
 9890SOL    HW130569   6.456   3.440   0.958
 9890SOL    HW230570   6.583   3.416   0.857
 9891SOL     OW30571   4.922   5.221   0.585
 9891SOL    HW130572   4.962   5.291   0.526
 9891SOL    HW230573   4.968   5.221   0.674
 9892SOL     OW30574   1.992   5.532   4.122
 9892SOL    HW130575   1.923   5.531   4.050
 9892SOL    HW230576   2.082   5.514   4.082
 9893SOL     OW30577   5.919   5.068   2.864
 9893SOL    HW130578   5.922   4.984   2.917
 9893SOL    HW230579   5.944   5.049   2.769
 9894SOL     OW30580   3.639   2.275   5.813
 9894SOL    HW130581   3.624   2.298   5.717
 9894SOL    HW230582   3.553   2.243   5.853
 9895SOL     OW30583   5.337   2.567   6.370
 9895SOL    HW130584   5.321   2.511   6.451
 9895SOL    HW230585   5.293   2.656   6.382
 9896SOL     OW30586   3.403   3.212   0.876
 9896SOL    HW130587   3.469   3.284   0.855
 9896SOL    HW230588   3.399   3.198   0.975
 9897SOL     OW30589   4.918   1.517   2.698
 9897SOL    HW130590   4.973   1.434   2.698
 9897SOL    HW230591   4.967   1.590   2.649
 9898SOL     OW30592   1.128   5.103   5.258
 9898SOL    HW130593   1.142   5.146   5.169
 9898SOL    HW230594   1.073   5.164   5.316
 9899SOL     OW30595   5.125   4.902   2.043
 9899SOL    HW130596   5.103   4.988   1.997
 9899SOL    HW230597   5.068   4.892   2.124
 9900SOL     OW30598   1.651   2.165   3.913
 9900SOL    HW130599   1.648   2.255   3.956
 9900SOL    HW230600   1.692   2.172   3.822
 9901SOL     OW30601   2.217   2.366   6.257
 9901SOL    HW130602   2.196   2.268   6.258
 9901SOL    HW230603   2.182   2.409   6.340
 9902SOL     OW30604   3.604   3.869   0.879
 9902SOL    HW130605   3.661   3.828   0.809
 9902SOL    HW230606   3.508   3.866   0.850
 9903SOL     OW30607   4.583   2.303   2.539
 9903SOL    HW130608   4.644   2.235   2.500
 9903SOL    HW230609   4.588   2.387   2.485
 9904SOL     OW30610   6.900   2.517   6.981
 9904SOL    HW130611   6.935   2.423   6.989
 9904SOL    HW230612   6.976   2.581   6.991
 9905SOL     OW30613   1.331   6.001   6.418
 9905SOL    HW130614   1.370   6.012   6.327
 9905SOL    HW230615   1.396   6.035   6.486
 9906SOL     OW30616   2.130   2.986   6.314
 9906SOL    HW130617   2.128   2.998   6.414
 9906SOL    HW230618   2.049   2.935   6.285
 9907SOL     OW30619   2.371   6.058   3.076
 9907SOL    HW130620   2.297   5.996   3.102
 9907SOL    HW230621   2.367   6.076   2.978
 9908SOL     OW30622   0.610   3.480   6.450
 9908SOL    HW130623   0.627   3.478   6.352
 9908SOL    HW230624   0.517   3.514   6.467
 9909SOL     OW30625   3.228   1.482   2.942
 9909SOL    HW130626   3.156   1.453   3.006
 9909SOL    HW230627   3.304   1.521   2.993
 9910SOL     OW30628   6.558   4.813   1.030
 9910SOL    HW130629   6.647   4.789   1.069
 9910SOL    HW230630   6.489   4.747   1.061
 9911SOL     OW30631   4.412   4.891   3.539
 9911SOL    HW130632   4.338   4.859   3.597
 9911SOL    HW230633   4.378   4.905   3.446
 9912SOL     OW30634   4.848   0.135   2.138
 9912SOL    HW130635   4.931   0.083   2.159
 9912SOL    HW230636   4.824   0.193   2.216
 9913SOL     OW30637   5.456   2.877   2.830
 9913SOL    HW130638   5.518   2.955   2.832
 9913SOL    HW230639   5.505   2.794   2.857
 9914SOL     OW30640   1.724   0.119   5.268
 9914SOL    HW130641   1.822   0.133   5.259
 9914SOL    HW230642   1.679   0.207   5.282
 9915SOL     OW30643   4.994   3.638   4.076
 9915SOL    HW130644   4.934   3.627   3.996
 9915SOL    HW230645   5.083   3.596   4.057
 9916SOL     OW30646   2.220   2.971   2.289
 9916SOL    HW130647   2.250   3.021   2.371
 9916SOL    HW230648   2.231   3.030   2.209
 9917SOL     OW30649   3.376   3.920   5.495
 9917SOL    HW130650   3.439   3.886   5.425
 9917SOL    HW230651   3.423   3.925   5.583
 9918SOL     OW30652   2.194   1.367   6.278
 9918SOL    HW130653   2.216   1.373   6.180
 9918SOL    HW230654   2.188   1.459   6.316
 9919SOL     OW30655   1.267   5.959   2.199
 9919SOL    HW130656   1.349   5.949   2.256
 9919SOL    HW230657   1.271   5.893   2.124
 9920SOL     OW30658   3.860   6.280   1.289
 9920SOL    HW130659   3.836   6.294   1.192
 9920SOL    HW230660   3.865   6.369   1.335
 9921SOL     OW30661   6.062   0.067   3.124
 9921SOL    HW130662   6.111   0.132   3.067
 9921SOL    HW230663   6.047   0.106   3.215
 9922SOL     OW30664   4.384   4.667   0.660
 9922SOL    HW130665   4.315   4.696   0.593
 9922SOL    HW230666   4.378   4.569   0.675
 9923SOL     OW30667   6.473   2.171   6.167
 9923SOL    HW130668   6.552   2.151   6.110
 9923SOL    HW230669   6.431   2.086   6.197
 9924SOL     OW30670   6.715   1.589   2.971
 9924SOL    HW130671   6.679   1.510   2.921
 9924SOL    HW230672   6.688   1.582   3.068
 9925SOL     OW30673   2.643   3.706   5.888
 9925SOL    HW130674   2.549   3.681   5.866
 9925SOL    HW230675   2.706   3.635   5.856
 9926SOL     OW30676   1.411   1.516   0.757
 9926SOL    HW130677   1.316   1.524   0.784
 9926SOL    HW230678   1.428   1.424   0.722
 9927SOL     OW30679   0.585   1.983   2.621
 9927SOL    HW130680   0.596   1.931   2.706
 9927SOL    HW230681   0.508   2.047   2.631
 9928SOL     OW30682   0.487   4.330   2.002
 9928SOL    HW130683   0.515   4.323   1.906
 9928SOL    HW230684   0.537   4.405   2.046
 9929SOL     OW30685   3.361   4.409   5.922
 9929SOL    HW130686   3.456   4.399   5.949
 9929SOL    HW230687   3.310   4.456   5.994
 9930SOL     OW30688   6.917   0.343   6.602
 9930SOL    HW130689   6.946   0.266   6.545
 9930SOL    HW230690   6.829   0.322   6.644
 9931SOL     OW30691   1.344   6.343   5.221
 9931SOL    HW130692   1.324   6.246   5.230
 9931SOL    HW230693   1.438   6.361   5.251
 9932SOL     OW30694   2.072   1.633   0.900
 9932SOL    HW130695   1.990   1.619   0.956
 9932SOL    HW230696   2.072   1.727   0.864
 9933SOL     OW30697   2.833   1.048   3.125
 9933SOL    HW130698   2.743   1.023   3.162
 9933SOL    HW230699   2.887   1.092   3.197
 9934SOL     OW30700   5.712   1.644   6.225
 9934SOL    HW130701   5.613   1.645   6.210
 9934SOL    HW230702   5.738   1.718   6.286
 9935SOL     OW30703   2.667   2.085   0.406
 9935SOL    HW130704   2.662   2.067   0.504
 9935SOL    HW230705   2.762   2.079   0.376
 9936SOL     OW30706   5.053   5.440   5.710
 9936SOL    HW130707   5.041   5.366   5.776
 9936SOL    HW230708   5.040   5.528   5.755
 9937SOL     OW30709   0.372   0.209   2.920
 9937SOL    HW130710   0.387   0.244   3.013
 9937SOL    HW230711   0.274   0.212   2.899
 9938SOL     OW30712   6.743   1.186   4.525
 9938SOL    HW130713   6.718   1.131   4.446
 9938SOL    HW230714   6.842   1.204   4.524
 9939SOL     OW30715   2.248   3.853   0.771
 9939SOL    HW130716   2.174   3.794   0.800
 9939SOL    HW230717   2.270   3.836   0.675
 9940SOL     OW30718   0.504   6.929   3.014
 9940SOL    HW130719   0.405   6.919   3.018
 9940SOL    HW230720   0.527   0.008   3.017
 9941SOL     OW30721   4.135   4.835   5.556
 9941SOL    HW130722   4.105   4.820   5.462
 9941SOL    HW230723   4.165   4.748   5.595
 9942SOL     OW30724   4.554   4.672   3.653
 9942SOL    HW130725   4.645   4.712   3.667
 9942SOL    HW230726   4.498   4.735   3.599
 9943SOL     OW30727   1.824   3.514   0.185
 9943SOL    HW130728   1.901   3.576   0.202
 9943SOL    HW230729   1.766   3.552   0.112
 9944SOL     OW30730   1.524   5.034   0.138
 9944SOL    HW130731   1.597   5.032   0.070
 9944SOL    HW230732   1.460   4.960   0.121
 9945SOL     OW30733   6.186   3.937   0.294
 9945SOL    HW130734   6.207   3.972   0.386
 9945SOL    HW230735   6.177   3.837   0.298
 9946SOL     OW30736   5.689   1.134   2.695
 9946SOL    HW130737   5.648   1.198   2.761
 9946SOL    HW230738   5.669   1.165   2.602
 9947SOL     OW30739   1.400   1.884   4.272
 9947SOL    HW130740   1.306   1.918   4.268
 9947SOL    HW230741   1.450   1.913   4.190
 9948SOL     OW30742   6.830   0.448   3.776
 9948SOL    HW130743   6.789   0.410   3.693
 9948SOL    HW230744   6.822   0.383   3.851
 9949SOL     OW30745   6.580   4.327   4.855
 9949SOL    HW130746   6.514   4.270   4.806
 9949SOL    HW230747   6.556   4.330   4.952
 9950SOL     OW30748   6.475   5.092   6.118
 9950SOL    HW130749   6.441   5.023   6.182
 9950SOL    HW230750   6.497   5.049   6.031
 9951SOL     OW30751   0.625   3.005   2.820
 9951SOL    HW130752   0.631   2.942   2.743
 9951SOL    HW230753   0.540   3.058   2.813
 9952SOL     OW30754   0.594   4.369   1.761
 9952SOL    HW130755   0.603   4.468   1.765
 9952SOL    HW230756   0.655   4.333   1.690
 9953SOL     OW30757   6.355   2.457   3.562
 9953SOL    HW130758   6.309   2.506   3.636
 9953SOL    HW230759   6.290   2.442   3.487
 9954SOL     OW30760   2.896   1.391   5.899
 9954SOL    HW130761   2.900   1.482   5.939
 9954SOL    HW230762   2.893   1.399   5.799
 9955SOL     OW30763   4.638   3.357   0.959
 9955SOL    HW130764   4.648   3.456   0.969
 9955SOL    HW230765   4.707   3.323   0.895
 9956SOL     OW30766   1.352   4.834   3.155
 9956SOL    HW130767   1.409   4.903   3.111
 9956SOL    HW230768   1.310   4.776   3.085
 9957SOL     OW30769   5.206   6.757   1.862
 9957SOL    HW130770   5.270   6.689   1.898
 9957SOL    HW230771   5.240   6.849   1.881
 9958SOL     OW30772   4.349   4.945   5.902
 9958SOL    HW130773   4.410   4.926   5.979
 9958SOL    HW230774   4.255   4.955   5.934
 9959SOL     OW30775   4.428   4.232   0.964
 9959SOL    HW130776   4.481   4.255   1.046
 9959SOL    HW230777   4.344   4.184   0.991
 9960SOL     OW30778   6.387   6.844   0.393
 9960SOL    HW130779   6.334   6.788   0.331
 9960SOL    HW230780   6.465   6.884   0.344
 9961SOL     OW30781   2.162   4.202   1.894
 9961SOL    HW130782   2.156   4.300   1.909
 9961SOL    HW230783   2.105   4.176   1.815
 9962SOL     OW30784   3.311   5.340   2.534
 9962SOL    HW130785   3.404   5.305   2.528
 9962SOL    HW230786   3.302   5.419   2.473
 9963SOL     OW30787   1.997   1.369   0.531
 9963SOL    HW130788   2.073   1.354   0.594
 9963SOL    HW230789   1.936   1.439   0.567
 9964SOL     OW30790   4.645   4.565   5.320
 9964SOL    HW130791   4.610   4.471   5.318
 9964SOL    HW230792   4.738   4.565   5.358
 9965SOL     OW30793   2.730   6.058   5.196
 9965SOL    HW130794   2.654   6.115   5.167
 9965SOL    HW230795   2.791   6.041   5.118
 9966SOL     OW30796   2.787   4.799   2.175
 9966SOL    HW130797   2.876   4.840   2.197
 9966SOL    HW230798   2.798   4.736   2.097
 9967SOL     OW30799   6.473   0.017   2.235
 9967SOL    HW130800   6.415   0.033   2.314
 9967SOL    HW230801   6.452   6.946   2.196
 9968SOL     OW30802   4.320   6.107   0.007
 9968SOL    HW130803   4.263   6.025   0.001
 9968SOL    HW230804   4.263   6.188   7.012
 9969SOL     OW30805   0.944   4.399   4.628
 9969SOL    HW130806   1.038   4.370   4.641
 9969SOL    HW230807   0.886   4.319   4.608
 9970SOL     OW30808   5.360   5.158   1.874
 9970SOL    HW130809   5.447   5.208   1.878
 9970SOL    HW230810   5.376   5.062   1.894
 9971SOL     OW30811   1.262   3.107   1.788
 9971SOL    HW130812   1.306   3.029   1.743
 9971SOL    HW230813   1.290   3.110   1.884
 9972SOL     OW30814   3.780   3.949   0.679
 9972SOL    HW130815   3.830   3.930   0.595
 9972SOL    HW230816   3.831   4.015   0.734
 9973SOL     OW30817   3.955   1.600   4.121
 9973SOL    HW130818   3.985   1.695   4.126
 9973SOL    HW230819   3.957   1.560   4.213
 9974SOL     OW30820   6.916   2.392   3.507
 9974SOL    HW130821   6.967   2.330   3.567
 9974SOL    HW230822   6.919   2.358   3.413
 9975SOL     OW30823   1.045   5.253   6.485
 9975SOL    HW130824   1.051   5.163   6.441
 9975SOL    HW230825   1.057   5.324   6.415
 9976SOL     OW30826   2.078   4.968   5.598
 9976SOL    HW130827   2.050   5.063   5.585
 9976SOL    HW230828   2.127   4.960   5.684
 9977SOL     OW30829   5.414   5.102   4.629
 9977SOL    HW130830   5.318   5.116   4.603
 9977SOL    HW230831   5.430   5.143   4.719
 9978SOL     OW30832   0.346   1.871   6.170
 9978SOL    HW130833   0.431   1.924   6.167
 9978SOL    HW230834   0.363   1.783   6.214
 9979SOL     OW30835   4.991   3.343   5.508
 9979SOL    HW130836   4.954   3.369   5.419
 9979SOL    HW230837   4.970   3.415   5.575
 9980SOL     OW30838   1.451   0.857   0.101
 9980SOL    HW130839   1.433   0.933   0.039
 9980SOL    HW230840   1.489   0.892   0.186
 9981SOL     OW30841   0.995   2.446   0.895
 9981SOL    HW130842   1.020   2.426   0.800
 9981SOL    HW230843   0.955   2.538   0.899
 9982SOL     OW30844   2.567   1.186   5.153
 9982SOL    HW130845   2.585   1.095   5.191
 9982SOL    HW230846   2.625   1.253   5.198
 9983SOL     OW30847   6.394   2.843   2.328
 9983SOL    HW130848   6.350   2.887   2.407
 9983SOL    HW230849   6.460   2.907   2.288
 9984SOL     OW30850   0.252   6.192   1.351
 9984SOL    HW130851   0.205   6.140   1.279
 9984SOL    HW230852   0.276   6.283   1.316
 9985SOL     OW30853   3.335   5.166   0.603
 9985SOL    HW130854   3.379   5.206   0.684
 9985SOL    HW230855   3.374   5.207   0.520
 9986SOL     OW30856   5.025   4.627   0.640
 9986SOL    HW130857   4.926   4.624   0.629
 9986SOL    HW230858   5.065   4.684   0.568
 9987SOL     OW30859   5.688   3.281   1.402
 9987SOL    HW130860   5.741   3.203   1.367
 9987SOL    HW230861   5.665   3.266   1.498
 9988SOL     OW30862   6.066   6.018   3.936
 9988SOL    HW130863   6.126   5.942   3.959
 9988SOL    HW230864   5.993   6.025   4.004
 9989SOL     OW30865   6.432   3.845   1.348
 9989SOL    HW130866   6.526   3.854   1.382
 9989SOL    HW230867   6.376   3.918   1.386
 9990SOL     OW30868   0.300   6.377   3.542
 9990SOL    HW130869   0.304   6.307   3.613
 9990SOL    HW230870   0.386   6.428   3.540
 9991SOL     OW30871   1.694   4.021   3.553
 9991SOL    HW130872   1.687   4.050   3.649
 9991SOL    HW230873   1.660   3.928   3.544
 9992SOL     OW30874   3.302   4.071   1.042
 9992SOL    HW130875   3.240   4.142   1.009
 9992SOL    HW230876   3.396   4.106   1.043
 9993SOL     OW30877   3.217   5.922   4.001
 9993SOL    HW130878   3.197   6.013   4.038
 9993SOL    HW230879   3.148   5.857   4.032
 9994SOL     OW30880   0.306   3.884   4.069
 9994SOL    HW130881   0.257   3.939   4.002
 9994SOL    HW230882   0.405   3.891   4.052
 9995SOL     OW30883   2.943   0.666   4.678
 9995SOL    HW130884   3.004   0.732   4.636
 9995SOL    HW230885   2.870   0.642   4.615
 9996SOL     OW30886   2.488   4.088   0.398
 9996SOL    HW130887   2.525   4.020   0.462
 9996SOL    HW230888   2.464   4.044   0.312
 9997SOL     OW30889   5.323   1.858   3.943
 9997SOL    HW130890   5.281   1.948   3.948
 9997SOL    HW230891   5.253   1.788   3.930
 9998SOL     OW30892   4.765   4.058   2.516
 9998SOL    HW130893   4.849   4.002   2.512
 9998SOL    HW230894   4.715   4.048   2.430
 9999SOL     OW30895   0.912   0.144   3.892
 9999SOL    HW130896   1.005   0.139   3.931
 9999SOL    HW230897   0.897   0.066   3.833
10000SOL     OW30898   5.177   1.535   1.683
10000SOL    HW130899   5.083   1.511   1.705
10000SOL    HW230900   5.186   1.634   1.675
10001SOL     OW30901   3.198   6.621   2.367
10001SOL    HW130902   3.293   6.639   2.340
10001SOL    HW230903   3.179   6.523   2.355
10002SOL     OW30904   2.122   1.059   0.734
10002SOL    HW130905   2.195   1.034   0.670
10002SOL    HW230906   2.163   1.085   0.822
10003SOL     OW30907   2.861   1.581   2.384
10003SOL    HW130908   2.797   1.648   2.346
10003SOL    HW230909   2.811   1.496   2.405
10004SOL     OW30910   5.574   4.855   4.607
10004SOL    HW130911   5.509   4.931   4.619
10004SOL    HW230912   5.523   4.771   4.587
10005SOL     OW30913   2.610   5.659   3.503
10005SOL    HW130914   2.702   5.649   3.541
10005SOL    HW230915   2.545   5.610   3.562
10006SOL     OW30916   5.711   0.113   5.437
10006SOL    HW130917   5.789   0.134   5.497
10006SOL    HW230918   5.741   0.053   5.364
10007SOL     OW30919   0.660   3.795   4.970
10007SOL    HW130920   0.675   3.706   4.927
10007SOL    HW230921   0.713   3.864   4.920
10008SOL     OW30922   3.770   2.117   4.195
10008SOL    HW130923   3.828   2.038   4.178
10008SOL    HW230924   3.778   2.144   4.291
10009SOL     OW30925   2.014   3.704   1.672
10009SOL    HW130926   2.059   3.622   1.636
10009SOL    HW230927   2.034   3.713   1.769
10010SOL     OW30928   2.989   5.045   6.519
10010SOL    HW130929   2.939   5.000   6.445
10010SOL    HW230930   2.930   5.051   6.599
10011SOL     OW30931   0.139   4.378   0.205
10011SOL    HW130932   0.167   4.291   0.244
10011SOL    HW230933   0.164   4.452   0.268
10012SOL     OW30934   4.790   0.461   1.808
10012SOL    HW130935   4.846   0.379   1.817
10012SOL    HW230936   4.702   0.447   1.854
10013SOL     OW30937   1.440   4.658   5.222
10013SOL    HW130938   1.405   4.751   5.234
10013SOL    HW230939   1.401   4.599   5.292
10014SOL     OW30940   1.123   6.552   2.177
10014SOL    HW130941   1.082   6.630   2.225
10014SOL    HW230942   1.097   6.467   2.223
10015SOL     OW30943   3.614   5.292   7.015
10015SOL    HW130944   3.601   5.193   7.007
10015SOL    HW230945   3.595   5.336   6.927
10016SOL     OW30946   2.237   1.892   4.728
10016SOL    HW130947   2.201   1.799   4.734
10016SOL    HW230948   2.333   1.892   4.758
10017SOL     OW30949   2.293   1.797   2.556
10017SOL    HW130950   2.246   1.721   2.600
10017SOL    HW230951   2.341   1.764   2.474
10018SOL     OW30952   6.607   3.850   5.703
10018SOL    HW130953   6.679   3.882   5.765
10018SOL    HW230954   6.553   3.780   5.749
10019SOL     OW30955   0.361   1.631   3.500
10019SOL    HW130956   0.324   1.623   3.593
10019SOL    HW230957   0.308   1.573   3.438
10020SOL     OW30958   0.005   0.970   1.866
10020SOL    HW130959   7.010   1.069   1.871
10020SOL    HW230960   7.013   0.931   1.958
10021SOL     OW30961   0.969   2.858   1.870
10021SOL    HW130962   0.915   2.896   1.795
10021SOL    HW230963   0.940   2.765   1.890
10022SOL     OW30964   2.235   5.794   6.987
10022SOL    HW130965   2.268   5.840   6.905
10022SOL    HW230966   2.269   5.842   0.050
10023SOL     OW30967   2.691   6.216   5.701
10023SOL    HW130968   2.760   6.173   5.760
10023SOL    HW230969   2.635   6.145   5.658
10024SOL     OW30970   1.488   5.220   2.972
10024SOL    HW130971   1.529   5.261   2.891
10024SOL    HW230972   1.390   5.204   2.956
10025SOL     OW30973   1.842   3.118   1.995
10025SOL    HW130974   1.891   3.075   2.070
10025SOL    HW230975   1.752   3.148   2.027
10026SOL     OW30976   5.091   1.303   2.952
10026SOL    HW130977   5.105   1.400   2.971
10026SOL    HW230978   5.047   1.260   3.031
10027SOL     OW30979   1.023   2.589   5.291
10027SOL    HW130980   1.042   2.682   5.259
10027SOL    HW230981   1.092   2.563   5.359
10028SOL     OW30982   3.120   0.989   0.829
10028SOL    HW130983   3.163   1.013   0.916
10028SOL    HW230984   3.078   0.899   0.836
10029SOL     OW30985   0.321   3.329   4.428
10029SOL    HW130986   0.281   3.261   4.366
10029SOL    HW230987   0.257   3.405   4.439
10030SOL     OW30988   3.029   6.724   5.173
10030SOL    HW130989   2.997   6.637   5.136
10030SOL    HW230990   3.010   6.798   5.108
10031SOL     OW30991   4.499   4.928   4.431
10031SOL    HW130992   4.524   4.995   4.501
10031SOL    HW230993   4.450   4.975   4.357
10032SOL     OW30994   3.719   0.174   6.332
10032SOL    HW130995   3.636   0.135   6.293
10032SOL    HW230996   3.780   0.101   6.360
10033SOL     OW30997   3.982   1.458   4.600
10033SOL    HW130998   3.916   1.401   4.550
10033SOL    HW230999   4.023   1.523   4.537
10034SOL     OW31000   2.519   0.872   3.920
10034SOL    HW131001   2.444   0.876   3.985
10034SOL    HW231002   2.485   0.893   3.828
10035SOL     OW31003   5.541   3.897   0.846
10035SOL    HW131004   5.504   3.988   0.863
10035SOL    HW231005   5.633   3.890   0.884
10036SOL     OW31006   6.558   0.967   0.684
10036SOL    HW131007   6.528   0.903   0.614
10036SOL    HW231008   6.535   1.060   0.656
10037SOL     OW31009   6.556   0.171   6.363
10037SOL    HW131010   6.608   0.240   6.412
10037SOL    HW231011   6.613   0.131   6.291
10038SOL     OW31012   4.394   6.684   6.278
10038SOL    HW131013   4.411   6.627   6.358
10038SOL    HW231014   4.298   6.709   6.274
10039SOL     OW31015   4.910   6.190   4.852
10039SOL    HW131016   4.905   6.281   4.894
10039SOL    HW231017   4.822   6.143   4.863
10040SOL     OW31018   4.824   6.094   6.935
10040SOL    HW131019   4.744   6.147   6.966
10040SOL    HW231020   4.826   6.092   6.835
10041SOL     OW31021   5.907   5.531   5.159
10041SOL    HW131022   5.825   5.583   5.133
10041SOL    HW231023   5.931   5.468   5.086
10042SOL     OW31024   0.762   0.868   5.043
10042SOL    HW131025   0.824   0.805   4.996
10042SOL    HW231026   0.679   0.880   4.989
10043SOL     OW31027   0.564   0.199   3.146
10043SOL    HW131028   0.536   0.127   3.210
10043SOL    HW231029   0.552   0.288   3.190
10044SOL     OW31030   2.653   1.665   4.060
10044SOL    HW131031   2.607   1.581   4.031
10044SOL    HW231032   2.634   1.682   4.157
10045SOL     OW31033   5.357   0.121   4.121
10045SOL    HW131034   5.296   0.165   4.188
10045SOL    HW231035   5.450   0.153   4.136
10046SOL     OW31036   0.527   1.727   1.634
10046SOL    HW131037   0.484   1.695   1.718
10046SOL    HW231038   0.621   1.692   1.629
10047SOL     OW31039   6.289   3.068   5.093
10047SOL    HW131040   6.343   3.149   5.072
10047SOL    HW231041   6.308   2.997   5.025
10048SOL     OW31042   3.807   1.578   1.953
10048SOL    HW131043   3.729   1.521   1.978
10048SOL    HW231044   3.775   1.668   1.924
10049SOL     OW31045   0.696   0.850   6.428
10049SOL    HW131046   0.795   0.841   6.440
10049SOL    HW231047   0.671   0.947   6.429
10050SOL     OW31048   6.178   2.554   5.135
10050SOL    HW131049   6.239   2.633   5.139
10050SOL    HW231050   6.102   2.568   5.198
10051SOL     OW31051   6.466   2.647   4.977
10051SOL    HW131052   6.452   2.679   5.070
10051SOL    HW231053   6.489   2.550   4.977
10052SOL     OW31054   2.105   2.590   2.284
10052SOL    HW131055   2.030   2.561   2.225
10052SOL    HW231056   2.069   2.652   2.355
10053SOL     OW31057   3.766   5.186   1.971
10053SOL    HW131058   3.764   5.091   2.003
10053SOL    HW231059   3.779   5.188   1.872
10054SOL     OW31060   3.867   6.432   5.839
10054SOL    HW131061   3.902   6.338   5.843
10054SOL    HW231062   3.828   6.457   5.927
10055SOL     OW31063   6.226   2.177   5.499
10055SOL    HW131064   6.226   2.255   5.562
10055SOL    HW231065   6.269   2.204   5.413
10056SOL     OW31066   6.065   5.328   0.877
10056SOL    HW131067   6.011   5.394   0.929
10056SOL    HW231068   6.148   5.371   0.842
10057SOL     OW31069   3.463   0.924   4.590
10057SOL    HW131070   3.492   0.954   4.499
10057SOL    HW231071   3.515   0.973   4.660
10058SOL     OW31072   0.315   3.810   4.353
10058SOL    HW131073   0.319   3.825   4.254
10058SOL    HW231074   0.391   3.751   4.380
10059SOL     OW31075   4.856   6.851   0.829
10059SOL    HW131076   4.788   6.801   0.883
10059SOL    HW231077   4.870   6.941   0.869
10060SOL     OW31078   2.502   1.354   1.973
10060SOL    HW131079   2.496   1.443   1.926
10060SOL    HW231080   2.527   1.283   1.907
10061SOL     OW31081   4.881   1.406   4.107
10061SOL    HW131082   4.869   1.331   4.172
10061SOL    HW231083   4.792   1.445   4.084
10062SOL     OW31084   6.408   6.799   4.791
10062SOL    HW131085   6.470   6.730   4.828
10062SOL    HW231086   6.336   6.754   4.738
10063SOL     OW31087   1.866   1.794   3.174
10063SOL    HW131088   1.926   1.867   3.141
10063SOL    HW231089   1.778   1.800   3.126
10064SOL     OW31090   5.806   5.576   6.004
10064SOL    HW131091   5.795   5.659   6.059
10064SOL    HW231092   5.902   5.567   5.978
10065SOL     OW31093   2.177   0.450   1.948
10065SOL    HW131094   2.097   0.498   1.911
10065SOL    HW231095   2.234   0.418   1.872
10066SOL     OW31096   1.738   1.481   4.345
10066SOL    HW131097   1.711   1.570   4.308
10066SOL    HW231098   1.799   1.494   4.423
10067SOL     OW31099   5.579   3.864   5.805
10067SOL    HW131100   5.636   3.812   5.868
10067SOL    HW231101   5.482   3.849   5.826
10068SOL     OW31102   5.169   3.156   3.993
10068SOL    HW131103   5.228   3.221   4.040
10068SOL    HW231104   5.221   3.107   3.924
10069SOL     OW31105   1.829   5.542   3.915
10069SOL    HW131106   1.783   5.461   3.881
10069SOL    HW231107   1.854   5.601   3.838
10070SOL     OW31108   0.166   0.533   4.804
10070SOL    HW131109   0.091   0.557   4.742
10070SOL    HW231110   0.239   0.601   4.796
10071SOL     OW31111   4.949   5.340   3.912
10071SOL    HW131112   5.029   5.384   3.954
10071SOL    HW231113   4.869   5.398   3.925
10072SOL     OW31114   0.910   6.141   4.367
10072SOL    HW131115   0.879   6.162   4.460
10072SOL    HW231116   0.928   6.043   4.358
10073SOL     OW31117   6.466   4.019   4.436
10073SOL    HW131118   6.433   4.109   4.408
10073SOL    HW231119   6.449   3.953   4.363
10074SOL     OW31120   0.738   0.663   5.243
10074SOL    HW131121   0.820   0.691   5.292
10074SOL    HW231122   0.722   0.725   5.166
10075SOL     OW31123   1.511   2.204   2.435
10075SOL    HW131124   1.567   2.143   2.491
10075SOL    HW231125   1.565   2.284   2.408
10076SOL     OW31126   5.731   0.650   3.280
10076SOL    HW131127   5.729   0.610   3.188
10076SOL    HW231128   5.755   0.747   3.274
10077SOL     OW31129   3.214   2.380   6.780
10077SOL    HW131130   3.250   2.384   6.874
10077SOL    HW231131   3.115   2.365   6.783
10078SOL     OW31132   6.903   6.201   4.470
10078SOL    HW131133   6.988   6.227   4.516
10078SOL    HW231134   6.828   6.202   4.535
10079SOL     OW31135   0.785   3.480   1.956
10079SOL    HW131136   0.782   3.534   1.872
10079SOL    HW231137   0.806   3.385   1.933
10080SOL     OW31138   3.275   1.839   6.380
10080SOL    HW131139   3.185   1.860   6.417
10080SOL    HW231140   3.268   1.827   6.281
10081SOL     OW31141   0.014   0.419   6.909
10081SOL    HW131142   0.028   0.443   6.813
10081SOL    HW231143   0.082   0.465   6.966
10082SOL     OW31144   6.873   3.774   2.320
10082SOL    HW131145   6.896   3.688   2.366
10082SOL    HW231146   6.774   3.785   2.318
10083SOL     OW31147   5.466   0.932   2.931
10083SOL    HW131148   5.507   0.901   3.016
10083SOL    HW231149   5.399   1.004   2.950
10084SOL     OW31150   3.683   0.737   5.832
10084SOL    HW131151   3.781   0.753   5.842
10084SOL    HW231152   3.641   0.730   5.922
10085SOL     OW31153   0.220   5.793   2.180
10085SOL    HW131154   0.192   5.711   2.131
10085SOL    HW231155   0.160   5.806   2.260
10086SOL     OW31156   6.265   5.077   1.976
10086SOL    HW131157   6.279   5.095   2.073
10086SOL    HW231158   6.196   5.139   1.940
10087SOL     OW31159   0.764   6.952   4.283
10087SOL    HW131160   0.842   6.952   4.346
10087SOL    HW231161   0.711   6.868   4.296
10088SOL     OW31162   6.601   6.870   6.869
10088SOL    HW131163   6.592   6.958   6.821
10088SOL    HW231164   6.511   6.842   6.902
10089SOL     OW31165   2.506   2.570   3.255
10089SOL    HW131166   2.531   2.590   3.160
10089SOL    HW231167   2.421   2.519   3.257
10090SOL     OW31168   0.974   4.780   0.971
10090SOL    HW131169   0.977   4.710   1.043
10090SOL    HW231170   1.049   4.766   0.907
10091SOL     OW31171   1.235   3.319   4.788
10091SOL    HW131172   1.248   3.418   4.782
10091SOL    HW231173   1.314   3.273   4.746
10092SOL     OW31174   2.129   3.389   5.728
10092SOL    HW131175   2.095   3.357   5.639
10092SOL    HW231176   2.192   3.465   5.714
10093SOL     OW31177   1.168   4.075   4.688
10093SOL    HW131178   1.232   4.048   4.760
10093SOL    HW231179   1.173   4.174   4.676
10094SOL     OW31180   2.641   6.011   1.747
10094SOL    HW131181   2.554   6.017   1.698
10094SOL    HW231182   2.627   5.956   1.830
10095SOL     OW31183   6.374   2.134   5.859
10095SOL    HW131184   6.407   2.143   5.953
10095SOL    HW231185   6.369   2.224   5.817
10096SOL     OW31186   5.980   5.002   2.216
10096SOL    HW131187   6.046   5.074   2.196
10096SOL    HW231188   6.028   4.914   2.221
10097SOL     OW31189   1.388   1.058   6.932
10097SOL    HW131190   1.338   1.137   6.968
10097SOL    HW231191   1.345   1.028   6.846
10098SOL     OW31192   2.120   0.160   5.468
10098SOL    HW131193   2.054   0.156   5.393
10098SOL    HW231194   2.116   0.250   5.511
10099SOL     OW31195   6.954   5.206   6.589
10099SOL    HW131196   6.870   5.250   6.557
10099SOL    HW231197   7.012   5.274   6.633
10100SOL     OW31198   5.579   0.266   4.217
10100SOL    HW131199   5.630   0.211   4.284
10100SOL    HW231200   5.520   0.331   4.265
10101SOL     OW31201   5.546   4.151   1.693
10101SOL    HW131202   5.608   4.153   1.615
10101SOL    HW231203   5.584   4.205   1.768
10102SOL     OW31204   1.639   0.863   2.817
10102SOL    HW131205   1.693   0.780   2.830
10102SOL    HW231206   1.672   0.934   2.879
10103SOL     OW31207   2.748   1.248   5.390
10103SOL    HW131208   2.824   1.206   5.339
10103SOL    HW231209   2.727   1.193   5.470
10104SOL     OW31210   1.670   3.071   4.908
10104SOL    HW131211   1.744   3.015   4.946
10104SOL    HW231212   1.710   3.146   4.854
10105SOL     OW31213   1.217   1.149   0.283
10105SOL    HW131214   1.199   1.221   0.350
10105SOL    HW231215   1.196   1.183   0.192
10106SOL     OW31216   4.623   5.420   0.934
10106SOL    HW131217   4.719   5.431   0.962
10106SOL    HW231218   4.579   5.509   0.929
10107SOL     OW31219   0.355   1.622   6.988
10107SOL    HW131220   0.300   1.666   0.042
10107SOL    HW231221   0.383   1.531   7.018
10108SOL     OW31222   6.192   5.855   6.958
10108SOL    HW131223   6.148   5.943   6.978
10108SOL    HW231224   6.124   5.782   6.967
10109SOL     OW31225   3.409   6.295   2.012
10109SOL    HW131226   3.448   6.208   1.982
10109SOL    HW231227   3.451   6.323   2.099
10110SOL     OW31228   4.393   6.753   4.575
10110SOL    HW131229   4.459   6.810   4.624
10110SOL    HW231230   4.300   6.783   4.596
10111SOL     OW31231   6.298   2.842   4.149
10111SOL    HW131232   6.284   2.767   4.214
10111SOL    HW231233   6.220   2.904   4.153
10112SOL     OW31234   5.488   4.226   4.624
10112SOL    HW131235   5.578   4.253   4.591
10112SOL    HW231236   5.478   4.253   4.720
10113SOL     OW31237   4.142   1.227   5.703
10113SOL    HW131238   4.161   1.320   5.672
10113SOL    HW231239   4.177   1.214   5.796
10114SOL     OW31240   5.225   0.713   0.956
10114SOL    HW131241   5.278   0.721   0.871
10114SOL    HW231242   5.185   0.621   0.961
10115SOL     OW31243   3.166   2.124   3.628
10115SOL    HW131244   3.253   2.099   3.671
10115SOL    HW231245   3.177   2.127   3.529
10116SOL     OW31246   0.590   6.625   0.119
10116SOL    HW131247   0.684   6.660   0.122
10116SOL    HW231248   0.591   6.525   0.123
10117SOL     OW31249   6.976   0.069   5.193
10117SOL    HW131250   0.002   0.110   5.114
10117SOL    HW231251   6.878   0.087   5.190
10118SOL     OW31252   0.835   5.258   3.055
10118SOL    HW131253   0.868   5.265   2.961
10118SOL    HW231254   0.865   5.338   3.107
10119SOL     OW31255   1.055   6.443   4.665
10119SOL    HW131256   1.065   6.458   4.566
10119SOL    HW231257   1.129   6.384   4.697
10120SOL     OW31258   1.265   3.880   4.185
10120SOL    HW131259   1.319   3.962   4.166
10120SOL    HW231260   1.215   3.893   4.270
10121SOL     OW31261   6.490   4.954   5.876
10121SOL    HW131262   6.569   4.893   5.884
10121SOL    HW231263   6.414   4.905   5.835
10122SOL     OW31264   5.417   2.959   0.828
10122SOL    HW131265   5.366   3.009   0.898
10122SOL    HW231266   5.492   3.016   0.795
10123SOL     OW31267   6.410   6.248   0.409
10123SOL    HW131268   6.404   6.173   0.342
10123SOL    HW231269   6.418   6.335   0.360
10124SOL     OW31270   1.626   3.356   6.994
10124SOL    HW131271   1.619   3.398   6.904
10124SOL    HW231272   1.721   3.327   7.010
10125SOL     OW31273   1.348   0.727   2.574
10125SOL    HW131274   1.291   0.805   2.602
10125SOL    HW231275   1.418   0.711   2.644
10126SOL     OW31276   0.406   0.235   6.738
10126SOL    HW131277   0.331   0.209   6.799
10126SOL    HW231278   0.391   0.193   6.648
10127SOL     OW31279   2.921   5.006   5.658
10127SOL    HW131280   2.873   4.919   5.674
10127SOL    HW231281   2.859   5.082   5.675
10128SOL     OW31282   0.736   1.654   1.407
10128SOL    HW131283   0.654   1.618   1.363
10128SOL    HW231284   0.744   1.752   1.387
10129SOL     OW31285   5.094   2.946   4.146
10129SOL    HW131286   5.130   3.024   4.096
10129SOL    HW231287   5.081   2.869   4.084
10130SOL     OW31288   2.185   4.159   2.419
10130SOL    HW131289   2.247   4.190   2.347
10130SOL    HW231290   2.131   4.236   2.453
10131SOL     OW31291   0.520   0.661   2.795
10131SOL    HW131292   0.541   0.740   2.851
10131SOL    HW231293   0.588   0.652   2.723
10132SOL     OW31294   2.713   6.839   4.001
10132SOL    HW131295   2.787   6.898   3.967
10132SOL    HW231296   2.725   6.747   3.966
10133SOL     OW31297   4.997   6.269   1.571
10133SOL    HW131298   4.914   6.306   1.612
10133SOL    HW231299   5.049   6.343   1.528
10134SOL     OW31300   6.743   0.057   4.033
10134SOL    HW131301   6.838   0.078   4.013
10134SOL    HW231302   6.706   0.125   4.096
10135SOL     OW31303   5.355   2.961   3.344
10135SOL    HW131304   5.277   2.907   3.378
10135SOL    HW231305   5.431   2.900   3.324
10136SOL     OW31306   5.763   0.546   3.033
10136SOL    HW131307   5.858   0.576   3.030
10136SOL    HW231308   5.723   0.552   2.941
10137SOL     OW31309   5.982   4.591   4.175
10137SOL    HW131310   6.072   4.591   4.131
10137SOL    HW231311   5.920   4.533   4.122
10138SOL     OW31312   5.299   2.421   0.803
10138SOL    HW131313   5.389   2.380   0.816
10138SOL    HW231314   5.283   2.437   0.705
10139SOL     OW31315   3.587   3.803   3.483
10139SOL    HW131316   3.517   3.758   3.428
10139SOL    HW231317   3.549   3.824   3.574
10140SOL     OW31318   6.471   6.136   5.925
10140SOL    HW131319   6.487   6.170   5.833
10140SOL    HW231320   6.373   6.139   5.945
10141SOL     OW31321   3.228   1.338   3.940
10141SOL    HW131322   3.216   1.278   4.019
10141SOL    HW231323   3.188   1.428   3.960
10142SOL     OW31324   6.515   6.529   4.852
10142SOL    HW131325   6.441   6.463   4.841
10142SOL    HW231326   6.590   6.506   4.790
10143SOL     OW31327   4.451   0.626   0.449
10143SOL    HW131328   4.466   0.717   0.488
10143SOL    HW231329   4.504   0.617   0.364
10144SOL     OW31330   4.221   6.908   5.945
10144SOL    HW131331   4.241   6.810   5.935
10144SOL    HW231332   4.304   6.956   5.973
10145SOL     OW31333   3.291   5.752   5.686
10145SOL    HW131334   3.266   5.678   5.624
10145SOL    HW231335   3.310   5.835   5.633
10146SOL     OW31336   3.669   4.955   4.431
10146SOL    HW131337   3.634   4.952   4.525
10146SOL    HW231338   3.754   5.007   4.429
10147SOL     OW31339   5.445   4.360   4.877
10147SOL    HW131340   5.348   4.382   4.884
10147SOL    HW231341   5.480   4.333   4.967
10148SOL     OW31342   5.884   5.391   6.708
10148SOL    HW131343   5.823   5.401   6.630
10148SOL    HW231344   5.952   5.465   6.707
10149SOL     OW31345   5.830   1.937   1.097
10149SOL    HW131346   5.780   1.870   1.152
10149SOL    HW231347   5.891   1.890   1.034
10150SOL     OW31348   4.280   3.578   0.750
10150SOL    HW131349   4.269   3.608   0.845
10150SOL    HW231350   4.204   3.613   0.695
10151SOL     OW31351   1.300   6.637   0.164
10151SOL    HW131352   1.299   6.542   0.133
10151SOL    HW231353   1.284   6.698   0.086
10152SOL     OW31354   0.807   6.561   5.017
10152SOL    HW131355   0.883   6.499   5.034
10152SOL    HW231356   0.721   6.510   5.024
10153SOL     OW31357   5.207   5.918   3.765
10153SOL    HW131358   5.201   5.995   3.829
10153SOL    HW231359   5.177   5.947   3.674
10154SOL     OW31360   5.717   0.012   4.974
10154SOL    HW131361   5.741   6.970   4.898
10154SOL    HW231362   5.643   6.989   5.027
10155SOL     OW31363   3.452   1.877   5.740
10155SOL    HW131364   3.471   1.784   5.709
10155SOL    HW231365   3.464   1.941   5.664
10156SOL     OW31366   5.996   1.036   2.105
10156SOL    HW131367   6.032   0.951   2.142
10156SOL    HW231368   5.943   1.084   2.175
10157SOL     OW31369   6.078   2.801   6.507
10157SOL    HW131370   6.050   2.708   6.485
10157SOL    HW231371   6.002   2.864   6.492
10158SOL     OW31372   5.566   3.453   0.733
10158SOL    HW131373   5.606   3.415   0.816
10158SOL    HW231374   5.482   3.502   0.756
10159SOL     OW31375   3.034   3.196   6.260
10159SOL    HW131376   2.973   3.212   6.337
10159SOL    HW231377   3.101   3.126   6.285
10160SOL     OW31378   2.157   3.139   2.068
10160SOL    HW131379   2.191   3.204   1.999
10160SOL    HW231380   2.141   3.050   2.025
10161SOL     OW31381   3.527   3.392   6.469
10161SOL    HW131382   3.457   3.457   6.439
10161SOL    HW231383   3.483   3.309   6.504
10162SOL     OW31384   3.372   4.438   0.293
10162SOL    HW131385   3.427   4.420   0.212
10162SOL    HW231386   3.431   4.467   0.368
10163SOL     OW31387   5.419   5.370   5.781
10163SOL    HW131388   5.359   5.415   5.714
10163SOL    HW231389   5.494   5.325   5.733
10164SOL     OW31390   5.636   3.064   4.779
10164SOL    HW131391   5.643   3.159   4.748
10164SOL    HW231392   5.702   3.048   4.853
10165SOL     OW31393   0.598   1.656   3.115
10165SOL    HW131394   0.697   1.667   3.106
10165SOL    HW231395   0.572   1.567   3.079
10166SOL     OW31396   3.654   1.158   1.695
10166SOL    HW131397   3.580   1.224   1.680
10166SOL    HW231398   3.659   1.096   1.617
10167SOL     OW31399   2.708   2.595   6.667
10167SOL    HW131400   2.672   2.653   6.740
10167SOL    HW231401   2.649   2.602   6.586
10168SOL     OW31402   6.042   3.734   5.511
10168SOL    HW131403   5.971   3.746   5.441
10168SOL    HW231404   6.093   3.819   5.520
10169SOL     OW31405   6.357   3.679   3.325
10169SOL    HW131406   6.297   3.684   3.405
10169SOL    HW231407   6.334   3.753   3.262
10170SOL     OW31408   0.950   4.953   5.839
10170SOL    HW131409   0.933   4.970   5.742
10170SOL    HW231410   1.011   5.023   5.876
10171SOL     OW31411   6.717   3.236   5.658
10171SOL    HW131412   6.809   3.199   5.648
10171SOL    HW231413   6.682   3.217   5.750
10172SOL     OW31414   6.729   6.457   4.694
10172SOL    HW131415   6.790   6.476   4.617
10172SOL    HW231416   6.723   6.359   4.710
10173SOL     OW31417   0.572   2.502   0.932
10173SOL    HW131418   0.636   2.451   0.989
10173SOL    HW231419   0.591   2.600   0.941
10174SOL     OW31420   5.581   5.283   1.952
10174SOL    HW131421   5.650   5.324   1.892
10174SOL    HW231422   5.624   5.213   2.009
10175SOL     OW31423   5.792   2.332   4.167
10175SOL    HW131424   5.889   2.343   4.189
10175SOL    HW231425   5.761   2.243   4.199
10176SOL     OW31426   1.221   3.330   5.716
10176SOL    HW131427   1.252   3.377   5.634
10176SOL    HW231428   1.215   3.395   5.791
10177SOL     OW31429   2.053   0.511   0.519
10177SOL    HW131430   2.139   0.464   0.539
10177SOL    HW231431   1.980   0.471   0.574
10178SOL     OW31432   6.544   1.433   4.923
10178SOL    HW131433   6.465   1.389   4.880
10178SOL    HW231434   6.515   1.478   5.008
10179SOL     OW31435   0.587   1.993   6.215
10179SOL    HW131436   0.678   1.985   6.175
10179SOL    HW231437   0.594   1.994   6.315
10180SOL     OW31438   4.087   0.606   0.053
10180SOL    HW131439   4.081   0.508   0.031
10180SOL    HW231440   4.010   0.631   0.112
10181SOL     OW31441   5.636   2.494   2.375
10181SOL    HW131442   5.683   2.567   2.425
10181SOL    HW231443   5.539   2.517   2.366
10182SOL     OW31444   4.360   0.766   1.566
10182SOL    HW131445   4.300   0.814   1.502
10182SOL    HW231446   4.422   0.707   1.515
10183SOL     OW31447   0.110   2.244   6.164
10183SOL    HW131448   0.170   2.180   6.211
10183SOL    HW231449   0.085   2.319   6.226
10184SOL     OW31450   3.602   0.981   6.690
10184SOL    HW131451   3.561   0.890   6.687
10184SOL    HW231452   3.698   0.974   6.664
10185SOL     OW31453   5.793   5.849   1.864
10185SOL    HW131454   5.847   5.910   1.806
10185SOL    HW231455   5.832   5.757   1.860
10186SOL     OW31456   6.100   3.936   3.524
10186SOL    HW131457   6.022   3.886   3.561
10186SOL    HW231458   6.184   3.902   3.567
10187SOL     OW31459   0.625   3.039   0.965
10187SOL    HW131460   0.592   3.133   0.976
10187SOL    HW231461   0.701   3.037   0.899
10188SOL     OW31462   3.388   5.734   0.888
10188SOL    HW131463   3.471   5.747   0.835
10188SOL    HW231464   3.391   5.792   0.970
10189SOL     OW31465   0.971   0.764   6.461
10189SOL    HW131466   1.010   0.814   6.384
10189SOL    HW231467   0.969   0.666   6.439
10190SOL     OW31468   4.830   3.329   1.831
10190SOL    HW131469   4.752   3.304   1.774
10190SOL    HW231470   4.886   3.248   1.849
10191SOL     OW31471   5.273   4.965   5.419
10191SOL    HW131472   5.189   4.984   5.368
10191SOL    HW231473   5.275   4.868   5.444
10192SOL     OW31474   4.425   1.412   5.765
10192SOL    HW131475   4.402   1.389   5.860
10192SOL    HW231476   4.473   1.335   5.723
10193SOL     OW31477   4.164   3.265   1.978
10193SOL    HW131478   4.155   3.247   2.076
10193SOL    HW231479   4.229   3.199   1.938
10194SOL     OW31480   5.813   5.532   4.673
10194SOL    HW131481   5.762   5.483   4.744
10194SOL    HW231482   5.805   5.631   4.689
10195SOL     OW31483   6.255   5.591   1.109
10195SOL    HW131484   6.306   5.561   1.028
10195SOL    HW231485   6.230   5.512   1.164
10196SOL     OW31486   4.048   1.856   4.179
10196SOL    HW131487   3.958   1.855   4.222
10196SOL    HW231488   4.044   1.911   4.095
10197SOL     OW31489   6.503   2.083   5.510
10197SOL    HW131490   6.499   2.161   5.447
10197SOL    HW231491   6.440   2.098   5.586
10198SOL     OW31492   3.081   0.766   1.899
10198SOL    HW131493   3.133   0.744   1.982
10198SOL    HW231494   3.114   0.853   1.862
10199SOL     OW31495   2.526   2.199   6.836
10199SOL    HW131496   2.532   2.100   6.848
10199SOL    HW231497   2.603   2.243   6.882
10200SOL     OW31498   5.320   2.065   0.621
10200SOL    HW131499   5.405   2.115   0.604
10200SOL    HW231500   5.342   1.975   0.659
10201SOL     OW31501   1.633   4.208   0.896
10201SOL    HW131502   1.665   4.299   0.923
10201SOL    HW231503   1.548   4.217   0.844
10202SOL     OW31504   3.792   3.209   0.898
10202SOL    HW131505   3.865   3.264   0.938
10202SOL    HW231506   3.717   3.268   0.870
10203SOL     OW31507   6.349   2.935   3.592
10203SOL    HW131508   6.339   2.864   3.522
10203SOL    HW231509   6.349   3.025   3.548
10204SOL     OW31510   4.998   6.607   6.954
10204SOL    HW131511   5.033   6.571   0.022
10204SOL    HW231512   5.070   6.659   6.908
10205SOL     OW31513   2.120   1.014   1.406
10205SOL    HW131514   2.045   1.068   1.444
10205SOL    HW231515   2.085   0.949   1.338
10206SOL     OW31516   0.509   0.939   0.252
10206SOL    HW131517   0.462   0.956   0.165
10206SOL    HW231518   0.606   0.920   0.235
10207SOL     OW31519   1.293   1.732   6.484
10207SOL    HW131520   1.380   1.687   6.505
10207SOL    HW231521   1.286   1.747   6.386
10208SOL     OW31522   5.597   4.512   3.827
10208SOL    HW131523   5.558   4.456   3.753
10208SOL    HW231524   5.695   4.527   3.810
10209SOL     OW31525   0.176   0.604   6.621
10209SOL    HW131526   0.264   0.599   6.667
10209SOL    HW231527   0.173   0.535   6.548
10210SOL     OW31528   4.796   6.330   2.028
10210SOL    HW131529   4.831   6.400   2.089
10210SOL    HW231530   4.715   6.365   1.980
10211SOL     OW31531   4.356   6.415   4.343
10211SOL    HW131532   4.351   6.512   4.365
10211SOL    HW231533   4.315   6.398   4.254
10212SOL     OW31534   1.126   0.156   5.311
10212SOL    HW131535   1.215   0.186   5.345
10212SOL    HW231536   1.128   0.057   5.294
10213SOL     OW31537   4.933   3.192   1.102
10213SOL    HW131538   4.945   3.253   1.023
10213SOL    HW231539   4.965   3.101   1.079
10214SOL     OW31540   0.890   1.382   2.342
10214SOL    HW131541   0.918   1.478   2.332
10214SOL    HW231542   0.959   1.323   2.302
10215SOL     OW31543   4.047   3.283   3.394
10215SOL    HW131544   4.059   3.350   3.467
10215SOL    HW231545   4.023   3.330   3.309
10216SOL     OW31546   0.197   0.632   0.908
10216SOL    HW131547   0.146   0.549   0.886
10216SOL    HW231548   0.154   0.677   0.986
10217SOL     OW31549   2.925   1.854   3.497
10217SOL    HW131550   2.901   1.933   3.553
10217SOL    HW231551   3.012   1.871   3.450
10218SOL     OW31552   1.397   1.441   2.007
10218SOL    HW131553   1.410   1.514   2.074
10218SOL    HW231554   1.481   1.388   1.999
10219SOL     OW31555   7.013   2.555   3.080
10219SOL    HW131556   6.918   2.569   3.106
10219SOL    HW231557   0.012   2.457   3.067
10220SOL     OW31558   4.260   2.502   1.493
10220SOL    HW131559   4.342   2.451   1.521
10220SOL    HW231560   4.195   2.504   1.569
10221SOL     OW31561   0.779   5.258   3.381
10221SOL    HW131562   0.830   5.312   3.314
10221SOL    HW231563   0.765   5.165   3.345
10222SOL     OW31564   3.166   3.161   5.885
10222SOL    HW131565   3.213   3.123   5.965
10222SOL    HW231566   3.195   3.256   5.872
10223SOL     OW31567   0.324   4.525   1.386
10223SOL    HW131568   0.395   4.594   1.376
10223SOL    HW231569   0.305   4.511   1.483
10224SOL     OW31570   6.804   2.923   3.926
10224SOL    HW131571   6.823   3.021   3.926
10224SOL    HW231572   6.838   2.883   3.841
10225SOL     OW31573   1.630   4.704   5.841
10225SOL    HW131574   1.645   4.619   5.790
10225SOL    HW231575   1.610   4.778   5.777
10226SOL     OW31576   2.740   0.433   7.011
10226SOL    HW131577   2.726   0.519   6.962
10226SOL    HW231578   2.834   0.402   6.998
10227SOL     OW31579   5.083   4.771   0.211
10227SOL    HW131580   4.987   4.792   0.194
10227SOL    HW231581   5.098   4.673   0.200
10228SOL     OW31582   6.646   6.721   1.774
10228SOL    HW131583   6.695   6.746   1.858
10228SOL    HW231584   6.710   6.680   1.709
10229SOL     OW31585   1.336   3.006   5.119
10229SOL    HW131586   1.381   2.963   5.197
10229SOL    HW231587   1.289   3.089   5.149
10230SOL     OW31588   6.391   5.779   2.908
10230SOL    HW131589   6.357   5.833   2.985
10230SOL    HW231590   6.342   5.692   2.903
10231SOL     OW31591   0.699   5.829   4.764
10231SOL    HW131592   0.651   5.907   4.724
10231SOL    HW231593   0.758   5.788   4.694
10232SOL     OW31594   2.685   1.178   3.596
10232SOL    HW131595   2.747   1.233   3.541
10232SOL    HW231596   2.677   1.086   3.555
10233SOL     OW31597   3.725   4.005   5.111
10233SOL    HW131598   3.804   4.049   5.153
10233SOL    HW231599   3.670   4.073   5.063
10234SOL     OW31600   6.503   1.010   1.034
10234SOL    HW131601   6.477   1.047   1.123
10234SOL    HW231602   6.601   1.025   1.019
10235SOL     OW31603   2.070   2.484   1.866
10235SOL    HW131604   2.039   2.573   1.831
10235SOL    HW231605   2.109   2.430   1.791
10236SOL     OW31606   2.686   6.388   0.218
10236SOL    HW131607   2.755   6.393   0.146
10236SOL    HW231608   2.647   6.296   0.220
10237SOL     OW31609   6.728   2.936   0.153
10237SOL    HW131610   6.643   2.988   0.161
10237SOL    HW231611   6.804   2.992   0.187
10238SOL     OW31612   4.453   4.313   1.465
10238SOL    HW131613   4.432   4.254   1.543
10238SOL    HW231614   4.430   4.407   1.488
10239SOL     OW31615   1.330   2.669   4.873
10239SOL    HW131616   1.335   2.768   4.886
10239SOL    HW231617   1.234   2.640   4.870
10240SOL     OW31618   2.609   5.947   2.298
10240SOL    HW131619   2.515   5.915   2.289
10240SOL    HW231620   2.624   5.980   2.392
10241SOL     OW31621   5.385   0.992   2.195
10241SOL    HW131622   5.305   1.047   2.171
10241SOL    HW231623   5.371   0.952   2.286
10242SOL     OW31624   6.450   1.840   0.990
10242SOL    HW131625   6.545   1.870   1.001
10242SOL    HW231626   6.448   1.758   0.932
10243SOL     OW31627   2.414   4.114   1.712
10243SOL    HW131628   2.320   4.096   1.741
10243SOL    HW231629   2.448   4.196   1.758
10244SOL     OW31630   2.593   3.905   0.580
10244SOL    HW131631   2.645   3.841   0.524
10244SOL    HW231632   2.620   3.896   0.676
10245SOL     OW31633   3.744   4.041   1.244
10245SOL    HW131634   3.670   3.974   1.246
10245SOL    HW231635   3.804   4.028   1.323
10246SOL     OW31636   3.152   3.836   4.326
10246SOL    HW131637   3.080   3.802   4.388
10246SOL    HW231638   3.153   3.780   4.243
10247SOL     OW31639   0.018   3.571   6.179
10247SOL    HW131640   0.020   3.671   6.181
10247SOL    HW231641   0.014   3.536   6.273
10248SOL     OW31642   0.866   0.089   3.176
10248SOL    HW131643   0.816   0.167   3.212
10248SOL    HW231644   0.853   0.083   3.077
10249SOL     OW31645   2.952   5.495   6.335
10249SOL    HW131646   2.891   5.426   6.294
10249SOL    HW231647   3.047   5.470   6.318
10250SOL     OW31648   6.858   4.032   0.979
10250SOL    HW131649   6.951   4.009   0.950
10250SOL    HW231650   6.826   4.113   0.930
10251SOL     OW31651   1.997   1.629   4.093
10251SOL    HW131652   1.975   1.702   4.158
10251SOL    HW231653   2.015   1.544   4.143
10252SOL     OW31654   4.269   3.411   5.778
10252SOL    HW131655   4.336   3.455   5.838
10252SOL    HW231656   4.265   3.313   5.800
10253SOL     OW31657   2.868   6.359   0.797
10253SOL    HW131658   2.830   6.273   0.831
10253SOL    HW231659   2.903   6.347   0.704
10254SOL     OW31660   4.649   1.516   5.286
10254SOL    HW131661   4.566   1.572   5.294
10254SOL    HW231662   4.704   1.549   5.209
10255SOL     OW31663   2.676   6.777   0.831
10255SOL    HW131664   2.731   6.730   0.761
10255SOL    HW231665   2.718   6.865   0.853
10256SOL     OW31666   3.929   0.966   2.569
10256SOL    HW131667   4.011   0.932   2.524
10256SOL    HW231668   3.954   1.036   2.636
10257SOL     OW31669   1.146   5.484   4.217
10257SOL    HW131670   1.212   5.550   4.183
10257SOL    HW231671   1.061   5.530   4.240
10258SOL     OW31672   4.011   1.930   2.977
10258SOL    HW131673   4.058   1.969   2.897
10258SOL    HW231674   3.931   1.986   2.999
10259SOL     OW31675   0.832   4.215   3.396
10259SOL    HW131676   0.735   4.198   3.376
10259SOL    HW231677   0.877   4.127   3.414
10260SOL     OW31678   0.609   1.643   3.596
10260SOL    HW131679   0.623   1.682   3.687
10260SOL    HW231680   0.516   1.663   3.565
10261SOL     OW31681   6.830   4.859   0.512
10261SOL    HW131682   6.808   4.771   0.554
10261SOL    HW231683   6.810   4.854   0.414
10262SOL     OW31684   3.185   6.667   6.442
10262SOL    HW131685   3.095   6.627   6.427
10262SOL    HW231686   3.176   6.766   6.456
10263SOL     OW31687   5.699   0.230   0.481
10263SOL    HW131688   5.647   0.267   0.557
10263SOL    HW231689   5.637   0.205   0.407
10264SOL     OW31690   6.691   5.668   6.478
10264SOL    HW131691   6.661   5.601   6.545
10264SOL    HW231692   6.615   5.730   6.457
10265SOL     OW31693   3.571   2.635   6.785
10265SOL    HW131694   3.644   2.633   6.852
10265SOL    HW231695   3.524   2.547   6.783
10266SOL     OW31696   3.699   3.509   3.184
10266SOL    HW131697   3.638   3.433   3.161
10266SOL    HW231698   3.791   3.488   3.151
10267SOL     OW31699   5.081   1.065   0.880
10267SOL    HW131700   5.177   1.056   0.908
10267SOL    HW231701   5.074   1.133   0.806
10268SOL     OW31702   5.880   6.624   2.211
10268SOL    HW131703   5.817   6.566   2.160
10268SOL    HW231704   5.841   6.716   2.219
10269SOL     OW31705   1.260   2.445   6.019
10269SOL    HW131706   1.161   2.436   6.007
10269SOL    HW231707   1.298   2.358   6.053
10270SOL     OW31708   3.442   5.367   2.909
10270SOL    HW131709   3.439   5.268   2.904
10270SOL    HW231710   3.355   5.402   2.945
10271SOL     OW31711   2.887   2.412   6.801
10271SOL    HW131712   2.917   2.430   6.895
10271SOL    HW231713   2.826   2.485   6.771
10272SOL     OW31714   1.333   0.979   4.428
10272SOL    HW131715   1.257   0.933   4.382
10272SOL    HW231716   1.353   1.066   4.382
10273SOL     OW31717   3.117   5.213   3.853
10273SOL    HW131718   3.134   5.309   3.876
10273SOL    HW231719   3.126   5.200   3.754
10274SOL     OW31720   1.142   4.661   5.987
10274SOL    HW131721   1.084   4.588   6.022
10274SOL    HW231722   1.110   4.689   5.896
10275SOL     OW31723   0.154   0.354   2.254
10275SOL    HW131724   0.203   0.292   2.315
10275SOL    HW231725   0.218   0.398   2.192
10276SOL     OW31726   4.837   5.692   5.640
10276SOL    HW131727   4.891   5.671   5.722
10276SOL    HW231728   4.779   5.614   5.617
10277SOL     OW31729   1.704   6.237   4.910
10277SOL    HW131730   1.779   6.202   4.853
10277SOL    HW231731   1.623   6.251   4.853
10278SOL     OW31732   0.947   1.464   3.606
10278SOL    HW131733   0.975   1.369   3.620
10278SOL    HW231734   0.900   1.473   3.518
10279SOL     OW31735   2.196   5.007   4.299
10279SOL    HW131736   2.102   4.972   4.310
10279SOL    HW231737   2.261   4.936   4.327
10280SOL     OW31738   6.259   3.092   6.845
10280SOL    HW131739   6.214   3.172   6.805
10280SOL    HW231740   6.209   3.009   6.818
10281SOL     OW31741   6.337   2.011   3.897
10281SOL    HW131742   6.356   1.948   3.971
10281SOL    HW231743   6.392   2.094   3.908
10282SOL     OW31744   5.806   2.941   3.520
10282SOL    HW131745   5.854   2.885   3.589
10282SOL    HW231746   5.836   3.036   3.528
10283SOL     OW31747   1.343   3.163   1.153
10283SOL    HW131748   1.368   3.132   1.245
10283SOL    HW231749   1.287   3.093   1.108
10284SOL     OW31750   6.109   2.072   4.773
10284SOL    HW131751   6.184   2.130   4.740
10284SOL    HW231752   6.146   1.985   4.804
10285SOL     OW31753   4.492   6.464   2.477
10285SOL    HW131754   4.552   6.514   2.414
10285SOL    HW231755   4.547   6.406   2.536
10286SOL     OW31756   3.951   0.568   4.102
10286SOL    HW131757   3.923   0.473   4.094
10286SOL    HW231758   3.931   0.616   4.017
10287SOL     OW31759   2.476   5.600   2.097
10287SOL    HW131760   2.422   5.542   2.160
10287SOL    HW231761   2.467   5.564   2.004
10288SOL     OW31762   4.502   6.960   3.658
10288SOL    HW131763   4.522   0.033   3.693
10288SOL    HW231764   4.444   6.911   3.722
10289SOL     OW31765   3.079   6.313   0.573
10289SOL    HW131766   3.150   6.337   0.640
10289SOL    HW231767   3.123   6.271   0.493
10290SOL     OW31768   3.095   3.151   2.806
10290SOL    HW131769   3.058   3.138   2.898
10290SOL    HW231770   3.052   3.231   2.765
10291SOL     OW31771   3.840   2.164   3.021
10291SOL    HW131772   3.863   2.178   2.925
10291SOL    HW231773   3.747   2.128   3.029
10292SOL     OW31774   1.141   2.136   5.251
10292SOL    HW131775   1.152   2.181   5.340
10292SOL    HW231776   1.229   2.095   5.224
10293SOL     OW31777   1.110   3.172   3.400
10293SOL    HW131778   1.043   3.243   3.381
10293SOL    HW231779   1.184   3.177   3.333
10294SOL     OW31780   4.581   1.438   2.895
10294SOL    HW131781   4.609   1.521   2.846
10294SOL    HW231782   4.483   1.440   2.910
10295SOL     OW31783   1.057   3.150   5.565
10295SOL    HW131784   1.103   3.216   5.624
10295SOL    HW231785   0.993   3.198   5.504
10296SOL     OW31786   4.926   1.649   6.092
10296SOL    HW131787   4.870   1.732   6.089
10296SOL    HW231788   5.001   1.657   6.027
10297SOL     OW31789   2.063   1.156   6.888
10297SOL    HW131790   2.022   1.090   6.826
10297SOL    HW231791   2.112   1.225   6.835
10298SOL     OW31792   1.945   4.475   0.882
10298SOL    HW131793   1.949   4.378   0.904
10298SOL    HW231794   2.018   4.523   0.930
10299SOL     OW31795   3.721   5.378   3.114
10299SOL    HW131796   3.622   5.374   3.097
10299SOL    HW231797   3.751   5.291   3.154
10300SOL     OW31798   1.236   4.076   1.824
10300SOL    HW131799   1.294   4.074   1.905
10300SOL    HW231800   1.170   4.151   1.832
10301SOL     OW31801   4.431   1.985   5.447
10301SOL    HW131802   4.354   1.947   5.499
10301SOL    HW231803   4.510   1.924   5.455
10302SOL     OW31804   2.266   5.998   4.741
10302SOL    HW131805   2.225   5.991   4.650
10302SOL    HW231806   2.229   6.079   4.788
10303SOL     OW31807   1.386   5.872   3.847
10303SOL    HW131808   1.312   5.806   3.837
10303SOL    HW231809   1.472   5.831   3.814
10304SOL     OW31810   5.498   0.398   1.305
10304SOL    HW131811   5.546   0.462   1.365
10304SOL    HW231812   5.525   0.415   1.210
10305SOL     OW31813   1.629   3.901   5.581
10305SOL    HW131814   1.594   3.854   5.501
10305SOL    HW231815   1.687   3.840   5.634
10306SOL     OW31816   5.406   5.723   0.365
10306SOL    HW131817   5.378   5.635   0.326
10306SOL    HW231818   5.375   5.798   0.306
10307SOL     OW31819   3.139   1.423   5.036
10307SOL    HW131820   3.096   1.415   4.946
10307SOL    HW231821   3.239   1.418   5.025
10308SOL     OW31822   1.848   4.003   2.349
10308SOL    HW131823   1.944   3.976   2.359
10308SOL    HW231824   1.817   3.980   2.257
10309SOL     OW31825   0.192   1.697   0.194
10309SOL    HW131826   0.144   1.733   0.114
10309SOL    HW231827   0.195   1.767   0.265
10310SOL     OW31828   3.189   3.823   0.146
10310SOL    HW131829   3.227   3.783   0.230
10310SOL    HW231830   3.235   3.909   0.126
10311SOL     OW31831   6.714   5.624   0.180
10311SOL    HW131832   6.811   5.629   0.156
10311SOL    HW231833   6.691   5.699   0.241
10312SOL     OW31834   4.252   6.371   2.413
10312SOL    HW131835   4.211   6.433   2.347
10312SOL    HW231836   4.341   6.406   2.442
10313SOL     OW31837   3.555   5.779   1.982
10313SOL    HW131838   3.536   5.704   1.919
10313SOL    HW231839   3.651   5.778   2.008
10314SOL     OW31840   6.614   0.540   0.355
10314SOL    HW131841   6.514   0.531   0.354
10314SOL    HW231842   6.640   0.611   0.420
10315SOL     OW31843   5.612   6.164   4.473
10315SOL    HW131844   5.684   6.144   4.539
10315SOL    HW231845   5.652   6.205   4.391
10316SOL     OW31846   6.515   2.667   5.965
10316SOL    HW131847   6.556   2.577   5.973
10316SOL    HW231848   6.444   2.666   5.894
10317SOL     OW31849   3.948   6.184   6.608
10317SOL    HW131850   3.872   6.238   6.644
10317SOL    HW231851   4.035   6.226   6.635
10318SOL     OW31852   4.760   0.647   6.398
10318SOL    HW131853   4.745   0.551   6.374
10318SOL    HW231854   4.785   0.654   6.494
10319SOL     OW31855   0.615   3.560   5.671
10319SOL    HW131856   0.547   3.496   5.634
10319SOL    HW231857   0.575   3.651   5.677
10320SOL     OW31858   0.753   6.515   2.325
10320SOL    HW131859   0.656   6.533   2.312
10320SOL    HW231860   0.805   6.600   2.312
10321SOL     OW31861   5.602   2.170   1.747
10321SOL    HW131862   5.584   2.143   1.652
10321SOL    HW231863   5.701   2.173   1.762
10322SOL     OW31864   4.622   5.069   5.021
10322SOL    HW131865   4.650   4.988   5.074
10322SOL    HW231866   4.542   5.046   4.966
10323SOL     OW31867   5.900   4.675   5.375
10323SOL    HW131868   5.845   4.741   5.324
10323SOL    HW231869   5.996   4.689   5.355
10324SOL     OW31870   3.670   2.999   2.010
10324SOL    HW131871   3.686   2.942   2.091
10324SOL    HW231872   3.738   3.072   2.006
10325SOL     OW31873   6.354   4.384   2.177
10325SOL    HW131874   6.306   4.300   2.204
10325SOL    HW231875   6.371   4.440   2.258
10326SOL     OW31876   5.249   4.568   6.335
10326SOL    HW131877   5.164   4.531   6.371
10326SOL    HW231878   5.270   4.525   6.247
10327SOL     OW31879   2.393   2.637   0.855
10327SOL    HW131880   2.302   2.621   0.892
10327SOL    HW231881   2.410   2.574   0.778
10328SOL     OW31882   6.326   2.687   0.523
10328SOL    HW131883   6.275   2.655   0.443
10328SOL    HW231884   6.418   2.713   0.495
10329SOL     OW31885   2.398   0.878   3.679
10329SOL    HW131886   2.298   0.878   3.675
10329SOL    HW231887   2.433   0.812   3.613
10330SOL     OW31888   3.998   1.139   2.294
10330SOL    HW131889   4.074   1.166   2.236
10330SOL    HW231890   4.027   1.065   2.355
10331SOL     OW31891   6.482   6.763   6.272
10331SOL    HW131892   6.515   6.670   6.258
10331SOL    HW231893   6.481   6.783   6.370
10332SOL     OW31894   6.842   0.419   0.435
10332SOL    HW131895   6.765   0.465   0.390
10332SOL    HW231896   6.823   0.321   0.441
10333SOL     OW31897   1.173   4.375   5.171
10333SOL    HW131898   1.080   4.375   5.133
10333SOL    HW231899   1.224   4.453   5.136
10334SOL     OW31900   3.571   1.030   4.807
10334SOL    HW131901   3.519   1.114   4.821
10334SOL    HW231902   3.663   1.041   4.842
10335SOL     OW31903   2.508   3.972   0.150
10335SOL    HW131904   2.578   3.902   0.165
10335SOL    HW231905   2.503   3.995   0.053
10336SOL     OW31906   6.136   6.849   1.371
10336SOL    HW131907   6.162   6.801   1.455
10336SOL    HW231908   6.142   6.947   1.385
10337SOL     OW31909   0.228   6.452   6.603
10337SOL    HW131910   0.259   6.428   6.695
10337SOL    HW231911   0.244   6.376   6.541
10338SOL     OW31912   2.012   6.356   2.137
10338SOL    HW131913   2.074   6.423   2.096
10338SOL    HW231914   2.053   6.320   2.221
10339SOL     OW31915   5.180   3.401   5.865
10339SOL    HW131916   5.230   3.337   5.807
10339SOL    HW231917   5.087   3.368   5.879
10340SOL     OW31918   1.431   3.406   0.562
10340SOL    HW131919   1.506   3.434   0.503
10340SOL    HW231920   1.439   3.451   0.650
10341SOL     OW31921   2.054   3.371   2.221
10341SOL    HW131922   2.097   3.281   2.218
10341SOL    HW231923   2.116   3.439   2.181
10342SOL     OW31924   1.929   6.872   4.248
10342SOL    HW131925   1.871   6.846   4.171
10342SOL    HW231926   1.928   6.972   4.258
10343SOL     OW31927   3.403   5.086   6.194
10343SOL    HW131928   3.411   5.005   6.135
10343SOL    HW231929   3.309   5.094   6.227
10344SOL     OW31930   4.468   2.898   0.393
10344SOL    HW131931   4.464   2.873   0.489
10344SOL    HW231932   4.540   2.845   0.348
10345SOL     OW31933   1.868   1.582   6.376
10345SOL    HW131934   1.800   1.656   6.379
10345SOL    HW231935   1.835   1.509   6.317
10346SOL     OW31936   0.419   5.234   1.771
10346SOL    HW131937   0.353   5.197   1.837
10346SOL    HW231938   0.373   5.298   1.710
10347SOL     OW31939   3.708   1.233   3.083
10347SOL    HW131940   3.779   1.298   3.112
10347SOL    HW231941   3.651   1.276   3.013
10348SOL     OW31942   6.406   2.830   6.858
10348SOL    HW131943   6.425   2.925   6.883
10348SOL    HW231944   6.381   2.778   6.940
10349SOL     OW31945   1.484   0.371   0.123
10349SOL    HW131946   1.456   0.467   0.117
10349SOL    HW231947   1.527   0.344   0.037
10350SOL     OW31948   2.446   5.790   5.257
10350SOL    HW131949   2.358   5.752   5.282
10350SOL    HW231950   2.500   5.722   5.207
10351SOL     OW31951   4.269   4.856   6.575
10351SOL    HW131952   4.305   4.903   6.494
10351SOL    HW231953   4.210   4.918   6.626
10352SOL     OW31954   3.644   1.257   6.435
10352SOL    HW131955   3.731   1.249   6.484
10352SOL    HW231956   3.651   1.209   6.347
10353SOL     OW31957   6.665   3.457   5.098
10353SOL    HW131958   6.684   3.503   5.185
10353SOL    HW231959   6.697   3.514   5.023
10354SOL     OW31960   5.489   1.962   2.188
10354SOL    HW131961   5.511   1.945   2.091
10354SOL    HW231962   5.562   2.017   2.229
10355SOL     OW31963   2.458   6.507   1.654
10355SOL    HW131964   2.414   6.596   1.641
10355SOL    HW231965   2.418   6.462   1.733
10356SOL     OW31966   0.516   4.850   4.670
10356SOL    HW131967   0.418   4.830   4.679
10356SOL    HW231968   0.563   4.771   4.631
10357SOL     OW31969   1.496   2.921   6.279
10357SOL    HW131970   1.512   2.889   6.186
10357SOL    HW231971   1.403   2.895   6.308
10358SOL     OW31972   6.815   2.959   3.542
10358SOL    HW131973   6.730   2.918   3.507
10358SOL    HW231974   6.848   2.906   3.619
10359SOL     OW31975   0.766   1.925   1.374
10359SOL    HW131976   0.715   1.975   1.444
10359SOL    HW231977   0.858   1.962   1.367
10360SOL     OW31978   4.577   4.486   3.387
10360SOL    HW131979   4.636   4.563   3.361
10360SOL    HW231980   4.483   4.519   3.398
10361SOL     OW31981   2.457   6.326   3.163
10361SOL    HW131982   2.538   6.351   3.110
10361SOL    HW231983   2.419   6.241   3.127
10362SOL     OW31984   1.542   4.814   4.917
10362SOL    HW131985   1.498   4.902   4.935
10362SOL    HW231986   1.605   4.792   4.992
10363SOL     OW31987   4.413   1.123   2.183
10363SOL    HW131988   4.343   1.142   2.114
10363SOL    HW231989   4.369   1.096   2.268
10364SOL     OW31990   3.273   3.159   1.450
10364SOL    HW131991   3.308   3.084   1.506
10364SOL    HW231992   3.214   3.217   1.507
10365SOL     OW31993   4.034   5.215   6.266
10365SOL    HW131994   4.033   5.116   6.281
10365SOL    HW231995   3.955   5.256   6.313
10366SOL     OW31996   2.908   0.369   4.274
10366SOL    HW131997   2.835   0.321   4.224
10366SOL    HW231998   2.913   0.463   4.243
10367SOL     OW31999   6.024   2.303   2.493
10367SOL    HW132000   5.973   2.283   2.576
10367SOL    HW232001   6.001   2.395   2.461
10368SOL     OW32002   1.998   1.993   1.348
10368SOL    HW132003   1.971   2.005   1.444
10368SOL    HW232004   1.968   1.902   1.317
10369SOL     OW32005   4.558   1.109   5.993
10369SOL    HW132006   4.534   1.205   6.007
10369SOL    HW232007   4.641   1.088   6.044
10370SOL     OW32008   4.772   1.641   5.075
10370SOL    HW132009   4.715   1.721   5.060
10370SOL    HW232010   4.847   1.640   5.008
10371SOL     OW32011   3.692   5.679   5.059
10371SOL    HW132012   3.782   5.716   5.082
10371SOL    HW232013   3.655   5.728   4.980
10372SOL     OW32014   1.499   1.462   5.951
10372SOL    HW132015   1.429   1.446   6.020
10372SOL    HW232016   1.588   1.435   5.988
10373SOL     OW32017   2.439   6.382   4.820
10373SOL    HW132018   2.514   6.377   4.754
10373SOL    HW232019   2.475   6.376   4.913
10374SOL     OW32020   3.338   1.178   2.843
10374SOL    HW132021   3.435   1.197   2.829
10374SOL    HW232022   3.287   1.263   2.835
10375SOL     OW32023   4.102   1.885   6.945
10375SOL    HW132024   4.023   1.918   6.997
10375SOL    HW232025   4.145   1.810   6.994
10376SOL     OW32026   1.051   6.379   3.660
10376SOL    HW132027   1.035   6.291   3.617
10376SOL    HW232028   1.123   6.370   3.729
10377SOL     OW32029   6.447   1.216   3.743
10377SOL    HW132030   6.528   1.171   3.706
10377SOL    HW232031   6.365   1.174   3.705
10378SOL     OW32032   6.750   0.581   5.913
10378SOL    HW132033   6.833   0.592   5.968
10378SOL    HW232034   6.774   0.575   5.816
10379SOL     OW32035   4.302   0.591   4.948
10379SOL    HW132036   4.363   0.667   4.970
10379SOL    HW232037   4.324   0.557   4.856
10380SOL     OW32038   6.326   1.468   3.196
10380SOL    HW132039   6.261   1.428   3.260
10380SOL    HW232040   6.361   1.397   3.135
10381SOL     OW32041   4.952   5.651   5.911
10381SOL    HW132042   5.028   5.682   5.968
10381SOL    HW232043   4.872   5.710   5.927
10382SOL     OW32044   2.539   4.554   6.262
10382SOL    HW132045   2.621   4.515   6.220
10382SOL    HW232046   2.554   4.651   6.282
10383SOL     OW32047   0.874   3.259   0.391
10383SOL    HW132048   0.836   3.330   0.332
10383SOL    HW232049   0.923   3.192   0.334
10384SOL     OW32050   0.513   6.803   0.643
10384SOL    HW132051   0.499   6.704   0.644
10384SOL    HW232052   0.427   6.850   0.663
10385SOL     OW32053   4.844   0.115   6.137
10385SOL    HW132054   4.931   0.128   6.185
10385SOL    HW232055   4.859   0.060   6.055
10386SOL     OW32056   0.036   3.753   5.420
10386SOL    HW132057   7.013   3.742   5.510
10386SOL    HW232058   0.040   3.665   5.374
10387SOL     OW32059   3.277   1.673   2.551
10387SOL    HW132060   3.313   1.754   2.598
10387SOL    HW232061   3.216   1.701   2.477
10388SOL     OW32062   0.854   5.772   3.986
10388SOL    HW132063   0.845   5.707   4.062
10388SOL    HW232064   0.849   5.865   4.022
10389SOL     OW32065   0.615   5.723   2.584
10389SOL    HW132066   0.616   5.766   2.493
10389SOL    HW232067   0.563   5.780   2.647
10390SOL     OW32068   1.495   3.809   2.136
10390SOL    HW132069   1.438   3.874   2.185
10390SOL    HW232070   1.444   3.725   2.120
10391SOL     OW32071   1.232   5.723   6.320
10391SOL    HW132072   1.167   5.761   6.386
10391SOL    HW232073   1.230   5.778   6.237
10392SOL     OW32074   6.476   3.614   0.239
10392SOL    HW132075   6.431   3.634   0.326
10392SOL    HW232076   6.451   3.683   0.171
10393SOL     OW32077   0.483   1.785   3.310
10393SOL    HW132078   0.536   1.739   3.239
10393SOL    HW232079   0.447   1.717   3.374
10394SOL     OW32080   2.839   6.829   6.292
10394SOL    HW132081   2.835   6.782   6.204
10394SOL    HW232082   2.747   6.837   6.330
10395SOL     OW32083   6.679   1.012   4.322
10395SOL    HW132084   6.749   1.015   4.250
10395SOL    HW232085   6.646   0.918   4.332
10396SOL     OW32086   1.120   0.812   3.612
10396SOL    HW132087   1.058   0.824   3.689
10396SOL    HW232088   1.069   0.782   3.532
10397SOL     OW32089   3.769   0.989   3.197
10397SOL    HW132090   3.727   0.958   3.282
10397SOL    HW232091   3.731   1.078   3.171
10398SOL     OW32092   6.604   2.403   0.351
10398SOL    HW132093   6.589   2.433   0.445
10398SOL    HW232094   6.522   2.356   0.318
10399SOL     OW32095   4.292   1.814   5.663
10399SOL    HW132096   4.381   1.769   5.667
10399SOL    HW232097   4.230   1.770   5.727
10400SOL     OW32098   3.164   5.959   3.055
10400SOL    HW132099   3.247   6.014   3.045
10400SOL    HW232100   3.189   5.866   3.083
10401SOL     OW32101   6.261   6.375   2.416
10401SOL    HW132102   6.189   6.309   2.393
10401SOL    HW232103   6.334   6.328   2.465
10402SOL     OW32104   0.483   2.815   5.837
10402SOL    HW132105   0.440   2.872   5.767
10402SOL    HW232106   0.415   2.791   5.907
10403SOL     OW32107   5.101   1.609   2.431
10403SOL    HW132108   5.095   1.676   2.356
10403SOL    HW232109   5.059   1.523   2.402
10404SOL     OW32110   1.110   6.768   4.074
10404SOL    HW132111   1.139   6.840   4.138
10404SOL    HW232112   1.013   6.750   4.086
10405SOL     OW32113   1.687   5.360   5.172
10405SOL    HW132114   1.762   5.295   5.162
10405SOL    HW232115   1.697   5.408   5.259
10406SOL     OW32116   1.952   4.734   5.210
10406SOL    HW132117   1.994   4.650   5.177
10406SOL    HW232118   1.856   4.717   5.234
10407SOL     OW32119   1.213   0.708   6.187
10407SOL    HW132120   1.135   0.770   6.182
10407SOL    HW232121   1.290   0.747   6.135
10408SOL     OW32122   4.773   5.400   2.900
10408SOL    HW132123   4.740   5.434   2.812
10408SOL    HW232124   4.815   5.475   2.951
10409SOL     OW32125   0.233   4.142   1.780
10409SOL    HW132126   0.288   4.079   1.833
10409SOL    HW232127   0.191   4.094   1.703
10410SOL     OW32128   4.772   1.457   1.463
10410SOL    HW132129   4.676   1.434   1.478
10410SOL    HW232130   4.808   1.403   1.387
10411SOL     OW32131   1.930   4.817   3.605
10411SOL    HW132132   1.840   4.852   3.579
10411SOL    HW232133   1.997   4.843   3.536
10412SOL     OW32134   0.677   2.162   6.780
10412SOL    HW132135   0.763   2.209   6.760
10412SOL    HW232136   0.601   2.220   6.751
10413SOL     OW32137   1.120   1.884   0.807
10413SOL    HW132138   1.131   1.983   0.818
10413SOL    HW232139   1.134   1.860   0.710
10414SOL     OW32140   5.185   6.131   6.386
10414SOL    HW132141   5.147   6.185   6.311
10414SOL    HW232142   5.163   6.034   6.371
10415SOL     OW32143   1.205   5.671   3.825
10415SOL    HW132144   1.177   5.577   3.844
10415SOL    HW232145   1.162   5.701   3.740
10416SOL     OW32146   6.711   2.004   5.715
10416SOL    HW132147   6.616   1.997   5.684
10416SOL    HW232148   6.739   1.917   5.757
10417SOL     OW32149   4.219   5.069   2.800
10417SOL    HW132150   4.158   4.991   2.788
10417SOL    HW232151   4.165   5.152   2.812
10418SOL     OW32152   6.481   3.717   6.081
10418SOL    HW132153   6.555   3.757   6.026
10418SOL    HW232154   6.416   3.671   6.021
10419SOL     OW32155   3.220   0.729   5.706
10419SOL    HW132156   3.129   0.730   5.747
10419SOL    HW232157   3.278   0.664   5.757
10420SOL     OW32158   6.629   2.723   2.521
10420SOL    HW132159   6.603   2.668   2.600
10420SOL    HW232160   6.547   2.753   2.473
10421SOL     OW32161   1.295   4.659   3.903
10421SOL    HW132162   1.268   4.649   3.999
10421SOL    HW232163   1.324   4.571   3.866
10422SOL     OW32164   6.587   3.948   5.069
10422SOL    HW132165   6.554   3.874   5.010
10422SOL    HW232166   6.508   3.998   5.107
10423SOL     OW32167   3.530   4.957   4.181
10423SOL    HW132168   3.515   5.055   4.167
10423SOL    HW232169   3.565   4.942   4.274
10424SOL     OW32170   3.821   1.069   6.928
10424SOL    HW132171   3.854   1.084   0.003
10424SOL    HW232172   3.881   1.004   6.881
10425SOL     OW32173   1.303   0.216   1.342
10425SOL    HW132174   1.371   0.165   1.290
10425SOL    HW232175   1.348   0.289   1.394
10426SOL     OW32176   5.042   2.789   5.416
10426SOL    HW132177   5.122   2.735   5.442
10426SOL    HW232178   5.071   2.871   5.367
10427SOL     OW32179   4.739   5.598   5.113
10427SOL    HW132180   4.742   5.498   5.116
10427SOL    HW232181   4.702   5.627   5.025
10428SOL     OW32182   2.024   1.621   3.285
10428SOL    HW132183   1.993   1.712   3.261
10428SOL    HW232184   1.980   1.591   3.369
10429SOL     OW32185   0.890   3.354   2.493
10429SOL    HW132186   0.833   3.313   2.565
10429SOL    HW232187   0.891   3.294   2.413
10430SOL     OW32188   4.028   6.150   4.050
10430SOL    HW132189   4.034   6.125   3.954
10430SOL    HW232190   4.023   6.067   4.106
10431SOL     OW32191   2.583   1.718   4.332
10431SOL    HW132192   2.640   1.701   4.413
10431SOL    HW232193   2.500   1.766   4.360
10432SOL     OW32194   0.109   0.004   5.408
10432SOL    HW132195   0.064   0.010   5.319
10432SOL    HW232196   0.087   0.085   5.462
10433SOL     OW32197   1.864   0.053   1.508
10433SOL    HW132198   1.875   6.985   1.458
10433SOL    HW232199   1.873   0.129   1.444
10434SOL     OW32200   4.719   0.707   5.894
10434SOL    HW132201   4.759   0.715   5.985
10434SOL    HW232202   4.725   0.611   5.863
10435SOL     OW32203   0.973   2.161   6.281
10435SOL    HW132204   0.893   2.201   6.325
10435SOL    HW232205   1.029   2.114   6.349
10436SOL     OW32206   0.133   3.946   5.655
10436SOL    HW132207   0.108   4.039   5.679
10436SOL    HW232208   0.132   3.935   5.556
10437SOL     OW32209   4.723   5.312   5.119
10437SOL    HW132210   4.673   5.228   5.100
10437SOL    HW232211   4.813   5.290   5.157
10438SOL     OW32212   6.797   6.505   6.660
10438SOL    HW132213   6.759   6.514   6.752
10438SOL    HW232214   6.880   6.560   6.652
10439SOL     OW32215   6.614   0.741   4.364
10439SOL    HW132216   6.652   0.715   4.452
10439SOL    HW232217   6.602   0.659   4.307
10440SOL     OW32218   0.532   1.336   6.990
10440SOL    HW132219   0.605   1.400   6.966
10440SOL    HW232220   0.531   1.322   0.071
10441SOL     OW32221   3.206   1.303   1.040
10441SOL    HW132222   3.269   1.235   1.003
10441SOL    HW232223   3.202   1.294   1.140
10442SOL     OW32224   2.847   0.880   5.501
10442SOL    HW132225   2.944   0.880   5.526
10442SOL    HW232226   2.817   0.787   5.485
10443SOL     OW32227   0.158   1.634   3.706
10443SOL    HW132228   0.082   1.622   3.643
10443SOL    HW232229   0.143   1.716   3.761
10444SOL     OW32230   3.349   5.421   3.659
10444SOL    HW132231   3.297   5.336   3.648
10444SOL    HW232232   3.444   5.398   3.682
10445SOL     OW32233   1.110   4.051   2.369
10445SOL    HW132234   1.124   4.114   2.292
10445SOL    HW232235   1.148   3.961   2.346
10446SOL     OW32236   2.025   4.072   5.541
10446SOL    HW132237   2.063   4.031   5.624
10446SOL    HW232238   1.985   4.001   5.484
10447SOL     OW32239   6.271   2.162   3.178
10447SOL    HW132240   6.283   2.125   3.270
10447SOL    HW232241   6.281   2.089   3.110
10448SOL     OW32242   2.595   0.386   3.337
10448SOL    HW132243   2.546   0.410   3.421
10448SOL    HW232244   2.628   0.469   3.293
10449SOL     OW32245   3.447   5.821   6.694
10449SOL    HW132246   3.537   5.796   6.659
10449SOL    HW232247   3.384   5.834   6.617
10450SOL     OW32248   6.530   0.256   5.910
10450SOL    HW132249   6.524   0.310   5.826
10450SOL    HW232250   6.625   0.229   5.925
10451SOL     OW32251   1.811   1.008   4.398
10451SOL    HW132252   1.736   0.976   4.340
10451SOL    HW232253   1.819   1.107   4.390
10452SOL     OW32254   6.728   3.534   3.295
10452SOL    HW132255   6.684   3.619   3.326
10452SOL    HW232256   6.751   3.478   3.375
10453SOL     OW32257   4.330   6.018   3.264
10453SOL    HW132258   4.354   6.095   3.205
10453SOL    HW232259   4.376   6.028   3.352
10454SOL     OW32260   6.643   1.591   6.634
10454SOL    HW132261   6.589   1.638   6.705
10454SOL    HW232262   6.629   1.637   6.546
10455SOL     OW32263   6.108   6.469   4.236
10455SOL    HW132264   6.143   6.532   4.305
10455SOL    HW232265   6.103   6.517   4.148
10456SOL     OW32266   6.615   5.444   6.982
10456SOL    HW132267   6.541   5.423   0.027
10456SOL    HW232268   6.666   5.524   7.016
10457SOL     OW32269   4.019   2.912   6.944
10457SOL    HW132270   4.110   2.912   6.903
10457SOL    HW232271   3.950   2.918   6.872
10458SOL     OW32272   6.910   0.100   6.427
10458SOL    HW132273   6.846   0.093   6.351
10458SOL    HW232274   6.933   0.008   6.461
10459SOL     OW32275   6.716   5.246   0.378
10459SOL    HW132276   6.660   5.190   0.439
10459SOL    HW232277   6.710   5.342   0.406
10460SOL     OW32278   7.010   4.157   1.384
10460SOL    HW132279   6.987   4.252   1.406
10460SOL    HW232280   6.936   4.117   1.330
10461SOL     OW32281   6.707   4.850   5.074
10461SOL    HW132282   6.777   4.805   5.130
10461SOL    HW232283   6.622   4.858   5.127
10462SOL     OW32284   5.097   1.806   1.626
10462SOL    HW132285   5.008   1.828   1.665
10462SOL    HW232286   5.120   1.872   1.554
10463SOL     OW32287   4.576   2.472   6.134
10463SOL    HW132288   4.534   2.390   6.096
10463SOL    HW232289   4.570   2.470   6.234
10464SOL     OW32290   5.332   5.365   2.651
10464SOL    HW132291   5.340   5.278   2.701
10464SOL    HW232292   5.241   5.404   2.667
10465SOL     OW32293   4.989   3.927   2.491
10465SOL    HW132294   5.036   3.884   2.413
10465SOL    HW232295   5.047   3.997   2.531
10466SOL     OW32296   5.738   4.526   5.850
10466SOL    HW132297   5.781   4.442   5.883
10466SOL    HW232298   5.716   4.585   5.927
10467SOL     OW32299   1.922   2.671   6.719
10467SOL    HW132300   1.958   2.636   6.805
10467SOL    HW232301   1.999   2.692   6.657
10468SOL     OW32302   2.644   4.718   3.659
10468SOL    HW132303   2.736   4.738   3.696
10468SOL    HW232304   2.581   4.790   3.689
10469SOL     OW32305   5.552   2.356   5.745
10469SOL    HW132306   5.652   2.354   5.740
10469SOL    HW232307   5.516   2.266   5.718
10470SOL     OW32308   2.143   1.975   4.035
10470SOL    HW132309   2.206   1.899   4.015
10470SOL    HW232310   2.180   2.059   3.996
10471SOL     OW32311   2.476   0.620   0.469
10471SOL    HW132312   2.563   0.666   0.449
10471SOL    HW232313   2.474   0.593   0.565
10472SOL     OW32314   3.301   4.596   0.667
10472SOL    HW132315   3.202   4.604   0.655
10472SOL    HW232316   3.332   4.662   0.736
10473SOL     OW32317   5.248   5.871   6.315
10473SOL    HW132318   5.327   5.932   6.307
10473SOL    HW232319   5.275   5.787   6.361
10474SOL     OW32320   5.210   1.143   3.767
10474SOL    HW132321   5.267   1.147   3.685
10474SOL    HW232322   5.194   1.236   3.800
10475SOL     OW32323   2.283   6.315   1.837
10475SOL    HW132324   2.305   6.233   1.890
10475SOL    HW232325   2.291   6.396   1.895
10476SOL     OW32326   3.880   6.022   6.385
10476SOL    HW132327   3.950   5.957   6.412
10476SOL    HW232328   3.884   6.103   6.443
10477SOL     OW32329   0.145   6.014   4.165
10477SOL    HW132330   0.117   5.959   4.086
10477SOL    HW232331   0.174   6.105   4.134
10478SOL     OW32332   6.073   6.843   0.044
10478SOL    HW132333   6.075   6.934   0.086
10478SOL    HW232334   6.071   6.773   0.115
10479SOL     OW32335   6.597   3.006   2.222
10479SOL    HW132336   6.565   3.099   2.203
10479SOL    HW232337   6.695   3.009   2.241
10480SOL     OW32338   1.579   0.343   2.454
10480SOL    HW132339   1.563   0.330   2.356
10480SOL    HW232340   1.592   0.440   2.473
10481SOL     OW32341   0.694   6.804   2.862
10481SOL    HW132342   0.633   6.856   2.920
10481SOL    HW232343   0.721   6.859   2.783
10482SOL     OW32344   6.143   4.496   4.560
10482SOL    HW132345   6.235   4.516   4.526
10482SOL    HW232346   6.148   4.421   4.627
10483SOL     OW32347   5.758   5.237   6.957
10483SOL    HW132348   5.802   5.209   0.025
10483SOL    HW232349   5.814   5.306   6.912
10484SOL     OW32350   5.306   1.400   0.988
10484SOL    HW132351   5.358   1.316   0.973
10484SOL    HW232352   5.251   1.391   1.072
10485SOL     OW32353   4.086   4.502   6.193
10485SOL    HW132354   4.111   4.479   6.099
10485SOL    HW232355   4.157   4.470   6.255
10486SOL     OW32356   6.525   2.501   0.618
10486SOL    HW132357   6.517   2.592   0.658
10486SOL    HW232358   6.464   2.437   0.666
10487SOL     OW32359   5.708   6.873   2.116
10487SOL    HW132360   5.717   6.813   2.037
10487SOL    HW232361   5.746   6.963   2.093
10488SOL     OW32362   2.739   3.396   6.788
10488SOL    HW132363   2.681   3.324   6.826
10488SOL    HW232364   2.832   3.387   6.826
10489SOL     OW32365   0.418   6.776   6.063
10489SOL    HW132366   0.387   6.697   6.115
10489SOL    HW232367   0.455   6.747   5.975
10490SOL     OW32368   6.107   1.562   2.980
10490SOL    HW132369   6.164   1.587   2.902
10490SOL    HW232370   6.165   1.521   3.051
10491SOL     OW32371   1.476   3.446   6.787
10491SOL    HW132372   1.418   3.510   6.837
10491SOL    HW232373   1.542   3.498   6.732
10492SOL     OW32374   4.836   3.842   5.632
10492SOL    HW132375   4.761   3.849   5.697
10492SOL    HW232376   4.901   3.772   5.662
10493SOL     OW32377   3.336   0.457   1.383
10493SOL    HW132378   3.273   0.431   1.456
10493SOL    HW232379   3.393   0.534   1.414
10494SOL     OW32380   5.629   2.239   4.876
10494SOL    HW132381   5.640   2.306   4.950
10494SOL    HW232382   5.714   2.190   4.862
10495SOL     OW32383   1.213   6.919   1.157
10495SOL    HW132384   1.248   7.010   1.131
10495SOL    HW232385   1.276   6.875   1.220
10496SOL     OW32386   0.296   6.696   0.266
10496SOL    HW132387   0.362   6.627   0.236
10496SOL    HW232388   0.285   6.691   0.366
10497SOL     OW32389   1.887   0.154   1.022
10497SOL    HW132390   1.850   0.242   1.050
10497SOL    HW232391   1.834   0.119   0.944
10498SOL     OW32392   2.587   6.540   0.425
10498SOL    HW132393   2.656   6.501   0.364
10498SOL    HW232394   2.616   6.530   0.520
10499SOL     OW32395   2.740   6.432   2.671
10499SOL    HW132396   2.724   6.512   2.614
10499SOL    HW232397   2.653   6.397   2.706
10500SOL     OW32398   0.679   0.875   5.480
10500SOL    HW132399   0.720   0.965   5.495
10500SOL    HW232400   0.712   0.836   5.394
10501SOL     OW32401   1.827   5.257   3.146
10501SOL    HW132402   1.862   5.295   3.060
10501SOL    HW232403   1.888   5.283   3.221
10502SOL     OW32404   3.209   6.467   1.195
10502SOL    HW132405   3.158   6.433   1.115
10502SOL    HW232406   3.300   6.426   1.195
10503SOL     OW32407   4.588   2.528   0.596
10503SOL    HW132408   4.592   2.429   0.584
10503SOL    HW232409   4.679   2.567   0.584
10504SOL     OW32410   1.779   2.555   0.528
10504SOL    HW132411   1.835   2.591   0.603
10504SOL    HW232412   1.743   2.631   0.474
10505SOL     OW32413   5.790   6.136   0.458
10505SOL    HW132414   5.712   6.193   0.485
10505SOL    HW232415   5.774   6.099   0.366
10506SOL     OW32416   0.609   4.872   6.274
10506SOL    HW132417   0.522   4.883   6.323
10506SOL    HW232418   0.663   4.955   6.283
10507SOL     OW32419   2.144   6.609   0.439
10507SOL    HW132420   2.198   6.694   0.445
10507SOL    HW232421   2.072   6.610   0.508
10508SOL     OW32422   5.844   5.838   3.994
10508SOL    HW132423   5.758   5.846   3.944
10508SOL    HW232424   5.918   5.815   3.930
10509SOL     OW32425   1.065   6.751   6.250
10509SOL    HW132426   1.101   6.802   6.172
10509SOL    HW232427   0.965   6.747   6.243
10510SOL     OW32428   6.008   5.016   5.790
10510SOL    HW132429   5.938   4.951   5.818
10510SOL    HW232430   5.975   5.070   5.712
10511SOL     OW32431   4.461   2.636   0.831
10511SOL    HW132432   4.465   2.543   0.793
10511SOL    HW232433   4.378   2.647   0.884
10512SOL     OW32434   3.840   0.925   6.563
10512SOL    HW132435   3.927   0.877   6.559
10512SOL    HW232436   3.771   0.873   6.513
10513SOL     OW32437   6.880   2.289   5.960
10513SOL    HW132438   6.956   2.269   5.898
10513SOL    HW232439   6.916   2.327   6.045
10514SOL     OW32440   6.751   3.665   0.266
10514SOL    HW132441   6.657   3.635   0.255
10514SOL    HW232442   6.754   3.765   0.267
10515SOL     OW32443   5.919   2.775   2.931
10515SOL    HW132444   5.927   2.857   2.987
10515SOL    HW232445   5.822   2.755   2.913
10516SOL     OW32446   4.941   0.950   6.688
10516SOL    HW132447   4.847   0.915   6.693
10516SOL    HW232448   4.944   1.045   6.719
10517SOL     OW32449   0.887   2.188   2.397
10517SOL    HW132450   0.826   2.266   2.415
10517SOL    HW232451   0.833   2.104   2.390
10518SOL     OW32452   0.721   5.176   7.010
10518SOL    HW132453   0.671   5.245   0.044
10518SOL    HW232454   0.656   5.114   6.965
10519SOL     OW32455   3.308   2.378   5.690
10519SOL    HW132456   3.340   2.307   5.752
10519SOL    HW232457   3.348   2.466   5.716
10520SOL     OW32458   2.380   2.682   6.709
10520SOL    HW132459   2.452   2.743   6.743
10520SOL    HW232460   2.422   2.601   6.670
10521SOL     OW32461   6.165   5.802   1.560
10521SOL    HW132462   6.142   5.899   1.557
10521SOL    HW232463   6.210   5.775   1.475
10522SOL     OW32464   6.155   0.451   0.390
10522SOL    HW132465   6.190   0.513   0.460
10522SOL    HW232466   6.139   0.503   0.305
10523SOL     OW32467   0.383   6.148   4.785
10523SOL    HW132468   0.374   6.066   4.841
10523SOL    HW232469   0.480   6.174   4.779
10524SOL     OW32470   1.841   0.799   5.245
10524SOL    HW132471   1.927   0.757   5.217
10524SOL    HW232472   1.779   0.805   5.167
10525SOL     OW32473   2.802   6.675   5.453
10525SOL    HW132474   2.764   6.606   5.515
10525SOL    HW232475   2.728   6.716   5.400
10526SOL     OW32476   0.642   0.271   2.600
10526SOL    HW132477   0.562   0.315   2.560
10526SOL    HW232478   0.721   0.284   2.540
10527SOL     OW32479   1.314   2.958   4.083
10527SOL    HW132480   1.371   3.014   4.144
10527SOL    HW232481   1.373   2.898   4.028
10528SOL     OW32482   1.382   3.981   5.257
10528SOL    HW132483   1.463   4.017   5.211
10528SOL    HW232484   1.336   4.055   5.305
10529SOL     OW32485   1.082   5.984   2.817
10529SOL    HW132486   1.055   6.036   2.735
10529SOL    HW232487   1.124   6.046   2.883
10530SOL     OW32488   1.962   1.200   6.253
10530SOL    HW132489   2.045   1.254   6.269
10530SOL    HW232490   1.978   1.105   6.280
10531SOL     OW32491   2.155   3.345   4.466
10531SOL    HW132492   2.182   3.287   4.542
10531SOL    HW232493   2.196   3.310   4.381
10532SOL     OW32494   2.218   3.025   0.491
10532SOL    HW132495   2.302   3.002   0.542
10532SOL    HW232496   2.180   3.110   0.526
10533SOL     OW32497   3.143   1.589   4.005
10533SOL    HW132498   3.135   1.588   4.104
10533SOL    HW232499   3.060   1.628   3.965
10534SOL     OW32500   0.057   5.820   0.741
10534SOL    HW132501   0.029   5.778   0.827
10534SOL    HW232502   0.153   5.800   0.723
10535SOL     OW32503   0.434   2.511   2.248
10535SOL    HW132504   0.370   2.503   2.325
10535SOL    HW232505   0.384   2.542   2.167
10536SOL     OW32506   3.809   0.283   2.701
10536SOL    HW132507   3.822   0.300   2.799
10536SOL    HW232508   3.795   0.186   2.685
10537SOL     OW32509   3.251   5.570   3.428
10537SOL    HW132510   3.297   5.519   3.501
10537SOL    HW232511   3.237   5.510   3.349
10538SOL     OW32512   4.686   3.161   6.725
10538SOL    HW132513   4.736   3.181   6.809
10538SOL    HW232514   4.725   3.081   6.680
10539SOL     OW32515   0.783   3.977   6.515
10539SOL    HW132516   0.872   3.936   6.497
10539SOL    HW232517   0.753   4.030   6.436
10540SOL     OW32518   1.491   0.795   6.021
10540SOL    HW132519   1.441   0.792   5.935
10540SOL    HW232520   1.512   0.890   6.045
10541SOL     OW32521   3.486   3.757   1.838
10541SOL    HW132522   3.546   3.787   1.764
10541SOL    HW232523   3.511   3.803   1.923
10542SOL     OW32524   6.935   1.335   0.533
10542SOL    HW132525   6.914   1.377   0.621
10542SOL    HW232526   6.917   1.401   0.459
10543SOL     OW32527   0.006   1.255   5.197
10543SOL    HW132528   0.043   1.347   5.209
10543SOL    HW232529   6.945   1.259   5.136
10544SOL     OW32530   2.191   1.062   2.754
10544SOL    HW132531   2.099   1.032   2.731
10544SOL    HW232532   2.258   1.004   2.707
10545SOL     OW32533   6.724   6.724   2.925
10545SOL    HW132534   6.710   6.652   2.993
10545SOL    HW232535   6.652   6.793   2.935
10546SOL     OW32536   1.250   0.841   5.424
10546SOL    HW132537   1.339   0.796   5.417
10546SOL    HW232538   1.219   0.867   5.333
10547SOL     OW32539   4.736   1.522   2.313
10547SOL    HW132540   4.651   1.575   2.314
10547SOL    HW232541   4.718   1.429   2.345
10548SOL     OW32542   5.210   3.807   5.040
10548SOL    HW132543   5.120   3.798   4.998
10548SOL    HW232544   5.269   3.733   5.008
10549SOL     OW32545   6.477   0.431   2.392
10549SOL    HW132546   6.379   0.414   2.386
10549SOL    HW232547   6.509   0.477   2.310
10550SOL     OW32548   4.431   6.689   4.086
10550SOL    HW132549   4.403   6.712   4.179
10550SOL    HW232550   4.528   6.713   4.073
10551SOL     OW32551   1.722   2.454   5.181
10551SOL    HW132552   1.623   2.447   5.184
10551SOL    HW232553   1.755   2.495   5.266
10552SOL     OW32554   3.491   1.987   5.475
10552SOL    HW132555   3.424   2.053   5.442
10552SOL    HW232556   3.535   1.943   5.397
10553SOL     OW32557   1.186   4.933   1.390
10553SOL    HW132558   1.092   4.904   1.408
10553SOL    HW232559   1.229   4.961   1.476
10554SOL     OW32560   5.520   4.669   6.605
10554SOL    HW132561   5.455   4.741   6.584
10554SOL    HW232562   5.503   4.633   6.697
10555SOL     OW32563   2.910   2.122   1.572
10555SOL    HW132564   2.961   2.092   1.492
10555SOL    HW232565   2.871   2.213   1.555
10556SOL     OW32566   2.048   3.012   5.319
10556SOL    HW132567   1.966   3.064   5.342
10556SOL    HW232568   2.111   3.071   5.269
10557SOL     OW32569   1.477   2.456   3.385
10557SOL    HW132570   1.389   2.485   3.422
10557SOL    HW232571   1.509   2.524   3.320
10558SOL     OW32572   4.094   0.186   5.032
10558SOL    HW132573   4.065   0.107   4.978
10558SOL    HW232574   4.093   0.268   4.975
10559SOL     OW32575   4.108   1.349   1.011
10559SOL    HW132576   4.129   1.305   0.923
10559SOL    HW232577   4.014   1.326   1.037
10560SOL     OW32578   2.273   5.441   4.747
10560SOL    HW132579   2.307   5.348   4.749
10560SOL    HW232580   2.183   5.443   4.704
10561SOL     OW32581   2.187   4.806   0.037
10561SOL    HW132582   2.277   4.837   0.069
10561SOL    HW232583   2.190   4.791   6.956
10562SOL     OW32584   4.911   0.119   0.635
10562SOL    HW132585   4.936   0.054   0.563
10562SOL    HW232586   4.992   0.173   0.661
10563SOL     OW32587   2.159   1.040   4.613
10563SOL    HW132588   2.068   1.079   4.605
10563SOL    HW232589   2.167   0.962   4.551
10564SOL     OW32590   5.882   0.597   2.128
10564SOL    HW132591   5.889   0.518   2.067
10564SOL    HW232592   5.962   0.599   2.189
10565SOL     OW32593   0.962   0.749   5.367
10565SOL    HW132594   0.995   0.688   5.439
10565SOL    HW232595   1.040   0.783   5.314
10566SOL     OW32596   4.162   3.413   6.718
10566SOL    HW132597   4.241   3.386   6.773
10566SOL    HW232598   4.085   3.353   6.737
10567SOL     OW32599   2.102   3.262   3.883
10567SOL    HW132600   2.140   3.303   3.800
10567SOL    HW232601   2.080   3.334   3.948
10568SOL     OW32602   5.415   1.234   1.791
10568SOL    HW132603   5.443   1.315   1.843
10568SOL    HW232604   5.372   1.168   1.853
10569SOL     OW32605   6.555   3.270   2.207
10569SOL    HW132606   6.493   3.346   2.189
10569SOL    HW232607   6.642   3.307   2.240
10570SOL     OW32608   1.448   5.022   2.599
10570SOL    HW132609   1.397   4.938   2.618
10570SOL    HW232610   1.537   5.000   2.561
10571SOL     OW32611   6.711   5.511   3.997
10571SOL    HW132612   6.730   5.416   4.022
10571SOL    HW232613   6.670   5.514   3.905
10572SOL     OW32614   6.093   3.612   2.979
10572SOL    HW132615   6.063   3.544   3.046
10572SOL    HW232616   6.181   3.584   2.941
10573SOL     OW32617   5.584   6.262   2.897
10573SOL    HW132618   5.515   6.333   2.884
10573SOL    HW232619   5.647   6.289   2.970
10574SOL     OW32620   1.564   1.748   3.780
10574SOL    HW132621   1.487   1.698   3.819
10574SOL    HW232622   1.643   1.743   3.841
10575SOL     OW32623   0.163   0.806   4.038
10575SOL    HW132624   0.084   0.852   3.997
10575SOL    HW232625   0.176   0.839   4.131
10576SOL     OW32626   0.883   6.656   4.780
10576SOL    HW132627   0.857   6.633   4.874
10576SOL    HW232628   0.928   6.577   4.738
10577SOL     OW32629   1.000   2.899   6.703
10577SOL    HW132630   1.086   2.880   6.749
10577SOL    HW232631   1.012   2.976   6.639
10578SOL     OW32632   6.265   0.724   4.284
10578SOL    HW132633   6.343   0.681   4.237
10578SOL    HW232634   6.241   0.809   4.237
10579SOL     OW32635   4.035   1.623   0.615
10579SOL    HW132636   3.970   1.548   0.603
10579SOL    HW232637   4.128   1.588   0.608
10580SOL     OW32638   6.433   6.471   0.242
10580SOL    HW132639   6.424   6.472   0.142
10580SOL    HW232640   6.525   6.501   0.268
10581SOL     OW32641   5.942   0.087   2.634
10581SOL    HW132642   5.878   0.114   2.705
10581SOL    HW232643   6.033   0.124   2.655
10582SOL     OW32644   3.683   4.713   6.024
10582SOL    HW132645   3.674   4.623   5.982
10582SOL    HW232646   3.625   4.718   6.105
10583SOL     OW32647   4.181   0.923   6.344
10583SOL    HW132648   4.195   0.847   6.407
10583SOL    HW232649   4.093   0.913   6.298
10584SOL     OW32650   5.443   6.746   1.146
10584SOL    HW132651   5.489   6.660   1.168
10584SOL    HW232652   5.344   6.731   1.145
10585SOL     OW32653   1.615   3.060   5.614
10585SOL    HW132654   1.642   2.969   5.645
10585SOL    HW232655   1.528   3.085   5.657
10586SOL     OW32656   1.491   5.833   5.814
10586SOL    HW132657   1.482   5.796   5.721
10586SOL    HW232658   1.402   5.835   5.858
10587SOL     OW32659   5.864   3.312   0.326
10587SOL    HW132660   5.903   3.279   0.412
10587SOL    HW232661   5.771   3.345   0.342
10588SOL     OW32662   1.371   4.131   2.070
10588SOL    HW132663   1.449   4.163   2.016
10588SOL    HW232664   1.362   4.187   2.152
10589SOL     OW32665   5.384   1.601   4.269
10589SOL    HW132666   5.366   1.643   4.359
10589SOL    HW232667   5.299   1.562   4.234
10590SOL     OW32668   1.367   0.089   2.116
10590SOL    HW132669   1.321   0.053   2.034
10590SOL    HW232670   1.450   0.137   2.089
10591SOL     OW32671   1.168   1.551   5.474
10591SOL    HW132672   1.213   1.593   5.395
10591SOL    HW232673   1.079   1.513   5.445
10592SOL     OW32674   4.899   2.387   0.231
10592SOL    HW132675   4.909   2.462   0.165
10592SOL    HW232676   4.841   2.417   0.307
10593SOL     OW32677   2.828   5.480   0.734
10593SOL    HW132678   2.730   5.484   0.713
10593SOL    HW232679   2.841   5.450   0.828
10594SOL     OW32680   5.724   2.134   3.768
10594SOL    HW132681   5.780   2.210   3.799
10594SOL    HW232682   5.781   2.052   3.755
10595SOL     OW32683   3.207   6.875   5.763
10595SOL    HW132684   3.135   6.817   5.724
10595SOL    HW232685   3.222   6.953   5.703
10596SOL     OW32686   4.291   6.819   1.717
10596SOL    HW132687   4.340   6.886   1.772
10596SOL    HW232688   4.199   6.852   1.698
10597SOL     OW32689   2.771   1.373   4.336
10597SOL    HW132690   2.677   1.406   4.324
10597SOL    HW232691   2.809   1.347   4.248
10598SOL     OW32692   2.546   1.922   6.833
10598SOL    HW132693   2.516   1.891   6.923
10598SOL    HW232694   2.622   1.866   6.801
10599SOL     OW32695   5.558   1.147   0.399
10599SOL    HW132696   5.498   1.157   0.478
10599SOL    HW232697   5.552   1.229   0.342
10600SOL     OW32698   2.053   3.006   6.970
10600SOL    HW132699   2.092   3.023   6.880
10600SOL    HW232700   2.094   3.068   0.019
10601SOL     OW32701   2.510   4.997   6.132
10601SOL    HW132702   2.587   4.935   6.149
10601SOL    HW232703   2.429   4.945   6.107
10602SOL     OW32704   5.282   1.613   2.147
10602SOL    HW132705   5.214   1.565   2.091
10602SOL    HW232706   5.259   1.710   2.151
10603SOL     OW32707   2.057   6.163   3.354
10603SOL    HW132708   1.996   6.119   3.420
10603SOL    HW232709   2.151   6.156   3.388
10604SOL     OW32710   5.632   4.497   4.338
10604SOL    HW132711   5.589   4.545   4.262
10604SOL    HW232712   5.721   4.539   4.357
10605SOL     OW32713   0.593   5.424   6.731
10605SOL    HW132714   0.685   5.394   6.703
10605SOL    HW232715   0.524   5.371   6.681
10606SOL     OW32716   6.141   0.538   1.735
10606SOL    HW132717   6.201   0.578   1.666
10606SOL    HW232718   6.101   0.610   1.791
10607SOL     OW32719   3.912   4.081   5.779
10607SOL    HW132720   3.894   3.995   5.827
10607SOL    HW232721   4.008   4.085   5.751
10608SOL     OW32722   5.875   2.116   4.897
10608SOL    HW132723   5.857   2.035   4.952
10608SOL    HW232724   5.942   2.093   4.826
10609SOL     OW32725   3.463   5.291   1.194
10609SOL    HW132726   3.445   5.389   1.193
10609SOL    HW232727   3.381   5.242   1.224
10610SOL     OW32728   0.819   4.297   0.151
10610SOL    HW132729   0.797   4.389   0.118
10610SOL    HW232730   0.877   4.250   0.084
10611SOL     OW32731   5.758   3.486   0.029
10611SOL    HW132732   5.757   3.498   6.948
10611SOL    HW232733   5.820   3.412   0.053
10612SOL     OW32734   2.442   6.653   6.326
10612SOL    HW132735   2.501   6.606   6.262
10612SOL    HW232736   2.486   6.737   6.357
10613SOL     OW32737   0.003   6.892   6.113
10613SOL    HW132738   6.957   6.919   6.185
10613SOL    HW232739   0.036   6.799   6.131
10614SOL     OW32740   6.992   1.472   4.133
10614SOL    HW132741   6.922   1.401   4.130
10614SOL    HW232742   0.021   1.477   4.045
10615SOL     OW32743   4.040   5.611   5.426
10615SOL    HW132744   3.958   5.555   5.437
10615SOL    HW232745   4.048   5.674   5.504
10616SOL     OW32746   3.087   6.484   0.174
10616SOL    HW132747   3.010   6.424   0.152
10616SOL    HW232748   3.117   6.531   0.091
10617SOL     OW32749   1.996   2.284   0.987
10617SOL    HW132750   1.987   2.194   0.944
10617SOL    HW232751   1.952   2.282   1.077
10618SOL     OW32752   6.751   2.632   0.293
10618SOL    HW132753   6.675   2.568   0.303
10618SOL    HW232754   6.767   2.652   0.197
10619SOL     OW32755   0.621   3.877   2.467
10619SOL    HW132756   0.681   3.823   2.408
10619SOL    HW232757   0.555   3.817   2.512
10620SOL     OW32758   1.158   5.523   5.639
10620SOL    HW132759   1.075   5.489   5.683
10620SOL    HW232760   1.161   5.492   5.544
10621SOL     OW32761   1.570   5.596   0.137
10621SOL    HW132762   1.581   5.498   0.118
10621SOL    HW232763   1.486   5.611   0.188
10622SOL     OW32764   4.173   0.909   2.057
10622SOL    HW132765   4.224   0.931   1.974
10622SOL    HW232766   4.214   0.829   2.101
10623SOL     OW32767   5.614   2.764   3.865
10623SOL    HW132768   5.624   2.682   3.922
10623SOL    HW232769   5.537   2.753   3.804
10624SOL     OW32770   0.747   1.390   5.136
10624SOL    HW132771   0.755   1.439   5.049
10624SOL    HW232772   0.690   1.309   5.123
10625SOL     OW32773   0.535   4.304   0.042
10625SOL    HW132774   0.601   4.372   0.073
10625SOL    HW232775   0.568   4.212   0.064
10626SOL     OW32776   1.210   2.308   1.762
10626SOL    HW132777   1.152   2.275   1.836
10626SOL    HW232778   1.209   2.242   1.687
10627SOL     OW32779   6.452   6.395   2.846
10627SOL    HW132780   6.476   6.458   2.773
10627SOL    HW232781   6.434   6.446   2.930
10628SOL     OW32782   5.555   5.362   5.256
10628SOL    HW132783   5.501   5.347   5.339
10628SOL    HW232784   5.595   5.454   5.259
10629SOL     OW32785   2.428   4.273   5.906
10629SOL    HW132786   2.347   4.246   5.853
10629SOL    HW232787   2.398   4.317   5.992
10630SOL     OW32788   6.056   0.752   3.609
10630SOL    HW132789   6.114   0.688   3.560
10630SOL    HW232790   5.995   0.703   3.670
10631SOL     OW32791   1.308   6.212   4.186
10631SOL    HW132792   1.248   6.271   4.133
10631SOL    HW232793   1.368   6.161   4.124
10632SOL     OW32794   6.075   2.372   4.250
10632SOL    HW132795   6.071   2.441   4.322
10632SOL    HW232796   6.116   2.288   4.287
10633SOL     OW32797   2.660   4.324   1.092
10633SOL    HW132798   2.706   4.240   1.121
10633SOL    HW232799   2.579   4.339   1.149
10634SOL     OW32800   2.827   5.737   0.209
10634SOL    HW132801   2.846   5.833   0.192
10634SOL    HW232802   2.904   5.696   0.259
10635SOL     OW32803   2.861   0.884   1.072
10635SOL    HW132804   2.886   0.870   0.977
10635SOL    HW232805   2.762   0.870   1.083
10636SOL     OW32806   0.759   1.850   1.794
10636SOL    HW132807   0.712   1.937   1.811
10636SOL    HW232808   0.812   1.856   1.710
10637SOL     OW32809   3.606   4.155   5.435
10637SOL    HW132810   3.526   4.132   5.489
10637SOL    HW232811   3.681   4.182   5.495
10638SOL     OW32812   0.463   6.749   3.551
10638SOL    HW132813   0.413   6.762   3.466
10638SOL    HW232814   0.422   6.804   3.624
10639SOL     OW32815   1.014   1.680   3.764
10639SOL    HW132816   0.990   1.615   3.693
10639SOL    HW232817   1.057   1.761   3.723
10640SOL     OW32818   4.339   0.019   6.830
10640SOL    HW132819   4.422   0.016   6.885
10640SOL    HW232820   4.333   6.956   6.772
10641SOL     OW32821   4.490   1.598   0.228
10641SOL    HW132822   4.526   1.691   0.236
10641SOL    HW232823   4.392   1.601   0.208
10642SOL     OW32824   0.499   2.129   1.262
10642SOL    HW132825   0.443   2.056   1.224
10642SOL    HW232826   0.463   2.218   1.233
10643SOL     OW32827   2.341   3.947   5.823
10643SOL    HW132828   2.386   3.916   5.907
10643SOL    HW232829   2.381   4.033   5.793
10644SOL     OW32830   4.646   1.828   4.181
10644SOL    HW132831   4.732   1.815   4.131
10644SOL    HW232832   4.573   1.845   4.115
10645SOL     OW32833   1.007   1.042   4.253
10645SOL    HW132834   1.061   0.960   4.270
10645SOL    HW232835   0.980   1.083   4.341
10646SOL     OW32836   0.780   2.066   6.041
10646SOL    HW132837   0.725   2.146   6.064
10646SOL    HW232838   0.877   2.088   6.053
10647SOL     OW32839   5.585   5.180   6.337
10647SOL    HW132840   5.589   5.117   6.260
10647SOL    HW232841   5.559   5.130   6.420
10648SOL     OW32842   5.209   3.459   6.517
10648SOL    HW132843   5.244   3.547   6.548
10648SOL    HW232844   5.222   3.450   6.419
10649SOL     OW32845   0.077   4.659   4.569
10649SOL    HW132846   7.010   4.687   4.613
10649SOL    HW232847   0.102   4.727   4.500
10650SOL     OW32848   1.518   6.570   3.893
10650SOL    HW132849   1.601   6.514   3.883
10650SOL    HW232850   1.537   6.664   3.863
10651SOL     OW32851   4.604   6.996   5.276
10651SOL    HW132852   4.607   6.922   5.343
10651SOL    HW232853   4.559   0.058   5.316
10652SOL     OW32854   3.469   0.152   6.172
10652SOL    HW132855   3.482   0.123   6.078
10652SOL    HW232856   3.420   0.081   6.223
10653SOL     OW32857   5.197   4.517   4.576
10653SOL    HW132858   5.202   4.434   4.521
10653SOL    HW232859   5.119   4.572   4.547
10654SOL     OW32860   3.245   0.171   1.716
10654SOL    HW132861   3.169   0.119   1.677
10654SOL    HW232862   3.290   0.116   1.786
10655SOL     OW32863   3.069   5.364   2.134
10655SOL    HW132864   3.166   5.371   2.157
10655SOL    HW232865   3.058   5.370   2.035
10656SOL     OW32866   6.454   2.572   6.759
10656SOL    HW132867   6.456   2.667   6.788
10656SOL    HW232868   6.478   2.513   6.836
10657SOL     OW32869   5.997   6.586   0.963
10657SOL    HW132870   6.079   6.625   1.006
10657SOL    HW232871   6.000   6.486   0.969
10658SOL     OW32872   0.910   4.352   5.071
10658SOL    HW132873   0.882   4.402   5.153
10658SOL    HW232874   0.883   4.404   4.989
10659SOL     OW32875   5.738   0.109   0.965
10659SOL    HW132876   5.690   0.044   0.906
10659SOL    HW232877   5.836   0.102   0.951
10660SOL     OW32878   4.966   3.862   5.971
10660SOL    HW132879   4.987   3.808   5.890
10660SOL    HW232880   4.868   3.854   5.992
10661SOL     OW32881   0.214   6.660   2.386
10661SOL    HW132882   0.264   6.593   2.332
10661SOL    HW232883   0.261   6.675   2.473
10662SOL     OW32884   6.714   0.837   0.897
10662SOL    HW132885   6.787   0.794   0.845
10662SOL    HW232886   6.655   0.890   0.835
10663SOL     OW32887   0.898   0.348   1.320
10663SOL    HW132888   0.949   0.303   1.393
10663SOL    HW232889   0.901   0.290   1.238
10664SOL     OW32890   1.930   4.053   6.609
10664SOL    HW132891   1.983   4.084   6.529
10664SOL    HW232892   1.837   4.088   6.602
10665SOL     OW32893   1.095   1.511   0.133
10665SOL    HW132894   1.066   1.455   0.211
10665SOL    HW232895   1.016   1.528   0.074
10666SOL     OW32896   3.586   5.016   0.026
10666SOL    HW132897   3.659   4.951   0.046
10666SOL    HW232898   3.537   5.040   0.110
10667SOL     OW32899   3.824   2.104   5.577
10667SOL    HW132900   3.797   2.012   5.551
10667SOL    HW232901   3.750   2.168   5.556
10668SOL     OW32902   1.537   1.819   6.181
10668SOL    HW132903   1.527   1.800   6.083
10668SOL    HW232904   1.447   1.828   6.223
10669SOL     OW32905   0.436   6.834   0.922
10669SOL    HW132906   0.496   6.766   0.879
10669SOL    HW232907   0.365   6.861   0.857
10670SOL     OW32908   5.679   4.685   6.048
10670SOL    HW132909   5.696   4.751   6.121
10670SOL    HW232910   5.581   4.663   6.046
10671SOL     OW32911   2.204   2.998   2.820
10671SOL    HW132912   2.244   2.907   2.810
10671SOL    HW232913   2.232   3.036   2.908
10672SOL     OW32914   0.431   2.827   0.543
10672SOL    HW132915   0.413   2.871   0.454
10672SOL    HW232916   0.445   2.729   0.530
10673SOL     OW32917   2.961   2.643   5.677
10673SOL    HW132918   2.999   2.551   5.669
10673SOL    HW232919   2.861   2.639   5.669
10674SOL     OW32920   3.841   3.584   0.948
10674SOL    HW132921   3.881   3.594   0.857
10674SOL    HW232922   3.911   3.555   1.013
10675SOL     OW32923   0.741   0.449   5.771
10675SOL    HW132924   0.799   0.387   5.718
10675SOL    HW232925   0.733   0.537   5.724
10676SOL     OW32926   5.714   0.599   6.571
10676SOL    HW132927   5.752   0.507   6.576
10676SOL    HW232928   5.714   0.629   6.476
10677SOL     OW32929   0.320   0.696   2.381
10677SOL    HW132930   0.239   0.745   2.414
10677SOL    HW232931   0.377   0.759   2.329
10678SOL     OW32932   2.980   5.714   2.787
10678SOL    HW132933   2.982   5.628   2.736
10678SOL    HW232934   3.063   5.766   2.768
10679SOL     OW32935   5.686   5.439   4.412
10679SOL    HW132936   5.626   5.512   4.378
10679SOL    HW232937   5.726   5.467   4.499
10680SOL     OW32938   1.601   2.997   2.511
10680SOL    HW132939   1.655   3.081   2.510
10680SOL    HW232940   1.504   3.020   2.501
10681SOL     OW32941   6.383   3.978   6.420
10681SOL    HW132942   6.387   4.048   6.490
10681SOL    HW232943   6.458   3.913   6.433
10682SOL     OW32944   1.484   1.672   3.116
10682SOL    HW132945   1.519   1.709   3.030
10682SOL    HW232946   1.472   1.573   3.106
10683SOL     OW32947   1.909   2.218   4.207
10683SOL    HW132948   1.996   2.241   4.251
10683SOL    HW232949   1.865   2.143   4.257
10684SOL     OW32950   5.433   4.152   0.890
10684SOL    HW132951   5.382   4.143   0.805
10684SOL    HW232952   5.471   4.245   0.897
10685SOL     OW32953   1.037   3.986   3.126
10685SOL    HW132954   1.021   4.082   3.105
10685SOL    HW232955   1.102   3.979   3.202
10686SOL     OW32956   3.533   6.074   6.965
10686SOL    HW132957   3.496   6.015   6.893
10686SOL    HW232958   3.632   6.062   6.971
10687SOL     OW32959   0.211   5.250   2.772
10687SOL    HW132960   0.218   5.349   2.773
10687SOL    HW232961   0.238   5.214   2.861
10688SOL     OW32962   6.670   4.297   2.449
10688SOL    HW132963   6.618   4.237   2.388
10688SOL    HW232964   6.706   4.243   2.526
10689SOL     OW32965   0.051   0.242   3.058
10689SOL    HW132966   0.008   0.235   2.968
10689SOL    HW232967   0.064   0.151   3.096
10690SOL     OW32968   4.100   5.304   2.765
10690SOL    HW132969   4.054   5.240   2.704
10690SOL    HW232970   4.033   5.345   2.827
10691SOL     OW32971   6.851   1.317   1.682
10691SOL    HW132972   6.864   1.401   1.629
10691SOL    HW232973   6.918   1.314   1.756
10692SOL     OW32974   3.201   6.016   3.740
10692SOL    HW132975   3.236   5.975   3.825
10692SOL    HW232976   3.195   5.946   3.669
10693SOL     OW32977   0.787   1.671   0.909
10693SOL    HW132978   0.831   1.619   0.982
10693SOL    HW232979   0.777   1.766   0.938
10694SOL     OW32980   3.600   6.155   1.014
10694SOL    HW132981   3.577   6.201   0.928
10694SOL    HW232982   3.696   6.173   1.037
10695SOL     OW32983   0.517   2.986   4.200
10695SOL    HW132984   0.523   2.909   4.263
10695SOL    HW232985   0.610   3.020   4.180
10696SOL     OW32986   6.943   6.029   1.410
10696SOL    HW132987   6.995   6.095   1.464
10696SOL    HW232988   6.899   6.075   1.333
10697SOL     OW32989   0.319   6.446   3.938
10697SOL    HW132990   0.419   6.446   3.939
10697SOL    HW232991   0.286   6.539   3.954
10698SOL     OW32992   2.825   0.267   3.185
10698SOL    HW132993   2.816   0.252   3.087
10698SOL    HW232994   2.742   0.310   3.220
10699SOL     OW32995   4.530   1.765   2.955
10699SOL    HW132996   4.446   1.731   2.912
10699SOL    HW232997   4.606   1.754   2.892
10700SOL     OW32998   0.118   6.662   0.859
10700SOL    HW132999   0.195   6.635   0.801
10700SOL    HW233000   0.033   6.633   0.814
10701SOL     OW33001   3.787   5.760   6.837
10701SOL    HW133002   3.704   5.712   6.866
10701SOL    HW233003   3.798   5.843   6.890
10702SOL     OW33004   6.209   2.530   0.323
10702SOL    HW133005   6.256   2.451   0.282
10702SOL    HW233006   6.112   2.526   0.300
10703SOL     OW33007   3.914   3.945   3.552
10703SOL    HW133008   3.855   3.957   3.473
10703SOL    HW233009   3.870   3.985   3.633
10704SOL     OW33010   4.889   6.911   2.368
10704SOL    HW133011   4.854   6.932   2.277
10704SOL    HW233012   4.813   6.890   2.430
10705SOL     OW33013   1.240   4.249   6.716
10705SOL    HW133014   1.245   4.258   6.816
10705SOL    HW233015   1.297   4.173   6.686
10706SOL     OW33016   3.957   0.562   1.621
10706SOL    HW133017   3.908   0.477   1.600
10706SOL    HW233018   3.993   0.557   1.715
10707SOL     OW33019   6.665   0.087   5.618
10707SOL    HW133020   6.661   0.187   5.628
10707SOL    HW233021   6.624   0.044   5.698
10708SOL     OW33022   4.993   1.146   1.283
10708SOL    HW133023   5.017   1.231   1.236
10708SOL    HW233024   5.017   1.068   1.225
10709SOL     OW33025   6.368   0.293   5.006
10709SOL    HW133026   6.359   0.232   5.086
10709SOL    HW233027   6.464   0.317   4.994
10710SOL     OW33028   6.329   5.634   3.938
10710SOL    HW133029   6.339   5.539   3.968
10710SOL    HW233030   6.249   5.642   3.879
10711SOL     OW33031   1.920   0.163   4.328
10711SOL    HW133032   1.886   0.238   4.386
10711SOL    HW233033   1.891   0.178   4.234
10712SOL     OW33034   3.852   1.638   4.791
10712SOL    HW133035   3.920   1.710   4.779
10712SOL    HW233036   3.879   1.557   4.737
10713SOL     OW33037   2.562   5.806   1.947
10713SOL    HW133038   2.492   5.830   1.879
10713SOL    HW233039   2.526   5.737   2.009
10714SOL     OW33040   0.726   4.710   4.989
10714SOL    HW133041   0.791   4.782   5.014
10714SOL    HW233042   0.773   4.637   4.940
10715SOL     OW33043   4.890   2.059   4.131
10715SOL    HW133044   4.908   1.961   4.125
10715SOL    HW233045   4.965   2.104   4.179
10716SOL     OW33046   6.475   1.243   4.597
10716SOL    HW133047   6.569   1.252   4.563
10716SOL    HW233048   6.442   1.151   4.579
10717SOL     OW33049   6.490   1.313   2.089
10717SOL    HW133050   6.457   1.238   2.033
10717SOL    HW233051   6.573   1.352   2.048
10718SOL     OW33052   6.481   5.068   6.747
10718SOL    HW133053   6.461   5.060   6.844
10718SOL    HW233054   6.571   5.028   6.728
10719SOL     OW33055   5.007   1.249   1.764
10719SOL    HW133056   5.006   1.207   1.673
10719SOL    HW233057   5.038   1.182   1.831
10720SOL     OW33058   0.101   3.593   6.488
10720SOL    HW133059   0.007   3.560   6.474
10720SOL    HW233060   0.098   3.690   6.512
10721SOL     OW33061   5.909   2.547   4.689
10721SOL    HW133062   5.901   2.641   4.724
10721SOL    HW233063   5.818   2.511   4.671
10722SOL     OW33064   6.502   3.326   0.471
10722SOL    HW133065   6.416   3.377   0.477
10722SOL    HW233066   6.539   3.335   0.379
10723SOL     OW33067   5.754   4.417   6.390
10723SOL    HW133068   5.665   4.449   6.356
10723SOL    HW233069   5.780   4.334   6.341
10724SOL     OW33070   4.126   6.390   6.130
10724SOL    HW133071   4.035   6.359   6.155
10724SOL    HW233072   4.195   6.339   6.183
10725SOL     OW33073   0.469   6.476   4.289
10725SOL    HW133074   0.505   6.440   4.375
10725SOL    HW233075   0.545   6.510   4.233
10726SOL     OW33076   5.876   0.572   4.572
10726SOL    HW133077   5.813   0.586   4.495
10726SOL    HW233078   5.858   0.483   4.614
10727SOL     OW33079   2.036   5.675   5.577
10727SOL    HW133080   2.079   5.586   5.562
10727SOL    HW233081   1.938   5.663   5.591
10728SOL     OW33082   4.457   6.958   3.199
10728SOL    HW133083   4.380   6.996   3.148
10728SOL    HW233084   4.497   0.010   3.258
10729SOL     OW33085   6.289   2.549   2.882
10729SOL    HW133086   6.218   2.604   2.840
10729SOL    HW233087   6.371   2.551   2.826
10730SOL     OW33088   2.317   6.512   2.321
10730SOL    HW133089   2.264   6.590   2.290
10730SOL    HW233090   2.259   6.431   2.326
10731SOL     OW33091   3.445   5.947   0.209
10731SOL    HW133092   3.470   6.042   0.192
10731SOL    HW233093   3.420   5.903   0.123
10732SOL     OW33094   5.713   5.829   2.714
10732SOL    HW133095   5.636   5.782   2.757
10732SOL    HW233096   5.743   5.904   2.773
10733SOL     OW33097   6.330   1.597   6.011
10733SOL    HW133098   6.378   1.511   5.993
10733SOL    HW233099   6.379   1.673   5.969
10734SOL     OW33100   1.684   0.528   6.421
10734SOL    HW133101   1.739   0.569   6.493
10734SOL    HW233102   1.696   0.428   6.422
10735SOL     OW33103   1.201   4.712   2.196
10735SOL    HW133104   1.283   4.738   2.247
10735SOL    HW233105   1.144   4.652   2.253
10736SOL     OW33106   0.044   0.884   3.530
10736SOL    HW133107   0.110   0.819   3.491
10736SOL    HW233108   0.090   0.943   3.596
10737SOL     OW33109   0.259   1.668   0.993
10737SOL    HW133110   0.350   1.678   1.032
10737SOL    HW233111   0.201   1.615   1.055
10738SOL     OW33112   2.777   0.924   2.743
10738SOL    HW133113   2.710   0.993   2.770
10738SOL    HW233114   2.867   0.949   2.780
10739SOL     OW33115   5.890   1.593   2.200
10739SOL    HW133116   5.928   1.590   2.107
10739SOL    HW233117   5.855   1.685   2.219
10740SOL     OW33118   1.634   6.605   5.946
10740SOL    HW133119   1.709   6.540   5.938
10740SOL    HW233120   1.592   6.596   6.036
10741SOL     OW33121   1.673   2.766   3.025
10741SOL    HW133122   1.722   2.691   2.982
10741SOL    HW233123   1.630   2.734   3.110
10742SOL     OW33124   6.187   5.440   2.480
10742SOL    HW133125   6.214   5.451   2.384
10742SOL    HW233126   6.088   5.446   2.488
10743SOL     OW33127   3.246   1.508   5.550
10743SOL    HW133128   3.163   1.557   5.522
10743SOL    HW233129   3.282   1.457   5.472
10744SOL     OW33130   2.732   0.522   1.257
10744SOL    HW133131   2.706   0.448   1.196
10744SOL    HW233132   2.832   0.526   1.264
10745SOL     OW33133   2.081   4.206   0.927
10745SOL    HW133134   2.052   4.177   0.836
10745SOL    HW233135   2.178   4.187   0.939
10746SOL     OW33136   2.320   6.136   0.091
10746SOL    HW133137   2.237   6.148   0.036
10746SOL    HW233138   2.395   6.187   0.050
10747SOL     OW33139   6.222   2.151   4.339
10747SOL    HW133140   6.252   2.144   4.434
10747SOL    HW233141   6.168   2.071   4.314
10748SOL     OW33142   4.085   5.103   1.085
10748SOL    HW133143   4.029   5.128   1.164
10748SOL    HW233144   4.174   5.069   1.116
10749SOL     OW33145   6.540   5.048   2.649
10749SOL    HW133146   6.464   5.045   2.584
10749SOL    HW233147   6.524   4.983   2.723
10750SOL     OW33148   4.927   3.260   4.071
10750SOL    HW133149   4.903   3.229   4.163
10750SOL    HW233150   5.025   3.243   4.055
10751SOL     OW33151   1.571   3.471   4.926
10751SOL    HW133152   1.551   3.396   4.989
10751SOL    HW233153   1.487   3.521   4.906
10752SOL     OW33154   5.587   5.394   0.342
10752SOL    HW133155   5.632   5.434   0.421
10752SOL    HW233156   5.495   5.433   0.332
10753SOL     OW33157   5.305   6.142   3.893
10753SOL    HW133158   5.230   6.205   3.871
10753SOL    HW233159   5.312   6.133   3.993
10754SOL     OW33160   1.080   2.768   1.518
10754SOL    HW133161   1.113   2.856   1.485
10754SOL    HW233162   0.980   2.766   1.512
10755SOL     OW33163   6.703   2.820   1.266
10755SOL    HW133164   6.630   2.888   1.258
10755SOL    HW233165   6.675   2.735   1.222
10756SOL     OW33166   6.803   2.650   0.816
10756SOL    HW133167   6.768   2.604   0.898
10756SOL    HW233168   6.736   2.719   0.785
10757SOL     OW33169   6.533   4.063   0.341
10757SOL    HW133170   6.595   4.021   0.407
10757SOL    HW233171   6.568   4.049   0.248
10758SOL     OW33172   0.594   6.775   6.660
10758SOL    HW133173   0.560   6.730   6.743
10758SOL    HW233174   0.681   6.819   6.679
10759SOL     OW33175   1.679   1.783   6.410
10759SOL    HW133176   1.651   1.805   6.317
10759SOL    HW233177   1.661   1.861   6.470
10760SOL     OW33178   0.631   6.097   0.321
10760SOL    HW133179   0.701   6.169   0.326
10760SOL    HW233180   0.638   6.050   0.234
10761SOL     OW33181   0.986   1.839   6.220
10761SOL    HW133182   0.979   1.807   6.125
10761SOL    HW233183   0.951   1.932   6.226
10762SOL     OW33184   4.153   0.802   5.745
10762SOL    HW133185   4.124   0.754   5.662
10762SOL    HW233186   4.076   0.856   5.780
10763SOL     OW33187   5.972   0.454   3.412
10763SOL    HW133188   5.889   0.509   3.405
10763SOL    HW233189   6.031   0.471   3.333
10764SOL     OW33190   4.425   1.237   5.143
10764SOL    HW133191   4.418   1.178   5.062
10764SOL    HW233192   4.521   1.252   5.165
10765SOL     OW33193   6.166   2.400   1.967
10765SOL    HW133194   6.093   2.464   1.992
10765SOL    HW233195   6.158   2.317   2.021
10766SOL     OW33196   1.165   5.061   0.246
10766SOL    HW133197   1.083   5.057   0.189
10766SOL    HW233198   1.143   5.029   0.339
10767SOL     OW33199   1.550   5.746   0.513
10767SOL    HW133200   1.621   5.677   0.531
10767SOL    HW233201   1.515   5.781   0.599
10768SOL     OW33202   5.636   5.796   0.152
10768SOL    HW133203   5.566   5.732   0.121
10768SOL    HW233204   5.631   5.806   0.252
10769SOL     OW33205   3.056   3.757   5.383
10769SOL    HW133206   3.068   3.665   5.345
10769SOL    HW233207   3.091   3.824   5.318
10770SOL     OW33208   5.431   6.917   4.434
10770SOL    HW133209   5.482   6.872   4.360
10770SOL    HW233210   5.406   6.848   4.503
10771SOL     OW33211   5.494   0.098   5.663
10771SOL    HW133212   5.500   7.018   5.650
10771SOL    HW233213   5.542   0.146   5.590
10772SOL     OW33214   5.487   5.917   3.124
10772SOL    HW133215   5.407   5.959   3.166
10772SOL    HW233216   5.563   5.916   3.189
10773SOL     OW33217   6.778   4.200   0.636
10773SOL    HW133218   6.865   4.233   0.674
10773SOL    HW233219   6.747   4.262   0.564
10774SOL     OW33220   1.253   2.501   1.029
10774SOL    HW133221   1.158   2.471   1.016
10774SOL    HW233222   1.314   2.422   1.028
10775SOL     OW33223   1.707   4.442   0.990
10775SOL    HW133224   1.725   4.428   1.087
10775SOL    HW233225   1.784   4.490   0.948
10776SOL     OW33226   6.889   0.932   2.628
10776SOL    HW133227   6.935   0.945   2.716
10776SOL    HW233228   6.808   0.876   2.641
10777SOL     OW33229   2.871   0.847   3.708
10777SOL    HW133230   2.838   0.867   3.615
10777SOL    HW233231   2.889   0.749   3.715
10778SOL     OW33232   6.430   6.616   4.238
10778SOL    HW133233   6.427   6.595   4.336
10778SOL    HW233234   6.495   6.691   4.222
10779SOL     OW33235   5.364   4.630   3.390
10779SOL    HW133236   5.418   4.689   3.451
10779SOL    HW233237   5.423   4.558   3.354
10780SOL     OW33238   0.570   5.871   4.419
10780SOL    HW133239   0.547   5.812   4.496
10780SOL    HW233240   0.503   5.946   4.412
10781SOL     OW33241   5.861   2.633   5.085
10781SOL    HW133242   5.876   2.681   4.998
10781SOL    HW233243   5.875   2.697   5.160
10782SOL     OW33244   0.812   2.762   5.357
10782SOL    HW133245   0.895   2.709   5.338
10782SOL    HW233246   0.792   2.759   5.455
10783SOL     OW33247   1.166   2.609   2.603
10783SOL    HW133248   1.178   2.690   2.660
10783SOL    HW233249   1.210   2.623   2.515
10784SOL     OW33250   2.838   6.220   2.514
10784SOL    HW133251   2.921   6.178   2.550
10784SOL    HW233252   2.814   6.300   2.568
10785SOL     OW33253   1.732   5.622   1.680
10785SOL    HW133254   1.766   5.650   1.770
10785SOL    HW233255   1.740   5.522   1.671
10786SOL     OW33256   4.579   2.004   1.981
10786SOL    HW133257   4.628   2.036   2.063
10786SOL    HW233258   4.554   1.908   1.993
10787SOL     OW33259   3.465   1.003   3.650
10787SOL    HW133260   3.456   0.945   3.569
10787SOL    HW233261   3.414   1.088   3.636
10788SOL     OW33262   0.504   4.361   0.370
10788SOL    HW133263   0.475   4.268   0.348
10788SOL    HW233264   0.600   4.361   0.398
10789SOL     OW33265   6.506   1.524   6.960
10789SOL    HW133266   6.461   1.450   6.910
10789SOL    HW233267   6.521   1.496   0.037
10790SOL     OW33268   0.784   2.531   4.859
10790SOL    HW133269   0.716   2.463   4.889
10790SOL    HW233270   0.807   2.514   4.763
10791SOL     OW33271   2.159   1.334   2.723
10791SOL    HW133272   2.168   1.235   2.726
10791SOL    HW233273   2.220   1.375   2.791
10792SOL     OW33274   3.714   2.182   1.409
10792SOL    HW133275   3.747   2.110   1.347
10792SOL    HW233276   3.753   2.270   1.381
10793SOL     OW33277   4.725   1.819   4.668
10793SOL    HW133278   4.670   1.751   4.620
10793SOL    HW233279   4.705   1.815   4.766
10794SOL     OW33280   4.355   2.998   1.674
10794SOL    HW133281   4.448   3.034   1.666
10794SOL    HW233282   4.290   3.074   1.669
10795SOL     OW33283   0.214   3.703   2.897
10795SOL    HW133284   0.267   3.780   2.933
10795SOL    HW233285   0.217   3.705   2.797
10796SOL     OW33286   6.485   6.318   6.987
10796SOL    HW133287   6.488   6.415   6.959
10796SOL    HW233288   6.534   6.263   6.919
10797SOL     OW33289   4.433   2.848   0.676
10797SOL    HW133290   4.460   2.766   0.726
10797SOL    HW233291   4.335   2.863   0.687
10798SOL     OW33292   3.042   6.913   6.448
10798SOL    HW133293   2.982   6.883   6.374
10798SOL    HW233294   2.987   6.949   6.524
10799SOL     OW33295   2.904   1.276   2.702
10799SOL    HW133296   2.973   1.348   2.712
10799SOL    HW233297   2.814   1.313   2.720
10800SOL     OW33298   1.407   0.037   6.535
10800SOL    HW133299   1.456   0.081   6.460
10800SOL    HW233300   1.324   0.089   6.555
10801SOL     OW33301   1.921   5.615   6.416
10801SOL    HW133302   1.892   5.705   6.448
10801SOL    HW233303   2.012   5.594   6.452
10802SOL     OW33304   1.270   3.760   3.784
10802SOL    HW133305   1.312   3.843   3.819
10802SOL    HW233306   1.276   3.687   3.852
10803SOL     OW33307   6.053   4.970   5.307
10803SOL    HW133308   6.106   4.905   5.361
10803SOL    HW233309   5.975   4.924   5.266
10804SOL     OW33310   5.894   4.326   1.864
10804SOL    HW133311   5.908   4.305   1.767
10804SOL    HW233312   5.969   4.384   1.897
10805SOL     OW33313   4.074   6.577   0.787
10805SOL    HW133314   4.016   6.497   0.769
10805SOL    HW233315   4.044   6.654   0.731
10806SOL     OW33316   5.603   3.941   0.559
10806SOL    HW133317   5.559   3.933   0.649
10806SOL    HW233318   5.615   4.037   0.536
10807SOL     OW33319   3.589   5.923   3.148
10807SOL    HW133320   3.544   5.938   3.236
10807SOL    HW233321   3.654   5.847   3.157
10808SOL     OW33322   0.667   2.361   6.030
10808SOL    HW133323   0.569   2.353   6.045
10808SOL    HW233324   0.684   2.395   5.938
10809SOL     OW33325   2.904   0.432   3.963
10809SOL    HW133326   2.810   0.434   3.930
10809SOL    HW233327   2.918   0.503   4.032
10810SOL     OW33328   0.418   1.435   5.129
10810SOL    HW133329   0.372   1.450   5.042
10810SOL    HW233330   0.446   1.339   5.136
10811SOL     OW33331   4.678   4.998   5.383
10811SOL    HW133332   4.685   5.053   5.466
10811SOL    HW233333   4.585   5.005   5.346
10812SOL     OW33334   6.535   2.537   2.728
10812SOL    HW133335   6.612   2.544   2.793
10812SOL    HW233336   6.544   2.453   2.675
10813SOL     OW33337   2.928   5.996   2.208
10813SOL    HW133338   2.930   5.990   2.307
10813SOL    HW233339   2.849   5.947   2.172
10814SOL     OW33340   1.991   0.124   5.194
10814SOL    HW133341   2.062   0.180   5.153
10814SOL    HW233342   2.019   0.028   5.193
10815SOL     OW33343   5.748   4.268   2.595
10815SOL    HW133344   5.728   4.171   2.605
10815SOL    HW233345   5.819   4.281   2.525
10816SOL     OW33346   1.350   0.872   2.009
10816SOL    HW133347   1.375   0.818   2.089
10816SOL    HW233348   1.293   0.816   1.948
10817SOL     OW33349   5.044   0.339   2.850
10817SOL    HW133350   5.052   0.419   2.909
10817SOL    HW233351   4.981   0.273   2.892
10818SOL     OW33352   5.228   2.861   6.644
10818SOL    HW133353   5.192   2.862   6.737
10818SOL    HW233354   5.313   2.913   6.639
10819SOL     OW33355   0.356   4.518   6.445
10819SOL    HW133356   0.384   4.558   6.358
10819SOL    HW233357   0.315   4.589   6.502
10820SOL     OW33358   6.843   6.438   4.012
10820SOL    HW133359   6.878   6.348   3.988
10820SOL    HW233360   6.843   6.497   3.931
10821SOL     OW33361   6.558   0.454   1.783
10821SOL    HW133362   6.484   0.435   1.849
10821SOL    HW233363   6.636   0.394   1.804
10822SOL     OW33364   1.236   3.813   2.287
10822SOL    HW133365   1.250   3.767   2.374
10822SOL    HW233366   1.204   3.748   2.219
10823SOL     OW33367   2.508   6.073   1.107
10823SOL    HW133368   2.531   6.055   1.011
10823SOL    HW233369   2.415   6.109   1.113
10824SOL     OW33370   4.833   0.988   2.722
10824SOL    HW133371   4.921   1.004   2.767
10824SOL    HW233372   4.835   0.898   2.679
10825SOL     OW33373   3.213   0.869   0.595
10825SOL    HW133374   3.295   0.882   0.649
10825SOL    HW233375   3.142   0.932   0.626
10826SOL     OW33376   0.257   3.570   2.369
10826SOL    HW133377   0.264   3.554   2.271
10826SOL    HW233378   0.345   3.551   2.413
10827SOL     OW33379   0.197   3.159   4.231
10827SOL    HW133380   0.237   3.114   4.151
10827SOL    HW233381   0.122   3.103   4.267
10828SOL     OW33382   1.340   5.763   0.331
10828SOL    HW133383   1.389   5.821   0.267
10828SOL    HW233384   1.392   5.754   0.416
10829SOL     OW33385   3.086   3.992   2.053
10829SOL    HW133386   3.159   4.045   2.096
10829SOL    HW233387   3.037   3.941   2.123
10830SOL     OW33388   5.282   2.936   4.712
10830SOL    HW133389   5.188   2.924   4.681
10830SOL    HW233390   5.282   2.977   4.803
10831SOL     OW33391   5.325   1.310   2.577
10831SOL    HW133392   5.413   1.342   2.613
10831SOL    HW233393   5.322   1.326   2.478
10832SOL     OW33394   1.046   2.088   0.477
10832SOL    HW133395   1.009   2.171   0.435
10832SOL    HW233396   0.986   2.058   0.551
10833SOL     OW33397   2.775   0.901   4.434
10833SOL    HW133398   2.846   0.950   4.385
10833SOL    HW233399   2.763   0.942   4.525
10834SOL     OW33400   0.550   1.816   5.649
10834SOL    HW133401   0.537   1.718   5.661
10834SOL    HW233402   0.513   1.844   5.560
10835SOL     OW33403   5.776   1.833   2.262
10835SOL    HW133404   5.802   1.926   2.236
10835SOL    HW233405   5.678   1.819   2.245
10836SOL     OW33406   1.428   1.997   6.529
10836SOL    HW133407   1.427   2.033   6.436
10836SOL    HW233408   1.368   1.917   6.534
10837SOL     OW33409   0.050   4.610   0.625
10837SOL    HW133410   0.103   4.686   0.663
10837SOL    HW233411   6.972   4.635   0.620
10838SOL     OW33412   5.373   6.876   6.579
10838SOL    HW133413   5.420   6.963   6.564
10838SOL    HW233414   5.430   6.817   6.635
10839SOL     OW33415   1.712   1.980   0.079
10839SOL    HW133416   1.636   1.960   0.141
10839SOL    HW233417   1.765   1.897   0.064
10840SOL     OW33418   3.420   5.186   1.747
10840SOL    HW133419   3.390   5.279   1.767
10840SOL    HW233420   3.371   5.121   1.804
10841SOL     OW33421   4.129   5.573   5.751
10841SOL    HW133422   4.127   5.474   5.742
10841SOL    HW233423   4.158   5.598   5.844
10842SOL     OW33424   6.264   3.430   0.943
10842SOL    HW133425   6.237   3.512   0.994
10842SOL    HW233426   6.250   3.349   1.000
10843SOL     OW33427   0.685   2.002   2.372
10843SOL    HW133428   0.681   1.906   2.344
10843SOL    HW233429   0.649   2.011   2.466
10844SOL     OW33430   5.582   0.123   2.659
10844SOL    HW133431   5.576   0.077   2.748
10844SOL    HW233432   5.607   0.219   2.673
10845SOL     OW33433   1.123   0.688   1.557
10845SOL    HW133434   1.130   0.616   1.487
10845SOL    HW233435   1.099   0.774   1.513
10846SOL     OW33436   4.233   1.995   1.193
10846SOL    HW133437   4.215   2.069   1.129
10846SOL    HW233438   4.229   2.030   1.286
10847SOL     OW33439   3.773   2.493   5.959
10847SOL    HW133440   3.756   2.577   5.907
10847SOL    HW233441   3.731   2.415   5.912
10848SOL     OW33442   1.358   0.626   0.207
10848SOL    HW133443   1.346   0.715   0.162
10848SOL    HW233444   1.413   0.637   0.290
10849SOL     OW33445   2.718   4.940   4.479
10849SOL    HW133446   2.672   5.000   4.544
10849SOL    HW233447   2.685   4.847   4.489
10850SOL     OW33448   5.469   6.851   6.906
10850SOL    HW133449   5.555   6.863   6.856
10850SOL    HW233450   5.484   6.791   6.984
10851SOL     OW33451   2.776   2.175   6.673
10851SOL    HW133452   2.690   2.207   6.712
10851SOL    HW233453   2.836   2.254   6.656
10852SOL     OW33454   0.287   0.940   6.623
10852SOL    HW133455   0.231   0.899   6.694
10852SOL    HW233456   0.228   0.974   6.549
10853SOL     OW33457   3.024   1.420   4.457
10853SOL    HW133458   3.050   1.325   4.474
10853SOL    HW233459   2.938   1.422   4.406
10854SOL     OW33460   6.355   6.570   6.901
10854SOL    HW133461   6.340   6.537   6.807
10854SOL    HW233462   6.312   6.659   6.912
10855SOL     OW33463   1.605   6.077   1.834
10855SOL    HW133464   1.553   6.056   1.751
10855SOL    HW233465   1.683   6.136   1.810
10856SOL     OW33466   5.823   6.744   6.900
10856SOL    HW133467   5.923   6.747   6.910
10856SOL    HW233468   5.798   6.663   6.847
10857SOL     OW33469   6.409   1.603   3.932
10857SOL    HW133470   6.322   1.637   3.897
10857SOL    HW233471   6.471   1.583   3.856
10858SOL     OW33472   1.231   3.143   6.960
10858SOL    HW133473   1.190   3.055   6.936
10858SOL    HW233474   1.331   3.136   6.956
10859SOL     OW33475   0.688   4.893   3.562
10859SOL    HW133476   0.694   4.921   3.467
10859SOL    HW233477   0.646   4.802   3.568
10860SOL     OW33478   6.588   1.836   0.104
10860SOL    HW133479   6.613   1.759   0.163
10860SOL    HW233480   6.521   1.894   0.150
10861SOL     OW33481   3.197   2.825   1.867
10861SOL    HW133482   3.244   2.789   1.948
10861SOL    HW233483   3.136   2.900   1.894
10862SOL     OW33484   3.354   2.195   5.903
10862SOL    HW133485   3.295   2.124   5.863
10862SOL    HW233486   3.318   2.222   5.992
10863SOL     OW33487   2.566   0.969   3.257
10863SOL    HW133488   2.526   0.926   3.176
10863SOL    HW233489   2.531   1.063   3.265
10864SOL     OW33490   2.473   4.348   1.843
10864SOL    HW133491   2.402   4.373   1.909
10864SOL    HW233492   2.540   4.422   1.837
10865SOL     OW33493   4.843   2.570   3.252
10865SOL    HW133494   4.919   2.525   3.298
10865SOL    HW233495   4.816   2.652   3.302
10866SOL     OW33496   6.859   4.047   2.262
10866SOL    HW133497   6.791   4.057   2.190
10866SOL    HW233498   6.859   3.952   2.294
10867SOL     OW33499   3.246   2.465   0.330
10867SOL    HW133500   3.263   2.371   0.298
10867SOL    HW233501   3.294   2.480   0.416
10868SOL     OW33502   1.437   2.170   3.742
10868SOL    HW133503   1.452   2.089   3.686
10868SOL    HW233504   1.466   2.151   3.836
10869NA      NA33505   0.157   1.819   6.006
10870NA      NA33506   4.481   4.652   5.133
10871NA      NA33507   1.338   5.455   2.491
10872NA      NA33508   5.191   4.152   3.277
10873NA      NA33509   4.308   2.394   5.265
10874NA      NA33510   2.526   5.138   0.737
10875NA      NA33511   1.008   5.304   6.716
10876NA      NA33512   3.336   3.935   1.243
10877NA      NA33513   4.501   5.052   0.760
10878NA      NA33514   3.453   1.205   6.574
10879NA      NA33515   5.629   5.861   2.022
10880NA      NA33516   1.335   6.722   5.383
10881NA      NA33517   4.432   4.999   1.837
10882NA      NA33518   2.997   3.063   6.924
   7.01842   7.01842   7.01842
