Generated by trjconv : CNT in water t= 335.00000
33518
    1C        C    1   2.842   2.767   4.748
    1C        C    2   2.896   2.713   4.867
    1C        C    3   2.844   2.771   4.983
    1C        C    4   2.849   2.775   4.261
    1C        C    5   2.902   2.727   4.383
    1C        C    6   2.843   2.770   4.504
    1C        C    7   3.012   2.640   4.625
    1C        C    8   2.899   2.724   4.626
    1C        C    9   3.072   2.597   4.745
    1C        C   10   3.005   2.624   4.867
    1C        C   11   3.178   2.487   4.973
    1C        C   12   3.058   2.558   4.978
    1C        C   13   2.851   2.775   3.771
    1C        C   14   2.900   2.722   3.893
    1C        C   15   2.851   2.773   4.016
    1C        C   16   3.013   2.640   4.138
    1C        C   17   2.898   2.722   4.139
    1C        C   18   3.079   2.610   4.259
    1C        C   19   3.015   2.643   4.381
    1C        C   20   3.207   2.555   4.503
    1C        C   21   3.075   2.605   4.503
    1C        C   22   3.274   2.525   4.624
    1C        C   23   3.205   2.546   4.745
    1C        C   24   3.412   2.486   4.863
    1C        C   25   3.270   2.501   4.864
    1C        C   26   3.490   2.485   4.980
    1C        C   27   2.847   2.766   3.282
    1C        C   28   2.902   2.725   3.405
    1C        C   29   2.852   2.776   3.527
    1C        C   30   3.017   2.643   3.649
    1C        C   31   2.904   2.729   3.649
    1C        C   32   3.075   2.603   3.772
    1C        C   33   3.013   2.637   3.894
    1C        C   34   3.204   2.547   4.019
    1C        C   35   3.072   2.600   4.016
    1C        C   36   3.274   2.525   4.139
    1C        C   37   3.207   2.551   4.261
    1C        C   38   3.416   2.511   4.381
    1C        C   39   3.276   2.533   4.383
    1C        C   40   3.488   2.505   4.502
    1C        C   41   3.414   2.505   4.622
    1C        C   42   3.628   2.486   4.747
    1C        C   43   3.486   2.486   4.742
    1C        C   44   3.706   2.484   4.865
    1C        C   45   3.629   2.477   4.982
    1C        C   46   2.838   2.756   2.793
    1C        C   47   2.892   2.711   2.915
    1C        C   48   2.838   2.761   3.036
    1C        C   49   3.012   2.638   3.160
    1C        C   50   2.897   2.721   3.158
    1C        C   51   3.078   2.609   3.281
    1C        C   52   3.017   2.642   3.404
    1C        C   53   3.207   2.552   3.526
    1C        C   54   3.075   2.602   3.527
    1C        C   55   3.273   2.532   3.649
    1C        C   56   3.205   2.547   3.773
    1C        C   57   3.412   2.513   3.894
    1C        C   58   3.273   2.534   3.896
    1C        C   59   3.483   2.502   4.016
    1C        C   60   3.414   2.502   4.139
    1C        C   61   3.629   2.495   4.260
    1C        C   62   3.488   2.502   4.259
    1C        C   63   3.702   2.503   4.381
    1C        C   64   3.629   2.497   4.502
    1C        C   65   3.832   2.544   4.620
    1C        C   66   3.698   2.499   4.625
    1C        C   67   3.902   2.564   4.741
    1C        C   68   3.840   2.528   4.863
    1C        C   69   4.056   2.578   4.975
    1C        C   70   3.924   2.531   4.975
    1C        C   71   2.823   2.735   2.307
    1C        C   72   2.883   2.693   2.428
    1C        C   73   2.831   2.747   2.548
    1C        C   74   3.002   2.622   2.673
    1C        C   75   2.892   2.710   2.671
    1C        C   76   3.069   2.592   2.794
    1C        C   77   3.009   2.632   2.916
    1C        C   78   3.203   2.549   3.036
    1C        C   79   3.070   2.597   3.038
    1C        C   80   3.273   2.531   3.157
    1C        C   81   3.205   2.547   3.280
    1C        C   82   3.411   2.502   3.401
    1C        C   83   3.272   2.526   3.403
    1C        C   84   3.480   2.501   3.524
    1C        C   85   3.412   2.506   3.648
    1C        C   86   3.622   2.503   3.768
    1C        C   87   3.481   2.497   3.771
    1C        C   88   3.694   2.515   3.889
    1C        C   89   3.624   2.507   4.012
    1C        C   90   3.828   2.554   4.135
    1C        C   91   3.693   2.515   4.135
    1C        C   92   3.897   2.580   4.256
    1C        C   93   3.836   2.548   4.379
    1C        C   94   4.026   2.641   4.498
    1C        C   95   3.902   2.572   4.501
    1C        C   96   4.089   2.673   4.620
    1C        C   97   4.027   2.631   4.739
    1C        C   98   4.188   2.765   4.861
    1C        C   99   4.097   2.655   4.861
    1C        C  100   4.213   2.839   4.977
    1C        C  101   2.815   2.727   2.070
    1C        C  102   2.988   2.592   2.188
    1C        C  103   2.871   2.675   2.188
    1C        C  104   3.061   2.578   2.309
    1C        C  105   3.002   2.617   2.431
    1C        C  106   3.197   2.535   2.547
    1C        C  107   3.064   2.581   2.553
    1C        C  108   3.268   2.522   2.669
    1C        C  109   3.202   2.544   2.791
    1C        C  110   3.410   2.509   2.913
    1C        C  111   3.270   2.528   2.914
    1C        C  112   3.482   2.501   3.034
    1C        C  113   3.412   2.510   3.157
    1C        C  114   3.624   2.500   3.280
    1C        C  115   3.482   2.499   3.279
    1C        C  116   3.693   2.515   3.402
    1C        C  117   3.622   2.502   3.523
    1C        C  118   3.829   2.547   3.644
    1C        C  119   3.692   2.512   3.646
    1C        C  120   3.892   2.579   3.767
    1C        C  121   3.829   2.556   3.891
    1C        C  122   4.022   2.641   4.012
    1C        C  123   3.897   2.575   4.014
    1C        C  124   4.082   2.682   4.133
    1C        C  125   4.025   2.640   4.256
    1C        C  126   4.196   2.769   4.374
    1C        C  127   4.089   2.676   4.377
    1C        C  128   4.245   2.820   4.496
    1C        C  129   4.194   2.768   4.617
    1C        C  130   4.325   2.933   4.736
    1C        C  131   4.239   2.820   4.740
    1C        C  132   4.357   3.002   4.856
    1C        C  133   4.292   2.953   4.970
    1C        C  134   3.168   2.468   2.083
    1C        C  135   3.034   2.509   2.082
    1C        C  136   3.258   2.482   2.189
    1C        C  137   3.195   2.530   2.306
    1C        C  138   3.405   2.488   2.427
    1C        C  139   3.265   2.505   2.426
    1C        C  140   3.480   2.492   2.546
    1C        C  141   3.408   2.502   2.667
    1C        C  142   3.619   2.493   2.790
    1C        C  143   3.478   2.496   2.790
    1C        C  144   3.693   2.501   2.910
    1C        C  145   3.623   2.498   3.033
    1C        C  146   3.830   2.535   3.152
    1C        C  147   3.692   2.504   3.157
    1C        C  148   3.897   2.565   3.273
    1C        C  149   3.829   2.552   3.397
    1C        C  150   4.021   2.634   3.521
    1C        C  151   3.893   2.575   3.521
    1C        C  152   4.080   2.674   3.643
    1C        C  153   4.019   2.641   3.766
    1C        C  154   4.195   2.760   3.886
    1C        C  155   4.081   2.677   3.888
    1C        C  156   4.247   2.811   4.007
    1C        C  157   4.194   2.767   4.131
    1C        C  158   4.344   2.921   4.248
    1C        C  159   4.250   2.815   4.252
    1C        C  160   4.381   2.981   4.371
    1C        C  161   4.337   2.927   4.493
    1C        C  162   4.438   3.114   4.613
    1C        C  163   4.373   2.989   4.615
    1C        C  164   4.467   3.184   4.733
    1C        C  165   4.430   3.122   4.854
    1C        C  166   4.517   3.319   4.968
    1C        C  167   4.483   3.184   4.968
    1C        C  168   3.474   2.440   2.073
    1C        C  169   3.398   2.463   2.189
    1C        C  170   3.619   2.475   2.306
    1C        C  171   3.477   2.470   2.306
    1C        C  172   3.693   2.493   2.425
    1C        C  173   3.621   2.490   2.547
    1C        C  174   3.829   2.533   2.666
    1C        C  175   3.691   2.504   2.669
    1C        C  176   3.900   2.552   2.786
    1C        C  177   3.830   2.533   2.908
    1C        C  178   4.022   2.623   3.032
    1C        C  179   3.896   2.558   3.030
    1C        C  180   4.083   2.662   3.153
    1C        C  181   4.023   2.628   3.277
    1C        C  182   4.198   2.748   3.397
    1C        C  183   4.085   2.663   3.399
    1C        C  184   4.252   2.798   3.517
    1C        C  185   4.196   2.754   3.639
    1C        C  186   4.337   2.913   3.761
    1C        C  187   4.243   2.806   3.761
    1C        C  188   4.380   2.971   3.882
    1C        C  189   4.341   2.916   4.007
    1C        C  190   4.450   3.103   4.125
    1C        C  191   4.388   2.976   4.126
    1C        C  192   4.468   3.171   4.248
    1C        C  193   4.446   3.106   4.372
    1C        C  194   4.506   3.314   4.486
    1C        C  195   4.467   3.179   4.491
    1C        C  196   4.519   3.386   4.607
    1C        C  197   4.506   3.321   4.731
    1C        C  198   4.558   3.535   4.847
    1C        C  199   4.529   3.395   4.851
    1C        C  200   4.584   3.615   4.962
    1C        C  201   3.612   2.418   2.073
    1C        C  202   3.827   2.505   2.182
    1C        C  203   3.692   2.460   2.184
    1C        C  204   3.901   2.535   2.300
    1C        C  205   3.832   2.514   2.421
    1C        C  206   4.022   2.613   2.542
    1C        C  207   3.896   2.549   2.542
    1C        C  208   4.084   2.652   2.663
    1C        C  209   4.024   2.619   2.787
    1C        C  210   4.197   2.740   2.907
    1C        C  211   4.083   2.657   2.909
    1C        C  212   4.255   2.789   3.027
    1C        C  213   4.200   2.741   3.148
    1C        C  214   4.331   2.906   3.272
    1C        C  215   4.245   2.794   3.271
    1C        C  216   4.368   2.971   3.391
    1C        C  217   4.339   2.910   3.515
    1C        C  218   4.434   3.098   3.638
    1C        C  219   4.374   2.970   3.638
    1C        C  220   4.459   3.166   3.759
    1C        C  221   4.442   3.098   3.882
    1C        C  222   4.502   3.305   4.000
    1C        C  223   4.475   3.166   4.001
    1C        C  224   4.516   3.378   4.120
    1C        C  225   4.504   3.307   4.242
    1C        C  226   4.517   3.523   4.362
    1C        C  227   4.511   3.382   4.362
    1C        C  228   4.512   3.597   4.483
    1C        C  229   4.520   3.527   4.605
    1C        C  230   4.503   3.741   4.722
    1C        C  231   4.533   3.602   4.724
    1C        C  232   4.495   3.817   4.841
    1C        C  233   4.542   3.749   4.954
    1C        C  234   4.018   2.604   2.063
    1C        C  235   3.897   2.535   2.065
    1C        C  236   4.085   2.646   2.178
    1C        C  237   4.027   2.603   2.299
    1C        C  238   4.205   2.722   2.420
    1C        C  239   4.089   2.639   2.421
    1C        C  240   4.258   2.776   2.540
    1C        C  241   4.199   2.735   2.661
    1C        C  242   4.337   2.896   2.781
    1C        C  243   4.247   2.788   2.783
    1C        C  244   4.381   2.958   2.901
    1C        C  245   4.342   2.900   3.024
    1C        C  246   4.431   3.089   3.145
    1C        C  247   4.373   2.960   3.148
    1C        C  248   4.454   3.158   3.266
    1C        C  249   4.428   3.099   3.392
    1C        C  250   4.491   3.301   3.511
    1C        C  251   4.457   3.164   3.515
    1C        C  252   4.506   3.369   3.633
    1C        C  253   4.493   3.303   3.757
    1C        C  254   4.518   3.516   3.876
    1C        C  255   4.504   3.376   3.878
    1C        C  256   4.513   3.589   3.997
    1C        C  257   4.511   3.520   4.120
    1C        C  258   4.481   3.732   4.238
    1C        C  259   4.507   3.593   4.240
    1C        C  260   4.468   3.804   4.359
    1C        C  261   4.482   3.735   4.482
    1C        C  262   4.423   3.941   4.602
    1C        C  263   4.471   3.808   4.603
    1C        C  264   4.405   4.013   4.722
    1C        C  265   4.441   3.948   4.842
    1C        C  266   4.316   4.126   4.955
    1C        C  267   4.396   4.012   4.958
    1C        C  268   4.262   2.775   2.061
    1C        C  269   4.201   2.727   2.178
    1C        C  270   4.348   2.882   2.296
    1C        C  271   4.259   2.772   2.299
    1C        C  272   4.385   2.946   2.416
    1C        C  273   4.342   2.889   2.538
    1C        C  274   4.437   3.082   2.658
    1C        C  275   4.376   2.954   2.659
    1C        C  276   4.467   3.150   2.778
    1C        C  277   4.442   3.085   2.901
    1C        C  278   4.502   3.288   3.023
    1C        C  279   4.464   3.152   3.024
    1C        C  280   4.513   3.361   3.143
    1C        C  281   4.494   3.293   3.266
    1C        C  282   4.517   3.508   3.387
    1C        C  283   4.506   3.367   3.386
    1C        C  284   4.512   3.581   3.508
    1C        C  285   4.511   3.510   3.631
    1C        C  286   4.491   3.723   3.750
    1C        C  287   4.515   3.584   3.751
    1C        C  288   4.475   3.795   3.870
    1C        C  289   4.491   3.729   3.994
    1C        C  290   4.421   3.932   4.114
    1C        C  291   4.469   3.799   4.115
    1C        C  292   4.392   4.000   4.235
    1C        C  293   4.421   3.937   4.358
    1C        C  294   4.326   4.128   4.472
    1C        C  295   4.397   4.006   4.479
    1C        C  296   4.290   4.190   4.594
    1C        C  297   4.331   4.135   4.717
    1C        C  298   4.202   4.312   4.831
    1C        C  299   4.285   4.195   4.838
    1C        C  300   4.164   4.395   4.941
    1C        C  301   4.358   2.875   2.058
    1C        C  302   4.467   3.065   2.174
    1C        C  303   4.398   2.940   2.176
    1C        C  304   4.475   3.139   2.295
    1C        C  305   4.446   3.073   2.416
    1C        C  306   4.507   3.281   2.532
    1C        C  307   4.469   3.145   2.536
    1C        C  308   4.513   3.354   2.653
    1C        C  309   4.501   3.287   2.777
    1C        C  310   4.518   3.497   2.896
    1C        C  311   4.516   3.356   2.899
    1C        C  312   4.516   3.570   3.017
    1C        C  313   4.517   3.502   3.141
    1C        C  314   4.486   3.714   3.261
    1C        C  315   4.511   3.574   3.262
    1C        C  316   4.470   3.785   3.382
    1C        C  317   4.490   3.720   3.506
    1C        C  318   4.427   3.924   3.627
    1C        C  319   4.473   3.791   3.627
    1C        C  320   4.399   3.991   3.748
    1C        C  321   4.433   3.930   3.871
    1C        C  322   4.316   4.113   3.989
    1C        C  323   4.393   3.994   3.990
    1C        C  324   4.279   4.177   4.109
    1C        C  325   4.325   4.124   4.232
    1C        C  326   4.186   4.289   4.351
    1C        C  327   4.283   4.187   4.351
    1C        C  328   4.134   4.341   4.472
    1C        C  329   4.193   4.292   4.591
    1C        C  330   4.025   4.432   4.710
    1C        C  331   4.139   4.349   4.709
    1C        C  332   3.967   4.484   4.828
    1C        C  333   4.052   4.478   4.939
    1C        C  334   4.545   3.263   2.057
    1C        C  335   4.537   3.123   2.063
    1C        C  336   4.534   3.344   2.171
    1C        C  337   4.512   3.277   2.293
    1C        C  338   4.519   3.494   2.410
    1C        C  339   4.524   3.353   2.412
    1C        C  340   4.517   3.564   2.532
    1C        C  341   4.520   3.495   2.655
    1C        C  342   4.488   3.709   2.772
    1C        C  343   4.513   3.570   2.775
    1C        C  344   4.473   3.780   2.894
    1C        C  345   4.490   3.709   3.014
    1C        C  346   4.419   3.910   3.138
    1C        C  347   4.468   3.777   3.136
    1C        C  348   4.394   3.982   3.257
    1C        C  349   4.425   3.918   3.379
    1C        C  350   4.324   4.104   3.504
    1C        C  351   4.398   3.984   3.502
    1C        C  352   4.280   4.166   3.623
    1C        C  353   4.320   4.108   3.745
    1C        C  354   4.175   4.267   3.863
    1C        C  355   4.273   4.166   3.865
    1C        C  356   4.121   4.315   3.985
    1C        C  357   4.178   4.276   4.109
    1C        C  358   4.010   4.406   4.228
    1C        C  359   4.132   4.334   4.228
    1C        C  360   3.949   4.451   4.348
    1C        C  361   4.015   4.418   4.468
    1C        C  362   3.826   4.515   4.591
    1C        C  363   3.954   4.454   4.590
    1C        C  364   3.759   4.542   4.712
    1C        C  365   3.835   4.534   4.831
    1C        C  366   3.627   4.586   4.949
    1C        C  367   3.764   4.562   4.948
    1C        C  368   4.513   3.559   2.050
    1C        C  369   4.523   3.485   2.169
    1C        C  370   4.502   3.703   2.286
    1C        C  371   4.516   3.563   2.286
    1C        C  372   4.481   3.772   2.407
    1C        C  373   4.494   3.703   2.530
    1C        C  374   4.426   3.909   2.645
    1C        C  375   4.476   3.777   2.649
    1C        C  376   4.388   3.971   2.767
    1C        C  377   4.425   3.913   2.891
    1C        C  378   4.320   4.094   3.012
    1C        C  379   4.393   3.973   3.015
    1C        C  380   4.282   4.158   3.132
    1C        C  381   4.323   4.104   3.256
    1C        C  382   4.180   4.255   3.376
    1C        C  383   4.278   4.154   3.380
    1C        C  384   4.124   4.306   3.495
    1C        C  385   4.181   4.267   3.618
    1C        C  386   4.005   4.388   3.741
    1C        C  387   4.125   4.313   3.739
    1C        C  388   3.942   4.425   3.861
    1C        C  389   4.004   4.393   3.984
    1C        C  390   3.812   4.483   4.106
    1C        C  391   3.943   4.430   4.106
    1C        C  392   3.748   4.513   4.228
    1C        C  393   3.817   4.501   4.351
    1C        C  394   3.613   4.551   4.472
    1C        C  395   3.754   4.536   4.472
    1C        C  396   3.545   4.563   4.595
    1C        C  397   3.620   4.567   4.714
    1C        C  398   3.407   4.554   4.839
    1C        C  399   3.547   4.576   4.835
    1C        C  400   3.338   4.520   4.956
    1C        C  401   4.500   3.697   2.054
    1C        C  402   4.447   3.913   2.163
    1C        C  403   4.489   3.779   2.167
    1C        C  404   4.408   3.972   2.285
    1C        C  405   4.436   3.906   2.407
    1C        C  406   4.322   4.095   2.525
    1C        C  407   4.396   3.975   2.524
    1C        C  408   4.281   4.155   2.646
    1C        C  409   4.316   4.092   2.768
    1C        C  410   4.176   4.251   2.885
    1C        C  411   4.275   4.150   2.890
    1C        C  412   4.122   4.296   3.008
    1C        C  413   4.180   4.256   3.131
    1C        C  414   4.005   4.375   3.253
    1C        C  415   4.125   4.299   3.253
    1C        C  416   3.942   4.410   3.374
    1C        C  417   4.007   4.386   3.497
    1C        C  418   3.815   4.480   3.618
    1C        C  419   3.942   4.418   3.618
    1C        C  420   3.744   4.498   3.738
    1C        C  421   3.812   4.481   3.861
    1C        C  422   3.605   4.528   3.984
    1C        C  423   3.744   4.502   3.983
    1C        C  424   3.537   4.541   4.107
    1C        C  425   3.609   4.536   4.228
    1C        C  426   3.399   4.543   4.354
    1C        C  427   3.540   4.546   4.351
    1C        C  428   3.332   4.542   4.478
    1C        C  429   3.403   4.557   4.599
    1C        C  430   3.193   4.521   4.721
    1C        C  431   3.331   4.555   4.720
    1C        C  432   3.123   4.497   4.842
    1C        C  433   3.201   4.499   4.959
    1C        C  434   4.385   4.123   2.050
    1C        C  435   4.446   3.997   2.050
    1C        C  436   4.303   4.160   2.161
    1C        C  437   4.332   4.092   2.283
    1C        C  438   4.184   4.252   2.401
    1C        C  439   4.283   4.151   2.401
    1C        C  440   4.126   4.299   2.521
    1C        C  441   4.181   4.254   2.643
    1C        C  442   4.006   4.379   2.766
    1C        C  443   4.123   4.300   2.764
    1C        C  444   3.942   4.411   2.888
    1C        C  445   4.004   4.372   3.009
    1C        C  446   3.813   4.465   3.129
    1C        C  447   3.943   4.409   3.131
    1C        C  448   3.746   4.487   3.251
    1C        C  449   3.812   4.467   3.375
    1C        C  450   3.606   4.517   3.492
    1C        C  451   3.746   4.497   3.496
    1C        C  452   3.537   4.528   3.615
    1C        C  453   3.605   4.526   3.738
    1C        C  454   3.397   4.542   3.863
    1C        C  455   3.538   4.545   3.861
    1C        C  456   3.329   4.530   3.986
    1C        C  457   3.396   4.535   4.110
    1C        C  458   3.187   4.506   4.236
    1C        C  459   3.326   4.530   4.233
    1C        C  460   3.120   4.493   4.360
    1C        C  461   3.193   4.516   4.479
    1C        C  462   2.996   4.436   4.602
    1C        C  463   3.123   4.498   4.600
    1C        C  464   2.930   4.401   4.722
    1C        C  465   2.990   4.444   4.844
    1C        C  466   2.803   4.334   4.960
    1C        C  467   2.903   4.432   4.957
    1C        C  468   4.121   4.282   2.041
    1C        C  469   4.190   4.248   2.159
    1C        C  470   4.009   4.370   2.278
    1C        C  471   4.132   4.299   2.278
    1C        C  472   3.937   4.396   2.397
    1C        C  473   4.005   4.372   2.519
    1C        C  474   3.813   4.456   2.641
    1C        C  475   3.946   4.410   2.641
    1C        C  476   3.745   4.481   2.763
    1C        C  477   3.812   4.467   2.886
    1C        C  478   3.605   4.516   3.006
    1C        C  479   3.744   4.487   3.008
    1C        C  480   3.535   4.521   3.128
    1C        C  481   3.607   4.510   3.250
    1C        C  482   3.394   4.527   3.373
    1C        C  483   3.535   4.525   3.371
    1C        C  484   3.324   4.523   3.496
    1C        C  485   3.395   4.534   3.617
    1C        C  486   3.189   4.497   3.743
    1C        C  487   3.326   4.532   3.741
    1C        C  488   3.125   4.475   3.867
    1C        C  489   3.190   4.502   3.989
    1C        C  490   2.999   4.415   4.113
    1C        C  491   3.124   4.481   4.112
    1C        C  492   2.940   4.384   4.237
    1C        C  493   2.995   4.429   4.359
    1C        C  494   2.831   4.297   4.482
    1C        C  495   2.934   4.394   4.482
    1C        C  496   2.772   4.257   4.603
    1C        C  497   2.815   4.317   4.723
    1C        C  498   2.667   4.164   4.844
    1C        C  499   2.753   4.275   4.843
    1C        C  500   2.593   4.117   4.953
    1C        C  501   4.003   4.355   2.044
    1C        C  502   3.810   4.457   2.155
    1C        C  503   3.940   4.403   2.159
    1C        C  504   3.740   4.475   2.277
    1C        C  505   3.805   4.446   2.399
    1C        C  506   3.603   4.504   2.521
    1C        C  507   3.742   4.479   2.521
    1C        C  508   3.534   4.514   2.644
    1C        C  509   3.607   4.511   2.765
    1C        C  510   3.392   4.522   2.884
    1C        C  511   3.533   4.523   2.884
    1C        C  512   3.322   4.521   3.007
    1C        C  513   3.394   4.524   3.128
    1C        C  514   3.185   4.496   3.255
    1C        C  515   3.323   4.522   3.251
    1C        C  516   3.117   4.472   3.377
    1C        C  517   3.186   4.495   3.498
    1C        C  518   2.995   4.411   3.624
    1C        C  519   3.120   4.476   3.622
    1C        C  520   2.937   4.373   3.747
    1C        C  521   3.001   4.409   3.869
    1C        C  522   2.832   4.283   3.995
    1C        C  523   2.942   4.372   3.992
    1C        C  524   2.785   4.236   4.120
    1C        C  525   2.830   4.294   4.240
    1C        C  526   2.697   4.131   4.365
    1C        C  527   2.774   4.250   4.362
    1C        C  528   2.653   4.075   4.488
    1C        C  529   2.682   4.148   4.605
    1C        C  530   2.579   3.961   4.731
    1C        C  531   2.640   4.089   4.727
    1C        C  532   2.537   3.901   4.853
    1C        C  533   2.529   3.992   4.964
    1C        C  534   3.614   4.555   2.039
    1C        C  535   3.746   4.507   2.041
    1C        C  536   3.534   4.539   2.157
    1C        C  537   3.603   4.512   2.278
    1C        C  538   3.391   4.512   2.397
    1C        C  539   3.532   4.519   2.400
    1C        C  540   3.321   4.505   2.520
    1C        C  541   3.393   4.512   2.641
    1C        C  542   3.181   4.486   2.766
    1C        C  543   3.321   4.509   2.763
    1C        C  544   3.117   4.466   2.890
    1C        C  545   3.185   4.487   3.012
    1C        C  546   2.992   4.404   3.135
    1C        C  547   3.115   4.474   3.134
    1C        C  548   2.933   4.368   3.258
    1C        C  549   2.990   4.409   3.381
    1C        C  550   2.825   4.279   3.505
    1C        C  551   2.932   4.371   3.504
    1C        C  552   2.777   4.232   3.629
    1C        C  553   2.829   4.282   3.750
    1C        C  554   2.696   4.120   3.875
    1C        C  555   2.783   4.231   3.873
    1C        C  556   2.657   4.065   3.999
    1C        C  557   2.696   4.126   4.121
    1C        C  558   2.595   3.942   4.244
    1C        C  559   2.661   4.067   4.245
    1C        C  560   2.565   3.879   4.367
    1C        C  561   2.588   3.949   4.487
    1C        C  562   2.532   3.751   4.615
    1C        C  563   2.557   3.890   4.611
    1C        C  564   2.518   3.681   4.737
    1C        C  565   2.517   3.760   4.856
    1C        C  566   2.521   3.546   4.975
    1C        C  567   2.522   3.685   4.974
    1C        C  568   3.326   4.473   2.039
    1C        C  569   3.395   4.510   2.155
    1C        C  570   3.181   4.477   2.282
    1C        C  571   3.320   4.508   2.276
    1C        C  572   3.110   4.458   2.402
    1C        C  573   3.183   4.477   2.522
    1C        C  574   2.986   4.403   2.649
    1C        C  575   3.113   4.465   2.644
    1C        C  576   2.929   4.361   2.772
    1C        C  577   2.994   4.397   2.892
    1C        C  578   2.825   4.271   3.013
    1C        C  579   2.933   4.361   3.014
    1C        C  580   2.777   4.222   3.137
    1C        C  581   2.826   4.275   3.258
    1C        C  582   2.698   4.111   3.384
    1C        C  583   2.783   4.224   3.382
    1C        C  584   2.657   4.055   3.508
    1C        C  585   2.692   4.119   3.629
    1C        C  586   2.596   3.932   3.755
    1C        C  587   2.658   4.059   3.753
    1C        C  588   2.570   3.870   3.879
    1C        C  589   2.598   3.937   4.000
    1C        C  590   2.537   3.736   4.127
    1C        C  591   2.573   3.873   4.124
    1C        C  592   2.523   3.672   4.251
    1C        C  593   2.532   3.742   4.374
    1C        C  594   2.514   3.533   4.492
    1C        C  595   2.522   3.674   4.497
    1C        C  596   2.516   3.465   4.617
    1C        C  597   2.517   3.539   4.737
    1C        C  598   2.532   3.327   4.862
    1C        C  599   2.526   3.468   4.859
    1C        C  600   2.532   3.249   4.978
    1C        C  601   3.194   4.433   2.045
    1C        C  602   2.979   4.396   2.161
    1C        C  603   3.116   4.440   2.161
    1C        C  604   2.923   4.355   2.285
    1C        C  605   2.984   4.395   2.405
    1C        C  606   2.813   4.275   2.527
    1C        C  607   2.925   4.361   2.529
    1C        C  608   2.763   4.225   2.649
    1C        C  609   2.820   4.271   2.770
    1C        C  610   2.687   4.107   2.894
    1C        C  611   2.773   4.218   2.893
    1C        C  612   2.654   4.048   3.018
    1C        C  613   2.694   4.107   3.140
    1C        C  614   2.589   3.926   3.264
    1C        C  615   2.656   4.050   3.264
    1C        C  616   2.570   3.861   3.388
    1C        C  617   2.601   3.926   3.510
    1C        C  618   2.529   3.730   3.638
    1C        C  619   2.569   3.865   3.634
    1C        C  620   2.515   3.663   3.762
    1C        C  621   2.529   3.734   3.883
    1C        C  622   2.511   3.524   4.008
    1C        C  623   2.524   3.664   4.005
    1C        C  624   2.515   3.455   4.132
    1C        C  625   2.514   3.530   4.251
    1C        C  626   2.537   3.318   4.377
    1C        C  627   2.521   3.458   4.373
    1C        C  628   2.555   3.253   4.501
    1C        C  629   2.539   3.326   4.621
    1C        C  630   2.600   3.121   4.744
    1C        C  631   2.558   3.257   4.742
    1C        C  632   2.615   3.048   4.865
    1C        C  633   2.557   3.111   4.980
    1C        C  634   2.782   4.307   2.058
    1C        C  635   2.891   4.395   2.048
    1C        C  636   2.744   4.229   2.168
    1C        C  637   2.807   4.273   2.287
    1C        C  638   2.673   4.108   2.410
    1C        C  639   2.760   4.219   2.409
    1C        C  640   2.638   4.049   2.533
    1C        C  641   2.683   4.108   2.653
    1C        C  642   2.584   3.917   2.777
    1C        C  643   2.645   4.045   2.773
    1C        C  644   2.558   3.854   2.900
    1C        C  645   2.586   3.924   3.019
    1C        C  646   2.527   3.723   3.147
    1C        C  647   2.559   3.861   3.143
    1C        C  648   2.515   3.654   3.270
    1C        C  649   2.533   3.724   3.392
    1C        C  650   2.506   3.519   3.518
    1C        C  651   2.516   3.660   3.516
    1C        C  652   2.507   3.449   3.641
    1C        C  653   2.501   3.522   3.762
    1C        C  654   2.528   3.313   3.888
    1C        C  655   2.507   3.453   3.885
    1C        C  656   2.547   3.245   4.010
    1C        C  657   2.538   3.316   4.132
    1C        C  658   2.604   3.117   4.258
    1C        C  659   2.553   3.249   4.255
    1C        C  660   2.640   3.056   4.380
    1C        C  661   2.608   3.121   4.502
    1C        C  662   2.707   2.934   4.626
    1C        C  663   2.634   3.055   4.624
    1C        C  664   2.750   2.875   4.747
    1C        C  665   2.695   2.929   4.866
    1C        C  666   2.743   2.867   4.983
    1C        C  667   2.691   4.018   2.055
    1C        C  668   2.686   4.101   2.168
    1C        C  669   2.598   3.905   2.289
    1C        C  670   2.646   4.039   2.289
    1C        C  671   2.568   3.846   2.413
    1C        C  672   2.581   3.920   2.533
    1C        C  673   2.521   3.716   2.656
    1C        C  674   2.555   3.853   2.654
    1C        C  675   2.514   3.646   2.778
    1C        C  676   2.528   3.716   2.901
    1C        C  677   2.506   3.511   3.028
    1C        C  678   2.514   3.652   3.026
    1C        C  679   2.504   3.441   3.151
    1C        C  680   2.506   3.513   3.273
    1C        C  681   2.534   3.307   3.400
    1C        C  682   2.508   3.446   3.397
    1C        C  683   2.548   3.241   3.525
    1C        C  684   2.524   3.309   3.647
    1C        C  685   2.594   3.108   3.771
    1C        C  686   2.539   3.238   3.769
    1C        C  687   2.623   3.044   3.893
    1C        C  688   2.582   3.108   4.013
    1C        C  689   2.709   2.936   4.137
    1C        C  690   2.630   3.054   4.134
    1C        C  691   2.753   2.879   4.259
    1C        C  692   2.715   2.937   4.382
    1C        C  693   2.753   2.879   4.505
    1C        C  694   2.629   3.892   2.052
    1C        C  695   2.529   3.702   2.173
    1C        C  696   2.578   3.834   2.169
    1C        C  697   2.512   3.635   2.296
    1C        C  698   2.531   3.709   2.415
    1C        C  699   2.492   3.502   2.540
    1C        C  700   2.506   3.642   2.536
    1C        C  701   2.500   3.434   2.664
    1C        C  702   2.499   3.506   2.785
    1C        C  703   2.527   3.297   2.911
    1C        C  704   2.507   3.437   2.908
    1C        C  705   2.537   3.229   3.034
    1C        C  706   2.522   3.301   3.155
    1C        C  707   2.596   3.104   3.279
    1C        C  708   2.543   3.235   3.279
    1C        C  709   2.630   3.046   3.403
    1C        C  710   2.601   3.110   3.526
    1C        C  711   2.714   2.933   3.650
    1C        C  712   2.630   3.047   3.649
    1C        C  713   2.754   2.877   3.773
    1C        C  714   2.710   2.932   3.896
    1C        C  715   2.756   2.877   4.018
    1C        C  716   2.445   3.497   2.061
    1C        C  717   2.488   3.631   2.060
    1C        C  718   2.461   3.419   2.180
    1C        C  719   2.484   3.496   2.298
    1C        C  720   2.511   3.287   2.424
    1C        C  721   2.485   3.426   2.421
    1C        C  722   2.535   3.220   2.546
    1C        C  723   2.523   3.294   2.665
    1C        C  724   2.590   3.095   2.787
    1C        C  725   2.541   3.228   2.789
    1C        C  726   2.614   3.032   2.911
    1C        C  727   2.587   3.097   3.033
    1C        C  728   2.700   2.920   3.159
    1C        C  729   2.620   3.037   3.157
    1C        C  730   2.752   2.870   3.280
    1C        C  731   2.709   2.929   3.401
    1C        C  732   2.756   2.880   3.525
    1C        C  733   2.480   3.193   2.073
    1C        C  734   2.485   3.278   2.184
    1C        C  735   2.579   3.083   2.302
    1C        C  736   2.522   3.213   2.304
    1C        C  737   2.607   3.016   2.424
    1C        C  738   2.581   3.086   2.543
    1C        C  739   2.695   2.909   2.670
    1C        C  740   2.619   3.028   2.666
    1C        C  741   2.737   2.855   2.793
    1C        C  742   2.691   2.914   2.914
    1C        C  743   2.740   2.863   3.036
    1C        C  744   2.536   3.065   2.070
    1C        C  745   2.680   2.896   2.184
    1C        C  746   2.604   3.015   2.181
    1C        C  747   2.726   2.839   2.304
    1C        C  748   2.680   2.894   2.426
    1C        C  749   2.732   2.847   2.548
    1C        C  750   2.730   2.837   2.067
    1C        C  751   3.644   2.340   1.951
    1C        O  752   3.619   2.217   1.941
    1C        O  753   3.644   2.406   1.828
    1C        C  754   4.632   3.052   1.974
    1C        O  755   4.623   3.051   1.849
    1C        O  756   4.687   2.932   2.021
    1C        C  757   4.465   4.218   1.968
    1C        O  758   4.555   4.289   2.020
    1C        O  759   4.471   4.201   1.829
    1C        C  760   3.575   4.637   1.923
    1C        O  761   3.599   4.761   1.927
    1C        O  762   3.548   4.591   1.793
    1C        C  763   2.878   4.510   1.956
    1C        O  764   2.903   4.487   1.835
    1C        O  765   2.907   4.642   1.994
    1C        C  766   2.322   3.485   1.980
    1C        O  767   2.313   3.458   1.857
    1C        O  768   2.195   3.464   2.035
    1C        C  769   4.701   3.598   5.050
    1C        O  770   4.689   3.591   5.175
    1C        O  771   4.831   3.599   4.998
    1C        C  772   4.268   4.448   5.033
    1C        O  773   4.250   4.453   5.158
    1C        O  774   4.344   4.562   5.007
    1C        C  775   4.146   2.517   5.075
    1C        O  776   4.262   2.482   5.038
    1C        O  777   4.150   2.552   5.210
    1C        C  778   2.897   4.531   5.067
    1C        O  779   2.856   4.648   5.042
    1C        O  780   2.945   4.505   5.196
    1C        C  781   2.459   3.028   5.052
    1C        O  782   2.341   3.032   5.008
    1C        O  783   2.484   2.984   5.182
    1C        C  784   2.408   4.007   5.048
    1C        O  785   2.310   4.082   5.026
    1C        O  786   2.420   3.952   5.176
    1C        C  787   2.946   2.426   1.997
    1C        O  788   2.909   2.466   1.884
    1C        O  789   2.912   2.293   2.019
    1C        C  790   3.167   2.364   5.055
    1C        O  791   3.188   2.250   5.006
    1C        O  792   3.200   2.367   5.190
    1C        H  793   4.309   3.002   5.064
    1C        H  794   4.200   2.785   5.068
    1C        H  795   4.509   3.127   5.055
    1C        H  796   4.527   3.371   5.061
    1C        H  797   4.590   3.808   5.029
    1C        H  798   4.453   3.990   5.046
    1C        H  799   4.246   4.117   5.036
    1C        H  800   4.054   4.559   5.009
    1C        H  801   3.821   4.564   5.039
    1C        H  802   3.575   4.589   5.043
    1C        H  803   3.390   4.473   5.038
    1C        H  804   3.161   4.471   5.054
    1C        H  805   3.874   2.537   5.069
    1C        H  806   3.678   2.487   5.077
    1C        H  807   2.989   2.539   5.058
    1C        H  808   3.437   2.489   5.073
    1C        H  809   2.872   2.728   5.077
    1C        H  810   2.699   2.888   5.078
    1C        H  811   2.491   3.289   5.068
    1C        H  812   2.565   3.503   5.063
    1C        H  813   2.542   3.726   5.071
    1C        H  814   2.591   4.174   5.043
    1C        H  815   2.813   4.264   5.041
    1C        H  816   2.732   2.891   1.974
    1C        H  817   2.833   2.684   1.974
    1C        H  818   3.212   2.464   1.985
    1C        H  819   3.430   2.457   1.977
    1C        H  820   3.880   2.470   1.982
    1C        H  821   4.027   2.664   1.974
    1C        H  822   4.235   2.739   1.964
    1C        H  823   4.397   2.905   1.962
    1C        H  824   4.597   3.303   1.973
    1C        H  825   4.543   3.513   1.959
    1C        H  826   4.457   3.732   1.962
    1C        H  827   3.808   4.535   1.958
    1C        H  828   3.976   4.402   1.951
    1C        H  829   4.121   4.207   1.964
    1C        H  830   4.491   3.967   1.958
    1C        H  831   2.564   3.879   1.967
    1C        H  832   2.715   4.062   1.961
    1C        H  833   2.710   4.303   1.979
    1C        H  834   3.371   4.488   1.943
    1C        H  835   3.147   4.449   1.951
    1C        H  836   2.488   2.997   2.002
    1C        H  837   2.426   3.230   1.989
    1C        H  838   2.546   3.656   1.973
    2V3OU   H29  839   2.808   3.548   3.463
    2V3OU   C27  840   2.791   3.501   3.563
    2V3OU   H27  841   2.739   3.569   3.637
    2V3OU   H28  842   2.743   3.401   3.554
    2V3OU   O11  843   2.914   3.473   3.629
    2V3OU   C15  844   2.927   3.400   3.745
    2V3OU   C13  845   3.053   3.375   3.805
    2V3OU   C14  846   3.081   3.270   3.893
    2V3OU   C16  847   2.979   3.189   3.940
    2V3OU    H6  848   2.995   3.103   4.007
    2V3OU   C12  849   3.214   3.230   3.944
    2V3OU    O2  850   3.239   3.136   4.023
    2V3OU   C10  851   3.325   3.300   3.878
    2V3OU    C8  852   3.453   3.265   3.921
    2V3OU   O10  853   3.486   3.149   3.982
    2V3OU   H26  854   3.399   3.115   4.007
    2V3OU    C6  855   3.561   3.350   3.881
    2V3OU    C5  856   3.535   3.466   3.809
    2V3OU    C4  857   3.701   3.299   3.884
    2V3OU    H4  858   3.716   3.226   3.970
    2V3OU    H5  859   3.713   3.228   3.796
    2V3OU    C2  860   3.816   3.400   3.886
    2V3OU    O6  861   3.808   3.472   4.009
    2V3OU   H21  862   3.771   3.556   3.978
    2V3OU    C3  863   3.776   3.494   3.773
    2V3OU    H2  864   3.853   3.575   3.761
    2V3OU    H3  865   3.779   3.441   3.674
    2V3OU   C25  866   3.952   3.332   3.866
    2V3OU    O7  867   4.000   3.294   3.760
    2V3OU   C26  868   4.029   3.285   3.989
    2V3OU   H22  869   4.059   3.384   4.032
    2V3OU   H23  870   4.117   3.223   3.957
    2V3OU    O8  871   3.961   3.206   4.085
    2V3OU   H24  872   3.917   3.261   4.152
    2V3OU    C1  873   3.644   3.567   3.788
    2V3OU    H1  874   3.621   3.620   3.690
    2V3OU    O3  875   3.658   3.655   3.899
    2V3OU   C19  876   3.614   3.791   3.887
    2V3OU    H9  877   3.516   3.795   3.831
    2V3OU    O4  878   3.714   3.851   3.807
    2V3OU   C20  879   3.845   3.875   3.857
    2V3OU   H10  880   3.884   3.769   3.866
    2V3OU   C24  881   3.614   3.860   4.024
    2V3OU   H16  882   3.554   3.798   4.095
    2V3OU   H17  883   3.562   3.959   4.013
    2V3OU   C23  884   3.751   3.873   4.091
    2V3OU   H15  885   3.793   3.767   4.101
    2V3OU    N1  886   3.731   3.949   4.212
    2V3OU   H19  887   3.798   3.923   4.281
    2V3OU   H20  888   3.641   3.930   4.253
    2V3OU   C21  889   3.848   3.945   3.993
    2V3OU   H11  890   3.953   3.920   4.027
    2V3OU    O5  891   3.828   4.086   3.988
    2V3OU   H18  892   3.780   4.106   4.069
    2V3OU   C22  893   3.915   3.950   3.745
    2V3OU   H12  894   3.870   4.052   3.736
    2V3OU   H13  895   3.899   3.895   3.648
    2V3OU   H14  896   4.025   3.957   3.762
    2V3OU   C11  897   3.162   3.469   3.777
    2V3OU    O1  898   3.133   3.584   3.738
    2V3OU    C9  899   3.299   3.416   3.801
    2V3OU    C7  900   3.403   3.500   3.763
    2V3OU    O9  901   3.381   3.626   3.711
    2V3OU   H25  902   3.285   3.630   3.701
    2V3OU   C17  903   2.829   3.314   3.798
    2V3OU    H7  904   2.731   3.354   3.773
    2V3OU   C18  905   2.850   3.216   3.895
    2V3OU    H8  906   2.786   3.182   3.977
    3SOL     OW  907   3.011   4.110   5.572
    3SOL    HW1  908   3.093   4.166   5.583
    3SOL    HW2  909   3.035   4.023   5.529
    4SOL     OW  910   6.261   6.849   6.650
    4SOL    HW1  911   6.175   6.889   6.684
    4SOL    HW2  912   6.321   6.922   6.617
    5SOL     OW  913   4.831   2.218   2.724
    5SOL    HW1  914   4.890   2.175   2.792
    5SOL    HW2  915   4.784   2.296   2.765
    6SOL     OW  916   4.805   2.504   3.198
    6SOL    HW1  917   4.795   2.565   3.120
    6SOL    HW2  918   4.715   2.482   3.235
    7SOL     OW  919   1.196   4.093   3.874
    7SOL    HW1  920   1.180   4.092   3.972
    7SOL    HW2  921   1.286   4.055   3.854
    8SOL     OW  922   2.876   2.122   5.516
    8SOL    HW1  923   2.784   2.105   5.478
    8SOL    HW2  924   2.942   2.127   5.441
    9SOL     OW  925   6.238   2.039   6.299
    9SOL    HW1  926   6.245   1.953   6.349
    9SOL    HW2  927   6.242   2.115   6.365
   10SOL     OW  928   2.908   4.807   4.356
   10SOL    HW1  929   2.859   4.786   4.271
   10SOL    HW2  930   2.906   4.726   4.415
   11SOL     OW  931   1.658   1.279   6.728
   11SOL    HW1  932   1.755   1.259   6.726
   11SOL    HW2  933   1.610   1.211   6.784
   12SOL     OW  934   2.969   4.832   3.937
   12SOL    HW1  935   2.887   4.820   3.880
   12SOL    HW2  936   3.046   4.858   3.879
   13SOL     OW  937   3.881   6.044   3.168
   13SOL    HW1  938   3.911   5.952   3.193
   13SOL    HW2  939   3.958   6.107   3.171
   14SOL     OW  940   4.243   3.887   6.613
   14SOL    HW1  941   4.218   3.831   6.692
   14SOL    HW2  942   4.234   3.834   6.530
   15SOL     OW  943   0.824   6.670   6.489
   15SOL    HW1  944   0.758   6.661   6.564
   15SOL    HW2  945   0.875   6.584   6.479
   16SOL     OW  946   5.923   2.923   6.450
   16SOL    HW1  947   5.921   2.919   6.550
   16SOL    HW2  948   5.843   2.973   6.417
   17SOL     OW  949   5.192   0.407   6.382
   17SOL    HW1  950   5.121   0.452   6.436
   17SOL    HW2  951   5.191   0.444   6.289
   18SOL     OW  952   3.776   1.039   4.715
   18SOL    HW1  953   3.703   1.094   4.674
   18SOL    HW2  954   3.865   1.071   4.682
   19SOL     OW  955   1.049   2.347   1.788
   19SOL    HW1  956   0.981   2.383   1.725
   19SOL    HW2  957   1.014   2.265   1.833
   20SOL     OW  958   5.056   1.991   5.273
   20SOL    HW1  959   5.125   1.936   5.321
   20SOL    HW2  960   4.971   1.938   5.265
   21SOL     OW  961   2.562   0.508   3.389
   21SOL    HW1  962   2.573   0.592   3.441
   21SOL    HW2  963   2.637   0.501   3.322
   22SOL     OW  964   1.109   6.400   6.695
   22SOL    HW1  965   1.053   6.394   6.612
   22SOL    HW2  966   1.094   6.318   6.751
   23SOL     OW  967   3.852   5.400   2.231
   23SOL    HW1  968   3.819   5.309   2.254
   23SOL    HW2  969   3.943   5.394   2.190
   24SOL     OW  970   3.290   0.346   2.757
   24SOL    HW1  971   3.376   0.377   2.716
   24SOL    HW2  972   3.309   0.302   2.845
   25SOL     OW  973   2.220   0.006   3.965
   25SOL    HW1  974   2.121   0.021   3.954
   25SOL    HW2  975   2.264   0.092   3.990
   26SOL     OW  976   0.363   2.045   0.061
   26SOL    HW1  977   0.293   2.031   7.011
   26SOL    HW2  978   0.453   2.049   0.019
   27SOL     OW  979   1.807   1.477   1.971
   27SOL    HW1  980   1.899   1.510   1.947
   27SOL    HW2  981   1.808   1.441   2.064
   28SOL     OW  982   0.156   1.094   4.571
   28SOL    HW1  983   0.083   1.063   4.509
   28SOL    HW2  984   0.229   1.026   4.573
   29SOL     OW  985   6.446   0.686   1.084
   29SOL    HW1  986   6.527   0.720   1.132
   29SOL    HW2  987   6.372   0.671   1.149
   30SOL     OW  988   3.728   0.394   5.303
   30SOL    HW1  989   3.629   0.408   5.310
   30SOL    HW2  990   3.749   0.353   5.214
   31SOL     OW  991   0.316   2.280   5.587
   31SOL    HW1  992   0.388   2.331   5.634
   31SOL    HW2  993   0.348   2.255   5.495
   32SOL     OW  994   1.569   1.503   2.302
   32SOL    HW1  995   1.562   1.403   2.293
   32SOL    HW2  996   1.496   1.536   2.361
   33SOL     OW  997   0.894   4.435   5.113
   33SOL    HW1  998   0.816   4.495   5.133
   33SOL    HW2  999   0.954   4.430   5.193
   34SOL     OW 1000   2.351   5.836   5.029
   34SOL    HW1 1001   2.305   5.832   4.940
   34SOL    HW2 1002   2.446   5.806   5.019
   35SOL     OW 1003   4.187   1.930   5.418
   35SOL    HW1 1004   4.111   1.986   5.387
   35SOL    HW2 1005   4.199   1.943   5.517
   36SOL     OW 1006   4.965   1.457   3.835
   36SOL    HW1 1007   4.990   1.410   3.750
   36SOL    HW2 1008   5.018   1.541   3.844
   37SOL     OW 1009   1.987   1.643   5.041
   37SOL    HW1 1010   2.054   1.644   4.967
   37SOL    HW2 1011   2.031   1.612   5.125
   38SOL     OW 1012   2.329   3.802   1.779
   38SOL    HW1 1013   2.253   3.738   1.773
   38SOL    HW2 1014   2.401   3.776   1.715
   39SOL     OW 1015   6.341   4.818   6.167
   39SOL    HW1 1016   6.394   4.773   6.239
   39SOL    HW2 1017   6.339   4.760   6.086
   40SOL     OW 1018   3.481   1.962   6.979
   40SOL    HW1 1019   3.435   1.946   6.891
   40SOL    HW2 1020   3.579   1.949   6.968
   41SOL     OW 1021   6.684   3.426   2.489
   41SOL    HW1 1022   6.720   3.430   2.582
   41SOL    HW2 1023   6.604   3.486   2.482
   42SOL     OW 1024   3.308   5.847   4.370
   42SOL    HW1 1025   3.230   5.805   4.415
   42SOL    HW2 1026   3.335   5.791   4.291
   43SOL     OW 1027   4.275   0.256   5.564
   43SOL    HW1 1028   4.178   0.267   5.583
   43SOL    HW2 1029   4.313   0.344   5.533
   44SOL     OW 1030   5.841   2.355   4.879
   44SOL    HW1 1031   5.908   2.418   4.919
   44SOL    HW2 1032   5.772   2.407   4.828
   45SOL     OW 1033   4.032   5.458   1.280
   45SOL    HW1 1034   4.127   5.428   1.285
   45SOL    HW2 1035   3.976   5.387   1.238
   46SOL     OW 1036   0.549   2.968   4.160
   46SOL    HW1 1037   0.527   3.014   4.074
   46SOL    HW2 1038   0.608   2.890   4.143
   47SOL     OW 1039   4.362   3.766   1.652
   47SOL    HW1 1040   4.375   3.736   1.557
   47SOL    HW2 1041   4.345   3.686   1.710
   48SOL     OW 1042   6.989   2.791   6.330
   48SOL    HW1 1043   6.893   2.795   6.300
   48SOL    HW2 1044   7.010   2.872   6.385
   49SOL     OW 1045   5.483   2.639   1.378
   49SOL    HW1 1046   5.481   2.686   1.467
   49SOL    HW2 1047   5.541   2.558   1.385
   50SOL     OW 1048   6.136   1.404   5.467
   50SOL    HW1 1049   6.228   1.394   5.431
   50SOL    HW2 1050   6.087   1.317   5.456
   51SOL     OW 1051   1.919   6.253   2.864
   51SOL    HW1 1052   2.005   6.219   2.825
   51SOL    HW2 1053   1.926   6.352   2.878
   52SOL     OW 1054   5.339   2.917   1.864
   52SOL    HW1 1055   5.397   2.909   1.783
   52SOL    HW2 1056   5.244   2.896   1.839
   53SOL     OW 1057   5.517   0.205   3.342
   53SOL    HW1 1058   5.568   0.279   3.299
   53SOL    HW2 1059   5.491   0.231   3.435
   54SOL     OW 1060   5.375   6.806   0.229
   54SOL    HW1 1061   5.309   6.878   0.209
   54SOL    HW2 1062   5.329   6.729   0.273
   55SOL     OW 1063   2.199   2.057   5.092
   55SOL    HW1 1064   2.104   2.080   5.072
   55SOL    HW2 1065   2.234   2.117   5.164
   56SOL     OW 1066   1.229   2.049   1.057
   56SOL    HW1 1067   1.162   1.994   1.107
   56SOL    HW2 1068   1.267   2.119   1.119
   57SOL     OW 1069   3.254   1.086   0.418
   57SOL    HW1 1070   3.284   1.002   0.372
   57SOL    HW2 1071   3.319   1.109   0.491
   58SOL     OW 1072   0.533   6.433   5.709
   58SOL    HW1 1073   0.613   6.488   5.729
   58SOL    HW2 1074   0.496   6.394   5.794
   59SOL     OW 1075   6.808   4.018   6.081
   59SOL    HW1 1076   6.737   4.024   6.010
   59SOL    HW2 1077   6.767   3.991   6.167
   60SOL     OW 1078   5.191   2.478   3.773
   60SOL    HW1 1079   5.132   2.398   3.788
   60SOL    HW2 1080   5.134   2.559   3.758
   61SOL     OW 1081   0.003   0.971   4.410
   61SOL    HW1 1082   6.935   0.947   4.451
   61SOL    HW2 1083   0.018   0.916   4.327
   62SOL     OW 1084   1.953   1.137   1.513
   62SOL    HW1 1085   2.029   1.103   1.458
   62SOL    HW2 1086   1.941   1.235   1.495
   63SOL     OW 1087   3.998   0.196   3.964
   63SOL    HW1 1088   4.027   0.104   3.989
   63SOL    HW2 1089   3.900   0.206   3.980
   64SOL     OW 1090   0.636   3.607   6.642
   64SOL    HW1 1091   0.680   3.587   6.555
   64SOL    HW2 1092   0.702   3.647   6.705
   65SOL     OW 1093   1.276   6.099   5.684
   65SOL    HW1 1094   1.216   6.152   5.624
   65SOL    HW2 1095   1.361   6.079   5.636
   66SOL     OW 1096   3.439   0.028   3.078
   66SOL    HW1 1097   3.445   6.972   3.014
   66SOL    HW2 1098   3.344   0.054   3.092
   67SOL     OW 1099   0.405   3.086   6.063
   67SOL    HW1 1100   0.321   3.075   6.010
   67SOL    HW2 1101   0.393   3.161   6.128
   68SOL     OW 1102   0.214   1.712   6.153
   68SOL    HW1 1103   0.243   1.803   6.184
   68SOL    HW2 1104   0.280   1.676   6.087
   69SOL     OW 1105   2.016   3.134   5.647
   69SOL    HW1 1106   2.076   3.205   5.610
   69SOL    HW2 1107   1.947   3.176   5.706
   70SOL     OW 1108   5.430   5.271   4.812
   70SOL    HW1 1109   5.520   5.313   4.801
   70SOL    HW2 1110   5.440   5.177   4.842
   71SOL     OW 1111   4.625   1.856   3.158
   71SOL    HW1 1112   4.619   1.926   3.087
   71SOL    HW2 1113   4.715   1.812   3.155
   72SOL     OW 1114   0.273   1.049   3.322
   72SOL    HW1 1115   0.184   1.039   3.367
   72SOL    HW2 1116   0.259   1.082   3.228
   73SOL     OW 1117   2.858   0.363   1.143
   73SOL    HW1 1118   2.840   0.319   1.055
   73SOL    HW2 1119   2.851   0.296   1.217
   74SOL     OW 1120   2.701   1.297   6.500
   74SOL    HW1 1121   2.669   1.202   6.513
   74SOL    HW2 1122   2.800   1.299   6.504
   75SOL     OW 1123   3.805   1.579   1.584
   75SOL    HW1 1124   3.833   1.569   1.488
   75SOL    HW2 1125   3.706   1.573   1.590
   76SOL     OW 1126   1.955   3.740   5.943
   76SOL    HW1 1127   1.953   3.821   6.001
   76SOL    HW2 1128   1.911   3.760   5.856
   77SOL     OW 1129   1.685   5.890   3.171
   77SOL    HW1 1130   1.721   5.973   3.129
   77SOL    HW2 1131   1.605   5.912   3.226
   78SOL     OW 1132   4.094   1.449   1.379
   78SOL    HW1 1133   4.088   1.491   1.288
   78SOL    HW2 1134   4.106   1.350   1.369
   79SOL     OW 1135   2.585   5.800   1.746
   79SOL    HW1 1136   2.545   5.855   1.673
   79SOL    HW2 1137   2.516   5.782   1.816
   80SOL     OW 1138   4.161   1.663   4.569
   80SOL    HW1 1139   4.133   1.751   4.531
   80SOL    HW2 1140   4.196   1.677   4.661
   81SOL     OW 1141   2.014   6.846   1.145
   81SOL    HW1 1142   1.944   6.890   1.089
   81SOL    HW2 1143   2.088   6.911   1.162
   82SOL     OW 1144   0.030   6.210   1.861
   82SOL    HW1 1145   0.126   6.236   1.860
   82SOL    HW2 1146   7.016   6.203   1.767
   83SOL     OW 1147   0.600   1.656   6.215
   83SOL    HW1 1148   0.677   1.717   6.195
   83SOL    HW2 1149   0.541   1.698   6.283
   84SOL     OW 1150   6.547   4.474   3.207
   84SOL    HW1 1151   6.542   4.522   3.295
   84SOL    HW2 1152   6.557   4.376   3.223
   85SOL     OW 1153   1.256   0.450   3.506
   85SOL    HW1 1154   1.279   0.463   3.603
   85SOL    HW2 1155   1.289   0.361   3.476
   86SOL     OW 1156   6.912   1.073   6.675
   86SOL    HW1 1157   6.964   1.145   6.628
   86SOL    HW2 1158   6.849   1.115   6.741
   87SOL     OW 1159   3.809   3.682   0.862
   87SOL    HW1 1160   3.726   3.723   0.824
   87SOL    HW2 1161   3.865   3.753   0.904
   88SOL     OW 1162   3.180   1.948   6.482
   88SOL    HW1 1163   3.254   1.915   6.424
   88SOL    HW2 1164   3.169   2.047   6.471
   89SOL     OW 1165   3.321   3.706   0.759
   89SOL    HW1 1166   3.338   3.614   0.794
   89SOL    HW2 1167   3.240   3.706   0.701
   90SOL     OW 1168   4.777   4.716   2.388
   90SOL    HW1 1169   4.828   4.631   2.369
   90SOL    HW2 1170   4.737   4.711   2.480
   91SOL     OW 1171   5.969   4.873   6.010
   91SOL    HW1 1172   5.898   4.811   5.977
   91SOL    HW2 1173   6.042   4.880   5.943
   92SOL     OW 1174   5.132   4.239   0.867
   92SOL    HW1 1175   5.133   4.333   0.901
   92SOL    HW2 1176   5.073   4.234   0.786
   93SOL     OW 1177   3.232   3.692   0.157
   93SOL    HW1 1178   3.183   3.661   0.075
   93SOL    HW2 1179   3.330   3.672   0.146
   94SOL     OW 1180   2.346   6.098   0.846
   94SOL    HW1 1181   2.347   6.060   0.939
   94SOL    HW2 1182   2.285   6.044   0.789
   95SOL     OW 1183   1.512   0.803   3.024
   95SOL    HW1 1184   1.585   0.739   2.999
   95SOL    HW2 1185   1.427   0.752   3.039
   96SOL     OW 1186   5.021   5.905   6.998
   96SOL    HW1 1187   4.943   5.956   6.961
   96SOL    HW2 1188   4.990   5.818   0.016
   97SOL     OW 1189   2.238   4.323   5.139
   97SOL    HW1 1190   2.282   4.378   5.068
   97SOL    HW2 1191   2.242   4.227   5.114
   98SOL     OW 1192   1.011   2.150   0.869
   98SOL    HW1 1193   0.916   2.131   0.893
   98SOL    HW2 1194   1.070   2.077   0.904
   99SOL     OW 1195   3.298   3.859   2.614
   99SOL    HW1 1196   3.352   3.860   2.698
   99SOL    HW2 1197   3.338   3.922   2.548
  100SOL     OW 1198   6.774   0.195   4.410
  100SOL    HW1 1199   6.846   0.126   4.416
  100SOL    HW2 1200   6.685   0.151   4.415
  101SOL     OW 1201   0.452   5.402   2.398
  101SOL    HW1 1202   0.388   5.326   2.389
  101SOL    HW2 1203   0.426   5.459   2.476
  102SOL     OW 1204   3.374   5.733   2.579
  102SOL    HW1 1205   3.441   5.800   2.611
  102SOL    HW2 1206   3.420   5.666   2.520
  103SOL     OW 1207   1.593   1.809   2.525
  103SOL    HW1 1208   1.672   1.827   2.468
  103SOL    HW2 1209   1.562   1.714   2.511
  104SOL     OW 1210   1.448   5.119   1.959
  104SOL    HW1 1211   1.511   5.178   2.009
  104SOL    HW2 1212   1.382   5.078   2.022
  105SOL     OW 1213   4.927   1.633   5.876
  105SOL    HW1 1214   4.958   1.664   5.966
  105SOL    HW2 1215   4.996   1.654   5.807
  106SOL     OW 1216   4.863   5.189   2.097
  106SOL    HW1 1217   4.881   5.115   2.161
  106SOL    HW2 1218   4.816   5.263   2.145
  107SOL     OW 1219   6.306   0.797   6.771
  107SOL    HW1 1220   6.303   0.745   6.856
  107SOL    HW2 1221   6.278   0.739   6.695
  108SOL     OW 1222   3.574   6.900   5.575
  108SOL    HW1 1223   3.610   6.958   5.501
  108SOL    HW2 1224   3.513   6.954   5.632
  109SOL     OW 1225   2.841   0.722   2.584
  109SOL    HW1 1226   2.795   0.638   2.556
  109SOL    HW2 1227   2.827   0.737   2.682
  110SOL     OW 1228   2.406   5.347   4.995
  110SOL    HW1 1229   2.318   5.301   4.999
  110SOL    HW2 1230   2.471   5.291   4.944
  111SOL     OW 1231   1.153   1.241   2.713
  111SOL    HW1 1232   1.074   1.267   2.768
  111SOL    HW2 1233   1.122   1.217   2.621
  112SOL     OW 1234   4.876   6.699   6.469
  112SOL    HW1 1235   4.941   6.769   6.499
  112SOL    HW2 1236   4.787   6.742   6.452
  113SOL     OW 1237   6.985   6.244   2.472
  113SOL    HW1 1238   6.986   6.343   2.455
  113SOL    HW2 1239   6.895   6.216   2.504
  114SOL     OW 1240   1.451   5.603   1.761
  114SOL    HW1 1241   1.443   5.504   1.767
  114SOL    HW2 1242   1.453   5.631   1.664
  115SOL     OW 1243   6.025   0.744   3.392
  115SOL    HW1 1244   6.087   0.822   3.407
  115SOL    HW2 1245   5.973   0.759   3.308
  116SOL     OW 1246   6.982   6.082   1.221
  116SOL    HW1 1247   6.984   6.012   1.150
  116SOL    HW2 1248   7.007   6.041   1.309
  117SOL     OW 1249   2.253   0.863   0.264
  117SOL    HW1 1250   2.302   0.933   0.213
  117SOL    HW2 1251   2.277   0.773   0.230
  118SOL     OW 1252   1.877   1.926   3.181
  118SOL    HW1 1253   1.859   2.025   3.183
  118SOL    HW2 1254   1.794   1.877   3.209
  119SOL     OW 1255   0.314   6.995   6.462
  119SOL    HW1 1256   0.343   6.976   6.368
  119SOL    HW2 1257   0.376   6.948   6.526
  120SOL     OW 1258   4.443   0.270   4.347
  120SOL    HW1 1259   4.419   0.206   4.420
  120SOL    HW2 1260   4.488   0.350   4.386
  121SOL     OW 1261   1.783   4.183   0.222
  121SOL    HW1 1262   1.805   4.254   0.155
  121SOL    HW2 1263   1.722   4.115   0.179
  122SOL     OW 1264   1.500   3.448   0.038
  122SOL    HW1 1265   1.439   3.478   6.984
  122SOL    HW2 1266   1.510   3.521   0.105
  123SOL     OW 1267   1.104   0.945   2.157
  123SOL    HW1 1268   1.193   0.972   2.194
  123SOL    HW2 1269   1.093   0.847   2.166
  124SOL     OW 1270   3.048   1.866   0.559
  124SOL    HW1 1271   3.116   1.798   0.534
  124SOL    HW2 1272   3.093   1.942   0.605
  125SOL     OW 1273   3.163   2.354   0.353
  125SOL    HW1 1274   3.112   2.437   0.329
  125SOL    HW2 1275   3.172   2.297   0.272
  126SOL     OW 1276   3.564   3.194   3.300
  126SOL    HW1 1277   3.629   3.213   3.226
  126SOL    HW2 1278   3.601   3.123   3.359
  127SOL     OW 1279   6.470   6.285   5.763
  127SOL    HW1 1280   6.471   6.340   5.679
  127SOL    HW2 1281   6.526   6.331   5.832
  128SOL     OW 1282   5.324   3.280   2.153
  128SOL    HW1 1283   5.419   3.289   2.121
  128SOL    HW2 1284   5.265   3.253   2.077
  129SOL     OW 1285   3.085   4.425   0.904
  129SOL    HW1 1286   3.175   4.382   0.900
  129SOL    HW2 1287   3.077   4.478   0.988
  130SOL     OW 1288   6.433   0.837   4.770
  130SOL    HW1 1289   6.459   0.777   4.845
  130SOL    HW2 1290   6.445   0.790   4.683
  131SOL     OW 1291   6.163   1.210   4.677
  131SOL    HW1 1292   6.194   1.279   4.743
  131SOL    HW2 1293   6.155   1.121   4.723
  132SOL     OW 1294   3.493   3.209   1.495
  132SOL    HW1 1295   3.460   3.237   1.405
  132SOL    HW2 1296   3.449   3.124   1.522
  133SOL     OW 1297   5.157   1.586   3.476
  133SOL    HW1 1298   5.095   1.652   3.519
  133SOL    HW2 1299   5.111   1.544   3.397
  134SOL     OW 1300   0.928   0.351   2.464
  134SOL    HW1 1301   0.856   0.420   2.469
  134SOL    HW2 1302   0.923   0.292   2.545
  135SOL     OW 1303   5.188   3.113   4.062
  135SOL    HW1 1304   5.208   3.045   3.991
  135SOL    HW2 1305   5.091   3.108   4.086
  136SOL     OW 1306   2.495   6.510   4.097
  136SOL    HW1 1307   2.468   6.605   4.111
  136SOL    HW2 1308   2.525   6.497   4.002
  137SOL     OW 1309   4.295   1.011   4.470
  137SOL    HW1 1310   4.211   1.045   4.513
  137SOL    HW2 1311   4.305   0.914   4.490
  138SOL     OW 1312   0.966   4.543   3.370
  138SOL    HW1 1313   0.936   4.509   3.280
  138SOL    HW2 1314   1.035   4.615   3.356
  139SOL     OW 1315   2.634   5.643   6.250
  139SOL    HW1 1316   2.563   5.710   6.268
  139SOL    HW2 1317   2.619   5.562   6.306
  140SOL     OW 1318   1.957   6.508   2.675
  140SOL    HW1 1319   1.986   6.598   2.641
  140SOL    HW2 1320   1.888   6.470   2.613
  141SOL     OW 1321   6.658   3.030   5.963
  141SOL    HW1 1322   6.675   3.021   5.865
  141SOL    HW2 1323   6.692   2.949   6.011
  142SOL     OW 1324   2.323   3.703   1.460
  142SOL    HW1 1325   2.245   3.643   1.477
  142SOL    HW2 1326   2.292   3.797   1.447
  143SOL     OW 1327   5.957   5.548   1.001
  143SOL    HW1 1328   6.005   5.515   0.920
  143SOL    HW2 1329   6.023   5.582   1.068
  144SOL     OW 1330   2.726   4.720   4.690
  144SOL    HW1 1331   2.814   4.748   4.730
  144SOL    HW2 1332   2.675   4.667   4.757
  145SOL     OW 1333   1.317   5.330   1.829
  145SOL    HW1 1334   1.363   5.243   1.846
  145SOL    HW2 1335   1.285   5.368   1.915
  146SOL     OW 1336   5.047   0.896   5.820
  146SOL    HW1 1337   5.023   0.973   5.762
  146SOL    HW2 1338   5.137   0.860   5.793
  147SOL     OW 1339   4.966   1.115   4.961
  147SOL    HW1 1340   5.042   1.091   5.021
  147SOL    HW2 1341   4.980   1.074   4.871
  148SOL     OW 1342   1.020   5.578   1.255
  148SOL    HW1 1343   0.942   5.516   1.249
  148SOL    HW2 1344   1.042   5.595   1.351
  149SOL     OW 1345   3.335   1.899   4.920
  149SOL    HW1 1346   3.352   1.936   5.012
  149SOL    HW2 1347   3.336   1.973   4.854
  150SOL     OW 1348   4.529   0.606   6.061
  150SOL    HW1 1349   4.438   0.642   6.083
  150SOL    HW2 1350   4.590   0.618   6.139
  151SOL     OW 1351   3.688   0.777   1.860
  151SOL    HW1 1352   3.775   0.733   1.837
  151SOL    HW2 1353   3.626   0.770   1.782
  152SOL     OW 1354   6.678   1.400   0.389
  152SOL    HW1 1355   6.776   1.393   0.409
  152SOL    HW2 1356   6.645   1.313   0.354
  153SOL     OW 1357   2.452   0.228   3.657
  153SOL    HW1 1358   2.471   0.252   3.562
  153SOL    HW2 1359   2.423   0.309   3.707
  154SOL     OW 1360   6.779   2.593   0.273
  154SOL    HW1 1361   6.835   2.654   0.330
  154SOL    HW2 1362   6.697   2.642   0.243
  155SOL     OW 1363   1.041   6.842   1.867
  155SOL    HW1 1364   1.078   6.784   1.939
  155SOL    HW2 1365   0.972   6.904   1.905
  156SOL     OW 1366   6.101   1.343   6.968
  156SOL    HW1 1367   6.121   1.440   6.957
  156SOL    HW2 1368   6.115   1.317   0.043
  157SOL     OW 1369   5.937   2.253   0.130
  157SOL    HW1 1370   5.940   2.332   0.192
  157SOL    HW2 1371   6.014   2.257   0.067
  158SOL     OW 1372   1.523   2.494   1.639
  158SOL    HW1 1373   1.506   2.404   1.598
  158SOL    HW2 1374   1.463   2.506   1.718
  159SOL     OW 1375   4.292   4.831   1.004
  159SOL    HW1 1376   4.227   4.757   0.982
  159SOL    HW2 1377   4.243   4.905   1.051
  160SOL     OW 1378   6.594   0.220   1.539
  160SOL    HW1 1379   6.542   0.172   1.609
  160SOL    HW2 1380   6.531   0.257   1.470
  161SOL     OW 1381   1.410   6.819   1.847
  161SOL    HW1 1382   1.405   6.775   1.757
  161SOL    HW2 1383   1.450   6.910   1.838
  162SOL     OW 1384   2.715   0.087   0.053
  162SOL    HW1 1385   2.684   7.014   0.070
  162SOL    HW2 1386   2.673   0.121   6.989
  163SOL     OW 1387   0.578   4.944   3.247
  163SOL    HW1 1388   0.539   4.956   3.156
  163SOL    HW2 1389   0.665   4.896   3.241
  164SOL     OW 1390   0.789   2.303   2.879
  164SOL    HW1 1391   0.806   2.273   2.974
  164SOL    HW2 1392   0.732   2.384   2.879
  165SOL     OW 1393   6.131   5.559   1.222
  165SOL    HW1 1394   6.213   5.543   1.167
  165SOL    HW2 1395   6.107   5.656   1.219
  166SOL     OW 1396   6.789   3.849   1.895
  166SOL    HW1 1397   6.723   3.887   1.830
  166SOL    HW2 1398   6.778   3.893   1.984
  167SOL     OW 1399   5.898   1.679   6.489
  167SOL    HW1 1400   5.847   1.649   6.569
  167SOL    HW2 1401   5.986   1.630   6.486
  168SOL     OW 1402   3.973   2.083   1.564
  168SOL    HW1 1403   3.942   2.137   1.486
  168SOL    HW2 1404   3.920   2.106   1.645
  169SOL     OW 1405   6.050   3.379   6.755
  169SOL    HW1 1406   6.145   3.363   6.781
  169SOL    HW2 1407   5.990   3.342   6.826
  170SOL     OW 1408   6.921   5.529   3.147
  170SOL    HW1 1409   6.981   5.585   3.204
  170SOL    HW2 1410   6.829   5.530   3.186
  171SOL     OW 1411   1.787   3.617   6.734
  171SOL    HW1 1412   1.694   3.634   6.766
  171SOL    HW2 1413   1.787   3.615   6.634
  172SOL     OW 1414   6.707   2.468   2.143
  172SOL    HW1 1415   6.609   2.482   2.133
  172SOL    HW2 1416   6.745   2.436   2.056
  173SOL     OW 1417   6.007   1.508   4.422
  173SOL    HW1 1418   6.009   1.436   4.492
  173SOL    HW2 1419   6.097   1.550   4.415
  174SOL     OW 1420   5.213   5.154   4.673
  174SOL    HW1 1421   5.280   5.212   4.720
  174SOL    HW2 1422   5.136   5.210   4.642
  175SOL     OW 1423   3.053   0.766   1.834
  175SOL    HW1 1424   3.150   0.752   1.852
  175SOL    HW2 1425   3.019   0.839   1.894
  176SOL     OW 1426   4.963   4.479   3.530
  176SOL    HW1 1427   4.928   4.449   3.619
  176SOL    HW2 1428   5.003   4.570   3.540
  177SOL     OW 1429   5.078   2.246   5.202
  177SOL    HW1 1430   5.072   2.146   5.205
  177SOL    HW2 1431   5.169   2.273   5.170
  178SOL     OW 1432   3.442   4.932   4.663
  178SOL    HW1 1433   3.542   4.929   4.666
  178SOL    HW2 1434   3.407   4.973   4.748
  179SOL     OW 1435   4.600   6.715   6.587
  179SOL    HW1 1436   4.505   6.708   6.557
  179SOL    HW2 1437   4.642   6.624   6.587
  180SOL     OW 1438   2.477   6.957   0.186
  180SOL    HW1 1439   2.452   6.873   0.234
  180SOL    HW2 1440   2.455   0.016   0.243
  181SOL     OW 1441   3.457   2.741   5.814
  181SOL    HW1 1442   3.423   2.822   5.766
  181SOL    HW2 1443   3.537   2.705   5.765
  182SOL     OW 1444   5.143   2.690   6.800
  182SOL    HW1 1445   5.057   2.670   6.752
  182SOL    HW2 1446   5.152   2.788   6.814
  183SOL     OW 1447   4.086   2.211   3.850
  183SOL    HW1 1448   4.116   2.286   3.909
  183SOL    HW2 1449   4.131   2.218   3.761
  184SOL     OW 1450   0.459   6.641   3.722
  184SOL    HW1 1451   0.485   6.708   3.791
  184SOL    HW2 1452   0.498   6.668   3.633
  185SOL     OW 1453   1.023   1.776   3.729
  185SOL    HW1 1454   1.067   1.703   3.676
  185SOL    HW2 1455   0.937   1.801   3.684
  186SOL     OW 1456   5.732   6.768   4.633
  186SOL    HW1 1457   5.769   6.716   4.710
  186SOL    HW2 1458   5.704   6.859   4.664
  187SOL     OW 1459   4.880   5.950   2.091
  187SOL    HW1 1460   4.852   5.862   2.053
  187SOL    HW2 1461   4.800   6.008   2.104
  188SOL     OW 1462   1.062   2.799   3.249
  188SOL    HW1 1463   1.032   2.883   3.294
  188SOL    HW2 1464   1.038   2.803   3.152
  189SOL     OW 1465   0.249   4.587   6.443
  189SOL    HW1 1466   0.174   4.611   6.381
  189SOL    HW2 1467   0.328   4.645   6.425
  190SOL     OW 1468   6.113   4.790   6.908
  190SOL    HW1 1469   6.182   4.811   6.978
  190SOL    HW2 1470   6.047   4.865   6.903
  191SOL     OW 1471   6.943   1.352   5.696
  191SOL    HW1 1472   6.983   1.402   5.619
  191SOL    HW2 1473   6.843   1.349   5.686
  192SOL     OW 1474   0.173   4.958   1.750
  192SOL    HW1 1475   0.082   4.966   1.792
  192SOL    HW2 1476   0.226   5.041   1.769
  193SOL     OW 1477   4.917   4.332   5.372
  193SOL    HW1 1478   4.961   4.284   5.448
  193SOL    HW2 1479   4.847   4.274   5.332
  194SOL     OW 1480   4.141   0.292   2.629
  194SOL    HW1 1481   4.189   0.347   2.560
  194SOL    HW2 1482   4.201   0.220   2.662
  195SOL     OW 1483   1.736   0.787   3.634
  195SOL    HW1 1484   1.818   0.841   3.614
  195SOL    HW2 1485   1.665   0.809   3.567
  196SOL     OW 1486   3.352   6.862   0.126
  196SOL    HW1 1487   3.415   6.917   0.071
  196SOL    HW2 1488   3.317   6.916   0.202
  197SOL     OW 1489   3.047   5.925   0.191
  197SOL    HW1 1490   2.974   5.989   0.212
  197SOL    HW2 1491   3.132   5.975   0.174
  198SOL     OW 1492   4.845   6.786   1.036
  198SOL    HW1 1493   4.891   6.860   0.986
  198SOL    HW2 1494   4.755   6.771   0.996
  199SOL     OW 1495   6.792   0.959   2.605
  199SOL    HW1 1496   6.735   0.925   2.531
  199SOL    HW2 1497   6.879   0.909   2.607
  200SOL     OW 1498   1.020   4.004   2.580
  200SOL    HW1 1499   1.101   3.974   2.630
  200SOL    HW2 1500   1.049   4.053   2.498
  201SOL     OW 1501   3.103   6.485   5.910
  201SOL    HW1 1502   3.179   6.550   5.905
  201SOL    HW2 1503   3.016   6.536   5.914
  202SOL     OW 1504   4.994   0.456   5.399
  202SOL    HW1 1505   4.965   0.549   5.380
  202SOL    HW2 1506   4.923   0.409   5.452
  203SOL     OW 1507   4.819   2.469   5.048
  203SOL    HW1 1508   4.837   2.419   5.132
  203SOL    HW2 1509   4.891   2.451   4.981
  204SOL     OW 1510   0.563   0.093   6.386
  204SOL    HW1 1511   0.628   0.140   6.445
  204SOL    HW2 1512   0.585   0.112   6.290
  205SOL     OW 1513   0.999   1.321   1.838
  205SOL    HW1 1514   0.984   1.288   1.745
  205SOL    HW2 1515   1.007   1.421   1.837
  206SOL     OW 1516   0.559   4.830   2.761
  206SOL    HW1 1517   0.510   4.887   2.696
  206SOL    HW2 1518   0.635   4.784   2.714
  207SOL     OW 1519   3.864   0.619   5.247
  207SOL    HW1 1520   3.907   0.642   5.335
  207SOL    HW2 1521   3.826   0.526   5.253
  208SOL     OW 1522   4.937   3.483   5.984
  208SOL    HW1 1523   4.929   3.383   5.989
  208SOL    HW2 1524   4.901   3.515   5.896
  209SOL     OW 1525   1.202   5.637   5.860
  209SOL    HW1 1526   1.144   5.666   5.936
  209SOL    HW2 1527   1.164   5.671   5.774
  210SOL     OW 1528   4.257   1.956   2.641
  210SOL    HW1 1529   4.215   2.010   2.569
  210SOL    HW2 1530   4.201   1.876   2.660
  211SOL     OW 1531   0.897   6.289   3.437
  211SOL    HW1 1532   0.801   6.303   3.463
  211SOL    HW2 1533   0.910   6.194   3.410
  212SOL     OW 1534   2.013   4.151   1.766
  212SOL    HW1 1535   2.032   4.246   1.741
  212SOL    HW2 1536   2.092   4.113   1.813
  213SOL     OW 1537   4.436   0.908   6.782
  213SOL    HW1 1538   4.496   0.982   6.810
  213SOL    HW2 1539   4.395   0.929   6.693
  214SOL     OW 1540   2.673   5.748   2.480
  214SOL    HW1 1541   2.651   5.729   2.384
  214SOL    HW2 1542   2.725   5.833   2.486
  215SOL     OW 1543   3.190   4.007   1.860
  215SOL    HW1 1544   3.111   4.016   1.799
  215SOL    HW2 1545   3.235   3.920   1.843
  216SOL     OW 1546   1.596   6.447   4.776
  216SOL    HW1 1547   1.674   6.500   4.810
  216SOL    HW2 1548   1.624   6.352   4.761
  217SOL     OW 1549   2.184   2.912   5.197
  217SOL    HW1 1550   2.263   2.951   5.150
  217SOL    HW2 1551   2.102   2.926   5.140
  218SOL     OW 1552   1.497   2.352   5.190
  218SOL    HW1 1553   1.456   2.405   5.264
  218SOL    HW2 1554   1.542   2.413   5.125
  219SOL     OW 1555   3.631   5.129   5.981
  219SOL    HW1 1556   3.694   5.051   5.988
  219SOL    HW2 1557   3.679   5.212   6.011
  220SOL     OW 1558   3.526   5.508   6.948
  220SOL    HW1 1559   3.506   5.506   0.026
  220SOL    HW2 1560   3.580   5.589   6.926
  221SOL     OW 1561   6.544   4.048   2.349
  221SOL    HW1 1562   6.580   3.988   2.278
  221SOL    HW2 1563   6.559   4.143   2.322
  222SOL     OW 1564   2.223   4.800   5.694
  222SOL    HW1 1565   2.235   4.887   5.647
  222SOL    HW2 1566   2.156   4.744   5.645
  223SOL     OW 1567   0.314   3.778   0.584
  223SOL    HW1 1568   0.334   3.868   0.547
  223SOL    HW2 1569   0.235   3.739   0.537
  224SOL     OW 1570   2.695   2.395   3.901
  224SOL    HW1 1571   2.778   2.420   3.951
  224SOL    HW2 1572   2.615   2.435   3.947
  225SOL     OW 1573   5.276   1.704   6.114
  225SOL    HW1 1574   5.356   1.737   6.064
  225SOL    HW2 1575   5.305   1.664   6.201
  226SOL     OW 1576   0.305   6.738   6.862
  226SOL    HW1 1577   0.222   6.698   6.901
  226SOL    HW2 1578   0.283   6.828   6.825
  227SOL     OW 1579   1.108   4.667   2.304
  227SOL    HW1 1580   1.072   4.755   2.273
  227SOL    HW2 1581   1.167   4.680   2.383
  228SOL     OW 1582   2.896   6.900   3.772
  228SOL    HW1 1583   2.921   6.817   3.822
  228SOL    HW2 1584   2.833   6.877   3.698
  229SOL     OW 1585   6.172   5.634   0.434
  229SOL    HW1 1586   6.188   5.543   0.473
  229SOL    HW2 1587   6.140   5.623   0.339
  230SOL     OW 1588   3.490   4.884   3.534
  230SOL    HW1 1589   3.524   4.856   3.444
  230SOL    HW2 1590   3.565   4.886   3.599
  231SOL     OW 1591   6.281   2.437   5.971
  231SOL    HW1 1592   6.215   2.470   6.038
  231SOL    HW2 1593   6.313   2.514   5.915
  232SOL     OW 1594   0.767   4.269   6.378
  232SOL    HW1 1595   0.708   4.328   6.323
  232SOL    HW2 1596   0.722   4.248   6.464
  233SOL     OW 1597   2.553   1.417   4.435
  233SOL    HW1 1598   2.554   1.317   4.436
  233SOL    HW2 1599   2.619   1.451   4.367
  234SOL     OW 1600   2.571   6.093   5.124
  234SOL    HW1 1601   2.608   6.003   5.100
  234SOL    HW2 1602   2.578   6.107   5.223
  235SOL     OW 1603   3.461   3.042   2.907
  235SOL    HW1 1604   3.421   2.995   2.986
  235SOL    HW2 1605   3.395   3.107   2.870
  236SOL     OW 1606   6.061   3.149   6.584
  236SOL    HW1 1607   6.067   3.249   6.587
  236SOL    HW2 1608   5.980   3.119   6.634
  237SOL     OW 1609   0.240   6.491   0.404
  237SOL    HW1 1610   0.216   6.421   0.337
  237SOL    HW2 1611   0.330   6.470   0.443
  238SOL     OW 1612   6.754   2.942   0.348
  238SOL    HW1 1613   6.747   3.013   0.417
  238SOL    HW2 1614   6.710   2.972   0.264
  239SOL     OW 1615   6.712   4.626   0.474
  239SOL    HW1 1616   6.756   4.621   0.385
  239SOL    HW2 1617   6.701   4.722   0.501
  240SOL     OW 1618   0.595   3.194   5.187
  240SOL    HW1 1619   0.598   3.120   5.255
  240SOL    HW2 1620   0.634   3.162   5.101
  241SOL     OW 1621   0.693   0.963   3.604
  241SOL    HW1 1622   0.618   0.983   3.666
  241SOL    HW2 1623   0.677   0.875   3.559
  242SOL     OW 1624   1.893   2.786   5.743
  242SOL    HW1 1625   1.797   2.761   5.755
  242SOL    HW2 1626   1.904   2.885   5.758
  243SOL     OW 1627   4.611   0.305   5.553
  243SOL    HW1 1628   4.616   0.217   5.599
  243SOL    HW2 1629   4.686   0.364   5.583
  244SOL     OW 1630   4.751   2.913   4.297
  244SOL    HW1 1631   4.773   2.906   4.394
  244SOL    HW2 1632   4.705   2.830   4.267
  245SOL     OW 1633   6.660   3.046   4.655
  245SOL    HW1 1634   6.671   3.118   4.586
  245SOL    HW2 1635   6.628   3.086   4.740
  246SOL     OW 1636   5.338   3.637   3.521
  246SOL    HW1 1637   5.360   3.553   3.472
  246SOL    HW2 1638   5.415   3.662   3.580
  247SOL     OW 1639   2.622   1.796   2.695
  247SOL    HW1 1640   2.607   1.697   2.701
  247SOL    HW2 1641   2.637   1.833   2.787
  248SOL     OW 1642   4.530   2.450   3.789
  248SOL    HW1 1643   4.467   2.463   3.712
  248SOL    HW2 1644   4.622   2.477   3.761
  249SOL     OW 1645   3.774   0.310   5.032
  249SOL    HW1 1646   3.676   0.319   5.016
  249SOL    HW2 1647   3.824   0.327   4.947
  250SOL     OW 1648   5.149   1.974   5.606
  250SOL    HW1 1649   5.171   1.914   5.529
  250SOL    HW2 1650   5.139   2.068   5.573
  251SOL     OW 1651   4.020   4.357   6.322
  251SOL    HW1 1652   3.927   4.342   6.289
  251SOL    HW2 1653   4.033   4.455   6.340
  252SOL     OW 1654   0.233   1.332   6.065
  252SOL    HW1 1655   0.154   1.342   6.125
  252SOL    HW2 1656   0.202   1.306   5.973
  253SOL     OW 1657   2.534   4.340   0.089
  253SOL    HW1 1658   2.587   4.388   0.019
  253SOL    HW2 1659   2.522   4.244   0.062
  254SOL     OW 1660   6.767   2.728   3.602
  254SOL    HW1 1661   6.840   2.704   3.666
  254SOL    HW2 1662   6.783   2.820   3.566
  255SOL     OW 1663   2.723   1.874   4.017
  255SOL    HW1 1664   2.701   1.916   4.105
  255SOL    HW2 1665   2.821   1.858   4.011
  256SOL     OW 1666   6.474   4.706   6.888
  256SOL    HW1 1667   6.509   4.759   6.811
  256SOL    HW2 1668   6.422   4.628   6.854
  257SOL     OW 1669   3.497   5.188   5.738
  257SOL    HW1 1670   3.542   5.132   5.808
  257SOL    HW2 1671   3.399   5.189   5.755
  258SOL     OW 1672   5.290   3.658   4.842
  258SOL    HW1 1673   5.234   3.741   4.840
  258SOL    HW2 1674   5.380   3.678   4.802
  259SOL     OW 1675   1.802   2.494   2.301
  259SOL    HW1 1676   1.871   2.428   2.271
  259SOL    HW2 1677   1.816   2.515   2.398
  260SOL     OW 1678   4.563   0.159   0.847
  260SOL    HW1 1679   4.508   0.141   0.929
  260SOL    HW2 1680   4.508   0.210   0.781
  261SOL     OW 1681   0.338   3.574   1.080
  261SOL    HW1 1682   0.304   3.647   1.021
  261SOL    HW2 1683   0.260   3.529   1.124
  262SOL     OW 1684   0.949   3.979   2.166
  262SOL    HW1 1685   0.927   3.882   2.176
  262SOL    HW2 1686   1.023   3.990   2.100
  263SOL     OW 1687   0.363   1.784   4.562
  263SOL    HW1 1688   0.374   1.701   4.617
  263SOL    HW2 1689   0.446   1.839   4.568
  264SOL     OW 1690   6.335   4.137   6.049
  264SOL    HW1 1691   6.298   4.230   6.056
  264SOL    HW2 1692   6.423   4.139   6.003
  265SOL     OW 1693   5.112   3.997   3.337
  265SOL    HW1 1694   5.125   4.086   3.381
  265SOL    HW2 1695   5.197   3.944   3.345
  266SOL     OW 1696   3.464   2.638   6.789
  266SOL    HW1 1697   3.412   2.693   6.725
  266SOL    HW2 1698   3.554   2.618   6.751
  267SOL     OW 1699   0.644   2.966   0.134
  267SOL    HW1 1700   0.646   3.064   0.114
  267SOL    HW2 1701   0.621   2.952   0.230
  268SOL     OW 1702   4.883   5.372   5.156
  268SOL    HW1 1703   4.907   5.344   5.063
  268SOL    HW2 1704   4.873   5.292   5.214
  269SOL     OW 1705   1.816   2.229   0.060
  269SOL    HW1 1706   1.836   2.213   6.983
  269SOL    HW2 1707   1.717   2.222   0.075
  270SOL     OW 1708   5.814   0.873   2.008
  270SOL    HW1 1709   5.905   0.914   2.005
  270SOL    HW2 1710   5.822   0.776   2.033
  271SOL     OW 1711   2.222   2.149   0.990
  271SOL    HW1 1712   2.219   2.188   1.082
  271SOL    HW2 1713   2.291   2.195   0.936
  272SOL     OW 1714   3.483   5.478   3.919
  272SOL    HW1 1715   3.525   5.562   3.885
  272SOL    HW2 1716   3.383   5.486   3.915
  273SOL     OW 1717   1.045   5.570   5.453
  273SOL    HW1 1718   1.025   5.491   5.512
  273SOL    HW2 1719   0.963   5.625   5.443
  274SOL     OW 1720   5.332   2.228   3.569
  274SOL    HW1 1721   5.312   2.320   3.534
  274SOL    HW2 1722   5.328   2.162   3.494
  275SOL     OW 1723   1.194   5.827   6.567
  275SOL    HW1 1724   1.276   5.883   6.553
  275SOL    HW2 1725   1.221   5.736   6.599
  276SOL     OW 1726   6.362   5.456   4.182
  276SOL    HW1 1727   6.353   5.555   4.189
  276SOL    HW2 1728   6.425   5.433   4.109
  277SOL     OW 1729   3.147   1.022   6.083
  277SOL    HW1 1730   3.226   0.972   6.048
  277SOL    HW2 1731   3.069   0.960   6.091
  278SOL     OW 1732   5.736   3.418   2.184
  278SOL    HW1 1733   5.682   3.463   2.255
  278SOL    HW2 1734   5.685   3.341   2.147
  279SOL     OW 1735   6.456   3.480   3.751
  279SOL    HW1 1736   6.412   3.395   3.779
  279SOL    HW2 1737   6.546   3.459   3.711
  280SOL     OW 1738   4.704   6.889   3.895
  280SOL    HW1 1739   4.659   6.843   3.818
  280SOL    HW2 1740   4.785   6.937   3.862
  281SOL     OW 1741   3.086   5.075   3.648
  281SOL    HW1 1742   2.989   5.070   3.673
  281SOL    HW2 1743   3.140   5.032   3.720
  282SOL     OW 1744   3.526   2.334   5.659
  282SOL    HW1 1745   3.464   2.358   5.585
  282SOL    HW2 1746   3.553   2.417   5.709
  283SOL     OW 1747   6.015   0.357   5.352
  283SOL    HW1 1748   6.075   0.433   5.325
  283SOL    HW2 1749   6.032   0.334   5.448
  284SOL     OW 1750   1.261   4.475   4.390
  284SOL    HW1 1751   1.349   4.499   4.431
  284SOL    HW2 1752   1.190   4.475   4.460
  285SOL     OW 1753   5.655   6.139   0.496
  285SOL    HW1 1754   5.681   6.062   0.437
  285SOL    HW2 1755   5.558   6.161   0.481
  286SOL     OW 1756   4.023   4.844   5.533
  286SOL    HW1 1757   3.929   4.826   5.561
  286SOL    HW2 1758   4.080   4.854   5.615
  287SOL     OW 1759   1.758   5.572   6.759
  287SOL    HW1 1760   1.815   5.516   6.820
  287SOL    HW2 1761   1.691   5.514   6.714
  288SOL     OW 1762   4.093   0.760   0.793
  288SOL    HW1 1763   4.158   0.711   0.850
  288SOL    HW2 1764   4.040   0.824   0.849
  289SOL     OW 1765   1.248   5.200   5.973
  289SOL    HW1 1766   1.268   5.148   5.891
  289SOL    HW2 1767   1.294   5.289   5.969
  290SOL     OW 1768   4.612   0.712   3.613
  290SOL    HW1 1769   4.576   0.805   3.612
  290SOL    HW2 1770   4.703   0.711   3.571
  291SOL     OW 1771   4.374   1.048   3.776
  291SOL    HW1 1772   4.282   1.079   3.802
  291SOL    HW2 1773   4.406   0.980   3.843
  292SOL     OW 1774   4.608   1.202   3.368
  292SOL    HW1 1775   4.626   1.247   3.281
  292SOL    HW2 1776   4.692   1.162   3.404
  293SOL     OW 1777   4.497   6.106   1.463
  293SOL    HW1 1778   4.476   6.196   1.425
  293SOL    HW2 1779   4.421   6.077   1.522
  294SOL     OW 1780   6.526   5.550   6.336
  294SOL    HW1 1781   6.562   5.477   6.395
  294SOL    HW2 1782   6.512   5.514   6.243
  295SOL     OW 1783   1.988   2.317   5.353
  295SOL    HW1 1784   2.069   2.258   5.346
  295SOL    HW2 1785   1.905   2.263   5.341
  296SOL     OW 1786   6.549   2.348   1.124
  296SOL    HW1 1787   6.542   2.405   1.206
  296SOL    HW2 1788   6.542   2.406   1.042
  297SOL     OW 1789   4.143   4.754   3.488
  297SOL    HW1 1790   4.079   4.793   3.554
  297SOL    HW2 1791   4.191   4.677   3.531
  298SOL     OW 1792   4.133   0.249   0.199
  298SOL    HW1 1793   4.087   0.227   0.285
  298SOL    HW2 1794   4.066   0.273   0.129
  299SOL     OW 1795   3.525   1.865   0.387
  299SOL    HW1 1796   3.555   1.782   0.435
  299SOL    HW2 1797   3.442   1.901   0.431
  300SOL     OW 1798   3.807   0.853   2.903
  300SOL    HW1 1799   3.819   0.928   2.968
  300SOL    HW2 1800   3.741   0.880   2.833
  301SOL     OW 1801   4.873   0.904   1.267
  301SOL    HW1 1802   4.844   0.898   1.171
  301SOL    HW2 1803   4.967   0.939   1.271
  302SOL     OW 1804   0.870   0.652   1.972
  302SOL    HW1 1805   0.898   0.702   1.890
  302SOL    HW2 1806   0.810   0.709   2.028
  303SOL     OW 1807   6.120   6.101   1.629
  303SOL    HW1 1808   6.168   6.066   1.549
  303SOL    HW2 1809   6.128   6.200   1.632
  304SOL     OW 1810   2.074   6.144   6.171
  304SOL    HW1 1811   2.127   6.222   6.140
  304SOL    HW2 1812   2.135   6.071   6.202
  305SOL     OW 1813   1.585   3.146   0.875
  305SOL    HW1 1814   1.534   3.154   0.961
  305SOL    HW2 1815   1.526   3.107   0.805
  306SOL     OW 1816   0.320   1.447   2.759
  306SOL    HW1 1817   0.413   1.420   2.735
  306SOL    HW2 1818   0.285   1.386   2.830
  307SOL     OW 1819   3.732   3.861   0.195
  307SOL    HW1 1820   3.685   3.890   0.279
  307SOL    HW2 1821   3.688   3.902   0.116
  308SOL     OW 1822   5.931   2.923   4.132
  308SOL    HW1 1823   5.944   2.995   4.063
  308SOL    HW2 1824   5.942   2.962   4.223
  309SOL     OW 1825   1.365   6.418   0.482
  309SOL    HW1 1826   1.310   6.334   0.479
  309SOL    HW2 1827   1.308   6.494   0.512
  310SOL     OW 1828   5.277   6.457   3.764
  310SOL    HW1 1829   5.346   6.529   3.770
  310SOL    HW2 1830   5.285   6.396   3.843
  311SOL     OW 1831   2.576   4.544   2.703
  311SOL    HW1 1832   2.601   4.592   2.620
  311SOL    HW2 1833   2.630   4.579   2.780
  312SOL     OW 1834   3.962   2.161   4.139
  312SOL    HW1 1835   3.914   2.152   4.227
  312SOL    HW2 1836   3.896   2.183   4.067
  313SOL     OW 1837   3.175   3.608   2.723
  313SOL    HW1 1838   3.092   3.573   2.679
  313SOL    HW2 1839   3.209   3.688   2.672
  314SOL     OW 1840   1.916   4.719   4.673
  314SOL    HW1 1841   1.935   4.691   4.767
  314SOL    HW2 1842   1.927   4.818   4.665
  315SOL     OW 1843   0.436   2.151   3.886
  315SOL    HW1 1844   0.442   2.075   3.950
  315SOL    HW2 1845   0.395   2.118   3.800
  316SOL     OW 1846   4.059   1.089   4.593
  316SOL    HW1 1847   4.016   1.134   4.514
  316SOL    HW2 1848   4.090   1.159   4.657
  317SOL     OW 1849   1.183   1.551   1.310
  317SOL    HW1 1850   1.266   1.518   1.264
  317SOL    HW2 1851   1.117   1.477   1.316
  318SOL     OW 1852   6.294   0.952   6.343
  318SOL    HW1 1853   6.370   0.954   6.409
  318SOL    HW2 1854   6.253   0.861   6.342
  319SOL     OW 1855   6.803   2.458   3.527
  319SOL    HW1 1856   6.798   2.549   3.568
  319SOL    HW2 1857   6.712   2.426   3.503
  320SOL     OW 1858   6.346   3.368   6.774
  320SOL    HW1 1859   6.390   3.420   6.847
  320SOL    HW2 1860   6.379   3.400   6.685
  321SOL     OW 1861   4.050   2.126   0.357
  321SOL    HW1 1862   4.058   2.200   0.423
  321SOL    HW2 1863   4.036   2.164   0.265
  322SOL     OW 1864   3.660   2.862   4.491
  322SOL    HW1 1865   3.753   2.897   4.482
  322SOL    HW2 1866   3.644   2.832   4.585
  323SOL     OW 1867   1.174   2.036   5.003
  323SOL    HW1 1868   1.167   1.944   4.964
  323SOL    HW2 1869   1.265   2.048   5.042
  324SOL     OW 1870   2.431   6.950   3.352
  324SOL    HW1 1871   2.518   6.901   3.344
  324SOL    HW2 1872   2.449   0.026   3.376
  325SOL     OW 1873   0.787   3.895   2.771
  325SOL    HW1 1874   0.885   3.881   2.756
  325SOL    HW2 1875   0.737   3.813   2.746
  326SOL     OW 1876   0.962   4.171   6.096
  326SOL    HW1 1877   0.982   4.256   6.145
  326SOL    HW2 1878   0.863   4.165   6.079
  327SOL     OW 1879   2.470   4.588   3.072
  327SOL    HW1 1880   2.458   4.656   3.145
  327SOL    HW2 1881   2.541   4.619   3.009
  328SOL     OW 1882   2.019   4.658   1.422
  328SOL    HW1 1883   2.022   4.729   1.493
  328SOL    HW2 1884   2.109   4.648   1.381
  329SOL     OW 1885   2.578   3.658   5.829
  329SOL    HW1 1886   2.542   3.749   5.805
  329SOL    HW2 1887   2.522   3.588   5.786
  330SOL     OW 1888   3.399   5.939   0.444
  330SOL    HW1 1889   3.408   5.918   0.541
  330SOL    HW2 1890   3.387   5.854   0.392
  331SOL     OW 1891   5.753   5.718   1.077
  331SOL    HW1 1892   5.670   5.697   1.026
  331SOL    HW2 1893   5.823   5.649   1.057
  332SOL     OW 1894   5.846   2.522   4.471
  332SOL    HW1 1895   5.894   2.538   4.385
  332SOL    HW2 1896   5.911   2.494   4.542
  333SOL     OW 1897   3.932   0.671   4.990
  333SOL    HW1 1898   3.925   0.659   5.089
  333SOL    HW2 1899   3.901   0.763   4.965
  334SOL     OW 1900   3.313   2.039   0.478
  334SOL    HW1 1901   3.221   2.072   0.498
  334SOL    HW2 1902   3.369   2.115   0.443
  335SOL     OW 1903   3.789   0.553   6.926
  335SOL    HW1 1904   3.726   0.598   6.988
  335SOL    HW2 1905   3.852   0.620   6.887
  336SOL     OW 1906   2.785   0.631   3.108
  336SOL    HW1 1907   2.820   0.645   3.016
  336SOL    HW2 1908   2.827   0.549   3.147
  337SOL     OW 1909   0.701   3.146   5.640
  337SOL    HW1 1910   0.647   3.177   5.718
  337SOL    HW2 1911   0.782   3.098   5.673
  338SOL     OW 1912   3.123   2.685   1.495
  338SOL    HW1 1913   3.061   2.723   1.426
  338SOL    HW2 1914   3.071   2.668   1.580
  339SOL     OW 1915   4.813   5.102   4.903
  339SOL    HW1 1916   4.827   5.033   4.974
  339SOL    HW2 1917   4.799   5.058   4.815
  340SOL     OW 1918   4.766   2.792   4.634
  340SOL    HW1 1919   4.832   2.865   4.612
  340SOL    HW2 1920   4.724   2.811   4.722
  341SOL     OW 1921   5.046   6.820   4.688
  341SOL    HW1 1922   4.995   6.894   4.732
  341SOL    HW2 1923   5.030   6.734   4.737
  342SOL     OW 1924   4.702   3.005   0.228
  342SOL    HW1 1925   4.687   3.025   0.132
  342SOL    HW2 1926   4.616   2.978   0.271
  343SOL     OW 1927   0.279   6.653   2.661
  343SOL    HW1 1928   0.219   6.731   2.643
  343SOL    HW2 1929   0.265   6.584   2.590
  344SOL     OW 1930   0.623   3.074   2.004
  344SOL    HW1 1931   0.709   3.029   2.028
  344SOL    HW2 1932   0.623   3.096   1.906
  345SOL     OW 1933   6.215   2.541   4.366
  345SOL    HW1 1934   6.209   2.541   4.466
  345SOL    HW2 1935   6.191   2.631   4.331
  346SOL     OW 1936   1.791   0.616   2.390
  346SOL    HW1 1937   1.879   0.576   2.367
  346SOL    HW2 1938   1.782   0.622   2.490
  347SOL     OW 1939   3.193   5.416   0.360
  347SOL    HW1 1940   3.164   5.503   0.401
  347SOL    HW2 1941   3.144   5.340   0.403
  348SOL     OW 1942   5.124   4.297   3.402
  348SOL    HW1 1943   5.076   4.374   3.444
  348SOL    HW2 1944   5.190   4.332   3.335
  349SOL     OW 1945   0.103   4.857   2.332
  349SOL    HW1 1946   0.087   4.831   2.237
  349SOL    HW2 1947   0.038   4.809   2.391
  350SOL     OW 1948   2.770   2.796   0.891
  350SOL    HW1 1949   2.680   2.763   0.864
  350SOL    HW2 1950   2.792   2.879   0.840
  351SOL     OW 1951   1.757   3.605   0.485
  351SOL    HW1 1952   1.773   3.701   0.464
  351SOL    HW2 1953   1.799   3.548   0.414
  352SOL     OW 1954   3.646   6.947   3.706
  352SOL    HW1 1955   3.710   6.919   3.779
  352SOL    HW2 1956   3.698   6.966   3.623
  353SOL     OW 1957   2.799   0.162   6.544
  353SOL    HW1 1958   2.852   0.089   6.587
  353SOL    HW2 1959   2.809   0.156   6.445
  354SOL     OW 1960   4.435   2.171   1.533
  354SOL    HW1 1961   4.387   2.088   1.504
  354SOL    HW2 1962   4.523   2.177   1.486
  355SOL     OW 1963   1.709   3.961   2.705
  355SOL    HW1 1964   1.753   3.965   2.794
  355SOL    HW2 1965   1.638   3.890   2.705
  356SOL     OW 1966   2.738   0.764   5.634
  356SOL    HW1 1967   2.661   0.809   5.590
  356SOL    HW2 1968   2.706   0.680   5.679
  357SOL     OW 1969   6.263   5.946   5.165
  357SOL    HW1 1970   6.278   5.874   5.096
  357SOL    HW2 1971   6.350   5.987   5.190
  358SOL     OW 1972   4.991   6.510   0.886
  358SOL    HW1 1973   4.906   6.564   0.892
  358SOL    HW2 1974   4.999   6.470   0.794
  359SOL     OW 1975   3.418   1.567   2.135
  359SOL    HW1 1976   3.439   1.539   2.229
  359SOL    HW2 1977   3.319   1.584   2.128
  360SOL     OW 1978   1.723   3.601   4.700
  360SOL    HW1 1979   1.784   3.652   4.640
  360SOL    HW2 1980   1.689   3.520   4.652
  361SOL     OW 1981   6.508   6.720   2.889
  361SOL    HW1 1982   6.586   6.753   2.942
  361SOL    HW2 1983   6.529   6.630   2.850
  362SOL     OW 1984   3.299   2.724   1.688
  362SOL    HW1 1985   3.237   2.721   1.610
  362SOL    HW2 1986   3.349   2.637   1.695
  363SOL     OW 1987   5.580   4.466   3.425
  363SOL    HW1 1988   5.606   4.412   3.505
  363SOL    HW2 1989   5.662   4.507   3.385
  364SOL     OW 1990   0.199   5.215   6.495
  364SOL    HW1 1991   0.166   5.146   6.559
  364SOL    HW2 1992   0.192   5.181   6.402
  365SOL     OW 1993   4.835   0.339   1.075
  365SOL    HW1 1994   4.849   0.287   0.991
  365SOL    HW2 1995   4.800   0.279   1.146
  366SOL     OW 1996   6.018   2.188   6.750
  366SOL    HW1 1997   6.105   2.237   6.758
  366SOL    HW2 1998   6.020   2.130   6.669
  367SOL     OW 1999   5.779   2.201   6.891
  367SOL    HW1 2000   5.869   2.202   6.847
  367SOL    HW2 2001   5.783   2.252   6.977
  368SOL     OW 2002   0.144   2.481   5.512
  368SOL    HW1 2003   0.197   2.414   5.564
  368SOL    HW2 2004   0.153   2.462   5.414
  369SOL     OW 2005   5.843   5.439   2.688
  369SOL    HW1 2006   5.896   5.380   2.749
  369SOL    HW2 2007   5.750   5.449   2.725
  370SOL     OW 2008   0.921   2.052   4.409
  370SOL    HW1 2009   0.898   1.958   4.432
  370SOL    HW2 2010   0.996   2.084   4.466
  371SOL     OW 2011   1.770   4.760   6.531
  371SOL    HW1 2012   1.831   4.839   6.536
  371SOL    HW2 2013   1.712   4.758   6.612
  372SOL     OW 2014   2.207   6.811   5.609
  372SOL    HW1 2015   2.155   6.728   5.592
  372SOL    HW2 2016   2.219   6.825   5.707
  373SOL     OW 2017   5.599   6.223   5.227
  373SOL    HW1 2018   5.649   6.280   5.161
  373SOL    HW2 2019   5.659   6.150   5.261
  374SOL     OW 2020   2.402   1.994   3.453
  374SOL    HW1 2021   2.409   1.928   3.528
  374SOL    HW2 2022   2.382   1.946   3.368
  375SOL     OW 2023   1.227   4.057   4.170
  375SOL    HW1 2024   1.153   3.989   4.165
  375SOL    HW2 2025   1.277   4.046   4.256
  376SOL     OW 2026   1.307   1.390   5.155
  376SOL    HW1 2027   1.326   1.488   5.154
  376SOL    HW2 2028   1.276   1.362   5.246
  377SOL     OW 2029   1.491   1.932   0.181
  377SOL    HW1 2030   1.452   2.010   0.132
  377SOL    HW2 2031   1.479   1.945   0.280
  378SOL     OW 2032   4.069   1.929   0.527
  378SOL    HW1 2033   4.038   2.011   0.479
  378SOL    HW2 2034   4.100   1.861   0.460
  379SOL     OW 2035   5.481   2.687   0.527
  379SOL    HW1 2036   5.471   2.727   0.436
  379SOL    HW2 2037   5.508   2.758   0.592
  380SOL     OW 2038   2.822   1.475   0.914
  380SOL    HW1 2039   2.868   1.386   0.913
  380SOL    HW2 2040   2.839   1.522   0.827
  381SOL     OW 2041   1.395   3.606   3.750
  381SOL    HW1 2042   1.325   3.665   3.789
  381SOL    HW2 2043   1.373   3.586   3.654
  382SOL     OW 2044   6.064   0.832   0.098
  382SOL    HW1 2045   6.020   0.865   0.015
  382SOL    HW2 2046   6.064   0.904   0.167
  383SOL     OW 2047   3.353   3.065   6.415
  383SOL    HW1 2048   3.362   3.027   6.507
  383SOL    HW2 2049   3.257   3.061   6.387
  384SOL     OW 2050   6.479   5.792   4.549
  384SOL    HW1 2051   6.387   5.786   4.587
  384SOL    HW2 2052   6.479   5.860   4.475
  385SOL     OW 2053   3.132   5.032   5.297
  385SOL    HW1 2054   3.128   5.018   5.396
  385SOL    HW2 2055   3.104   4.948   5.251
  386SOL     OW 2056   2.985   6.024   4.355
  386SOL    HW1 2057   3.031   5.974   4.282
  386SOL    HW2 2058   2.942   6.106   4.317
  387SOL     OW 2059   0.770   5.656   2.474
  387SOL    HW1 2060   0.773   5.614   2.565
  387SOL    HW2 2061   0.726   5.594   2.410
  388SOL     OW 2062   1.670   2.104   6.055
  388SOL    HW1 2063   1.639   2.155   6.135
  388SOL    HW2 2064   1.768   2.088   6.062
  389SOL     OW 2065   3.876   3.460   2.233
  389SOL    HW1 2066   3.906   3.371   2.199
  389SOL    HW2 2067   3.954   3.523   2.234
  390SOL     OW 2068   2.805   1.200   2.875
  390SOL    HW1 2069   2.780   1.203   2.778
  390SOL    HW2 2070   2.758   1.273   2.924
  391SOL     OW 2071   2.367   2.088   6.158
  391SOL    HW1 2072   2.400   2.078   6.252
  391SOL    HW2 2073   2.402   2.174   6.120
  392SOL     OW 2074   2.198   4.856   1.085
  392SOL    HW1 2075   2.101   4.880   1.095
  392SOL    HW2 2076   2.227   4.802   1.164
  393SOL     OW 2077   1.201   4.214   6.509
  393SOL    HW1 2078   1.130   4.281   6.531
  393SOL    HW2 2079   1.169   4.155   6.435
  394SOL     OW 2080   6.941   1.202   0.045
  394SOL    HW1 2081   6.843   1.201   0.061
  394SOL    HW2 2082   6.962   1.266   6.991
  395SOL     OW 2083   4.907   3.749   3.020
  395SOL    HW1 2084   4.858   3.823   2.974
  395SOL    HW2 2085   4.893   3.757   3.119
  396SOL     OW 2086   3.653   4.147   1.939
  396SOL    HW1 2087   3.699   4.078   1.995
  396SOL    HW2 2088   3.721   4.212   1.904
  397SOL     OW 2089   4.497   1.912   5.714
  397SOL    HW1 2090   4.556   1.983   5.752
  397SOL    HW2 2091   4.402   1.935   5.732
  398SOL     OW 2092   0.713   6.465   2.424
  398SOL    HW1 2093   0.777   6.484   2.498
  398SOL    HW2 2094   0.765   6.441   2.341
  399SOL     OW 2095   5.366   6.256   2.667
  399SOL    HW1 2096   5.296   6.326   2.649
  399SOL    HW2 2097   5.359   6.226   2.762
  400SOL     OW 2098   6.256   6.967   5.991
  400SOL    HW1 2099   6.161   6.975   5.961
  400SOL    HW2 2100   6.299   0.037   5.988
  401SOL     OW 2101   4.862   0.739   5.361
  401SOL    HW1 2102   4.871   0.836   5.385
  401SOL    HW2 2103   4.875   0.729   5.262
  402SOL     OW 2104   5.684   0.438   3.439
  402SOL    HW1 2105   5.768   0.385   3.442
  402SOL    HW2 2106   5.633   0.424   3.524
  403SOL     OW 2107   4.322   1.821   4.151
  403SOL    HW1 2108   4.354   1.751   4.214
  403SOL    HW2 2109   4.222   1.828   4.156
  404SOL     OW 2110   1.148   5.692   4.329
  404SOL    HW1 2111   1.206   5.696   4.247
  404SOL    HW2 2112   1.053   5.678   4.302
  405SOL     OW 2113   1.760   3.328   1.779
  405SOL    HW1 2114   1.753   3.235   1.817
  405SOL    HW2 2115   1.846   3.370   1.810
  406SOL     OW 2116   1.549   4.587   4.885
  406SOL    HW1 2117   1.557   4.488   4.898
  406SOL    HW2 2118   1.460   4.618   4.919
  407SOL     OW 2119   1.323   0.740   3.432
  407SOL    HW1 2120   1.264   0.796   3.491
  407SOL    HW2 2121   1.329   0.648   3.470
  408SOL     OW 2122   1.281   2.534   2.775
  408SOL    HW1 2123   1.240   2.463   2.717
  408SOL    HW2 2124   1.314   2.492   2.859
  409SOL     OW 2125   6.933   2.604   1.131
  409SOL    HW1 2126   6.886   2.689   1.108
  409SOL    HW2 2127   6.953   2.603   1.229
  410SOL     OW 2128   1.510   0.991   1.583
  410SOL    HW1 2129   1.440   1.009   1.653
  410SOL    HW2 2130   1.601   1.005   1.622
  411SOL     OW 2131   5.213   0.554   0.553
  411SOL    HW1 2132   5.230   0.467   0.599
  411SOL    HW2 2133   5.176   0.537   0.462
  412SOL     OW 2134   4.493   6.420   3.410
  412SOL    HW1 2135   4.521   6.324   3.419
  412SOL    HW2 2136   4.570   6.473   3.374
  413SOL     OW 2137   5.236   5.072   1.823
  413SOL    HW1 2138   5.186   5.131   1.886
  413SOL    HW2 2139   5.235   4.978   1.859
  414SOL     OW 2140   3.379   5.258   3.594
  414SOL    HW1 2141   3.319   5.261   3.673
  414SOL    HW2 2142   3.430   5.344   3.587
  415SOL     OW 2143   1.315   5.603   6.611
  415SOL    HW1 2144   1.233   5.549   6.628
  415SOL    HW2 2145   1.395   5.543   6.612
  416SOL     OW 2146   5.058   5.957   4.474
  416SOL    HW1 2147   5.138   5.899   4.489
  416SOL    HW2 2148   5.088   6.046   4.439
  417SOL     OW 2149   3.014   4.989   0.118
  417SOL    HW1 2150   3.082   5.001   0.046
  417SOL    HW2 2151   2.977   4.896   0.113
  418SOL     OW 2152   4.203   6.212   0.770
  418SOL    HW1 2153   4.170   6.148   0.701
  418SOL    HW2 2154   4.263   6.164   0.834
  419SOL     OW 2155   1.511   0.635   1.080
  419SOL    HW1 2156   1.587   0.642   1.144
  419SOL    HW2 2157   1.493   0.724   1.038
  420SOL     OW 2158   5.826   1.530   6.833
  420SOL    HW1 2159   5.899   1.598   6.831
  420SOL    HW2 2160   5.865   1.439   6.846
  421SOL     OW 2161   0.083   4.425   6.249
  421SOL    HW1 2162   0.010   4.421   6.317
  421SOL    HW2 2163   0.169   4.396   6.291
  422SOL     OW 2164   5.631   3.873   0.506
  422SOL    HW1 2165   5.646   3.899   0.602
  422SOL    HW2 2166   5.720   3.865   0.460
  423SOL     OW 2167   1.074   2.238   6.946
  423SOL    HW1 2168   1.017   2.199   7.018
  423SOL    HW2 2169   1.054   2.335   6.935
  424SOL     OW 2170   2.176   4.091   0.756
  424SOL    HW1 2171   2.249   4.024   0.765
  424SOL    HW2 2172   2.181   4.156   0.832
  425SOL     OW 2173   5.757   1.306   2.618
  425SOL    HW1 2174   5.722   1.337   2.529
  425SOL    HW2 2175   5.816   1.377   2.656
  426SOL     OW 2176   4.427   1.690   3.923
  426SOL    HW1 2177   4.403   1.736   4.008
  426SOL    HW2 2178   4.526   1.695   3.909
  427SOL     OW 2179   4.906   5.721   3.136
  427SOL    HW1 2180   4.996   5.700   3.174
  427SOL    HW2 2181   4.872   5.806   3.177
  428SOL     OW 2182   4.651   0.696   4.349
  428SOL    HW1 2183   4.598   0.629   4.400
  428SOL    HW2 2184   4.602   0.783   4.348
  429SOL     OW 2185   1.484   3.262   1.381
  429SOL    HW1 2186   1.436   3.194   1.436
  429SOL    HW2 2187   1.442   3.269   1.291
  430SOL     OW 2188   6.777   0.159   5.177
  430SOL    HW1 2189   6.875   0.143   5.169
  430SOL    HW2 2190   6.755   0.188   5.270
  431SOL     OW 2191   3.521   7.003   0.668
  431SOL    HW1 2192   3.575   0.039   0.606
  431SOL    HW2 2193   3.434   6.978   0.625
  432SOL     OW 2194   6.595   1.307   1.003
  432SOL    HW1 2195   6.627   1.309   1.098
  432SOL    HW2 2196   6.516   1.368   0.993
  433SOL     OW 2197   2.731   6.376   5.136
  433SOL    HW1 2198   2.681   6.291   5.122
  433SOL    HW2 2199   2.723   6.433   5.054
  434SOL     OW 2200   3.535   5.904   2.677
  434SOL    HW1 2201   3.511   5.995   2.709
  434SOL    HW2 2202   3.632   5.887   2.693
  435SOL     OW 2203   5.040   2.663   6.426
  435SOL    HW1 2204   5.016   2.733   6.494
  435SOL    HW2 2205   5.080   2.584   6.472
  436SOL     OW 2206   3.174   6.278   1.335
  436SOL    HW1 2207   3.080   6.244   1.338
  436SOL    HW2 2208   3.230   6.231   1.403
  437SOL     OW 2209   1.173   0.558   0.391
  437SOL    HW1 2210   1.234   0.592   0.319
  437SOL    HW2 2211   1.182   0.616   0.472
  438SOL     OW 2212   2.019   3.817   2.613
  438SOL    HW1 2213   2.088   3.763   2.566
  438SOL    HW2 2214   2.063   3.892   2.662
  439SOL     OW 2215   5.832   5.039   3.003
  439SOL    HW1 2216   5.838   4.988   2.918
  439SOL    HW2 2217   5.777   4.988   3.069
  440SOL     OW 2218   1.987   1.139   5.486
  440SOL    HW1 2219   1.944   1.087   5.412
  440SOL    HW2 2220   2.032   1.075   5.549
  441SOL     OW 2221   0.676   2.702   4.472
  441SOL    HW1 2222   0.701   2.799   4.481
  441SOL    HW2 2223   0.757   2.646   4.482
  442SOL     OW 2224   3.400   4.828   5.970
  442SOL    HW1 2225   3.478   4.878   5.932
  442SOL    HW2 2226   3.320   4.888   5.970
  443SOL     OW 2227   6.017   3.911   4.435
  443SOL    HW1 2228   6.088   3.925   4.504
  443SOL    HW2 2229   6.055   3.861   4.357
  444SOL     OW 2230   4.932   1.257   5.457
  444SOL    HW1 2231   4.998   1.330   5.475
  444SOL    HW2 2232   4.858   1.293   5.399
  445SOL     OW 2233   0.698   5.490   2.711
  445SOL    HW1 2234   0.661   5.405   2.674
  445SOL    HW2 2235   0.654   5.510   2.799
  446SOL     OW 2236   3.949   4.921   3.610
  446SOL    HW1 2237   3.965   4.974   3.527
  446SOL    HW2 2238   4.002   4.959   3.686
  447SOL     OW 2239   0.379   2.802   6.234
  447SOL    HW1 2240   0.378   2.887   6.182
  447SOL    HW2 2241   0.290   2.756   6.226
  448SOL     OW 2242   1.835   0.368   3.465
  448SOL    HW1 2243   1.920   0.393   3.511
  448SOL    HW2 2244   1.850   0.286   3.411
  449SOL     OW 2245   3.922   1.438   4.184
  449SOL    HW1 2246   3.874   1.522   4.160
  449SOL    HW2 2247   3.899   1.411   4.277
  450SOL     OW 2248   1.177   5.512   3.747
  450SOL    HW1 2249   1.160   5.567   3.828
  450SOL    HW2 2250   1.187   5.572   3.667
  451SOL     OW 2251   1.567   1.818   3.653
  451SOL    HW1 2252   1.545   1.892   3.589
  451SOL    HW2 2253   1.667   1.809   3.660
  452SOL     OW 2254   6.368   5.981   0.882
  452SOL    HW1 2255   6.458   6.024   0.886
  452SOL    HW2 2256   6.337   5.959   0.974
  453SOL     OW 2257   3.713   0.942   5.597
  453SOL    HW1 2258   3.644   0.995   5.547
  453SOL    HW2 2259   3.802   0.952   5.553
  454SOL     OW 2260   6.689   4.698   6.581
  454SOL    HW1 2261   6.678   4.636   6.659
  454SOL    HW2 2262   6.727   4.785   6.613
  455SOL     OW 2263   6.047   2.676   3.467
  455SOL    HW1 2264   6.086   2.725   3.388
  455SOL    HW2 2265   6.003   2.592   3.436
  456SOL     OW 2266   5.860   6.474   4.167
  456SOL    HW1 2267   5.831   6.440   4.256
  456SOL    HW2 2268   5.825   6.567   4.153
  457SOL     OW 2269   1.404   2.685   4.442
  457SOL    HW1 2270   1.332   2.710   4.377
  457SOL    HW2 2271   1.430   2.589   4.428
  458SOL     OW 2272   4.127   5.659   3.731
  458SOL    HW1 2273   4.036   5.677   3.769
  458SOL    HW2 2274   4.133   5.697   3.638
  459SOL     OW 2275   1.879   6.566   5.144
  459SOL    HW1 2276   1.799   6.506   5.145
  459SOL    HW2 2277   1.854   6.656   5.180
  460SOL     OW 2278   1.758   6.560   3.866
  460SOL    HW1 2279   1.698   6.569   3.786
  460SOL    HW2 2280   1.702   6.549   3.948
  461SOL     OW 2281   6.518   6.935   6.493
  461SOL    HW1 2282   6.504   6.856   6.434
  461SOL    HW2 2283   6.615   6.943   6.515
  462SOL     OW 2284   3.653   2.866   6.420
  462SOL    HW1 2285   3.731   2.811   6.449
  462SOL    HW2 2286   3.685   2.955   6.388
  463SOL     OW 2287   5.920   6.218   3.408
  463SOL    HW1 2288   5.889   6.264   3.491
  463SOL    HW2 2289   6.016   6.192   3.418
  464SOL     OW 2290   2.545   1.664   4.971
  464SOL    HW1 2291   2.517   1.568   4.975
  464SOL    HW2 2292   2.465   1.720   4.949
  465SOL     OW 2293   0.722   3.020   6.061
  465SOL    HW1 2294   0.755   3.097   6.007
  465SOL    HW2 2295   0.623   3.027   6.072
  466SOL     OW 2296   0.526   5.760   2.580
  466SOL    HW1 2297   0.608   5.751   2.523
  466SOL    HW2 2298   0.511   5.856   2.603
  467SOL     OW 2299   2.126   1.106   0.536
  467SOL    HW1 2300   2.082   1.137   0.620
  467SOL    HW2 2301   2.220   1.078   0.557
  468SOL     OW 2302   3.355   0.407   6.152
  468SOL    HW1 2303   3.401   0.335   6.099
  468SOL    HW2 2304   3.404   0.421   6.238
  469SOL     OW 2305   2.736   3.230   6.742
  469SOL    HW1 2306   2.771   3.282   6.664
  469SOL    HW2 2307   2.683   3.152   6.709
  470SOL     OW 2308   4.399   0.180   1.829
  470SOL    HW1 2309   4.369   0.149   1.739
  470SOL    HW2 2310   4.322   0.225   1.876
  471SOL     OW 2311   1.892   2.359   3.856
  471SOL    HW1 2312   1.861   2.398   3.770
  471SOL    HW2 2313   1.907   2.261   3.845
  472SOL     OW 2314   4.888   3.004   6.287
  472SOL    HW1 2315   4.966   3.051   6.328
  472SOL    HW2 2316   4.911   2.976   6.194
  473SOL     OW 2317   1.194   3.338   3.537
  473SOL    HW1 2318   1.110   3.385   3.507
  473SOL    HW2 2319   1.236   3.292   3.458
  474SOL     OW 2320   5.349   5.889   4.098
  474SOL    HW1 2321   5.307   5.971   4.137
  474SOL    HW2 2322   5.444   5.908   4.075
  475SOL     OW 2323   5.648   1.047   6.106
  475SOL    HW1 2324   5.682   1.137   6.134
  475SOL    HW2 2325   5.721   0.980   6.113
  476SOL     OW 2326   0.521   3.655   3.450
  476SOL    HW1 2327   0.485   3.746   3.471
  476SOL    HW2 2328   0.536   3.605   3.536
  477SOL     OW 2329   1.697   5.619   3.576
  477SOL    HW1 2330   1.778   5.565   3.556
  477SOL    HW2 2331   1.628   5.602   3.506
  478SOL     OW 2332   3.226   5.953   2.021
  478SOL    HW1 2333   3.304   6.015   2.027
  478SOL    HW2 2334   3.163   5.971   2.097
  479SOL     OW 2335   4.299   1.747   6.023
  479SOL    HW1 2336   4.386   1.723   5.981
  479SOL    HW2 2337   4.225   1.737   5.955
  480SOL     OW 2338   2.463   0.964   6.828
  480SOL    HW1 2339   2.414   0.876   6.831
  480SOL    HW2 2340   2.405   1.035   6.869
  481SOL     OW 2341   2.213   6.893   0.869
  481SOL    HW1 2342   2.143   6.829   0.836
  481SOL    HW2 2343   2.176   6.986   0.866
  482SOL     OW 2344   4.440   4.876   2.434
  482SOL    HW1 2345   4.365   4.934   2.464
  482SOL    HW2 2346   4.522   4.932   2.423
  483SOL     OW 2347   0.080   1.441   2.318
  483SOL    HW1 2348   0.152   1.409   2.257
  483SOL    HW2 2349   0.116   1.445   2.412
  484SOL     OW 2350   2.075   3.660   4.255
  484SOL    HW1 2351   2.122   3.742   4.221
  484SOL    HW2 2352   2.029   3.681   4.341
  485SOL     OW 2353   3.853   5.566   2.743
  485SOL    HW1 2354   3.924   5.605   2.801
  485SOL    HW2 2355   3.816   5.484   2.787
  486SOL     OW 2356   6.670   1.259   0.109
  486SOL    HW1 2357   6.614   1.300   0.181
  486SOL    HW2 2358   6.612   1.238   0.030
  487SOL     OW 2359   0.730   0.812   2.175
  487SOL    HW1 2360   0.807   0.810   2.238
  487SOL    HW2 2361   0.645   0.804   2.226
  488SOL     OW 2362   1.188   1.735   1.499
  488SOL    HW1 2363   1.194   1.661   1.432
  488SOL    HW2 2364   1.092   1.762   1.510
  489SOL     OW 2365   3.699   6.470   5.878
  489SOL    HW1 2366   3.697   6.567   5.853
  489SOL    HW2 2367   3.792   6.434   5.865
  490SOL     OW 2368   6.489   6.437   2.814
  490SOL    HW1 2369   6.469   6.381   2.733
  490SOL    HW2 2370   6.515   6.378   2.890
  491SOL     OW 2371   0.916   2.875   2.628
  491SOL    HW1 2372   0.925   2.878   2.528
  491SOL    HW2 2373   1.001   2.840   2.667
  492SOL     OW 2374   1.934   0.712   5.365
  492SOL    HW1 2375   1.866   0.729   5.293
  492SOL    HW2 2376   1.982   0.626   5.346
  493SOL     OW 2377   5.163   5.936   5.686
  493SOL    HW1 2378   5.227   6.013   5.687
  493SOL    HW2 2379   5.193   5.868   5.753
  494SOL     OW 2380   0.398   6.558   6.192
  494SOL    HW1 2381   0.371   6.484   6.254
  494SOL    HW2 2382   0.496   6.552   6.173
  495SOL     OW 2383   4.833   5.963   3.462
  495SOL    HW1 2384   4.753   5.915   3.497
  495SOL    HW2 2385   4.869   6.025   3.532
  496SOL     OW 2386   5.156   3.185   1.959
  496SOL    HW1 2387   5.068   3.232   1.952
  496SOL    HW2 2388   5.144   3.088   1.936
  497SOL     OW 2389   2.753   1.062   4.612
  497SOL    HW1 2390   2.696   1.114   4.548
  497SOL    HW2 2391   2.830   1.022   4.562
  498SOL     OW 2392   1.553   3.784   1.593
  498SOL    HW1 2393   1.546   3.847   1.515
  498SOL    HW2 2394   1.473   3.723   1.594
  499SOL     OW 2395   2.045   6.208   4.530
  499SOL    HW1 2396   2.069   6.113   4.509
  499SOL    HW2 2397   2.082   6.233   4.620
  500SOL     OW 2398   6.967   3.084   5.057
  500SOL    HW1 2399   6.939   3.180   5.063
  500SOL    HW2 2400   6.978   3.047   5.149
  501SOL     OW 2401   3.318   5.802   0.915
  501SOL    HW1 2402   3.332   5.861   0.994
  501SOL    HW2 2403   3.282   5.713   0.945
  502SOL     OW 2404   0.280   4.051   6.982
  502SOL    HW1 2405   0.353   4.039   6.914
  502SOL    HW2 2406   0.199   4.088   6.938
  503SOL     OW 2407   0.317   5.754   6.897
  503SOL    HW1 2408   0.364   5.742   6.809
  503SOL    HW2 2409   0.224   5.718   6.889
  504SOL     OW 2410   1.339   5.249   2.284
  504SOL    HW1 2411   1.359   5.159   2.324
  504SOL    HW2 2412   1.254   5.243   2.230
  505SOL     OW 2413   2.919   5.873   5.416
  505SOL    HW1 2414   3.018   5.884   5.423
  505SOL    HW2 2415   2.898   5.813   5.339
  506SOL     OW 2416   2.708   5.163   3.964
  506SOL    HW1 2417   2.672   5.087   4.019
  506SOL    HW2 2418   2.772   5.216   4.020
  507SOL     OW 2419   2.899   6.602   3.028
  507SOL    HW1 2420   2.869   6.612   2.933
  507SOL    HW2 2421   2.960   6.677   3.051
  508SOL     OW 2422   0.153   3.962   2.455
  508SOL    HW1 2423   0.204   4.045   2.432
  508SOL    HW2 2424   0.152   3.900   2.376
  509SOL     OW 2425   3.043   1.374   1.159
  509SOL    HW1 2426   3.097   1.312   1.102
  509SOL    HW2 2427   3.059   1.468   1.132
  510SOL     OW 2428   6.442   4.717   0.154
  510SOL    HW1 2429   6.361   4.690   0.206
  510SOL    HW2 2430   6.425   4.702   0.056
  511SOL     OW 2431   0.989   1.720   5.843
  511SOL    HW1 2432   1.042   1.805   5.841
  511SOL    HW2 2433   0.900   1.735   5.799
  512SOL     OW 2434   6.953   3.225   0.170
  512SOL    HW1 2435   6.974   3.128   0.181
  512SOL    HW2 2436   6.945   3.268   0.260
  513SOL     OW 2437   5.760   0.025   3.210
  513SOL    HW1 2438   5.764   7.005   3.118
  513SOL    HW2 2439   5.666   0.053   3.230
  514SOL     OW 2440   6.927   2.242   3.794
  514SOL    HW1 2441   6.906   2.238   3.892
  514SOL    HW2 2442   6.880   2.320   3.753
  515SOL     OW 2443   1.203   0.571   6.166
  515SOL    HW1 2444   1.139   0.634   6.121
  515SOL    HW2 2445   1.294   0.582   6.126
  516SOL     OW 2446   2.571   4.681   2.002
  516SOL    HW1 2447   2.621   4.617   1.943
  516SOL    HW2 2448   2.618   4.770   2.001
  517SOL     OW 2449   4.312   5.925   1.361
  517SOL    HW1 2450   4.227   5.964   1.324
  517SOL    HW2 2451   4.387   5.989   1.344
  518SOL     OW 2452   2.997   2.261   3.144
  518SOL    HW1 2453   3.077   2.238   3.200
  518SOL    HW2 2454   3.014   2.235   3.049
  519SOL     OW 2455   0.489   0.023   4.856
  519SOL    HW1 2456   0.581   7.006   4.845
  519SOL    HW2 2457   0.492   0.123   4.849
  520SOL     OW 2458   5.785   4.391   1.021
  520SOL    HW1 2459   5.810   4.298   1.050
  520SOL    HW2 2460   5.847   4.422   0.949
  521SOL     OW 2461   6.512   5.373   5.090
  521SOL    HW1 2462   6.460   5.288   5.077
  521SOL    HW2 2463   6.602   5.351   5.128
  522SOL     OW 2464   3.584   3.131   4.526
  522SOL    HW1 2465   3.592   3.043   4.572
  522SOL    HW2 2466   3.559   3.117   4.431
  523SOL     OW 2467   0.115   5.685   1.502
  523SOL    HW1 2468   0.211   5.674   1.528
  523SOL    HW2 2469   0.083   5.601   1.457
  524SOL     OW 2470   0.856   1.657   2.291
  524SOL    HW1 2471   0.786   1.598   2.251
  524SOL    HW2 2472   0.931   1.668   2.226
  525SOL     OW 2473   2.029   3.224   5.331
  525SOL    HW1 2474   2.004   3.280   5.252
  525SOL    HW2 2475   2.074   3.281   5.399
  526SOL     OW 2476   4.047   6.462   3.802
  526SOL    HW1 2477   4.103   6.494   3.879
  526SOL    HW2 2478   3.952   6.491   3.816
  527SOL     OW 2479   5.845   2.919   6.716
  527SOL    HW1 2480   5.832   2.954   6.809
  527SOL    HW2 2481   5.756   2.895   6.678
  528SOL     OW 2482   1.309   2.282   3.512
  528SOL    HW1 2483   1.406   2.302   3.526
  528SOL    HW2 2484   1.277   2.327   3.429
  529SOL     OW 2485   1.712   7.010   4.461
  529SOL    HW1 2486   1.694   0.088   4.451
  529SOL    HW2 2487   1.712   6.966   4.371
  530SOL     OW 2488   3.568   3.199   4.234
  530SOL    HW1 2489   3.516   3.280   4.262
  530SOL    HW2 2490   3.561   3.187   4.135
  531SOL     OW 2491   0.363   1.489   3.262
  531SOL    HW1 2492   0.458   1.459   3.268
  531SOL    HW2 2493   0.303   1.419   3.302
  532SOL     OW 2494   1.004   2.866   6.717
  532SOL    HW1 2495   1.047   2.881   6.628
  532SOL    HW2 2496   0.935   2.937   6.732
  533SOL     OW 2497   3.968   6.702   4.192
  533SOL    HW1 2498   3.977   6.610   4.154
  533SOL    HW2 2499   4.049   6.724   4.246
  534SOL     OW 2500   5.149   6.557   2.701
  534SOL    HW1 2501   5.052   6.574   2.681
  534SOL    HW2 2502   5.202   6.563   2.617
  535SOL     OW 2503   0.767   3.770   4.426
  535SOL    HW1 2504   0.808   3.680   4.413
  535SOL    HW2 2505   0.690   3.781   4.363
  536SOL     OW 2506   6.648   5.303   1.574
  536SOL    HW1 2507   6.550   5.288   1.591
  536SOL    HW2 2508   6.673   5.396   1.601
  537SOL     OW 2509   2.860   6.346   4.786
  537SOL    HW1 2510   2.847   6.437   4.745
  537SOL    HW2 2511   2.781   6.289   4.764
  538SOL     OW 2512   1.489   4.479   3.365
  538SOL    HW1 2513   1.501   4.443   3.272
  538SOL    HW2 2514   1.578   4.480   3.411
  539SOL     OW 2515   1.620   5.696   1.065
  539SOL    HW1 2516   1.521   5.684   1.068
  539SOL    HW2 2517   1.643   5.768   1.000
  540SOL     OW 2518   1.033   0.582   3.027
  540SOL    HW1 2519   1.042   0.483   3.016
  540SOL    HW2 2520   1.084   0.611   3.109
  541SOL     OW 2521   5.542   5.895   3.867
  541SOL    HW1 2522   5.482   5.815   3.863
  541SOL    HW2 2523   5.637   5.866   3.867
  542SOL     OW 2524   6.176   6.514   0.061
  542SOL    HW1 2525   6.084   6.492   0.030
  542SOL    HW2 2526   6.242   6.487   7.011
  543SOL     OW 2527   1.536   3.834   5.611
  543SOL    HW1 2528   1.454   3.789   5.648
  543SOL    HW2 2529   1.611   3.827   5.677
  544SOL     OW 2530   3.468   4.068   0.212
  544SOL    HW1 2531   3.470   3.995   0.281
  544SOL    HW2 2532   3.385   4.060   0.157
  545SOL     OW 2533   2.792   1.337   1.964
  545SOL    HW1 2534   2.724   1.406   1.990
  545SOL    HW2 2535   2.797   1.330   1.865
  546SOL     OW 2536   1.840   3.189   0.442
  546SOL    HW1 2537   1.752   3.231   0.420
  546SOL    HW2 2538   1.890   3.248   0.506
  547SOL     OW 2539   3.258   0.877   0.216
  547SOL    HW1 2540   3.243   0.963   0.168
  547SOL    HW2 2541   3.208   0.804   0.169
  548SOL     OW 2542   3.335   3.254   2.792
  548SOL    HW1 2543   3.413   3.315   2.796
  548SOL    HW2 2544   3.275   3.280   2.716
  549SOL     OW 2545   5.314   2.972   0.850
  549SOL    HW1 2546   5.284   2.877   0.849
  549SOL    HW2 2547   5.272   3.021   0.773
  550SOL     OW 2548   6.838   4.878   3.852
  550SOL    HW1 2549   6.859   4.934   3.932
  550SOL    HW2 2550   6.919   4.826   3.824
  551SOL     OW 2551   0.858   0.394   2.045
  551SOL    HW1 2552   0.833   0.480   2.001
  551SOL    HW2 2553   0.780   0.359   2.098
  552SOL     OW 2554   5.369   4.367   0.260
  552SOL    HW1 2555   5.401   4.372   0.354
  552SOL    HW2 2556   5.362   4.459   0.222
  553SOL     OW 2557   2.076   6.564   2.328
  553SOL    HW1 2558   2.115   6.568   2.236
  553SOL    HW2 2559   1.997   6.625   2.333
  554SOL     OW 2560   5.688   0.236   5.967
  554SOL    HW1 2561   5.668   0.215   5.872
  554SOL    HW2 2562   5.742   0.162   6.007
  555SOL     OW 2563   1.668   5.569   3.051
  555SOL    HW1 2564   1.674   5.499   2.980
  555SOL    HW2 2565   1.684   5.528   3.140
  556SOL     OW 2566   4.638   2.628   3.560
  556SOL    HW1 2567   4.647   2.675   3.472
  556SOL    HW2 2568   4.543   2.600   3.573
  557SOL     OW 2569   0.364   4.980   0.392
  557SOL    HW1 2570   0.313   5.066   0.393
  557SOL    HW2 2571   0.421   4.976   0.310
  558SOL     OW 2572   2.886   3.477   4.244
  558SOL    HW1 2573   2.871   3.475   4.343
  558SOL    HW2 2574   2.947   3.402   4.218
  559SOL     OW 2575   6.796   5.738   6.940
  559SOL    HW1 2576   6.850   5.802   6.885
  559SOL    HW2 2577   6.745   5.676   6.880
  560SOL     OW 2578   4.965   4.371   6.846
  560SOL    HW1 2579   4.986   4.284   6.889
  560SOL    HW2 2580   4.871   4.398   6.868
  561SOL     OW 2581   6.685   1.086   0.659
  561SOL    HW1 2582   6.610   1.023   0.679
  561SOL    HW2 2583   6.649   1.167   0.614
  562SOL     OW 2584   5.297   0.754   5.841
  562SOL    HW1 2585   5.289   0.655   5.829
  562SOL    HW2 2586   5.290   0.777   5.939
  563SOL     OW 2587   2.283   0.543   3.341
  563SOL    HW1 2588   2.276   0.642   3.356
  563SOL    HW2 2589   2.378   0.518   3.329
  564SOL     OW 2590   1.833   2.030   6.501
  564SOL    HW1 2591   1.761   2.004   6.565
  564SOL    HW2 2592   1.797   2.098   6.436
  565SOL     OW 2593   3.673   2.961   5.439
  565SOL    HW1 2594   3.758   2.916   5.466
  565SOL    HW2 2595   3.633   3.008   5.518
  566SOL     OW 2596   6.113   5.054   3.896
  566SOL    HW1 2597   6.150   4.967   3.931
  566SOL    HW2 2598   6.102   5.118   3.972
  567SOL     OW 2599   3.273   2.923   1.896
  567SOL    HW1 2600   3.265   2.836   1.847
  567SOL    HW2 2601   3.214   2.991   1.853
  568SOL     OW 2602   4.367   1.636   0.028
  568SOL    HW1 2603   4.463   1.656   0.050
  568SOL    HW2 2604   4.329   1.574   0.097
  569SOL     OW 2605   1.415   3.181   6.963
  569SOL    HW1 2606   1.329   3.156   7.007
  569SOL    HW2 2607   1.458   3.256   7.014
  570SOL     OW 2608   3.228   6.137   0.161
  570SOL    HW1 2609   3.207   6.233   0.177
  570SOL    HW2 2610   3.251   6.124   0.064
  571SOL     OW 2611   3.111   0.513   2.846
  571SOL    HW1 2612   3.177   0.442   2.822
  571SOL    HW2 2613   3.032   0.471   2.892
  572SOL     OW 2614   3.124   4.977   5.574
  572SOL    HW1 2615   3.040   4.968   5.628
  572SOL    HW2 2616   3.186   4.902   5.595
  573SOL     OW 2617   5.431   1.839   5.678
  573SOL    HW1 2618   5.360   1.895   5.633
  573SOL    HW2 2619   5.459   1.882   5.763
  574SOL     OW 2620   3.357   2.101   4.400
  574SOL    HW1 2621   3.274   2.132   4.447
  574SOL    HW2 2622   3.350   2.123   4.303
  575SOL     OW 2623   5.367   3.861   1.057
  575SOL    HW1 2624   5.413   3.774   1.042
  575SOL    HW2 2625   5.317   3.887   0.975
  576SOL     OW 2626   1.145   2.336   2.974
  576SOL    HW1 2627   1.160   2.246   3.015
  576SOL    HW2 2628   1.146   2.327   2.875
  577SOL     OW 2629   1.542   1.476   2.583
  577SOL    HW1 2630   1.618   1.515   2.531
  577SOL    HW2 2631   1.547   1.376   2.579
  578SOL     OW 2632   6.704   5.141   3.209
  578SOL    HW1 2633   6.662   5.212   3.265
  578SOL    HW2 2634   6.784   5.103   3.258
  579SOL     OW 2635   1.637   2.831   2.269
  579SOL    HW1 2636   1.724   2.840   2.221
  579SOL    HW2 2637   1.593   2.921   2.276
  580SOL     OW 2638   6.668   5.110   6.768
  580SOL    HW1 2639   6.580   5.066   6.785
  580SOL    HW2 2640   6.673   5.139   6.672
  581SOL     OW 2641   3.117   3.055   2.997
  581SOL    HW1 2642   3.177   3.122   2.954
  581SOL    HW2 2643   3.024   3.091   3.001
  582SOL     OW 2644   5.531   6.512   2.355
  582SOL    HW1 2645   5.472   6.574   2.407
  582SOL    HW2 2646   5.500   6.509   2.260
  583SOL     OW 2647   3.216   5.165   5.762
  583SOL    HW1 2648   3.138   5.188   5.820
  583SOL    HW2 2649   3.190   5.095   5.695
  584SOL     OW 2650   2.335   3.873   6.346
  584SOL    HW1 2651   2.370   3.802   6.406
  584SOL    HW2 2652   2.360   3.852   6.251
  585SOL     OW 2653   5.593   3.084   6.027
  585SOL    HW1 2654   5.603   3.179   5.998
  585SOL    HW2 2655   5.523   3.039   5.972
  586SOL     OW 2656   3.876   1.653   6.435
  586SOL    HW1 2657   3.939   1.718   6.394
  586SOL    HW2 2658   3.863   1.576   6.372
  587SOL     OW 2659   3.383   0.942   5.592
  587SOL    HW1 2660   3.440   1.020   5.617
  587SOL    HW2 2661   3.429   0.857   5.617
  588SOL     OW 2662   2.635   4.579   0.893
  588SOL    HW1 2663   2.682   4.494   0.869
  588SOL    HW2 2664   2.571   4.604   0.821
  589SOL     OW 2665   3.205   5.417   1.546
  589SOL    HW1 2666   3.142   5.383   1.616
  589SOL    HW2 2667   3.155   5.432   1.461
  590SOL     OW 2668   5.091   3.133   2.627
  590SOL    HW1 2669   5.101   3.231   2.644
  590SOL    HW2 2670   5.001   3.116   2.587
  591SOL     OW 2671   3.814   5.564   3.600
  591SOL    HW1 2672   3.812   5.554   3.500
  591SOL    HW2 2673   3.908   5.559   3.632
  592SOL     OW 2674   3.256   0.619   2.004
  592SOL    HW1 2675   3.261   0.548   1.933
  592SOL    HW2 2676   3.314   0.696   1.978
  593SOL     OW 2677   4.325   2.391   3.238
  593SOL    HW1 2678   4.284   2.360   3.153
  593SOL    HW2 2679   4.387   2.468   3.220
  594SOL     OW 2680   5.541   2.138   6.681
  594SOL    HW1 2681   5.614   2.175   6.739
  594SOL    HW2 2682   5.456   2.187   6.700
  595SOL     OW 2683   6.107   0.407   4.086
  595SOL    HW1 2684   6.058   0.339   4.031
  595SOL    HW2 2685   6.196   0.371   4.113
  596SOL     OW 2686   1.838   4.647   3.133
  596SOL    HW1 2687   1.825   4.562   3.185
  596SOL    HW2 2688   1.828   4.627   3.035
  597SOL     OW 2689   4.195   6.842   6.557
  597SOL    HW1 2690   4.190   6.753   6.511
  597SOL    HW2 2691   4.250   6.833   6.640
  598SOL     OW 2692   3.130   3.859   6.083
  598SOL    HW1 2693   3.057   3.909   6.038
  598SOL    HW2 2694   3.177   3.801   6.016
  599SOL     OW 2695   2.227   6.413   2.754
  599SOL    HW1 2696   2.137   6.447   2.728
  599SOL    HW2 2697   2.217   6.349   2.831
  600SOL     OW 2698   1.080   1.037   0.591
  600SOL    HW1 2699   1.112   1.060   0.499
  600SOL    HW2 2700   1.148   1.067   0.659
  601SOL     OW 2701   3.044   6.164   3.867
  601SOL    HW1 2702   2.959   6.144   3.917
  601SOL    HW2 2703   3.058   6.263   3.863
  602SOL     OW 2704   1.970   2.807   6.068
  602SOL    HW1 2705   2.018   2.843   6.148
  602SOL    HW2 2706   2.028   2.818   5.987
  603SOL     OW 2707   3.657   1.994   3.696
  603SOL    HW1 2708   3.690   2.055   3.624
  603SOL    HW2 2709   3.673   1.899   3.669
  604SOL     OW 2710   0.616   3.565   1.854
  604SOL    HW1 2711   0.608   3.652   1.807
  604SOL    HW2 2712   0.528   3.518   1.853
  605SOL     OW 2713   6.428   6.291   2.554
  605SOL    HW1 2714   6.390   6.201   2.536
  605SOL    HW2 2715   6.475   6.324   2.472
  606SOL     OW 2716   5.087   0.496   6.629
  606SOL    HW1 2717   5.142   0.505   6.711
  606SOL    HW2 2718   5.000   0.544   6.642
  607SOL     OW 2719   5.821   0.724   5.582
  607SOL    HW1 2720   5.817   0.686   5.490
  607SOL    HW2 2721   5.907   0.698   5.625
  608SOL     OW 2722   3.551   6.099   6.534
  608SOL    HW1 2723   3.526   6.014   6.579
  608SOL    HW2 2724   3.624   6.144   6.586
  609SOL     OW 2725   4.132   3.401   3.527
  609SOL    HW1 2726   4.099   3.346   3.450
  609SOL    HW2 2727   4.084   3.374   3.610
  610SOL     OW 2728   4.843   3.085   2.496
  610SOL    HW1 2729   4.810   3.024   2.424
  610SOL    HW2 2730   4.835   3.180   2.465
  611SOL     OW 2731   2.692   0.426   6.825
  611SOL    HW1 2732   2.784   0.446   6.860
  611SOL    HW2 2733   2.644   0.511   6.804
  612SOL     OW 2734   3.880   6.514   6.162
  612SOL    HW1 2735   3.792   6.555   6.188
  612SOL    HW2 2736   3.905   6.444   6.228
  613SOL     OW 2737   3.945   6.769   5.879
  613SOL    HW1 2738   3.969   6.866   5.870
  613SOL    HW2 2739   4.022   6.720   5.921
  614SOL     OW 2740   4.669   4.422   1.421
  614SOL    HW1 2741   4.685   4.419   1.520
  614SOL    HW2 2742   4.571   4.415   1.403
  615SOL     OW 2743   0.328   2.064   0.865
  615SOL    HW1 2744   0.344   2.161   0.885
  615SOL    HW2 2745   0.230   2.048   0.853
  616SOL     OW 2746   0.284   2.039   3.622
  616SOL    HW1 2747   0.341   1.961   3.598
  616SOL    HW2 2748   0.198   2.007   3.662
  617SOL     OW 2749   6.770   3.269   6.390
  617SOL    HW1 2750   6.841   3.227   6.332
  617SOL    HW2 2751   6.799   3.360   6.418
  618SOL     OW 2752   0.021   3.232   6.644
  618SOL    HW1 2753   7.009   3.312   6.695
  618SOL    HW2 2754   0.074   3.173   6.705
  619SOL     OW 2755   4.768   0.232   6.607
  619SOL    HW1 2756   4.750   0.147   6.656
  619SOL    HW2 2757   4.862   0.230   6.571
  620SOL     OW 2758   5.077   2.469   2.155
  620SOL    HW1 2759   5.055   2.557   2.197
  620SOL    HW2 2760   4.993   2.416   2.145
  621SOL     OW 2761   2.491   6.750   5.688
  621SOL    HW1 2762   2.459   6.655   5.687
  621SOL    HW2 2763   2.414   6.812   5.680
  622SOL     OW 2764   0.949   1.550   4.740
  622SOL    HW1 2765   1.048   1.541   4.756
  622SOL    HW2 2766   0.905   1.584   4.823
  623SOL     OW 2767   1.110   6.188   5.875
  623SOL    HW1 2768   1.138   6.151   5.964
  623SOL    HW2 2769   1.181   6.169   5.807
  624SOL     OW 2770   0.018   1.664   0.859
  624SOL    HW1 2771   6.970   1.594   0.879
  624SOL    HW2 2772   0.088   1.665   0.931
  625SOL     OW 2773   1.993   2.140   1.653
  625SOL    HW1 2774   2.052   2.063   1.627
  625SOL    HW2 2775   2.040   2.226   1.632
  626SOL     OW 2776   0.465   5.653   2.842
  626SOL    HW1 2777   0.489   5.699   2.756
  626SOL    HW2 2778   0.494   5.709   2.919
  627SOL     OW 2779   6.535   6.417   0.837
  627SOL    HW1 2780   6.581   6.475   0.771
  627SOL    HW2 2781   6.601   6.385   0.905
  628SOL     OW 2782   5.328   5.739   5.557
  628SOL    HW1 2783   5.305   5.835   5.547
  628SOL    HW2 2784   5.312   5.710   5.652
  629SOL     OW 2785   0.685   0.400   6.293
  629SOL    HW1 2786   0.663   0.423   6.388
  629SOL    HW2 2787   0.784   0.396   6.281
  630SOL     OW 2788   0.726   1.366   0.314
  630SOL    HW1 2789   0.657   1.437   0.299
  630SOL    HW2 2790   0.758   1.370   0.408
  631SOL     OW 2791   3.731   0.695   5.781
  631SOL    HW1 2792   3.721   0.764   5.709
  631SOL    HW2 2793   3.734   0.604   5.740
  632SOL     OW 2794   4.361   1.941   1.400
  632SOL    HW1 2795   4.297   1.869   1.425
  632SOL    HW2 2796   4.452   1.901   1.386
  633SOL     OW 2797   2.928   3.591   6.763
  633SOL    HW1 2798   2.906   3.596   6.860
  633SOL    HW2 2799   2.970   3.502   6.744
  634SOL     OW 2800   3.486   4.148   2.901
  634SOL    HW1 2801   3.554   4.144   2.828
  634SOL    HW2 2802   3.430   4.065   2.900
  635SOL     OW 2803   4.911   5.941   0.855
  635SOL    HW1 2804   4.979   5.903   0.791
  635SOL    HW2 2805   4.954   5.956   0.944
  636SOL     OW 2806   3.730   6.712   6.797
  636SOL    HW1 2807   3.817   6.737   6.755
  636SOL    HW2 2808   3.707   6.618   6.773
  637SOL     OW 2809   6.944   2.752   3.345
  637SOL    HW1 2810   6.943   2.835   3.289
  637SOL    HW2 2811   6.863   2.698   3.324
  638SOL     OW 2812   5.808   3.278   3.489
  638SOL    HW1 2813   5.725   3.249   3.441
  638SOL    HW2 2814   5.846   3.201   3.540
  639SOL     OW 2815   5.016   3.787   2.582
  639SOL    HW1 2816   4.971   3.737   2.508
  639SOL    HW2 2817   5.111   3.805   2.558
  640SOL     OW 2818   0.106   5.057   4.352
  640SOL    HW1 2819   0.109   5.020   4.259
  640SOL    HW2 2820   0.182   5.019   4.406
  641SOL     OW 2821   0.813   4.478   4.772
  641SOL    HW1 2822   0.841   4.386   4.744
  641SOL    HW2 2823   0.720   4.475   4.808
  642SOL     OW 2824   6.921   3.425   4.228
  642SOL    HW1 2825   6.950   3.370   4.306
  642SOL    HW2 2826   6.979   3.406   4.149
  643SOL     OW 2827   6.100   0.446   6.411
  643SOL    HW1 2828   6.195   0.430   6.383
  643SOL    HW2 2829   6.050   0.359   6.407
  644SOL     OW 2830   1.547   7.015   4.202
  644SOL    HW1 2831   1.625   0.008   4.140
  644SOL    HW2 2832   1.513   6.922   4.192
  645SOL     OW 2833   4.264   0.004   5.126
  645SOL    HW1 2834   4.260   0.083   5.065
  645SOL    HW2 2835   4.302   0.031   5.214
  646SOL     OW 2836   2.827   0.468   4.773
  646SOL    HW1 2837   2.873   0.423   4.849
  646SOL    HW2 2838   2.729   0.470   4.789
  647SOL     OW 2839   4.977   1.543   4.730
  647SOL    HW1 2840   5.063   1.587   4.703
  647SOL    HW2 2841   4.918   1.536   4.650
  648SOL     OW 2842   0.357   4.004   4.125
  648SOL    HW1 2843   0.418   4.072   4.084
  648SOL    HW2 2844   0.321   4.040   4.211
  649SOL     OW 2845   2.265   3.948   1.345
  649SOL    HW1 2846   2.172   3.986   1.344
  649SOL    HW2 2847   2.316   3.989   1.421
  650SOL     OW 2848   6.075   3.970   1.130
  650SOL    HW1 2849   6.098   3.917   1.048
  650SOL    HW2 2850   6.141   4.045   1.141
  651SOL     OW 2851   1.645   6.870   6.015
  651SOL    HW1 2852   1.723   6.911   6.063
  651SOL    HW2 2853   1.644   6.772   6.031
  652SOL     OW 2854   5.316   0.167   3.980
  652SOL    HW1 2855   5.275   0.081   4.011
  652SOL    HW2 2856   5.339   0.159   3.883
  653SOL     OW 2857   1.084   5.749   0.230
  653SOL    HW1 2858   1.181   5.758   0.205
  653SOL    HW2 2859   1.034   5.828   0.198
  654SOL     OW 2860   0.828   5.952   0.449
  654SOL    HW1 2861   0.892   5.977   0.376
  654SOL    HW2 2862   0.826   6.024   0.518
  655SOL     OW 2863   6.844   5.785   1.230
  655SOL    HW1 2864   6.819   5.819   1.321
  655SOL    HW2 2865   6.806   5.845   1.160
  656SOL     OW 2866   2.760   5.669   0.728
  656SOL    HW1 2867   2.778   5.752   0.674
  656SOL    HW2 2868   2.773   5.588   0.671
  657SOL     OW 2869   2.635   3.299   1.011
  657SOL    HW1 2870   2.729   3.316   0.981
  657SOL    HW2 2871   2.622   3.338   1.102
  658SOL     OW 2872   1.760   4.100   6.513
  658SOL    HW1 2873   1.851   4.063   6.534
  658SOL    HW2 2874   1.691   4.030   6.530
  659SOL     OW 2875   2.254   6.178   4.720
  659SOL    HW1 2876   2.343   6.207   4.756
  659SOL    HW2 2877   2.196   6.146   4.794
  660SOL     OW 2878   6.172   3.977   2.610
  660SOL    HW1 2879   6.083   4.018   2.590
  660SOL    HW2 2880   6.242   4.048   2.611
  661SOL     OW 2881   4.984   3.801   3.582
  661SOL    HW1 2882   5.035   3.745   3.648
  661SOL    HW2 2883   5.038   3.812   3.499
  662SOL     OW 2884   3.966   0.281   5.553
  662SOL    HW1 2885   3.909   0.199   5.564
  662SOL    HW2 2886   3.991   0.291   5.456
  663SOL     OW 2887   1.589   3.951   0.081
  663SOL    HW1 2888   1.579   3.990   7.010
  663SOL    HW2 2889   1.528   3.873   0.092
  664SOL     OW 2890   0.839   5.354   6.713
  664SOL    HW1 2891   0.783   5.435   6.702
  664SOL    HW2 2892   0.784   5.280   6.754
  665SOL     OW 2893   4.665   5.077   0.994
  665SOL    HW1 2894   4.573   5.063   0.955
  665SOL    HW2 2895   4.719   4.994   0.982
  666SOL     OW 2896   4.712   2.135   2.301
  666SOL    HW1 2897   4.676   2.092   2.218
  666SOL    HW2 2898   4.739   2.064   2.367
  667SOL     OW 2899   6.593   4.323   3.696
  667SOL    HW1 2900   6.678   4.371   3.719
  667SOL    HW2 2901   6.614   4.247   3.635
  668SOL     OW 2902   5.215   6.038   6.861
  668SOL    HW1 2903   5.212   6.055   6.763
  668SOL    HW2 2904   5.140   5.977   6.887
  669SOL     OW 2905   3.647   6.096   3.024
  669SOL    HW1 2906   3.666   6.143   2.938
  669SOL    HW2 2907   3.733   6.070   3.068
  670SOL     OW 2908   2.758   3.140   1.734
  670SOL    HW1 2909   2.809   3.075   1.677
  670SOL    HW2 2910   2.758   3.230   1.690
  671SOL     OW 2911   2.740   5.591   6.656
  671SOL    HW1 2912   2.830   5.627   6.680
  671SOL    HW2 2913   2.670   5.640   6.707
  672SOL     OW 2914   0.601   4.892   1.858
  672SOL    HW1 2915   0.676   4.847   1.906
  672SOL    HW2 2916   0.586   4.848   1.769
  673SOL     OW 2917   6.496   0.322   1.297
  673SOL    HW1 2918   6.407   0.290   1.263
  673SOL    HW2 2919   6.568   0.291   1.234
  674SOL     OW 2920   6.593   3.891   4.671
  674SOL    HW1 2921   6.665   3.959   4.660
  674SOL    HW2 2922   6.527   3.924   4.738
  675SOL     OW 2923   0.287   1.006   4.981
  675SOL    HW1 2924   0.303   0.936   5.050
  675SOL    HW2 2925   0.208   1.060   5.006
  676SOL     OW 2926   4.227   5.468   2.367
  676SOL    HW1 2927   4.172   5.477   2.284
  676SOL    HW2 2928   4.167   5.474   2.447
  677SOL     OW 2929   6.261   1.789   6.426
  677SOL    HW1 2930   6.234   1.693   6.415
  677SOL    HW2 2931   6.332   1.795   6.496
  678SOL     OW 2932   1.249   1.642   5.234
  678SOL    HW1 2933   1.156   1.626   5.199
  678SOL    HW2 2934   1.253   1.732   5.278
  679SOL     OW 2935   4.854   1.531   4.507
  679SOL    HW1 2936   4.866   1.441   4.466
  679SOL    HW2 2937   4.797   1.588   4.446
  680SOL     OW 2938   5.220   5.577   6.491
  680SOL    HW1 2939   5.301   5.634   6.476
  680SOL    HW2 2940   5.156   5.590   6.415
  681SOL     OW 2941   5.642   6.570   1.562
  681SOL    HW1 2942   5.636   6.509   1.484
  681SOL    HW2 2943   5.588   6.534   1.638
  682SOL     OW 2944   2.064   6.640   0.349
  682SOL    HW1 2945   1.979   6.639   0.296
  682SOL    HW2 2946   2.139   6.610   0.290
  683SOL     OW 2947   3.731   1.992   6.866
  683SOL    HW1 2948   3.812   1.996   6.924
  683SOL    HW2 2949   3.750   1.935   6.786
  684SOL     OW 2950   6.195   1.157   6.625
  684SOL    HW1 2951   6.161   1.077   6.576
  684SOL    HW2 2952   6.270   1.199   6.573
  685SOL     OW 2953   4.733   0.587   4.729
  685SOL    HW1 2954   4.821   0.632   4.741
  685SOL    HW2 2955   4.666   0.629   4.790
  686SOL     OW 2956   6.067   3.286   3.288
  686SOL    HW1 2957   6.080   3.312   3.384
  686SOL    HW2 2958   6.000   3.212   3.283
  687SOL     OW 2959   6.993   3.194   4.691
  687SOL    HW1 2960   0.036   3.221   4.765
  687SOL    HW2 2961   6.957   3.103   4.710
  688SOL     OW 2962   1.542   2.829   6.645
  688SOL    HW1 2963   1.566   2.735   6.667
  688SOL    HW2 2964   1.583   2.855   6.557
  689SOL     OW 2965   0.336   4.347   6.310
  689SOL    HW1 2966   0.334   4.429   6.367
  689SOL    HW2 2967   0.397   4.362   6.232
  690SOL     OW 2968   0.780   4.237   3.739
  690SOL    HW1 2969   0.861   4.182   3.716
  690SOL    HW2 2970   0.788   4.271   3.832
  691SOL     OW 2971   2.192   0.573   6.250
  691SOL    HW1 2972   2.161   0.667   6.268
  691SOL    HW2 2973   2.119   0.509   6.274
  692SOL     OW 2974   3.474   6.285   3.153
  692SOL    HW1 2975   3.428   6.224   3.088
  692SOL    HW2 2976   3.551   6.237   3.195
  693SOL     OW 2977   6.218   1.339   3.145
  693SOL    HW1 2978   6.226   1.361   3.242
  693SOL    HW2 2979   6.197   1.242   3.134
  694SOL     OW 2980   3.603   6.733   2.681
  694SOL    HW1 2981   3.681   6.673   2.694
  694SOL    HW2 2982   3.612   6.783   2.595
  695SOL     OW 2983   4.548   4.844   5.646
  695SOL    HW1 2984   4.489   4.780   5.694
  695SOL    HW2 2985   4.610   4.794   5.586
  696SOL     OW 2986   2.980   5.317   2.132
  696SOL    HW1 2987   2.925   5.258   2.073
  696SOL    HW2 2988   3.076   5.289   2.126
  697SOL     OW 2989   1.967   3.128   4.919
  697SOL    HW1 2990   2.036   3.154   4.986
  697SOL    HW2 2991   1.977   3.184   4.837
  698SOL     OW 2992   5.626   0.193   6.851
  698SOL    HW1 2993   5.631   0.290   6.826
  698SOL    HW2 2994   5.577   0.184   6.938
  699SOL     OW 2995   1.219   4.505   6.692
  699SOL    HW1 2996   1.281   4.505   6.770
  699SOL    HW2 2997   1.126   4.521   6.723
  700SOL     OW 2998   2.971   1.516   3.718
  700SOL    HW1 2999   3.007   1.603   3.684
  700SOL    HW2 3000   2.872   1.523   3.728
  701SOL     OW 3001   6.182   4.031   5.360
  701SOL    HW1 3002   6.272   3.994   5.382
  701SOL    HW2 3003   6.121   3.956   5.335
  702SOL     OW 3004   6.466   6.337   6.351
  702SOL    HW1 3005   6.392   6.379   6.298
  702SOL    HW2 3006   6.435   6.323   6.445
  703SOL     OW 3007   3.741   3.718   6.333
  703SOL    HW1 3008   3.807   3.645   6.317
  703SOL    HW2 3009   3.735   3.737   6.431
  704SOL     OW 3010   1.161   1.252   5.948
  704SOL    HW1 3011   1.106   1.227   5.868
  704SOL    HW2 3012   1.223   1.326   5.923
  705SOL     OW 3013   5.937   6.948   3.471
  705SOL    HW1 3014   5.860   6.954   3.407
  705SOL    HW2 3015   6.022   6.972   3.423
  706SOL     OW 3016   3.629   1.908   4.246
  706SOL    HW1 3017   3.597   1.888   4.339
  706SOL    HW2 3018   3.551   1.917   4.185
  707SOL     OW 3019   4.687   0.479   2.735
  707SOL    HW1 3020   4.618   0.417   2.771
  707SOL    HW2 3021   4.775   0.431   2.729
  708SOL     OW 3022   4.182   0.932   1.263
  708SOL    HW1 3023   4.229   0.904   1.179
  708SOL    HW2 3024   4.134   0.853   1.302
  709SOL     OW 3025   1.185   5.260   0.317
  709SOL    HW1 3026   1.225   5.341   0.360
  709SOL    HW2 3027   1.254   5.188   0.311
  710SOL     OW 3028   4.169   3.412   2.762
  710SOL    HW1 3029   4.155   3.496   2.815
  710SOL    HW2 3030   4.236   3.428   2.690
  711SOL     OW 3031   0.229   2.499   5.933
  711SOL    HW1 3032   0.199   2.570   5.995
  711SOL    HW2 3033   0.324   2.475   5.953
  712SOL     OW 3034   3.439   4.262   1.153
  712SOL    HW1 3035   3.394   4.343   1.192
  712SOL    HW2 3036   3.390   4.180   1.182
  713SOL     OW 3037   3.152   2.904   6.944
  713SOL    HW1 3038   3.233   2.861   6.984
  713SOL    HW2 3039   3.174   2.999   6.920
  714SOL     OW 3040   5.893   4.671   4.605
  714SOL    HW1 3041   5.878   4.729   4.524
  714SOL    HW2 3042   5.870   4.577   4.583
  715SOL     OW 3043   5.477   5.822   0.561
  715SOL    HW1 3044   5.505   5.728   0.582
  715SOL    HW2 3045   5.502   5.882   0.637
  716SOL     OW 3046   1.300   6.853   0.755
  716SOL    HW1 3047   1.261   6.846   0.847
  716SOL    HW2 3048   1.239   6.906   0.697
  717SOL     OW 3049   5.582   5.038   6.163
  717SOL    HW1 3050   5.515   5.112   6.166
  717SOL    HW2 3051   5.670   5.074   6.133
  718SOL     OW 3052   4.588   2.062   6.060
  718SOL    HW1 3053   4.593   1.971   6.101
  718SOL    HW2 3054   4.621   2.130   6.126
  719SOL     OW 3055   6.680   2.154   1.266
  719SOL    HW1 3056   6.645   2.226   1.206
  719SOL    HW2 3057   6.761   2.112   1.223
  720SOL     OW 3058   3.611   0.582   6.692
  720SOL    HW1 3059   3.680   0.529   6.741
  720SOL    HW2 3060   3.525   0.531   6.689
  721SOL     OW 3061   2.356   0.691   4.560
  721SOL    HW1 3062   2.283   0.623   4.563
  721SOL    HW2 3063   2.443   0.646   4.542
  722SOL     OW 3064   2.767   6.868   4.425
  722SOL    HW1 3065   2.806   6.959   4.409
  722SOL    HW2 3066   2.693   6.875   4.492
  723SOL     OW 3067   2.011   3.413   3.220
  723SOL    HW1 3068   2.036   3.396   3.125
  723SOL    HW2 3069   1.926   3.466   3.223
  724SOL     OW 3070   1.057   2.855   4.962
  724SOL    HW1 3071   1.057   2.907   5.048
  724SOL    HW2 3072   1.105   2.768   4.975
  725SOL     OW 3073   3.475   5.870   0.691
  725SOL    HW1 3074   3.554   5.813   0.716
  725SOL    HW2 3075   3.401   5.855   0.756
  726SOL     OW 3076   4.704   4.625   0.539
  726SOL    HW1 3077   4.802   4.608   0.521
  726SOL    HW2 3078   4.649   4.567   0.478
  727SOL     OW 3079   5.530   5.434   5.910
  727SOL    HW1 3080   5.587   5.409   5.989
  727SOL    HW2 3081   5.511   5.532   5.911
  728SOL     OW 3082   6.825   3.732   5.113
  728SOL    HW1 3083   6.767   3.776   5.181
  728SOL    HW2 3084   6.784   3.742   5.022
  729SOL     OW 3085   1.045   1.744   0.353
  729SOL    HW1 3086   1.097   1.662   0.379
  729SOL    HW2 3087   0.949   1.730   0.375
  730SOL     OW 3088   5.677   1.727   2.521
  730SOL    HW1 3089   5.643   1.781   2.443
  730SOL    HW2 3090   5.684   1.631   2.494
  731SOL     OW 3091   5.658   4.142   5.859
  731SOL    HW1 3092   5.655   4.208   5.783
  731SOL    HW2 3093   5.718   4.066   5.834
  732SOL     OW 3094   0.831   3.236   0.936
  732SOL    HW1 3095   0.756   3.302   0.947
  732SOL    HW2 3096   0.916   3.286   0.919
  733SOL     OW 3097   5.504   5.629   5.370
  733SOL    HW1 3098   5.546   5.553   5.420
  733SOL    HW2 3099   5.440   5.677   5.430
  734SOL     OW 3100   6.841   4.205   2.492
  734SOL    HW1 3101   6.751   4.240   2.521
  734SOL    HW2 3102   6.841   4.105   2.497
  735SOL     OW 3103   3.977   2.729   0.396
  735SOL    HW1 3104   3.973   2.706   0.493
  735SOL    HW2 3105   4.072   2.744   0.369
  736SOL     OW 3106   0.684   0.050   2.629
  736SOL    HW1 3107   0.716   0.140   2.657
  736SOL    HW2 3108   0.672   0.047   2.530
  737SOL     OW 3109   4.928   2.392   6.103
  737SOL    HW1 3110   4.846   2.346   6.135
  737SOL    HW2 3111   4.956   2.354   6.015
  738SOL     OW 3112   1.912   3.982   2.225
  738SOL    HW1 3113   1.819   3.947   2.213
  738SOL    HW2 3114   1.972   3.944   2.154
  739SOL     OW 3115   4.130   0.203   4.548
  739SOL    HW1 3116   4.031   0.196   4.546
  739SOL    HW2 3117   4.171   0.115   4.523
  740SOL     OW 3118   4.915   0.500   0.731
  740SOL    HW1 3119   4.874   0.578   0.684
  740SOL    HW2 3120   5.003   0.527   0.771
  741SOL     OW 3121   2.232   6.406   3.399
  741SOL    HW1 3122   2.213   6.310   3.420
  741SOL    HW2 3123   2.192   6.430   3.310
  742SOL     OW 3124   2.091   6.520   1.466
  742SOL    HW1 3125   2.002   6.500   1.506
  742SOL    HW2 3126   2.112   6.453   1.396
  743SOL     OW 3127   0.280   4.426   4.542
  743SOL    HW1 3128   0.367   4.399   4.583
  743SOL    HW2 3129   0.204   4.385   4.593
  744SOL     OW 3130   5.435   0.065   6.695
  744SOL    HW1 3131   5.508   0.046   6.629
  744SOL    HW2 3132   5.473   0.114   6.773
  745SOL     OW 3133   1.142   5.005   4.596
  745SOL    HW1 3134   1.047   4.982   4.619
  745SOL    HW2 3135   1.155   5.104   4.606
  746SOL     OW 3136   0.497   5.117   6.240
  746SOL    HW1 3137   0.497   5.185   6.166
  746SOL    HW2 3138   0.404   5.104   6.273
  747SOL     OW 3139   3.838   6.811   4.900
  747SOL    HW1 3140   3.760   6.752   4.924
  747SOL    HW2 3141   3.909   6.801   4.970
  748SOL     OW 3142   3.751   5.160   2.298
  748SOL    HW1 3143   3.774   5.063   2.286
  748SOL    HW2 3144   3.652   5.169   2.309
  749SOL     OW 3145   6.330   4.671   5.228
  749SOL    HW1 3146   6.268   4.626   5.162
  749SOL    HW2 3147   6.403   4.608   5.253
  750SOL     OW 3148   2.236   2.477   0.868
  750SOL    HW1 3149   2.182   2.425   0.802
  750SOL    HW2 3150   2.252   2.569   0.833
  751SOL     OW 3151   4.276   2.323   6.463
  751SOL    HW1 3152   4.187   2.295   6.426
  751SOL    HW2 3153   4.297   2.266   6.543
  752SOL     OW 3154   3.494   1.523   2.420
  752SOL    HW1 3155   3.590   1.542   2.402
  752SOL    HW2 3156   3.486   1.443   2.479
  753SOL     OW 3157   1.689   3.335   4.568
  753SOL    HW1 3158   1.778   3.317   4.609
  753SOL    HW2 3159   1.701   3.382   4.481
  754SOL     OW 3160   5.779   2.919   5.801
  754SOL    HW1 3161   5.715   2.909   5.725
  754SOL    HW2 3162   5.745   2.869   5.881
  755SOL     OW 3163   1.798   4.692   5.796
  755SOL    HW1 3164   1.871   4.654   5.854
  755SOL    HW2 3165   1.834   4.708   5.704
  756SOL     OW 3166   3.628   0.468   1.378
  756SOL    HW1 3167   3.562   0.396   1.360
  756SOL    HW2 3168   3.712   0.450   1.327
  757SOL     OW 3169   0.887   6.959   3.615
  757SOL    HW1 3170   0.960   6.992   3.676
  757SOL    HW2 3171   0.866   6.864   3.637
  758SOL     OW 3172   3.944   0.470   2.310
  758SOL    HW1 3173   3.899   0.516   2.233
  758SOL    HW2 3174   3.986   0.539   2.370
  759SOL     OW 3175   0.904   1.092   0.978
  759SOL    HW1 3176   0.919   0.994   0.965
  759SOL    HW2 3177   0.855   1.129   0.900
  760SOL     OW 3178   5.328   0.329   5.812
  760SOL    HW1 3179   5.301   0.405   5.754
  760SOL    HW2 3180   5.255   0.261   5.815
  761SOL     OW 3181   5.512   3.135   5.626
  761SOL    HW1 3182   5.538   3.063   5.691
  761SOL    HW2 3183   5.549   3.114   5.536
  762SOL     OW 3184   2.678   0.700   4.975
  762SOL    HW1 3185   2.713   0.793   4.968
  762SOL    HW2 3186   2.694   0.653   4.888
  763SOL     OW 3187   3.965   4.524   6.753
  763SOL    HW1 3188   3.874   4.498   6.723
  763SOL    HW2 3189   4.011   4.575   6.681
  764SOL     OW 3190   4.664   1.193   4.192
  764SOL    HW1 3191   4.584   1.251   4.183
  764SOL    HW2 3192   4.743   1.239   4.152
  765SOL     OW 3193   1.291   6.256   1.322
  765SOL    HW1 3194   1.217   6.229   1.260
  765SOL    HW2 3195   1.376   6.212   1.293
  766SOL     OW 3196   2.140   4.386   6.572
  766SOL    HW1 3197   2.043   4.395   6.549
  766SOL    HW2 3198   2.150   4.349   6.665
  767SOL     OW 3199   6.007   6.132   2.338
  767SOL    HW1 3200   5.931   6.070   2.354
  767SOL    HW2 3201   5.973   6.224   2.323
  768SOL     OW 3202   1.884   6.374   1.613
  768SOL    HW1 3203   1.868   6.351   1.709
  768SOL    HW2 3204   1.875   6.291   1.557
  769SOL     OW 3205   2.967   0.327   4.576
  769SOL    HW1 3206   2.904   0.392   4.620
  769SOL    HW2 3207   3.030   0.378   4.518
  770SOL     OW 3208   2.086   3.476   2.951
  770SOL    HW1 3209   2.168   3.504   2.902
  770SOL    HW2 3210   2.029   3.420   2.891
  771SOL     OW 3211   2.240   5.687   2.395
  771SOL    HW1 3212   2.150   5.688   2.438
  771SOL    HW2 3213   2.311   5.676   2.465
  772SOL     OW 3214   5.267   4.925   0.788
  772SOL    HW1 3215   5.356   4.932   0.744
  772SOL    HW2 3216   5.255   4.834   0.828
  773SOL     OW 3217   0.429   3.843   4.373
  773SOL    HW1 3218   0.393   3.868   4.283
  773SOL    HW2 3219   0.447   3.926   4.426
  774SOL     OW 3220   1.848   1.913   1.403
  774SOL    HW1 3221   1.880   1.936   1.311
  774SOL    HW2 3222   1.754   1.879   1.397
  775SOL     OW 3223   0.648   2.632   2.387
  775SOL    HW1 3224   0.629   2.543   2.427
  775SOL    HW2 3225   0.740   2.632   2.347
  776SOL     OW 3226   0.775   6.726   5.960
  776SOL    HW1 3227   0.804   6.660   5.892
  776SOL    HW2 3228   0.762   6.816   5.917
  777SOL     OW 3229   3.109   5.067   1.303
  777SOL    HW1 3230   3.107   5.164   1.278
  777SOL    HW2 3231   3.191   5.024   1.264
  778SOL     OW 3232   3.063   0.992   3.158
  778SOL    HW1 3233   2.967   1.009   3.135
  778SOL    HW2 3234   3.118   1.070   3.131
  779SOL     OW 3235   0.632   2.530   2.823
  779SOL    HW1 3236   0.637   2.604   2.757
  779SOL    HW2 3237   0.538   2.495   2.826
  780SOL     OW 3238   5.968   3.756   3.445
  780SOL    HW1 3239   5.879   3.790   3.475
  780SOL    HW2 3240   5.999   3.808   3.366
  781SOL     OW 3241   5.558   0.536   6.995
  781SOL    HW1 3242   5.528   0.518   0.069
  781SOL    HW2 3243   5.536   0.631   6.971
  782SOL     OW 3244   1.569   4.074   6.851
  782SOL    HW1 3245   1.642   4.016   6.816
  782SOL    HW2 3246   1.495   4.080   6.783
  783SOL     OW 3247   3.828   4.970   1.079
  783SOL    HW1 3248   3.739   5.014   1.069
  783SOL    HW2 3249   3.868   4.953   0.989
  784SOL     OW 3250   5.381   6.373   0.282
  784SOL    HW1 3251   5.459   6.392   0.341
  784SOL    HW2 3252   5.390   6.425   0.197
  785SOL     OW 3253   0.427   2.795   2.614
  785SOL    HW1 3254   0.374   2.819   2.695
  785SOL    HW2 3255   0.519   2.768   2.641
  786SOL     OW 3256   1.093   0.850   1.222
  786SOL    HW1 3257   1.109   0.758   1.256
  786SOL    HW2 3258   1.174   0.907   1.238
  787SOL     OW 3259   3.423   0.384   6.423
  787SOL    HW1 3260   3.514   0.346   6.441
  787SOL    HW2 3261   3.355   0.310   6.429
  788SOL     OW 3262   3.435   3.021   5.290
  788SOL    HW1 3263   3.489   2.974   5.220
  788SOL    HW2 3264   3.482   3.014   5.378
  789SOL     OW 3265   5.819   4.176   0.798
  789SOL    HW1 3266   5.742   4.237   0.777
  789SOL    HW2 3267   5.892   4.230   0.839
  790SOL     OW 3268   1.862   1.256   4.291
  790SOL    HW1 3269   1.929   1.295   4.228
  790SOL    HW2 3270   1.904   1.181   4.342
  791SOL     OW 3271   3.610   5.172   3.742
  791SOL    HW1 3272   3.644   5.078   3.744
  791SOL    HW2 3273   3.519   5.173   3.702
  792SOL     OW 3274   0.667   0.396   1.655
  792SOL    HW1 3275   0.696   0.302   1.637
  792SOL    HW2 3276   0.568   0.399   1.668
  793SOL     OW 3277   5.030   5.616   4.148
  793SOL    HW1 3278   5.101   5.653   4.088
  793SOL    HW2 3279   4.976   5.690   4.187
  794SOL     OW 3280   3.252   3.643   5.255
  794SOL    HW1 3281   3.165   3.595   5.247
  794SOL    HW2 3282   3.313   3.614   5.182
  795SOL     OW 3283   3.523   6.280   4.528
  795SOL    HW1 3284   3.481   6.337   4.599
  795SOL    HW2 3285   3.463   6.203   4.506
  796SOL     OW 3286   1.319   1.850   6.086
  796SOL    HW1 3287   1.367   1.902   6.016
  796SOL    HW2 3288   1.341   1.887   6.177
  797SOL     OW 3289   5.023   2.665   1.683
  797SOL    HW1 3290   4.973   2.694   1.764
  797SOL    HW2 3291   5.118   2.696   1.690
  798SOL     OW 3292   4.448   0.293   2.142
  798SOL    HW1 3293   4.386   0.216   2.148
  798SOL    HW2 3294   4.516   0.288   2.216
  799SOL     OW 3295   6.207   0.958   5.591
  799SOL    HW1 3296   6.227   0.908   5.675
  799SOL    HW2 3297   6.186   0.893   5.518
  800SOL     OW 3298   5.148   2.060   2.767
  800SOL    HW1 3299   5.217   1.999   2.806
  800SOL    HW2 3300   5.187   2.110   2.691
  801SOL     OW 3301   1.683   3.462   4.299
  801SOL    HW1 3302   1.729   3.425   4.219
  801SOL    HW2 3303   1.665   3.560   4.284
  802SOL     OW 3304   4.502   0.885   0.330
  802SOL    HW1 3305   4.601   0.894   0.316
  802SOL    HW2 3306   4.454   0.953   0.275
  803SOL     OW 3307   6.773   6.666   5.392
  803SOL    HW1 3308   6.844   6.596   5.399
  803SOL    HW2 3309   6.799   6.732   5.322
  804SOL     OW 3310   5.568   5.585   6.689
  804SOL    HW1 3311   5.472   5.565   6.709
  804SOL    HW2 3312   5.573   5.654   6.618
  805SOL     OW 3313   3.243   1.297   5.594
  805SOL    HW1 3314   3.155   1.250   5.589
  805SOL    HW2 3315   3.231   1.392   5.565
  806SOL     OW 3316   5.430   1.062   3.772
  806SOL    HW1 3317   5.517   1.011   3.772
  806SOL    HW2 3318   5.386   1.053   3.861
  807SOL     OW 3319   0.481   2.300   5.046
  807SOL    HW1 3320   0.398   2.333   5.001
  807SOL    HW2 3321   0.561   2.339   5.000
  808SOL     OW 3322   4.609   3.313   5.971
  808SOL    HW1 3323   4.662   3.266   6.041
  808SOL    HW2 3324   4.661   3.389   5.934
  809SOL     OW 3325   0.054   5.559   2.054
  809SOL    HW1 3326   0.131   5.598   2.103
  809SOL    HW2 3327   0.064   5.459   2.049
  810SOL     OW 3328   3.195   3.055   1.100
  810SOL    HW1 3329   3.136   2.974   1.104
  810SOL    HW2 3330   3.239   3.068   1.189
  811SOL     OW 3331   4.278   5.560   5.071
  811SOL    HW1 3332   4.375   5.567   5.093
  811SOL    HW2 3333   4.249   5.641   5.021
  812SOL     OW 3334   0.767   1.733   1.406
  812SOL    HW1 3335   0.838   1.674   1.446
  812SOL    HW2 3336   0.716   1.682   1.337
  813SOL     OW 3337   3.187   5.920   5.382
  813SOL    HW1 3338   3.195   5.825   5.354
  813SOL    HW2 3339   3.246   5.977   5.325
  814SOL     OW 3340   5.754   6.461   2.699
  814SOL    HW1 3341   5.720   6.440   2.791
  814SOL    HW2 3342   5.689   6.429   2.631
  815SOL     OW 3343   0.324   4.289   3.177
  815SOL    HW1 3344   0.283   4.359   3.237
  815SOL    HW2 3345   0.280   4.293   3.087
  816SOL     OW 3346   6.276   6.668   0.272
  816SOL    HW1 3347   6.246   6.607   0.198
  816SOL    HW2 3348   6.371   6.693   0.257
  817SOL     OW 3349   2.140   3.527   1.560
  817SOL    HW1 3350   2.075   3.490   1.493
  817SOL    HW2 3351   2.094   3.536   1.648
  818SOL     OW 3352   6.154   2.562   1.583
  818SOL    HW1 3353   6.064   2.602   1.565
  818SOL    HW2 3354   6.145   2.463   1.592
  819SOL     OW 3355   5.703   2.918   2.841
  819SOL    HW1 3356   5.720   3.014   2.863
  819SOL    HW2 3357   5.693   2.866   2.926
  820SOL     OW 3358   3.036   3.091   5.666
  820SOL    HW1 3359   2.976   3.012   5.675
  820SOL    HW2 3360   2.989   3.163   5.615
  821SOL     OW 3361   1.491   4.107   0.538
  821SOL    HW1 3362   1.572   4.161   0.515
  821SOL    HW2 3363   1.487   4.094   0.637
  822SOL     OW 3364   1.943   4.197   4.755
  822SOL    HW1 3365   2.033   4.161   4.781
  822SOL    HW2 3366   1.921   4.276   4.812
  823SOL     OW 3367   5.090   4.006   6.661
  823SOL    HW1 3368   5.144   4.069   6.605
  823SOL    HW2 3369   5.077   4.045   6.752
  824SOL     OW 3370   5.593   1.069   5.049
  824SOL    HW1 3371   5.661   1.141   5.063
  824SOL    HW2 3372   5.501   1.106   5.066
  825SOL     OW 3373   1.423   4.175   1.358
  825SOL    HW1 3374   1.450   4.174   1.262
  825SOL    HW2 3375   1.323   4.174   1.364
  826SOL     OW 3376   5.205   3.081   5.620
  826SOL    HW1 3377   5.239   3.016   5.551
  826SOL    HW2 3378   5.277   3.146   5.642
  827SOL     OW 3379   3.476   4.017   5.816
  827SOL    HW1 3380   3.531   4.100   5.823
  827SOL    HW2 3381   3.431   3.999   5.904
  828SOL     OW 3382   5.327   6.238   6.206
  828SOL    HW1 3383   5.293   6.300   6.135
  828SOL    HW2 3384   5.403   6.183   6.169
  829SOL     OW 3385   3.045   3.163   3.472
  829SOL    HW1 3386   3.102   3.172   3.390
  829SOL    HW2 3387   3.095   3.110   3.541
  830SOL     OW 3388   4.615   4.506   6.801
  830SOL    HW1 3389   4.662   4.574   6.744
  830SOL    HW2 3390   4.620   4.416   6.757
  831SOL     OW 3391   5.464   1.098   6.529
  831SOL    HW1 3392   5.390   1.080   6.594
  831SOL    HW2 3393   5.430   1.088   6.436
  832SOL     OW 3394   2.987   0.495   1.876
  832SOL    HW1 3395   3.012   0.591   1.862
  832SOL    HW2 3396   3.000   0.471   1.972
  833SOL     OW 3397   0.363   3.839   6.022
  833SOL    HW1 3398   0.363   3.783   6.105
  833SOL    HW2 3399   0.435   3.909   6.029
  834SOL     OW 3400   3.089   3.862   1.025
  834SOL    HW1 3401   3.041   3.777   1.004
  834SOL    HW2 3402   3.094   3.920   0.944
  835SOL     OW 3403   3.373   0.486   4.614
  835SOL    HW1 3404   3.350   0.450   4.704
  835SOL    HW2 3405   3.375   0.411   4.548
  836SOL     OW 3406   3.962   6.473   6.811
  836SOL    HW1 3407   4.003   6.563   6.826
  836SOL    HW2 3408   3.873   6.470   6.857
  837SOL     OW 3409   5.749   6.564   0.422
  837SOL    HW1 3410   5.771   6.549   0.325
  837SOL    HW2 3411   5.674   6.504   0.449
  838SOL     OW 3412   1.843   0.404   4.577
  838SOL    HW1 3413   1.895   0.357   4.649
  838SOL    HW2 3414   1.779   0.340   4.535
  839SOL     OW 3415   2.658   2.242   2.203
  839SOL    HW1 3416   2.629   2.291   2.122
  839SOL    HW2 3417   2.758   2.238   2.205
  840SOL     OW 3418   6.025   7.007   6.714
  840SOL    HW1 3419   5.974   7.002   6.800
  840SOL    HW2 3420   5.983   0.054   6.654
  841SOL     OW 3421   4.580   4.779   0.122
  841SOL    HW1 3422   4.520   4.789   0.201
  841SOL    HW2 3423   4.533   4.811   0.040
  842SOL     OW 3424   4.004   6.243   4.989
  842SOL    HW1 3425   4.073   6.257   4.918
  842SOL    HW2 3426   3.913   6.236   4.947
  843SOL     OW 3427   1.978   1.823   0.363
  843SOL    HW1 3428   2.070   1.809   0.399
  843SOL    HW2 3429   1.984   1.867   0.273
  844SOL     OW 3430   6.009   0.601   1.102
  844SOL    HW1 3431   6.037   0.673   1.165
  844SOL    HW2 3432   6.061   0.517   1.122
  845SOL     OW 3433   5.690   4.459   5.383
  845SOL    HW1 3434   5.662   4.441   5.289
  845SOL    HW2 3435   5.703   4.372   5.431
  846SOL     OW 3436   2.357   1.782   0.217
  846SOL    HW1 3437   2.418   1.750   0.144
  846SOL    HW2 3438   2.272   1.730   0.216
  847SOL     OW 3439   1.318   3.516   1.012
  847SOL    HW1 3440   1.296   3.511   0.915
  847SOL    HW2 3441   1.244   3.562   1.061
  848SOL     OW 3442   5.824   0.554   6.247
  848SOL    HW1 3443   5.783   0.612   6.317
  848SOL    HW2 3444   5.839   0.608   6.164
  849SOL     OW 3445   0.462   4.921   5.821
  849SOL    HW1 3446   0.518   5.000   5.797
  849SOL    HW2 3447   0.379   4.951   5.868
  850SOL     OW 3448   5.628   1.269   3.975
  850SOL    HW1 3449   5.665   1.195   4.031
  850SOL    HW2 3450   5.617   1.236   3.881
  851SOL     OW 3451   0.743   1.457   2.122
  851SOL    HW1 3452   0.763   1.371   2.075
  851SOL    HW2 3453   0.753   1.533   2.058
  852SOL     OW 3454   1.309   2.429   0.184
  852SOL    HW1 3455   1.323   2.352   0.121
  852SOL    HW2 3456   1.305   2.514   0.132
  853SOL     OW 3457   1.962   4.246   2.170
  853SOL    HW1 3458   1.944   4.151   2.196
  853SOL    HW2 3459   1.889   4.304   2.206
  854SOL     OW 3460   4.441   6.294   1.955
  854SOL    HW1 3461   4.473   6.203   1.928
  854SOL    HW2 3462   4.368   6.324   1.894
  855SOL     OW 3463   0.391   0.393   1.703
  855SOL    HW1 3464   0.398   0.343   1.789
  855SOL    HW2 3465   0.316   0.459   1.709
  856SOL     OW 3466   1.425   1.816   4.769
  856SOL    HW1 3467   1.450   1.727   4.731
  856SOL    HW2 3468   1.350   1.805   4.834
  857SOL     OW 3469   6.233   4.331   2.317
  857SOL    HW1 3470   6.331   4.325   2.300
  857SOL    HW2 3471   6.198   4.419   2.286
  858SOL     OW 3472   2.752   3.836   1.215
  858SOL    HW1 3473   2.761   3.930   1.248
  858SOL    HW2 3474   2.733   3.776   1.293
  859SOL     OW 3475   4.886   5.883   6.373
  859SOL    HW1 3476   4.946   5.855   6.448
  859SOL    HW2 3477   4.893   5.817   6.298
  860SOL     OW 3478   4.529   3.763   0.669
  860SOL    HW1 3479   4.514   3.826   0.593
  860SOL    HW2 3480   4.440   3.738   0.708
  861SOL     OW 3481   2.869   0.212   4.120
  861SOL    HW1 3482   2.934   0.274   4.075
  861SOL    HW2 3483   2.824   0.155   4.051
  862SOL     OW 3484   0.623   4.164   6.070
  862SOL    HW1 3485   0.569   4.246   6.090
  862SOL    HW2 3486   0.667   4.174   5.981
  863SOL     OW 3487   0.439   6.999   0.135
  863SOL    HW1 3488   0.400   0.008   0.222
  863SOL    HW2 3489   0.419   0.046   0.064
  864SOL     OW 3490   4.114   5.042   3.784
  864SOL    HW1 3491   4.211   5.055   3.761
  864SOL    HW2 3492   4.107   4.977   3.861
  865SOL     OW 3493   1.775   6.355   6.141
  865SOL    HW1 3494   1.738   6.281   6.084
  865SOL    HW2 3495   1.821   6.315   6.221
  866SOL     OW 3496   1.782   2.132   1.811
  866SOL    HW1 3497   1.719   2.082   1.753
  866SOL    HW2 3498   1.853   2.176   1.755
  867SOL     OW 3499   3.866   3.034   0.531
  867SOL    HW1 3500   3.823   2.960   0.479
  867SOL    HW2 3501   3.880   3.005   0.625
  868SOL     OW 3502   5.948   0.242   0.911
  868SOL    HW1 3503   5.890   0.211   0.986
  868SOL    HW2 3504   6.043   0.221   0.931
  869SOL     OW 3505   6.568   5.639   3.057
  869SOL    HW1 3506   6.497   5.591   3.006
  869SOL    HW2 3507   6.625   5.692   2.994
  870SOL     OW 3508   5.087   3.478   0.701
  870SOL    HW1 3509   5.024   3.404   0.726
  870SOL    HW2 3510   5.078   3.552   0.767
  871SOL     OW 3511   5.175   3.789   2.935
  871SOL    HW1 3512   5.247   3.796   3.003
  871SOL    HW2 3513   5.088   3.768   2.980
  872SOL     OW 3514   5.992   4.390   3.947
  872SOL    HW1 3515   6.013   4.478   3.990
  872SOL    HW2 3516   5.910   4.399   3.891
  873SOL     OW 3517   5.800   6.763   4.164
  873SOL    HW1 3518   5.844   6.789   4.250
  873SOL    HW2 3519   5.702   6.748   4.179
  874SOL     OW 3520   0.954   4.819   5.621
  874SOL    HW1 3521   0.925   4.791   5.529
  874SOL    HW2 3522   0.915   4.756   5.688
  875SOL     OW 3523   3.697   2.818   0.449
  875SOL    HW1 3524   3.611   2.847   0.407
  875SOL    HW2 3525   3.747   2.760   0.385
  876SOL     OW 3526   0.705   5.831   3.217
  876SOL    HW1 3527   0.746   5.795   3.133
  876SOL    HW2 3528   0.717   5.764   3.290
  877SOL     OW 3529   3.874   3.631   0.196
  877SOL    HW1 3530   3.959   3.641   0.248
  877SOL    HW2 3531   3.824   3.717   0.198
  878SOL     OW 3532   4.302   6.012   5.553
  878SOL    HW1 3533   4.341   6.078   5.618
  878SOL    HW2 3534   4.348   5.924   5.564
  879SOL     OW 3535   3.067   2.129   1.880
  879SOL    HW1 3536   2.990   2.068   1.860
  879SOL    HW2 3537   3.034   2.211   1.927
  880SOL     OW 3538   3.227   3.851   5.707
  880SOL    HW1 3539   3.319   3.856   5.671
  880SOL    HW2 3540   3.161   3.854   5.632
  881SOL     OW 3541   4.445   4.575   5.419
  881SOL    HW1 3542   4.535   4.534   5.433
  881SOL    HW2 3543   4.405   4.598   5.508
  882SOL     OW 3544   1.259   1.679   4.228
  882SOL    HW1 3545   1.216   1.599   4.269
  882SOL    HW2 3546   1.192   1.728   4.172
  883SOL     OW 3547   4.472   5.428   6.145
  883SOL    HW1 3548   4.488   5.373   6.227
  883SOL    HW2 3549   4.473   5.525   6.169
  884SOL     OW 3550   0.075   3.687   0.441
  884SOL    HW1 3551   0.102   3.636   0.359
  884SOL    HW2 3552   0.028   3.625   0.504
  885SOL     OW 3553   5.167   6.453   6.732
  885SOL    HW1 3554   5.249   6.440   6.788
  885SOL    HW2 3555   5.144   6.368   6.686
  886SOL     OW 3556   3.247   0.030   0.599
  886SOL    HW1 3557   3.275   0.115   0.644
  886SOL    HW2 3558   3.155   0.005   0.629
  887SOL     OW 3559   4.189   0.079   4.217
  887SOL    HW1 3560   4.245   0.115   4.143
  887SOL    HW2 3561   4.217   0.121   4.304
  888SOL     OW 3562   5.930   6.271   3.142
  888SOL    HW1 3563   5.871   6.202   3.101
  888SOL    HW2 3564   5.942   6.251   3.239
  889SOL     OW 3565   1.396   6.395   5.508
  889SOL    HW1 3566   1.309   6.352   5.485
  889SOL    HW2 3567   1.433   6.440   5.428
  890SOL     OW 3568   2.083   4.793   2.092
  890SOL    HW1 3569   2.061   4.726   2.164
  890SOL    HW2 3570   2.065   4.885   2.126
  891SOL     OW 3571   6.711   4.205   1.600
  891SOL    HW1 3572   6.682   4.114   1.571
  891SOL    HW2 3573   6.630   4.260   1.623
  892SOL     OW 3574   4.153   3.577   6.940
  892SOL    HW1 3575   4.156   3.488   6.985
  892SOL    HW2 3576   4.150   3.565   6.841
  893SOL     OW 3577   2.228   1.022   2.395
  893SOL    HW1 3578   2.263   0.932   2.367
  893SOL    HW2 3579   2.302   1.074   2.438
  894SOL     OW 3580   1.031   2.847   4.072
  894SOL    HW1 3581   1.075   2.849   3.982
  894SOL    HW2 3582   1.101   2.858   4.143
  895SOL     OW 3583   1.206   5.255   4.703
  895SOL    HW1 3584   1.133   5.310   4.663
  895SOL    HW2 3585   1.263   5.312   4.762
  896SOL     OW 3586   5.136   0.029   2.205
  896SOL    HW1 3587   5.118   0.017   2.108
  896SOL    HW2 3588   5.076   6.990   2.258
  897SOL     OW 3589   5.604   0.861   0.278
  897SOL    HW1 3590   5.617   0.764   0.298
  897SOL    HW2 3591   5.600   0.874   0.179
  898SOL     OW 3592   4.344   5.565   2.771
  898SOL    HW1 3593   4.376   5.593   2.862
  898SOL    HW2 3594   4.271   5.497   2.781
  899SOL     OW 3595   6.837   4.883   0.143
  899SOL    HW1 3596   6.810   4.886   0.046
  899SOL    HW2 3597   6.934   4.905   0.150
  900SOL     OW 3598   5.101   6.261   1.675
  900SOL    HW1 3599   5.012   6.301   1.656
  900SOL    HW2 3600   5.172   6.312   1.626
  901SOL     OW 3601   0.979   1.208   5.416
  901SOL    HW1 3602   1.026   1.280   5.467
  901SOL    HW2 3603   0.883   1.204   5.445
  902SOL     OW 3604   0.432   2.369   6.231
  902SOL    HW1 3605   0.336   2.388   6.250
  902SOL    HW2 3606   0.488   2.443   6.268
  903SOL     OW 3607   6.708   3.904   6.316
  903SOL    HW1 3608   6.709   3.806   6.299
  903SOL    HW2 3609   6.685   3.922   6.411
  904SOL     OW 3610   1.282   2.584   3.791
  904SOL    HW1 3611   1.199   2.638   3.804
  904SOL    HW2 3612   1.294   2.564   3.694
  905SOL     OW 3613   4.127   3.232   6.147
  905SOL    HW1 3614   4.119   3.238   6.047
  905SOL    HW2 3615   4.175   3.148   6.172
  906SOL     OW 3616   0.786   3.766   5.672
  906SOL    HW1 3617   0.735   3.769   5.758
  906SOL    HW2 3618   0.823   3.857   5.652
  907SOL     OW 3619   5.648   3.292   3.275
  907SOL    HW1 3620   5.745   3.310   3.290
  907SOL    HW2 3621   5.638   3.222   3.205
  908SOL     OW 3622   1.871   6.368   3.522
  908SOL    HW1 3623   1.898   6.379   3.617
  908SOL    HW2 3624   1.780   6.405   3.508
  909SOL     OW 3625   2.299   6.552   1.642
  909SOL    HW1 3626   2.213   6.554   1.591
  909SOL    HW2 3627   2.363   6.618   1.602
  910SOL     OW 3628   2.439   0.405   0.706
  910SOL    HW1 3629   2.400   0.316   0.731
  910SOL    HW2 3630   2.395   0.477   0.759
  911SOL     OW 3631   0.050   5.666   1.051
  911SOL    HW1 3632   6.986   5.715   1.073
  911SOL    HW2 3633   0.059   5.586   1.110
  912SOL     OW 3634   6.549   1.038   4.637
  912SOL    HW1 3635   6.496   1.072   4.559
  912SOL    HW2 3636   6.490   0.986   4.698
  913SOL     OW 3637   2.390   0.321   3.117
  913SOL    HW1 3638   2.423   0.278   3.033
  913SOL    HW2 3639   2.436   0.410   3.128
  914SOL     OW 3640   2.652   5.845   5.071
  914SOL    HW1 3641   2.700   5.884   4.992
  914SOL    HW2 3642   2.624   5.751   5.050
  915SOL     OW 3643   1.511   3.270   0.247
  915SOL    HW1 3644   1.537   3.312   0.334
  915SOL    HW2 3645   1.502   3.341   0.177
  916SOL     OW 3646   1.629   2.819   1.821
  916SOL    HW1 3647   1.542   2.780   1.849
  916SOL    HW2 3648   1.640   2.810   1.722
  917SOL     OW 3649   5.182   0.621   1.488
  917SOL    HW1 3650   5.161   0.645   1.393
  917SOL    HW2 3651   5.228   0.532   1.490
  918SOL     OW 3652   2.597   6.200   6.624
  918SOL    HW1 3653   2.693   6.207   6.651
  918SOL    HW2 3654   2.580   6.111   6.584
  919SOL     OW 3655   6.481   5.686   2.218
  919SOL    HW1 3656   6.513   5.778   2.194
  919SOL    HW2 3657   6.458   5.636   2.135
  920SOL     OW 3658   1.512   6.466   3.237
  920SOL    HW1 3659   1.481   6.433   3.326
  920SOL    HW2 3660   1.565   6.550   3.250
  921SOL     OW 3661   4.451   4.570   3.878
  921SOL    HW1 3662   4.403   4.636   3.936
  921SOL    HW2 3663   4.445   4.600   3.783
  922SOL     OW 3664   3.275   2.681   6.199
  922SOL    HW1 3665   3.351   2.746   6.209
  922SOL    HW2 3666   3.189   2.729   6.212
  923SOL     OW 3667   2.876   4.493   6.407
  923SOL    HW1 3668   2.962   4.490   6.458
  923SOL    HW2 3669   2.894   4.522   6.313
  924SOL     OW 3670   6.270   2.804   1.852
  924SOL    HW1 3671   6.186   2.825   1.802
  924SOL    HW2 3672   6.270   2.708   1.880
  925SOL     OW 3673   6.961   1.738   5.726
  925SOL    HW1 3674   6.941   1.685   5.643
  925SOL    HW2 3675   7.008   1.679   5.792
  926SOL     OW 3676   6.447   1.108   7.017
  926SOL    HW1 3677   6.398   1.176   6.961
  926SOL    HW2 3678   6.477   1.033   6.958
  927SOL     OW 3679   5.097   4.418   3.802
  927SOL    HW1 3680   5.172   4.430   3.737
  927SOL    HW2 3681   5.081   4.504   3.850
  928SOL     OW 3682   1.987   0.540   0.400
  928SOL    HW1 3683   2.040   0.456   0.389
  928SOL    HW2 3684   2.046   0.612   0.435
  929SOL     OW 3685   0.425   1.396   0.599
  929SOL    HW1 3686   0.362   1.466   0.633
  929SOL    HW2 3687   0.429   1.399   0.499
  930SOL     OW 3688   5.588   5.943   4.938
  930SOL    HW1 3689   5.666   5.981   4.889
  930SOL    HW2 3690   5.621   5.884   5.012
  931SOL     OW 3691   5.913   3.784   2.931
  931SOL    HW1 3692   5.888   3.864   2.876
  931SOL    HW2 3693   5.958   3.815   3.015
  932SOL     OW 3694   2.510   6.694   2.185
  932SOL    HW1 3695   2.605   6.703   2.156
  932SOL    HW2 3696   2.506   6.642   2.271
  933SOL     OW 3697   0.324   6.009   2.647
  933SOL    HW1 3698   0.358   6.042   2.735
  933SOL    HW2 3699   0.225   6.022   2.643
  934SOL     OW 3700   1.677   0.872   4.748
  934SOL    HW1 3701   1.710   0.934   4.677
  934SOL    HW2 3702   1.589   0.904   4.782
  935SOL     OW 3703   5.014   3.429   5.295
  935SOL    HW1 3704   5.028   3.497   5.367
  935SOL    HW2 3705   4.966   3.471   5.218
  936SOL     OW 3706   1.570   0.972   6.327
  936SOL    HW1 3707   1.599   1.052   6.274
  936SOL    HW2 3708   1.470   0.968   6.330
  937SOL     OW 3709   4.644   1.830   4.769
  937SOL    HW1 3710   4.602   1.908   4.814
  937SOL    HW2 3711   4.724   1.860   4.718
  938SOL     OW 3712   0.417   5.343   6.612
  938SOL    HW1 3713   0.482   5.391   6.554
  938SOL    HW2 3714   0.337   5.318   6.559
  939SOL     OW 3715   4.650   1.573   4.843
  939SOL    HW1 3716   4.653   1.671   4.824
  939SOL    HW2 3717   4.742   1.541   4.869
  940SOL     OW 3718   0.534   3.206   2.611
  940SOL    HW1 3719   0.559   3.231   2.704
  940SOL    HW2 3720   0.462   3.267   2.578
  941SOL     OW 3721   6.733   0.523   4.143
  941SOL    HW1 3722   6.658   0.460   4.122
  941SOL    HW2 3723   6.736   0.596   4.074
  942SOL     OW 3724   4.940   0.829   4.115
  942SOL    HW1 3725   4.948   0.741   4.067
  942SOL    HW2 3726   4.927   0.902   4.048
  943SOL     OW 3727   1.085   3.189   4.081
  943SOL    HW1 3728   1.104   3.267   4.020
  943SOL    HW2 3729   0.986   3.174   4.087
  944SOL     OW 3730   6.387   3.692   6.122
  944SOL    HW1 3731   6.482   3.677   6.146
  944SOL    HW2 3732   6.338   3.605   6.120
  945SOL     OW 3733   6.568   4.123   5.909
  945SOL    HW1 3734   6.620   4.208   5.917
  945SOL    HW2 3735   6.599   4.072   5.829
  946SOL     OW 3736   4.777   2.616   5.979
  946SOL    HW1 3737   4.845   2.560   6.027
  946SOL    HW2 3738   4.805   2.712   5.982
  947SOL     OW 3739   3.415   2.934   4.365
  947SOL    HW1 3740   3.350   2.990   4.416
  947SOL    HW2 3741   3.484   2.898   4.427
  948SOL     OW 3742   4.300   0.453   0.550
  948SOL    HW1 3743   4.338   0.507   0.474
  948SOL    HW2 3744   4.204   0.477   0.563
  949SOL     OW 3745   0.049   6.132   6.304
  949SOL    HW1 3746   0.053   6.194   6.227
  949SOL    HW2 3747   0.122   6.064   6.297
  950SOL     OW 3748   3.989   5.058   1.662
  950SOL    HW1 3749   3.976   4.971   1.614
  950SOL    HW2 3750   4.059   5.112   1.614
  951SOL     OW 3751   1.483   0.899   2.437
  951SOL    HW1 3752   1.453   0.995   2.439
  951SOL    HW2 3753   1.478   0.861   2.529
  952SOL     OW 3754   5.594   1.809   2.263
  952SOL    HW1 3755   5.608   1.718   2.223
  952SOL    HW2 3756   5.511   1.850   2.225
  953SOL     OW 3757   5.136   6.417   4.989
  953SOL    HW1 3758   5.100   6.424   5.082
  953SOL    HW2 3759   5.227   6.375   4.991
  954SOL     OW 3760   5.047   5.709   0.441
  954SOL    HW1 3761   5.108   5.659   0.380
  954SOL    HW2 3762   5.046   5.805   0.415
  955SOL     OW 3763   6.971   4.827   3.515
  955SOL    HW1 3764   6.904   4.901   3.526
  955SOL    HW2 3765   0.023   4.837   3.584
  956SOL     OW 3766   0.577   2.068   2.409
  956SOL    HW1 3767   0.542   2.096   2.499
  956SOL    HW2 3768   0.517   1.999   2.370
  957SOL     OW 3769   0.881   4.994   4.664
  957SOL    HW1 3770   0.905   4.981   4.760
  957SOL    HW2 3771   0.790   4.955   4.647
  958SOL     OW 3772   4.712   2.400   2.214
  958SOL    HW1 3773   4.672   2.376   2.126
  958SOL    HW2 3774   4.728   2.317   2.267
  959SOL     OW 3775   2.768   4.711   3.166
  959SOL    HW1 3776   2.842   4.763   3.209
  959SOL    HW2 3777   2.680   4.748   3.197
  960SOL     OW 3778   6.869   5.796   3.747
  960SOL    HW1 3779   6.882   5.702   3.778
  960SOL    HW2 3780   6.870   5.799   3.647
  961SOL     OW 3781   4.913   0.205   3.197
  961SOL    HW1 3782   4.860   0.290   3.206
  961SOL    HW2 3783   4.870   0.133   3.252
  962SOL     OW 3784   1.436   1.202   4.104
  962SOL    HW1 3785   1.340   1.196   4.128
  962SOL    HW2 3786   1.476   1.283   4.146
  963SOL     OW 3787   6.299   1.557   6.134
  963SOL    HW1 3788   6.231   1.603   6.076
  963SOL    HW2 3789   6.368   1.623   6.161
  964SOL     OW 3790   6.228   3.963   0.880
  964SOL    HW1 3791   6.215   3.878   0.829
  964SOL    HW2 3792   6.202   4.041   0.823
  965SOL     OW 3793   5.381   1.845   1.046
  965SOL    HW1 3794   5.319   1.775   1.079
  965SOL    HW2 3795   5.388   1.918   1.114
  966SOL     OW 3796   5.979   2.143   2.404
  966SOL    HW1 3797   5.939   2.051   2.397
  966SOL    HW2 3798   5.908   2.212   2.394
  967SOL     OW 3799   2.648   5.084   1.492
  967SOL    HW1 3800   2.613   5.129   1.409
  967SOL    HW2 3801   2.592   5.111   1.570
  968SOL     OW 3802   4.172   2.316   2.681
  968SOL    HW1 3803   4.088   2.263   2.680
  968SOL    HW2 3804   4.217   2.309   2.592
  969SOL     OW 3805   3.770   6.202   6.667
  969SOL    HW1 3806   3.796   6.234   6.758
  969SOL    HW2 3807   3.841   6.140   6.632
  970SOL     OW 3808   4.716   1.284   4.703
  970SOL    HW1 3809   4.629   1.241   4.726
  970SOL    HW2 3810   4.749   1.337   4.782
  971SOL     OW 3811   0.117   2.074   2.863
  971SOL    HW1 3812   0.027   2.060   2.821
  971SOL    HW2 3813   0.189   2.058   2.795
  972SOL     OW 3814   5.501   4.287   1.533
  972SOL    HW1 3815   5.539   4.206   1.488
  972SOL    HW2 3816   5.459   4.346   1.465
  973SOL     OW 3817   6.869   4.337   0.142
  973SOL    HW1 3818   6.910   4.335   0.051
  973SOL    HW2 3819   6.919   4.275   0.203
  974SOL     OW 3820   5.160   0.311   2.264
  974SOL    HW1 3821   5.152   0.332   2.361
  974SOL    HW2 3822   5.173   0.212   2.252
  975SOL     OW 3823   1.881   5.963   6.197
  975SOL    HW1 3824   1.957   6.027   6.186
  975SOL    HW2 3825   1.818   5.974   6.120
  976SOL     OW 3826   6.600   3.144   2.330
  976SOL    HW1 3827   6.514   3.120   2.374
  976SOL    HW2 3828   6.674   3.143   2.397
  977SOL     OW 3829   1.925   0.570   3.813
  977SOL    HW1 3830   1.908   0.636   3.740
  977SOL    HW2 3831   2.001   0.511   3.787
  978SOL     OW 3832   4.293   4.381   5.646
  978SOL    HW1 3833   4.365   4.317   5.672
  978SOL    HW2 3834   4.226   4.333   5.589
  979SOL     OW 3835   6.618   1.764   1.232
  979SOL    HW1 3836   6.564   1.803   1.158
  979SOL    HW2 3837   6.714   1.756   1.203
  980SOL     OW 3838   3.814   2.124   3.898
  980SOL    HW1 3839   3.766   2.079   3.822
  980SOL    HW2 3840   3.905   2.153   3.867
  981SOL     OW 3841   1.762   1.758   5.160
  981SOL    HW1 3842   1.839   1.736   5.100
  981SOL    HW2 3843   1.797   1.792   5.247
  982SOL     OW 3844   2.988   1.853   3.101
  982SOL    HW1 3845   3.084   1.881   3.096
  982SOL    HW2 3846   2.961   1.845   3.197
  983SOL     OW 3847   5.580   2.168   3.669
  983SOL    HW1 3848   5.588   2.071   3.646
  983SOL    HW2 3849   5.496   2.205   3.629
  984SOL     OW 3850   2.991   1.273   3.838
  984SOL    HW1 3851   2.947   1.353   3.798
  984SOL    HW2 3852   3.090   1.289   3.846
  985SOL     OW 3853   4.872   4.882   6.273
  985SOL    HW1 3854   4.897   4.832   6.190
  985SOL    HW2 3855   4.951   4.933   6.306
  986SOL     OW 3856   5.275   4.297   0.562
  986SOL    HW1 3857   5.251   4.270   0.469
  986SOL    HW2 3858   5.349   4.239   0.595
  987SOL     OW 3859   4.566   6.673   1.802
  987SOL    HW1 3860   4.583   6.765   1.836
  987SOL    HW2 3861   4.477   6.671   1.755
  988SOL     OW 3862   3.701   2.890   2.480
  988SOL    HW1 3863   3.664   2.845   2.561
  988SOL    HW2 3864   3.634   2.954   2.444
  989SOL     OW 3865   6.150   1.256   5.774
  989SOL    HW1 3866   6.226   1.281   5.835
  989SOL    HW2 3867   6.157   1.309   5.689
  990SOL     OW 3868   4.191   1.177   2.282
  990SOL    HW1 3869   4.188   1.130   2.194
  990SOL    HW2 3870   4.099   1.183   2.320
  991SOL     OW 3871   1.602   2.621   5.328
  991SOL    HW1 3872   1.552   2.609   5.242
  991SOL    HW2 3873   1.560   2.695   5.380
  992SOL     OW 3874   0.175   3.201   1.750
  992SOL    HW1 3875   0.105   3.257   1.795
  992SOL    HW2 3876   0.196   3.122   1.808
  993SOL     OW 3877   1.126   4.785   1.806
  993SOL    HW1 3878   1.095   4.734   1.887
  993SOL    HW2 3879   1.162   4.721   1.738
  994SOL     OW 3880   3.037   3.951   2.633
  994SOL    HW1 3881   3.127   3.918   2.608
  994SOL    HW2 3882   2.967   3.890   2.595
  995SOL     OW 3883   3.567   2.395   6.403
  995SOL    HW1 3884   3.563   2.406   6.303
  995SOL    HW2 3885   3.636   2.326   6.426
  996SOL     OW 3886   1.818   4.679   4.361
  996SOL    HW1 3887   1.836   4.599   4.304
  996SOL    HW2 3888   1.846   4.660   4.455
  997SOL     OW 3889   0.460   0.608   2.603
  997SOL    HW1 3890   0.396   0.531   2.592
  997SOL    HW2 3891   0.539   0.594   2.543
  998SOL     OW 3892   4.033   6.242   4.314
  998SOL    HW1 3893   3.970   6.177   4.357
  998SOL    HW2 3894   4.059   6.312   4.380
  999SOL     OW 3895   5.377   4.967   2.136
  999SOL    HW1 3896   5.396   5.023   2.216
  999SOL    HW2 3897   5.319   4.890   2.162
 1000SOL     OW 3898   0.965   0.784   1.727
 1000SOL    HW1 3899   1.023   0.810   1.651
 1000SOL    HW2 3900   0.870   0.806   1.706
 1001SOL     OW 3901   5.691   7.004   0.791
 1001SOL    HW1 3902   5.664   0.069   0.835
 1001SOL    HW2 3903   5.749   6.951   0.853
 1002SOL     OW 3904   6.694   2.215   6.879
 1002SOL    HW1 3905   6.663   2.263   6.961
 1002SOL    HW2 3906   6.702   2.117   6.898
 1003SOL     OW 3907   2.201   6.336   1.744
 1003SOL    HW1 3908   2.127   6.388   1.786
 1003SOL    HW2 3909   2.266   6.399   1.700
 1004SOL     OW 3910   0.246   0.031   1.658
 1004SOL    HW1 3911   0.201   0.072   1.737
 1004SOL    HW2 3912   0.183   0.030   1.580
 1005SOL     OW 3913   0.584   1.814   2.852
 1005SOL    HW1 3914   0.515   1.764   2.800
 1005SOL    HW2 3915   0.571   1.798   2.950
 1006SOL     OW 3916   1.599   5.116   0.568
 1006SOL    HW1 3917   1.641   5.202   0.540
 1006SOL    HW2 3918   1.631   5.093   0.660
 1007SOL     OW 3919   5.426   6.868   4.277
 1007SOL    HW1 3920   5.419   6.964   4.303
 1007SOL    HW2 3921   5.336   6.825   4.283
 1008SOL     OW 3922   2.190   3.236   5.049
 1008SOL    HW1 3923   2.191   3.248   5.148
 1008SOL    HW2 3924   2.248   3.159   5.024
 1009SOL     OW 3925   0.010   6.023   4.721
 1009SOL    HW1 3926   0.095   6.072   4.703
 1009SOL    HW2 3927   7.015   6.018   4.820
 1010SOL     OW 3928   3.750   2.282   6.020
 1010SOL    HW1 3929   3.783   2.211   6.083
 1010SOL    HW2 3930   3.668   2.249   5.973
 1011SOL     OW 3931   2.565   5.194   2.292
 1011SOL    HW1 3932   2.530   5.212   2.384
 1011SOL    HW2 3933   2.579   5.095   2.281
 1012SOL     OW 3934   6.445   0.426   0.696
 1012SOL    HW1 3935   6.475   0.391   0.608
 1012SOL    HW2 3936   6.524   0.442   0.755
 1013SOL     OW 3937   0.897   1.514   6.052
 1013SOL    HW1 3938   0.929   1.553   5.966
 1013SOL    HW2 3939   0.975   1.477   6.102
 1014SOL     OW 3940   4.763   6.024   6.945
 1014SOL    HW1 3941   4.688   5.992   6.887
 1014SOL    HW2 3942   4.798   6.111   6.908
 1015SOL     OW 3943   2.156   6.566   5.143
 1015SOL    HW1 3944   2.059   6.567   5.169
 1015SOL    HW2 3945   2.169   6.505   5.065
 1016SOL     OW 3946   3.516   3.616   0.166
 1016SOL    HW1 3947   3.592   3.678   0.187
 1016SOL    HW2 3948   3.492   3.564   0.248
 1017SOL     OW 3949   4.204   2.773   1.157
 1017SOL    HW1 3950   4.261   2.738   1.083
 1017SOL    HW2 3951   4.251   2.758   1.244
 1018SOL     OW 3952   1.288   3.024   4.428
 1018SOL    HW1 3953   1.217   2.976   4.480
 1018SOL    HW2 3954   1.373   3.026   4.481
 1019SOL     OW 3955   0.559   0.220   6.893
 1019SOL    HW1 3956   0.500   0.217   6.812
 1019SOL    HW2 3957   0.635   0.156   6.881
 1020SOL     OW 3958   0.908   6.711   0.932
 1020SOL    HW1 3959   0.991   6.756   0.964
 1020SOL    HW2 3960   0.932   6.622   0.893
 1021SOL     OW 3961   5.679   1.207   1.317
 1021SOL    HW1 3962   5.684   1.133   1.250
 1021SOL    HW2 3963   5.699   1.171   1.408
 1022SOL     OW 3964   3.930   4.114   5.986
 1022SOL    HW1 3965   3.842   4.115   6.034
 1022SOL    HW2 3966   3.943   4.202   5.939
 1023SOL     OW 3967   0.649   6.860   1.915
 1023SOL    HW1 3968   0.629   6.771   1.956
 1023SOL    HW2 3969   0.730   6.899   1.960
 1024SOL     OW 3970   6.083   3.654   4.250
 1024SOL    HW1 3971   6.153   3.665   4.179
 1024SOL    HW2 3972   6.118   3.595   4.323
 1025SOL     OW 3973   3.145   3.227   0.686
 1025SOL    HW1 3974   3.155   3.133   0.652
 1025SOL    HW2 3975   3.091   3.280   0.620
 1026SOL     OW 3976   2.249   2.804   1.595
 1026SOL    HW1 3977   2.246   2.901   1.616
 1026SOL    HW2 3978   2.226   2.751   1.677
 1027SOL     OW 3979   2.992   6.161   0.905
 1027SOL    HW1 3980   3.020   6.252   0.935
 1027SOL    HW2 3981   2.904   6.167   0.859
 1028SOL     OW 3982   3.799   6.092   0.184
 1028SOL    HW1 3983   3.848   6.071   0.269
 1028SOL    HW2 3984   3.701   6.082   0.200
 1029SOL     OW 3985   1.738   0.389   0.017
 1029SOL    HW1 3986   1.834   0.373   0.041
 1029SOL    HW2 3987   1.682   0.382   0.100
 1030SOL     OW 3988   3.582   3.727   1.646
 1030SOL    HW1 3989   3.582   3.671   1.563
 1030SOL    HW2 3990   3.616   3.672   1.723
 1031SOL     OW 3991   5.075   5.359   0.971
 1031SOL    HW1 3992   5.144   5.293   0.943
 1031SOL    HW2 3993   5.004   5.366   0.901
 1032SOL     OW 3994   1.990   2.032   4.732
 1032SOL    HW1 3995   2.090   2.026   4.736
 1032SOL    HW2 3996   1.962   2.072   4.645
 1033SOL     OW 3997   1.502   6.107   1.208
 1033SOL    HW1 3998   1.435   6.058   1.153
 1033SOL    HW2 3999   1.581   6.130   1.151
 1034SOL     OW 4000   0.587   5.624   4.636
 1034SOL    HW1 4001   0.632   5.610   4.724
 1034SOL    HW2 4002   0.533   5.708   4.639
 1035SOL     OW 4003   0.967   1.141   3.268
 1035SOL    HW1 4004   0.905   1.150   3.190
 1035SOL    HW2 4005   0.923   1.179   3.350
 1036SOL     OW 4006   2.562   1.047   2.286
 1036SOL    HW1 4007   2.496   0.975   2.260
 1036SOL    HW2 4008   2.628   1.061   2.213
 1037SOL     OW 4009   2.096   0.773   1.183
 1037SOL    HW1 4010   1.998   0.789   1.197
 1037SOL    HW2 4011   2.145   0.860   1.191
 1038SOL     OW 4012   1.418   6.973   5.319
 1038SOL    HW1 4013   1.483   6.973   5.243
 1038SOL    HW2 4014   1.349   0.024   5.303
 1039SOL     OW 4015   3.017   2.761   5.972
 1039SOL    HW1 4016   2.997   2.672   5.929
 1039SOL    HW2 4017   2.998   2.755   6.070
 1040SOL     OW 4018   4.785   2.898   2.306
 1040SOL    HW1 4019   4.733   2.822   2.345
 1040SOL    HW2 4020   4.753   2.915   2.212
 1041SOL     OW 4021   6.526   0.070   4.438
 1041SOL    HW1 4022   6.441   0.019   4.444
 1041SOL    HW2 4023   6.532   0.135   4.515
 1042SOL     OW 4024   3.900   4.915   2.176
 1042SOL    HW1 4025   3.813   4.875   2.204
 1042SOL    HW2 4026   3.899   4.933   2.078
 1043SOL     OW 4027   3.779   1.361   5.039
 1043SOL    HW1 4028   3.874   1.372   5.066
 1043SOL    HW2 4029   3.765   1.402   4.948
 1044SOL     OW 4030   5.120   4.844   2.466
 1044SOL    HW1 4031   5.193   4.890   2.517
 1044SOL    HW2 4032   5.066   4.788   2.529
 1045SOL     OW 4033   3.325   5.978   2.434
 1045SOL    HW1 4034   3.280   6.049   2.487
 1045SOL    HW2 4035   3.339   5.897   2.491
 1046SOL     OW 4036   1.267   6.682   0.537
 1046SOL    HW1 4037   1.289   6.742   0.614
 1046SOL    HW2 4038   1.326   6.704   0.460
 1047SOL     OW 4039   1.137   6.377   2.209
 1047SOL    HW1 4040   1.226   6.411   2.241
 1047SOL    HW2 4041   1.097   6.317   2.279
 1048SOL     OW 4042   4.706   6.012   5.483
 1048SOL    HW1 4043   4.708   6.107   5.451
 1048SOL    HW2 4044   4.678   6.011   5.579
 1049SOL     OW 4045   6.543   5.060   3.681
 1049SOL    HW1 4046   6.557   4.961   3.682
 1049SOL    HW2 4047   6.446   5.080   3.665
 1050SOL     OW 4048   3.872   5.428   0.950
 1050SOL    HW1 4049   3.825   5.356   1.002
 1050SOL    HW2 4050   3.848   5.517   0.987
 1051SOL     OW 4051   2.820   5.332   1.244
 1051SOL    HW1 4052   2.740   5.344   1.303
 1051SOL    HW2 4053   2.811   5.247   1.193
 1052SOL     OW 4054   3.658   0.146   4.290
 1052SOL    HW1 4055   3.688   0.237   4.316
 1052SOL    HW2 4056   3.738   0.088   4.271
 1053SOL     OW 4057   5.107   5.416   3.763
 1053SOL    HW1 4058   5.038   5.377   3.701
 1053SOL    HW2 4059   5.186   5.356   3.767
 1054SOL     OW 4060   2.231   3.840   5.311
 1054SOL    HW1 4061   2.194   3.906   5.376
 1054SOL    HW2 4062   2.303   3.882   5.258
 1055SOL     OW 4063   5.553   6.517   4.241
 1055SOL    HW1 4064   5.592   6.426   4.246
 1055SOL    HW2 4065   5.556   6.560   4.332
 1056SOL     OW 4066   1.602   5.182   5.902
 1056SOL    HW1 4067   1.574   5.159   5.995
 1056SOL    HW2 4068   1.699   5.164   5.890
 1057SOL     OW 4069   3.639   3.464   2.728
 1057SOL    HW1 4070   3.727   3.511   2.733
 1057SOL    HW2 4071   3.585   3.501   2.653
 1058SOL     OW 4072   4.958   1.616   1.910
 1058SOL    HW1 4073   4.890   1.659   1.851
 1058SOL    HW2 4074   5.005   1.686   1.963
 1059SOL     OW 4075   2.308   0.139   1.807
 1059SOL    HW1 4076   2.324   0.222   1.753
 1059SOL    HW2 4077   2.216   0.141   1.845
 1060SOL     OW 4078   0.194   3.781   4.008
 1060SOL    HW1 4079   0.127   3.814   3.942
 1060SOL    HW2 4080   0.253   3.856   4.037
 1061SOL     OW 4081   5.164   3.809   1.774
 1061SOL    HW1 4082   5.174   3.828   1.872
 1061SOL    HW2 4083   5.093   3.741   1.759
 1062SOL     OW 4084   5.991   4.679   5.554
 1062SOL    HW1 4085   6.060   4.611   5.528
 1062SOL    HW2 4086   6.006   4.763   5.501
 1063SOL     OW 4087   1.524   4.662   1.772
 1063SOL    HW1 4088   1.457   4.737   1.775
 1063SOL    HW2 4089   1.502   4.596   1.843
 1064SOL     OW 4090   1.588   4.169   2.151
 1064SOL    HW1 4091   1.500   4.194   2.111
 1064SOL    HW2 4092   1.611   4.075   2.124
 1065SOL     OW 4093   4.801   0.311   3.958
 1065SOL    HW1 4094   4.897   0.319   3.933
 1065SOL    HW2 4095   4.780   0.376   4.031
 1066SOL     OW 4096   5.299   0.731   4.043
 1066SOL    HW1 4097   5.210   0.726   3.998
 1066SOL    HW2 4098   5.300   0.670   4.123
 1067SOL     OW 4099   1.116   3.451   0.124
 1067SOL    HW1 4100   1.145   3.536   0.168
 1067SOL    HW2 4101   1.024   3.462   0.087
 1068SOL     OW 4102   4.816   4.961   2.886
 1068SOL    HW1 4103   4.831   4.968   2.787
 1068SOL    HW2 4104   4.725   4.923   2.904
 1069SOL     OW 4105   5.047   5.078   1.125
 1069SOL    HW1 4106   5.017   5.083   1.030
 1069SOL    HW2 4107   5.127   5.018   1.131
 1070SOL     OW 4108   1.087   1.121   1.633
 1070SOL    HW1 4109   1.060   1.078   1.720
 1070SOL    HW2 4110   1.186   1.115   1.622
 1071SOL     OW 4111   2.623   6.436   3.848
 1071SOL    HW1 4112   2.670   6.437   3.760
 1071SOL    HW2 4113   2.553   6.364   3.847
 1072SOL     OW 4114   1.763   6.136   1.081
 1072SOL    HW1 4115   1.816   6.188   1.147
 1072SOL    HW2 4116   1.788   6.039   1.086
 1073SOL     OW 4117   3.816   6.563   2.694
 1073SOL    HW1 4118   3.833   6.476   2.739
 1073SOL    HW2 4119   3.867   6.567   2.608
 1074SOL     OW 4120   2.927   5.177   0.346
 1074SOL    HW1 4121   2.900   5.107   0.412
 1074SOL    HW2 4122   2.956   5.133   0.261
 1075SOL     OW 4123   4.235   6.682   3.728
 1075SOL    HW1 4124   4.147   6.636   3.721
 1075SOL    HW2 4125   4.221   6.781   3.730
 1076SOL     OW 4126   7.001   4.383   5.289
 1076SOL    HW1 4127   0.014   4.298   5.246
 1076SOL    HW2 4128   0.000   4.381   5.387
 1077SOL     OW 4129   5.745   0.485   0.566
 1077SOL    HW1 4130   5.707   0.506   0.656
 1077SOL    HW2 4131   5.760   0.386   0.559
 1078SOL     OW 4132   1.058   1.072   2.522
 1078SOL    HW1 4133   0.959   1.083   2.530
 1078SOL    HW2 4134   1.082   0.975   2.523
 1079SOL     OW 4135   1.791   6.037   2.592
 1079SOL    HW1 4136   1.792   5.953   2.645
 1079SOL    HW2 4137   1.884   6.073   2.584
 1080SOL     OW 4138   1.949   4.737   3.574
 1080SOL    HW1 4139   1.976   4.814   3.631
 1080SOL    HW2 4140   1.888   4.769   3.501
 1081SOL     OW 4141   7.018   6.818   5.688
 1081SOL    HW1 4142   6.954   6.742   5.678
 1081SOL    HW2 4143   0.080   6.800   5.635
 1082SOL     OW 4144   3.385   1.566   6.520
 1082SOL    HW1 4145   3.382   1.479   6.472
 1082SOL    HW2 4146   3.471   1.575   6.569
 1083SOL     OW 4147   4.135   4.392   1.260
 1083SOL    HW1 4148   4.133   4.298   1.296
 1083SOL    HW2 4149   4.047   4.413   1.218
 1084SOL     OW 4150   6.596   6.115   1.123
 1084SOL    HW1 4151   6.589   6.103   1.222
 1084SOL    HW2 4152   6.629   6.030   1.082
 1085SOL     OW 4153   1.031   4.153   3.660
 1085SOL    HW1 4154   1.088   4.122   3.736
 1085SOL    HW2 4155   1.083   4.216   3.603
 1086SOL     OW 4156   6.592   5.955   2.085
 1086SOL    HW1 4157   6.627   5.958   1.991
 1086SOL    HW2 4158   6.668   5.942   2.149
 1087SOL     OW 4159   6.280   3.579   5.595
 1087SOL    HW1 4160   6.291   3.518   5.674
 1087SOL    HW2 4161   6.185   3.612   5.592
 1088SOL     OW 4162   5.855   4.716   3.624
 1088SOL    HW1 4163   5.862   4.775   3.705
 1088SOL    HW2 4164   5.850   4.621   3.652
 1089SOL     OW 4165   1.257   6.964   4.541
 1089SOL    HW1 4166   1.330   0.013   4.548
 1089SOL    HW2 4167   1.194   6.991   4.468
 1090SOL     OW 4168   2.231   1.606   3.593
 1090SOL    HW1 4169   2.154   1.609   3.529
 1090SOL    HW2 4170   2.248   1.511   3.620
 1091SOL     OW 4171   2.180   2.954   5.505
 1091SOL    HW1 4172   2.119   3.017   5.551
 1091SOL    HW2 4173   2.150   2.941   5.410
 1092SOL     OW 4174   2.084   3.662   0.230
 1092SOL    HW1 4175   2.175   3.674   0.270
 1092SOL    HW2 4176   2.091   3.666   0.130
 1093SOL     OW 4177   2.045   1.998   2.171
 1093SOL    HW1 4178   1.951   2.029   2.162
 1093SOL    HW2 4179   2.064   1.930   2.100
 1094SOL     OW 4180   1.216   6.130   3.447
 1094SOL    HW1 4181   1.205   6.224   3.414
 1094SOL    HW2 4182   1.307   6.119   3.486
 1095SOL     OW 4183   0.083   2.313   5.817
 1095SOL    HW1 4184   0.134   2.396   5.840
 1095SOL    HW2 4185   7.016   2.313   5.867
 1096SOL     OW 4186   3.297   4.651   1.732
 1096SOL    HW1 4187   3.382   4.626   1.779
 1096SOL    HW2 4188   3.245   4.568   1.710
 1097SOL     OW 4189   1.729   3.949   4.060
 1097SOL    HW1 4190   1.718   4.013   4.136
 1097SOL    HW2 4191   1.810   3.975   4.006
 1098SOL     OW 4192   5.295   3.329   0.866
 1098SOL    HW1 4193   5.241   3.387   0.804
 1098SOL    HW2 4194   5.283   3.233   0.840
 1099SOL     OW 4195   3.661   1.691   5.321
 1099SOL    HW1 4196   3.752   1.690   5.361
 1099SOL    HW2 4197   3.667   1.674   5.223
 1100SOL     OW 4198   2.797   1.782   6.851
 1100SOL    HW1 4199   2.764   1.772   6.945
 1100SOL    HW2 4200   2.721   1.772   6.788
 1101SOL     OW 4201   6.327   2.291   0.027
 1101SOL    HW1 4202   6.292   2.198   0.041
 1101SOL    HW2 4203   6.427   2.291   0.030
 1102SOL     OW 4204   0.722   5.970   3.987
 1102SOL    HW1 4205   0.645   5.965   4.051
 1102SOL    HW2 4206   0.783   6.044   4.015
 1103SOL     OW 4207   3.015   1.492   0.451
 1103SOL    HW1 4208   3.103   1.539   0.442
 1103SOL    HW2 4209   3.004   1.428   0.375
 1104SOL     OW 4210   1.996   3.445   5.160
 1104SOL    HW1 4211   1.994   3.491   5.071
 1104SOL    HW2 4212   2.080   3.469   5.208
 1105SOL     OW 4213   5.761   3.640   4.920
 1105SOL    HW1 4214   5.766   3.637   5.019
 1105SOL    HW2 4215   5.692   3.576   4.888
 1106SOL     OW 4216   0.391   2.156   0.309
 1106SOL    HW1 4217   0.318   2.159   0.377
 1106SOL    HW2 4218   0.356   2.115   0.224
 1107SOL     OW 4219   1.617   0.533   6.361
 1107SOL    HW1 4220   1.652   0.623   6.336
 1107SOL    HW2 4221   1.590   0.533   6.457
 1108SOL     OW 4222   2.995   0.597   5.967
 1108SOL    HW1 4223   3.089   0.623   5.988
 1108SOL    HW2 4224   2.992   0.555   5.876
 1109SOL     OW 4225   4.047   6.488   5.126
 1109SOL    HW1 4226   3.965   6.519   5.174
 1109SOL    HW2 4227   4.025   6.409   5.069
 1110SOL     OW 4228   2.700   1.515   2.870
 1110SOL    HW1 4229   2.608   1.502   2.907
 1110SOL    HW2 4230   2.758   1.557   2.940
 1111SOL     OW 4231   5.279   5.250   0.100
 1111SOL    HW1 4232   5.255   5.267   0.195
 1111SOL    HW2 4233   5.340   5.170   0.095
 1112SOL     OW 4234   6.417   0.708   2.331
 1112SOL    HW1 4235   6.399   0.700   2.233
 1112SOL    HW2 4236   6.333   0.735   2.378
 1113SOL     OW 4237   0.516   3.684   3.069
 1113SOL    HW1 4238   0.515   3.764   3.008
 1113SOL    HW2 4239   0.592   3.693   3.134
 1114SOL     OW 4240   4.549   1.481   6.565
 1114SOL    HW1 4241   4.493   1.467   6.646
 1114SOL    HW2 4242   4.572   1.393   6.524
 1115SOL     OW 4243   4.061   3.080   0.191
 1115SOL    HW1 4244   3.991   3.031   0.139
 1115SOL    HW2 4245   4.030   3.174   0.208
 1116SOL     OW 4246   5.191   6.046   5.077
 1116SOL    HW1 4247   5.231   6.136   5.096
 1116SOL    HW2 4248   5.238   6.005   4.999
 1117SOL     OW 4249   1.784   2.710   1.243
 1117SOL    HW1 4250   1.707   2.648   1.259
 1117SOL    HW2 4251   1.796   2.770   1.322
 1118SOL     OW 4252   2.364   4.486   1.474
 1118SOL    HW1 4253   2.308   4.414   1.515
 1118SOL    HW2 4254   2.424   4.525   1.543
 1119SOL     OW 4255   4.814   4.814   1.061
 1119SOL    HW1 4256   4.860   4.815   1.150
 1119SOL    HW2 4257   4.739   4.748   1.063
 1120SOL     OW 4258   5.690   6.839   5.552
 1120SOL    HW1 4259   5.637   6.870   5.631
 1120SOL    HW2 4260   5.767   6.900   5.536
 1121SOL     OW 4261   5.546   4.685   2.514
 1121SOL    HW1 4262   5.483   4.609   2.497
 1121SOL    HW2 4263   5.633   4.649   2.549
 1122SOL     OW 4264   4.260   2.733   6.447
 1122SOL    HW1 4265   4.359   2.740   6.464
 1122SOL    HW2 4266   4.213   2.804   6.500
 1123SOL     OW 4267   5.380   1.904   2.854
 1123SOL    HW1 4268   5.461   1.933   2.804
 1123SOL    HW2 4269   5.406   1.838   2.925
 1124SOL     OW 4270   6.003   4.249   5.341
 1124SOL    HW1 4271   6.063   4.172   5.319
 1124SOL    HW2 4272   5.919   4.242   5.288
 1125SOL     OW 4273   3.139   1.731   5.212
 1125SOL    HW1 4274   3.043   1.757   5.222
 1125SOL    HW2 4275   3.160   1.718   5.115
 1126SOL     OW 4276   5.340   6.644   0.652
 1126SOL    HW1 4277   5.275   6.680   0.718
 1126SOL    HW2 4278   5.433   6.668   0.680
 1127SOL     OW 4279   4.970   5.365   5.529
 1127SOL    HW1 4280   4.973   5.402   5.437
 1127SOL    HW2 4281   4.926   5.430   5.590
 1128SOL     OW 4282   5.593   2.021   5.260
 1128SOL    HW1 4283   5.537   2.100   5.286
 1128SOL    HW2 4284   5.555   1.979   5.177
 1129SOL     OW 4285   3.610   0.223   6.568
 1129SOL    HW1 4286   3.625   0.132   6.608
 1129SOL    HW2 4287   3.640   0.293   6.632
 1130SOL     OW 4288   1.861   4.650   1.025
 1130SOL    HW1 4289   1.883   4.554   1.010
 1130SOL    HW2 4290   1.820   4.661   1.116
 1131SOL     OW 4291   0.395   6.366   5.956
 1131SOL    HW1 4292   0.345   6.446   5.991
 1131SOL    HW2 4293   0.481   6.357   6.006
 1132SOL     OW 4294   5.213   0.321   0.684
 1132SOL    HW1 4295   5.248   0.228   0.694
 1132SOL    HW2 4296   5.214   0.367   0.773
 1133SOL     OW 4297   0.967   1.494   0.840
 1133SOL    HW1 4298   1.012   1.485   0.751
 1133SOL    HW2 4299   0.980   1.586   0.876
 1134SOL     OW 4300   4.760   1.318   1.530
 1134SOL    HW1 4301   4.699   1.375   1.585
 1134SOL    HW2 4302   4.709   1.280   1.453
 1135SOL     OW 4303   2.447   1.131   2.498
 1135SOL    HW1 4304   2.498   1.106   2.415
 1135SOL    HW2 4305   2.498   1.200   2.549
 1136SOL     OW 4306   3.485   5.276   4.772
 1136SOL    HW1 4307   3.526   5.360   4.806
 1136SOL    HW2 4308   3.546   5.234   4.705
 1137SOL     OW 4309   1.446   1.913   6.551
 1137SOL    HW1 4310   1.477   1.857   6.628
 1137SOL    HW2 4311   1.450   2.010   6.577
 1138SOL     OW 4312   0.276   1.373   6.555
 1138SOL    HW1 4313   0.329   1.364   6.470
 1138SOL    HW2 4314   0.276   1.469   6.583
 1139SOL     OW 4315   3.066   5.805   1.302
 1139SOL    HW1 4316   3.113   5.863   1.235
 1139SOL    HW2 4317   3.134   5.757   1.357
 1140SOL     OW 4318   3.439   1.090   1.999
 1140SOL    HW1 4319   3.503   1.167   1.998
 1140SOL    HW2 4320   3.347   1.125   2.015
 1141SOL     OW 4321   6.662   6.434   6.954
 1141SOL    HW1 4322   6.704   6.348   6.983
 1141SOL    HW2 4323   6.734   6.501   6.936
 1142SOL     OW 4324   3.803   0.649   4.066
 1142SOL    HW1 4325   3.854   0.568   4.095
 1142SOL    HW2 4326   3.855   0.731   4.092
 1143SOL     OW 4327   2.194   2.984   2.246
 1143SOL    HW1 4328   2.218   3.075   2.213
 1143SOL    HW2 4329   2.247   2.964   2.329
 1144SOL     OW 4330   6.484   4.437   5.382
 1144SOL    HW1 4331   6.543   4.515   5.405
 1144SOL    HW2 4332   6.472   4.380   5.463
 1145SOL     OW 4333   0.416   4.576   2.354
 1145SOL    HW1 4334   0.390   4.642   2.284
 1145SOL    HW2 4335   0.516   4.562   2.351
 1146SOL     OW 4336   6.011   0.408   1.766
 1146SOL    HW1 4337   6.051   0.497   1.746
 1146SOL    HW2 4338   6.041   0.341   1.699
 1147SOL     OW 4339   1.713   4.394   0.908
 1147SOL    HW1 4340   1.625   4.416   0.866
 1147SOL    HW2 4341   1.706   4.402   1.007
 1148SOL     OW 4342   4.593   6.960   6.461
 1148SOL    HW1 4343   4.633   6.930   6.548
 1148SOL    HW2 4344   4.572   6.881   6.404
 1149SOL     OW 4345   6.550   4.037   3.000
 1149SOL    HW1 4346   6.483   3.990   2.941
 1149SOL    HW2 4347   6.607   3.969   3.046
 1150SOL     OW 4348   2.794   4.364   0.809
 1150SOL    HW1 4349   2.781   4.285   0.870
 1150SOL    HW2 4350   2.889   4.393   0.813
 1151SOL     OW 4351   4.687   5.271   6.949
 1151SOL    HW1 4352   4.771   5.217   6.958
 1151SOL    HW2 4353   4.613   5.227   7.000
 1152SOL     OW 4354   0.506   5.757   5.745
 1152SOL    HW1 4355   0.558   5.679   5.777
 1152SOL    HW2 4356   0.502   5.757   5.645
 1153SOL     OW 4357   2.219   0.025   2.368
 1153SOL    HW1 4358   2.194   6.980   2.296
 1153SOL    HW2 4359   2.236   6.996   2.453
 1154SOL     OW 4360   0.565   3.861   1.883
 1154SOL    HW1 4361   0.495   3.926   1.912
 1154SOL    HW2 4362   0.593   3.805   1.961
 1155SOL     OW 4363   2.872   4.770   0.103
 1155SOL    HW1 4364   2.933   4.694   0.127
 1155SOL    HW2 4365   2.816   4.794   0.182
 1156SOL     OW 4366   1.819   0.899   4.990
 1156SOL    HW1 4367   1.914   0.882   5.019
 1156SOL    HW2 4368   1.799   0.844   4.909
 1157SOL     OW 4369   6.502   1.015   5.097
 1157SOL    HW1 4370   6.588   1.064   5.086
 1157SOL    HW2 4371   6.463   1.036   5.187
 1158SOL     OW 4372   0.249   5.722   5.841
 1158SOL    HW1 4373   0.198   5.641   5.811
 1158SOL    HW2 4374   0.340   5.722   5.799
 1159SOL     OW 4375   4.768   0.077   3.400
 1159SOL    HW1 4376   4.708   0.093   3.478
 1159SOL    HW2 4377   4.854   0.036   3.432
 1160SOL     OW 4378   3.693   3.180   1.676
 1160SOL    HW1 4379   3.622   3.232   1.630
 1160SOL    HW2 4380   3.677   3.082   1.662
 1161SOL     OW 4381   5.032   0.448   6.093
 1161SOL    HW1 4382   4.987   0.471   6.007
 1161SOL    HW2 4383   5.129   0.469   6.087
 1162SOL     OW 4384   3.202   1.927   0.213
 1162SOL    HW1 4385   3.255   1.961   0.291
 1162SOL    HW2 4386   3.155   2.003   0.169
 1163SOL     OW 4387   6.745   3.531   1.820
 1163SOL    HW1 4388   6.690   3.608   1.851
 1163SOL    HW2 4389   6.723   3.450   1.875
 1164SOL     OW 4390   5.337   2.258   4.267
 1164SOL    HW1 4391   5.350   2.206   4.352
 1164SOL    HW2 4392   5.423   2.302   4.242
 1165SOL     OW 4393   1.901   4.353   4.496
 1165SOL    HW1 4394   1.966   4.420   4.460
 1165SOL    HW2 4395   1.915   4.344   4.595
 1166SOL     OW 4396   3.754   0.337   0.556
 1166SOL    HW1 4397   3.692   0.412   0.531
 1166SOL    HW2 4398   3.715   0.250   0.525
 1167SOL     OW 4399   3.938   6.803   6.664
 1167SOL    HW1 4400   3.874   6.880   6.668
 1167SOL    HW2 4401   4.021   6.831   6.617
 1168SOL     OW 4402   6.797   1.156   3.561
 1168SOL    HW1 4403   6.806   1.073   3.616
 1168SOL    HW2 4404   6.834   1.234   3.611
 1169SOL     OW 4405   5.938   3.214   6.314
 1169SOL    HW1 4406   5.881   3.157   6.372
 1169SOL    HW2 4407   5.882   3.259   6.245
 1170SOL     OW 4408   4.989   1.073   1.977
 1170SOL    HW1 4409   5.060   1.107   1.915
 1170SOL    HW2 4410   4.997   1.120   2.065
 1171SOL     OW 4411   2.949   6.707   6.747
 1171SOL    HW1 4412   3.010   6.748   6.680
 1171SOL    HW2 4413   2.937   6.769   6.824
 1172SOL     OW 4414   3.264   4.064   2.125
 1172SOL    HW1 4415   3.189   4.060   2.190
 1172SOL    HW2 4416   3.228   4.060   2.032
 1173SOL     OW 4417   3.363   0.010   5.694
 1173SOL    HW1 4418   3.279   6.977   5.693
 1173SOL    HW2 4419   3.354   0.085   5.760
 1174SOL     OW 4420   3.305   4.276   0.288
 1174SOL    HW1 4421   3.356   4.191   0.271
 1174SOL    HW2 4422   3.369   4.351   0.302
 1175SOL     OW 4423   4.212   2.931   6.648
 1175SOL    HW1 4424   4.124   2.970   6.675
 1175SOL    HW2 4425   4.258   2.895   6.729
 1176SOL     OW 4426   5.516   4.781   1.323
 1176SOL    HW1 4427   5.583   4.726   1.373
 1176SOL    HW2 4428   5.462   4.722   1.263
 1177SOL     OW 4429   6.890   1.821   6.219
 1177SOL    HW1 4430   6.817   1.771   6.266
 1177SOL    HW2 4431   6.970   1.762   6.209
 1178SOL     OW 4432   3.932   2.911   1.312
 1178SOL    HW1 4433   3.948   3.003   1.278
 1178SOL    HW2 4434   3.857   2.913   1.379
 1179SOL     OW 4435   3.089   5.403   0.050
 1179SOL    HW1 4436   3.163   5.401   7.004
 1179SOL    HW2 4437   3.122   5.444   0.135
 1180SOL     OW 4438   2.203   6.503   3.839
 1180SOL    HW1 4439   2.272   6.430   3.836
 1180SOL    HW2 4440   2.206   6.554   3.753
 1181SOL     OW 4441   6.735   2.906   4.927
 1181SOL    HW1 4442   6.709   2.838   4.859
 1181SOL    HW2 4443   6.677   2.988   4.916
 1182SOL     OW 4444   2.539   5.266   3.446
 1182SOL    HW1 4445   2.617   5.288   3.505
 1182SOL    HW2 4446   2.454   5.276   3.498
 1183SOL     OW 4447   3.936   6.347   1.650
 1183SOL    HW1 4448   3.927   6.294   1.566
 1183SOL    HW2 4449   3.965   6.440   1.628
 1184SOL     OW 4450   4.336   1.016   5.828
 1184SOL    HW1 4451   4.360   1.111   5.812
 1184SOL    HW2 4452   4.237   1.007   5.840
 1185SOL     OW 4453   1.652   0.033   0.834
 1185SOL    HW1 4454   1.642   0.132   0.823
 1185SOL    HW2 4455   1.611   7.006   0.756
 1186SOL     OW 4456   6.343   6.035   6.140
 1186SOL    HW1 4457   6.373   6.037   6.235
 1186SOL    HW2 4458   6.256   5.985   6.134
 1187SOL     OW 4459   5.255   6.750   5.721
 1187SOL    HW1 4460   5.172   6.727   5.771
 1187SOL    HW2 4461   5.300   6.666   5.691
 1188SOL     OW 4462   3.287   5.649   6.610
 1188SOL    HW1 4463   3.281   5.560   6.564
 1188SOL    HW2 4464   3.368   5.698   6.577
 1189SOL     OW 4465   5.533   0.708   2.164
 1189SOL    HW1 4466   5.449   0.661   2.192
 1189SOL    HW2 4467   5.583   0.650   2.099
 1190SOL     OW 4468   3.879   5.038   4.327
 1190SOL    HW1 4469   3.908   5.118   4.379
 1190SOL    HW2 4470   3.786   5.052   4.294
 1191SOL     OW 4471   3.845   6.469   4.672
 1191SOL    HW1 4472   3.920   6.502   4.728
 1191SOL    HW2 4473   3.869   6.477   4.575
 1192SOL     OW 4474   5.137   6.020   2.953
 1192SOL    HW1 4475   5.062   6.079   2.980
 1192SOL    HW2 4476   5.101   5.933   2.920
 1193SOL     OW 4477   0.301   0.301   5.567
 1193SOL    HW1 4478   0.355   0.379   5.535
 1193SOL    HW2 4479   0.334   0.217   5.523
 1194SOL     OW 4480   6.590   1.427   0.658
 1194SOL    HW1 4481   6.652   1.413   0.581
 1194SOL    HW2 4482   6.634   1.396   0.743
 1195SOL     OW 4483   5.977   3.251   1.069
 1195SOL    HW1 4484   5.895   3.297   1.034
 1195SOL    HW2 4485   6.020   3.309   1.139
 1196SOL     OW 4486   6.583   4.862   2.065
 1196SOL    HW1 4487   6.487   4.851   2.041
 1196SOL    HW2 4488   6.638   4.794   2.017
 1197SOL     OW 4489   4.064   6.578   4.811
 1197SOL    HW1 4490   4.036   6.571   4.907
 1197SOL    HW2 4491   4.096   6.671   4.793
 1198SOL     OW 4492   1.618   2.842   2.769
 1198SOL    HW1 4493   1.631   2.850   2.868
 1198SOL    HW2 4494   1.573   2.755   2.749
 1199SOL     OW 4495   3.849   3.377   3.403
 1199SOL    HW1 4496   3.910   3.343   3.331
 1199SOL    HW2 4497   3.842   3.309   3.476
 1200SOL     OW 4498   3.850   4.012   4.711
 1200SOL    HW1 4499   3.920   3.943   4.691
 1200SOL    HW2 4500   3.849   4.080   4.637
 1201SOL     OW 4501   0.055   1.509   4.476
 1201SOL    HW1 4502   0.078   1.534   4.570
 1201SOL    HW2 4503   0.104   1.426   4.451
 1202SOL     OW 4504   6.005   1.071   5.932
 1202SOL    HW1 4505   5.998   1.084   6.030
 1202SOL    HW2 4506   6.066   1.140   5.893
 1203SOL     OW 4507   6.701   6.757   1.155
 1203SOL    HW1 4508   6.615   6.799   1.186
 1203SOL    HW2 4509   6.709   6.665   1.193
 1204SOL     OW 4510   4.413   1.670   1.625
 1204SOL    HW1 4511   4.364   1.680   1.711
 1204SOL    HW2 4512   4.349   1.675   1.549
 1205SOL     OW 4513   4.401   3.172   6.677
 1205SOL    HW1 4514   4.349   3.087   6.671
 1205SOL    HW2 4515   4.367   3.227   6.753
 1206SOL     OW 4516   1.095   2.466   4.645
 1206SOL    HW1 4517   1.149   2.538   4.688
 1206SOL    HW2 4518   1.117   2.378   4.688
 1207SOL     OW 4519   0.617   6.827   6.898
 1207SOL    HW1 4520   0.650   6.734   6.884
 1207SOL    HW2 4521   0.518   6.830   6.884
 1208SOL     OW 4522   3.400   3.789   2.047
 1208SOL    HW1 4523   3.302   3.799   2.028
 1208SOL    HW2 4524   3.446   3.747   1.969
 1209SOL     OW 4525   5.531   0.453   4.349
 1209SOL    HW1 4526   5.513   0.408   4.261
 1209SOL    HW2 4527   5.630   0.464   4.361
 1210SOL     OW 4528   4.321   0.116   3.723
 1210SOL    HW1 4529   4.264   0.071   3.653
 1210SOL    HW2 4530   4.300   0.213   3.724
 1211SOL     OW 4531   1.159   3.308   3.794
 1211SOL    HW1 4532   1.188   3.317   3.698
 1211SOL    HW2 4533   1.116   3.393   3.824
 1212SOL     OW 4534   0.089   1.185   5.841
 1212SOL    HW1 4535   0.049   1.240   5.767
 1212SOL    HW2 4536   0.021   1.174   5.914
 1213SOL     OW 4537   5.905   3.067   3.219
 1213SOL    HW1 4538   5.854   3.100   3.298
 1213SOL    HW2 4539   5.864   2.982   3.186
 1214SOL     OW 4540   0.782   2.717   5.739
 1214SOL    HW1 4541   0.840   2.794   5.712
 1214SOL    HW2 4542   0.722   2.692   5.663
 1215SOL     OW 4543   2.047   5.480   2.026
 1215SOL    HW1 4544   2.002   5.507   1.941
 1215SOL    HW2 4545   2.031   5.383   2.043
 1216SOL     OW 4546   0.037   0.808   0.435
 1216SOL    HW1 4547   0.015   0.742   0.364
 1216SOL    HW2 4548   0.125   0.851   0.414
 1217SOL     OW 4549   3.484   5.481   1.129
 1217SOL    HW1 4550   3.531   5.549   1.184
 1217SOL    HW2 4551   3.471   5.516   1.036
 1218SOL     OW 4552   0.990   4.052   5.694
 1218SOL    HW1 4553   0.894   4.055   5.667
 1218SOL    HW2 4554   1.042   4.120   5.643
 1219SOL     OW 4555   5.115   5.244   1.980
 1219SOL    HW1 4556   5.018   5.235   2.002
 1219SOL    HW2 4557   5.167   5.254   2.065
 1220SOL     OW 4558   6.742   4.117   2.781
 1220SOL    HW1 4559   6.669   4.084   2.842
 1220SOL    HW2 4560   6.813   4.161   2.834
 1221SOL     OW 4561   5.693   3.754   6.007
 1221SOL    HW1 4562   5.754   3.806   5.947
 1221SOL    HW2 4563   5.735   3.743   6.097
 1222SOL     OW 4564   0.695   0.478   6.867
 1222SOL    HW1 4565   0.654   0.567   6.887
 1222SOL    HW2 4566   0.626   0.406   6.878
 1223SOL     OW 4567   3.908   1.504   0.488
 1223SOL    HW1 4568   3.831   1.479   0.430
 1223SOL    HW2 4569   3.940   1.596   0.464
 1224SOL     OW 4570   3.015   5.690   6.935
 1224SOL    HW1 4571   3.056   5.678   6.845
 1224SOL    HW2 4572   3.085   5.679   7.005
 1225SOL     OW 4573   3.715   2.239   0.871
 1225SOL    HW1 4574   3.810   2.211   0.877
 1225SOL    HW2 4575   3.709   2.339   0.881
 1226SOL     OW 4576   5.000   6.323   0.665
 1226SOL    HW1 4577   4.904   6.302   0.685
 1226SOL    HW2 4578   5.048   6.238   0.645
 1227SOL     OW 4579   5.537   5.377   6.983
 1227SOL    HW1 4580   5.512   5.473   6.997
 1227SOL    HW2 4581   5.469   5.334   6.922
 1228SOL     OW 4582   3.642   2.694   0.754
 1228SOL    HW1 4583   3.587   2.757   0.809
 1228SOL    HW2 4584   3.624   2.710   0.657
 1229SOL     OW 4585   2.087   5.823   1.017
 1229SOL    HW1 4586   2.150   5.882   1.068
 1229SOL    HW2 4587   2.135   5.785   0.937
 1230SOL     OW 4588   5.599   5.362   2.810
 1230SOL    HW1 4589   5.583   5.325   2.901
 1230SOL    HW2 4590   5.525   5.334   2.748
 1231SOL     OW 4591   1.311   1.830   5.799
 1231SOL    HW1 4592   1.399   1.868   5.829
 1231SOL    HW2 4593   1.314   1.815   5.700
 1232SOL     OW 4594   5.769   1.493   5.247
 1232SOL    HW1 4595   5.781   1.495   5.346
 1232SOL    HW2 4596   5.767   1.586   5.211
 1233SOL     OW 4597   0.431   5.864   4.628
 1233SOL    HW1 4598   0.337   5.831   4.630
 1233SOL    HW2 4599   0.444   5.931   4.702
 1234SOL     OW 4600   6.219   2.618   5.230
 1234SOL    HW1 4601   6.155   2.647   5.159
 1234SOL    HW2 4602   6.212   2.678   5.309
 1235SOL     OW 4603   6.163   4.509   1.306
 1235SOL    HW1 4604   6.250   4.555   1.323
 1235SOL    HW2 4605   6.113   4.558   1.235
 1236SOL     OW 4606   4.114   1.342   2.008
 1236SOL    HW1 4607   4.029   1.365   1.961
 1236SOL    HW2 4608   4.129   1.243   2.003
 1237SOL     OW 4609   1.368   5.365   5.040
 1237SOL    HW1 4610   1.315   5.281   5.049
 1237SOL    HW2 4611   1.465   5.343   5.030
 1238SOL     OW 4612   0.844   0.168   4.837
 1238SOL    HW1 4613   0.903   0.232   4.788
 1238SOL    HW2 4614   0.757   0.212   4.857
 1239SOL     OW 4615   6.592   6.778   5.772
 1239SOL    HW1 4616   6.678   6.728   5.762
 1239SOL    HW2 4617   6.524   6.719   5.815
 1240SOL     OW 4618   6.123   5.244   2.326
 1240SOL    HW1 4619   6.026   5.252   2.347
 1240SOL    HW2 4620   6.140   5.161   2.273
 1241SOL     OW 4621   6.198   4.690   4.953
 1241SOL    HW1 4622   6.119   4.682   5.013
 1241SOL    HW2 4623   6.167   4.712   4.860
 1242SOL     OW 4624   2.237   3.403   0.536
 1242SOL    HW1 4625   2.261   3.361   0.624
 1242SOL    HW2 4626   2.247   3.502   0.543
 1243SOL     OW 4627   0.229   1.622   4.856
 1243SOL    HW1 4628   0.289   1.568   4.797
 1243SOL    HW2 4629   0.256   1.718   4.852
 1244SOL     OW 4630   4.967   6.590   4.826
 1244SOL    HW1 4631   5.044   6.542   4.868
 1244SOL    HW2 4632   4.905   6.524   4.784
 1245SOL     OW 4633   5.659   4.809   0.454
 1245SOL    HW1 4634   5.563   4.787   0.435
 1245SOL    HW2 4635   5.713   4.800   0.371
 1246SOL     OW 4636   3.366   1.314   2.230
 1246SOL    HW1 4637   3.372   1.392   2.293
 1246SOL    HW2 4638   3.444   1.316   2.168
 1247SOL     OW 4639   5.651   0.392   5.522
 1247SOL    HW1 4640   5.607   0.450   5.453
 1247SOL    HW2 4641   5.721   0.335   5.479
 1248SOL     OW 4642   1.198   6.290   3.946
 1248SOL    HW1 4643   1.137   6.227   3.994
 1248SOL    HW2 4644   1.165   6.304   3.853
 1249SOL     OW 4645   0.343   3.507   1.943
 1249SOL    HW1 4646   0.278   3.468   1.877
 1249SOL    HW2 4647   0.334   3.607   1.943
 1250SOL     OW 4648   6.153   4.090   3.611
 1250SOL    HW1 4649   6.233   4.084   3.551
 1250SOL    HW2 4650   6.076   4.130   3.560
 1251SOL     OW 4651   2.094   0.971   2.803
 1251SOL    HW1 4652   2.064   0.955   2.709
 1251SOL    HW2 4653   2.039   0.915   2.865
 1252SOL     OW 4654   3.677   4.441   6.747
 1252SOL    HW1 4655   3.626   4.508   6.801
 1252SOL    HW2 4656   3.641   4.350   6.765
 1253SOL     OW 4657   2.417   0.654   2.527
 1253SOL    HW1 4658   2.323   0.642   2.493
 1253SOL    HW2 4659   2.455   0.565   2.551
 1254SOL     OW 4660   0.134   2.448   3.726
 1254SOL    HW1 4661   0.082   2.363   3.713
 1254SOL    HW2 4662   0.156   2.488   3.637
 1255SOL     OW 4663   6.082   2.480   6.207
 1255SOL    HW1 4664   6.009   2.413   6.223
 1255SOL    HW2 4665   6.042   2.568   6.184
 1256SOL     OW 4666   0.365   6.210   3.762
 1256SOL    HW1 4667   0.346   6.113   3.774
 1256SOL    HW2 4668   0.333   6.239   3.672
 1257SOL     OW 4669   6.863   5.059   4.344
 1257SOL    HW1 4670   6.823   5.137   4.392
 1257SOL    HW2 4671   6.962   5.067   4.342
 1258SOL     OW 4672   2.003   4.942   2.799
 1258SOL    HW1 4673   1.929   4.875   2.799
 1258SOL    HW2 4674   2.022   4.971   2.705
 1259SOL     OW 4675   3.300   6.118   5.214
 1259SOL    HW1 4676   3.378   6.159   5.167
 1259SOL    HW2 4677   3.252   6.187   5.268
 1260SOL     OW 4678   2.873   1.206   1.293
 1260SOL    HW1 4679   2.926   1.278   1.249
 1260SOL    HW2 4680   2.780   1.206   1.257
 1261SOL     OW 4681   0.243   4.530   0.147
 1261SOL    HW1 4682   0.320   4.483   0.105
 1261SOL    HW2 4683   0.245   4.516   0.246
 1262SOL     OW 4684   5.212   5.765   1.427
 1262SOL    HW1 4685   5.237   5.845   1.482
 1262SOL    HW2 4686   5.263   5.685   1.459
 1263SOL     OW 4687   6.818   1.555   1.508
 1263SOL    HW1 4688   6.817   1.654   1.492
 1263SOL    HW2 4689   6.742   1.513   1.457
 1264SOL     OW 4690   0.123   3.868   1.298
 1264SOL    HW1 4691   0.138   3.934   1.225
 1264SOL    HW2 4692   0.037   3.819   1.282
 1265SOL     OW 4693   6.731   5.229   3.761
 1265SOL    HW1 4694   6.730   5.313   3.707
 1265SOL    HW2 4695   6.651   5.173   3.739
 1266SOL     OW 4696   1.048   1.160   3.870
 1266SOL    HW1 4697   0.973   1.223   3.851
 1266SOL    HW2 4698   1.055   1.092   3.797
 1267SOL     OW 4699   5.606   6.721   1.154
 1267SOL    HW1 4700   5.663   6.721   1.237
 1267SOL    HW2 4701   5.664   6.721   1.073
 1268SOL     OW 4702   4.865   2.135   0.366
 1268SOL    HW1 4703   4.914   2.183   0.439
 1268SOL    HW2 4704   4.863   2.037   0.385
 1269SOL     OW 4705   5.780   6.404   5.976
 1269SOL    HW1 4706   5.780   6.492   6.024
 1269SOL    HW2 4707   5.858   6.401   5.913
 1270SOL     OW 4708   2.117   3.440   4.482
 1270SOL    HW1 4709   2.192   3.390   4.438
 1270SOL    HW2 4710   2.063   3.487   4.412
 1271SOL     OW 4711   3.482   1.624   3.301
 1271SOL    HW1 4712   3.443   1.628   3.209
 1271SOL    HW2 4713   3.531   1.709   3.320
 1272SOL     OW 4714   5.926   5.712   0.558
 1272SOL    HW1 4715   6.006   5.717   0.497
 1272SOL    HW2 4716   5.901   5.804   0.587
 1273SOL     OW 4717   0.844   4.297   0.509
 1273SOL    HW1 4718   0.870   4.281   0.414
 1273SOL    HW2 4719   0.871   4.389   0.537
 1274SOL     OW 4720   6.408   2.830   1.354
 1274SOL    HW1 4721   6.315   2.865   1.346
 1274SOL    HW2 4722   6.418   2.781   1.440
 1275SOL     OW 4723   3.631   0.607   4.303
 1275SOL    HW1 4724   3.684   0.644   4.227
 1275SOL    HW2 4725   3.684   0.538   4.351
 1276SOL     OW 4726   6.943   0.864   4.772
 1276SOL    HW1 4727   6.914   0.899   4.683
 1276SOL    HW2 4728   0.018   0.832   4.766
 1277SOL     OW 4729   1.140   6.745   5.631
 1277SOL    HW1 4730   1.164   6.836   5.665
 1277SOL    HW2 4731   1.116   6.686   5.708
 1278SOL     OW 4732   0.951   0.432   5.316
 1278SOL    HW1 4733   1.018   0.477   5.375
 1278SOL    HW2 4734   0.976   0.447   5.220
 1279SOL     OW 4735   3.585   5.226   0.026
 1279SOL    HW1 4736   3.541   5.175   0.100
 1279SOL    HW2 4737   3.518   5.245   6.975
 1280SOL     OW 4738   3.438   6.054   3.866
 1280SOL    HW1 4739   3.354   6.029   3.914
 1280SOL    HW2 4740   3.427   6.037   3.768
 1281SOL     OW 4741   1.514   5.734   2.666
 1281SOL    HW1 4742   1.449   5.658   2.661
 1281SOL    HW2 4743   1.520   5.767   2.761
 1282SOL     OW 4744   0.703   1.100   6.446
 1282SOL    HW1 4745   0.607   1.072   6.456
 1282SOL    HW2 4746   0.707   1.198   6.427
 1283SOL     OW 4747   5.366   2.727   5.244
 1283SOL    HW1 4748   5.293   2.693   5.186
 1283SOL    HW2 4749   5.427   2.786   5.191
 1284SOL     OW 4750   4.539   1.809   2.268
 1284SOL    HW1 4751   4.489   1.886   2.227
 1284SOL    HW2 4752   4.607   1.844   2.332
 1285SOL     OW 4753   4.874   3.120   6.672
 1285SOL    HW1 4754   4.860   3.157   6.764
 1285SOL    HW2 4755   4.913   3.191   6.613
 1286SOL     OW 4756   4.989   3.304   2.146
 1286SOL    HW1 4757   5.077   3.261   2.163
 1286SOL    HW2 4758   4.940   3.315   2.232
 1287SOL     OW 4759   4.739   4.173   5.749
 1287SOL    HW1 4760   4.780   4.137   5.665
 1287SOL    HW2 4761   4.749   4.105   5.822
 1288SOL     OW 4762   5.540   3.396   0.629
 1288SOL    HW1 4763   5.517   3.417   0.724
 1288SOL    HW2 4764   5.468   3.340   0.588
 1289SOL     OW 4765   0.538   5.849   1.514
 1289SOL    HW1 4766   0.557   5.923   1.449
 1289SOL    HW2 4767   0.536   5.886   1.607
 1290SOL     OW 4768   1.111   0.466   6.553
 1290SOL    HW1 4769   1.035   0.504   6.606
 1290SOL    HW2 4770   1.167   0.408   6.612
 1291SOL     OW 4771   0.025   3.975   5.507
 1291SOL    HW1 4772   6.982   3.985   5.585
 1291SOL    HW2 4773   0.022   4.058   5.452
 1292SOL     OW 4774   6.724   6.207   2.599
 1292SOL    HW1 4775   6.631   6.171   2.592
 1292SOL    HW2 4776   6.722   6.306   2.588
 1293SOL     OW 4777   1.226   1.322   6.959
 1293SOL    HW1 4778   1.262   1.260   6.890
 1293SOL    HW2 4779   1.150   1.376   6.920
 1294SOL     OW 4780   1.819   3.869   6.831
 1294SOL    HW1 4781   1.853   3.794   6.774
 1294SOL    HW2 4782   1.727   3.848   6.863
 1295SOL     OW 4783   0.058   3.598   3.061
 1295SOL    HW1 4784   7.012   3.527   3.086
 1295SOL    HW2 4785   0.011   3.684   3.046
 1296SOL     OW 4786   3.520   0.376   5.808
 1296SOL    HW1 4787   3.537   0.354   5.712
 1296SOL    HW2 4788   3.607   0.383   5.857
 1297SOL     OW 4789   6.119   0.620   0.267
 1297SOL    HW1 4790   6.051   0.629   0.340
 1297SOL    HW2 4791   6.102   0.689   0.197
 1298SOL     OW 4792   6.748   4.561   2.921
 1298SOL    HW1 4793   6.784   4.480   2.969
 1298SOL    HW2 4794   6.725   4.631   2.988
 1299SOL     OW 4795   0.399   4.018   3.211
 1299SOL    HW1 4796   0.391   4.116   3.230
 1299SOL    HW2 4797   0.488   3.999   3.171
 1300SOL     OW 4798   3.453   3.762   2.300
 1300SOL    HW1 4799   3.433   3.789   2.206
 1300SOL    HW2 4800   3.479   3.842   2.354
 1301SOL     OW 4801   0.238   5.633   2.290
 1301SOL    HW1 4802   0.320   5.580   2.268
 1301SOL    HW2 4803   0.169   5.572   2.329
 1302SOL     OW 4804   3.706   0.032   5.367
 1302SOL    HW1 4805   3.773   0.095   5.326
 1302SOL    HW2 4806   3.633   0.015   5.301
 1303SOL     OW 4807   4.544   1.319   1.834
 1303SOL    HW1 4808   4.617   1.276   1.888
 1303SOL    HW2 4809   4.580   1.399   1.786
 1304SOL     OW 4810   1.055   1.062   6.832
 1304SOL    HW1 4811   1.000   1.124   6.888
 1304SOL    HW2 4812   0.998   1.025   6.758
 1305SOL     OW 4813   4.773   3.190   6.915
 1305SOL    HW1 4814   4.840   3.167   6.985
 1305SOL    HW2 4815   4.703   3.119   6.910
 1306SOL     OW 4816   0.638   4.515   5.665
 1306SOL    HW1 4817   0.589   4.559   5.590
 1306SOL    HW2 4818   0.692   4.583   5.714
 1307SOL     OW 4819   1.009   3.215   5.062
 1307SOL    HW1 4820   0.966   3.201   4.973
 1307SOL    HW2 4821   0.956   3.282   5.114
 1308SOL     OW 4822   4.590   5.812   5.333
 1308SOL    HW1 4823   4.626   5.890   5.383
 1308SOL    HW2 4824   4.666   5.758   5.297
 1309SOL     OW 4825   5.021   2.839   5.208
 1309SOL    HW1 4826   4.999   2.799   5.119
 1309SOL    HW2 4827   4.938   2.846   5.263
 1310SOL     OW 4828   0.178   4.020   5.106
 1310SOL    HW1 4829   0.251   4.089   5.113
 1310SOL    HW2 4830   0.216   3.930   5.128
 1311SOL     OW 4831   0.195   0.393   4.252
 1311SOL    HW1 4832   0.140   0.315   4.221
 1311SOL    HW2 4833   0.209   0.387   4.350
 1312SOL     OW 4834   0.954   0.417   6.328
 1312SOL    HW1 4835   1.013   0.432   6.249
 1312SOL    HW2 4836   1.009   0.414   6.411
 1313SOL     OW 4837   1.620   4.308   4.265
 1313SOL    HW1 4838   1.684   4.236   4.292
 1313SOL    HW2 4839   1.575   4.283   4.180
 1314SOL     OW 4840   3.809   1.580   5.751
 1314SOL    HW1 4841   3.858   1.546   5.831
 1314SOL    HW2 4842   3.860   1.559   5.668
 1315SOL     OW 4843   0.637   0.734   0.156
 1315SOL    HW1 4844   0.713   0.669   0.151
 1315SOL    HW2 4845   0.636   0.777   0.246
 1316SOL     OW 4846   2.171   6.737   4.345
 1316SOL    HW1 4847   2.137   6.652   4.385
 1316SOL    HW2 4848   2.171   6.729   4.245
 1317SOL     OW 4849   1.629   3.918   4.485
 1317SOL    HW1 4850   1.625   4.018   4.474
 1317SOL    HW2 4851   1.665   3.896   4.575
 1318SOL     OW 4852   0.610   0.987   0.688
 1318SOL    HW1 4853   0.694   0.961   0.642
 1318SOL    HW2 4854   0.609   1.086   0.703
 1319SOL     OW 4855   0.103   0.767   6.915
 1319SOL    HW1 4856   0.179   0.811   6.962
 1319SOL    HW2 4857   0.017   0.809   6.943
 1320SOL     OW 4858   5.406   4.016   0.622
 1320SOL    HW1 4859   5.316   3.977   0.602
 1320SOL    HW2 4860   5.475   3.969   0.567
 1321SOL     OW 4861   4.516   2.152   5.829
 1321SOL    HW1 4862   4.537   2.152   5.926
 1321SOL    HW2 4863   4.560   2.230   5.785
 1322SOL     OW 4864   4.182   0.386   3.878
 1322SOL    HW1 4865   4.244   0.356   3.951
 1322SOL    HW2 4866   4.103   0.325   3.873
 1323SOL     OW 4867   5.085   1.930   4.907
 1323SOL    HW1 4868   5.106   1.833   4.919
 1323SOL    HW2 4869   4.989   1.946   4.928
 1324SOL     OW 4870   0.910   2.933   0.066
 1324SOL    HW1 4871   0.814   2.909   0.048
 1324SOL    HW2 4872   0.918   2.966   0.160
 1325SOL     OW 4873   1.680   6.825   2.473
 1325SOL    HW1 4874   1.665   6.832   2.572
 1325SOL    HW2 4875   1.598   6.858   2.425
 1326SOL     OW 4876   4.744   2.801   4.929
 1326SOL    HW1 4877   4.842   2.786   4.925
 1326SOL    HW2 4878   4.696   2.714   4.921
 1327SOL     OW 4879   1.866   4.505   1.976
 1327SOL    HW1 4880   1.825   4.470   2.060
 1327SOL    HW2 4881   1.923   4.435   1.935
 1328SOL     OW 4882   1.491   2.953   1.220
 1328SOL    HW1 4883   1.465   2.889   1.292
 1328SOL    HW2 4884   1.441   2.932   1.136
 1329SOL     OW 4885   1.440   2.638   0.978
 1329SOL    HW1 4886   1.352   2.662   0.939
 1329SOL    HW2 4887   1.478   2.559   0.931
 1330SOL     OW 4888   6.752   0.932   1.633
 1330SOL    HW1 4889   6.850   0.934   1.653
 1330SOL    HW2 4890   6.739   0.918   1.535
 1331SOL     OW 4891   5.006   2.289   3.542
 1331SOL    HW1 4892   5.064   2.257   3.467
 1331SOL    HW2 4893   5.040   2.250   3.628
 1332SOL     OW 4894   2.987   6.983   0.344
 1332SOL    HW1 4895   3.047   6.956   0.419
 1332SOL    HW2 4896   2.933   6.904   0.314
 1333SOL     OW 4897   3.315   2.956   5.657
 1333SOL    HW1 4898   3.266   2.942   5.742
 1333SOL    HW2 4899   3.251   2.985   5.586
 1334SOL     OW 4900   6.645   2.581   4.508
 1334SOL    HW1 4901   6.559   2.574   4.559
 1334SOL    HW2 4902   6.645   2.665   4.454
 1335SOL     OW 4903   2.698   1.017   3.497
 1335SOL    HW1 4904   2.708   0.944   3.430
 1335SOL    HW2 4905   2.752   0.995   3.578
 1336SOL     OW 4906   2.193   1.333   6.501
 1336SOL    HW1 4907   2.109   1.386   6.493
 1336SOL    HW2 4908   2.272   1.394   6.503
 1337SOL     OW 4909   1.503   1.219   5.033
 1337SOL    HW1 4910   1.548   1.268   5.108
 1337SOL    HW2 4911   1.405   1.240   5.034
 1338SOL     OW 4912   5.434   2.838   6.385
 1338SOL    HW1 4913   5.345   2.877   6.407
 1338SOL    HW2 4914   5.426   2.778   6.306
 1339SOL     OW 4915   0.535   0.709   6.914
 1339SOL    HW1 4916   0.579   0.721   7.004
 1339SOL    HW2 4917   0.491   0.795   6.888
 1340SOL     OW 4918   0.871   1.671   1.961
 1340SOL    HW1 4919   0.902   1.715   1.877
 1340SOL    HW2 4920   0.773   1.686   1.973
 1341SOL     OW 4921   4.713   0.773   5.951
 1341SOL    HW1 4922   4.690   0.851   5.893
 1341SOL    HW2 4923   4.632   0.743   6.000
 1342SOL     OW 4924   1.433   4.929   6.412
 1342SOL    HW1 4925   1.372   4.945   6.334
 1342SOL    HW2 4926   1.410   4.841   6.454
 1343SOL     OW 4927   4.609   5.918   2.237
 1343SOL    HW1 4928   4.608   5.855   2.315
 1343SOL    HW2 4929   4.555   5.879   2.162
 1344SOL     OW 4930   6.786   4.808   4.313
 1344SOL    HW1 4931   6.843   4.777   4.238
 1344SOL    HW2 4932   6.812   4.901   4.339
 1345SOL     OW 4933   1.484   1.299   3.142
 1345SOL    HW1 4934   1.536   1.216   3.159
 1345SOL    HW2 4935   1.447   1.297   3.049
 1346SOL     OW 4936   0.923   6.715   3.685
 1346SOL    HW1 4937   0.855   6.652   3.649
 1346SOL    HW2 4938   0.938   6.696   3.782
 1347SOL     OW 4939   6.394   6.558   4.064
 1347SOL    HW1 4940   6.324   6.568   3.993
 1347SOL    HW2 4941   6.470   6.622   4.046
 1348SOL     OW 4942   5.238   5.094   3.051
 1348SOL    HW1 4943   5.221   5.104   2.953
 1348SOL    HW2 4944   5.313   5.155   3.078
 1349SOL     OW 4945   4.600   2.248   6.513
 1349SOL    HW1 4946   4.529   2.203   6.568
 1349SOL    HW2 4947   4.651   2.312   6.571
 1350SOL     OW 4948   4.931   4.239   6.311
 1350SOL    HW1 4949   4.973   4.328   6.328
 1350SOL    HW2 4950   4.949   4.178   6.389
 1351SOL     OW 4951   6.603   2.281   2.825
 1351SOL    HW1 4952   6.657   2.297   2.908
 1351SOL    HW2 4953   6.665   2.269   2.747
 1352SOL     OW 4954   6.634   0.445   3.083
 1352SOL    HW1 4955   6.609   0.497   3.002
 1352SOL    HW2 4956   6.708   0.491   3.132
 1353SOL     OW 4957   6.579   4.331   6.141
 1353SOL    HW1 4958   6.648   4.340   6.068
 1353SOL    HW2 4959   6.513   4.406   6.134
 1354SOL     OW 4960   0.678   2.023   0.268
 1354SOL    HW1 4961   0.581   2.037   0.289
 1354SOL    HW2 4962   0.687   1.960   0.191
 1355SOL     OW 4963   6.898   2.480   5.599
 1355SOL    HW1 4964   6.994   2.487   5.572
 1355SOL    HW2 4965   6.840   2.514   5.525
 1356SOL     OW 4966   3.266   3.028   3.618
 1356SOL    HW1 4967   3.291   2.960   3.687
 1356SOL    HW2 4968   3.341   3.092   3.605
 1357SOL     OW 4969   1.627   4.296   5.865
 1357SOL    HW1 4970   1.611   4.198   5.855
 1357SOL    HW2 4971   1.542   4.341   5.890
 1358SOL     OW 4972   4.011   1.407   5.928
 1358SOL    HW1 4973   3.980   1.317   5.959
 1358SOL    HW2 4974   4.012   1.470   6.006
 1359SOL     OW 4975   6.376   4.921   1.692
 1359SOL    HW1 4976   6.350   4.922   1.788
 1359SOL    HW2 4977   6.451   4.856   1.678
 1360SOL     OW 4978   3.958   3.820   1.312
 1360SOL    HW1 4979   4.030   3.883   1.282
 1360SOL    HW2 4980   3.971   3.731   1.268
 1361SOL     OW 4981   0.235   5.871   5.525
 1361SOL    HW1 4982   0.184   5.911   5.600
 1361SOL    HW2 4983   0.172   5.830   5.459
 1362SOL     OW 4984   2.975   3.885   4.267
 1362SOL    HW1 4985   3.007   3.894   4.361
 1362SOL    HW2 4986   3.000   3.967   4.215
 1363SOL     OW 4987   6.384   5.806   3.854
 1363SOL    HW1 4988   6.392   5.712   3.821
 1363SOL    HW2 4989   6.452   5.822   3.926
 1364SOL     OW 4990   0.067   2.554   0.336
 1364SOL    HW1 4991   0.116   2.582   0.254
 1364SOL    HW2 4992   0.027   2.635   0.380
 1365SOL     OW 4993   1.099   2.994   5.199
 1365SOL    HW1 4994   1.078   3.082   5.157
 1365SOL    HW2 4995   1.159   3.007   5.278
 1366SOL     OW 4996   1.158   4.466   0.733
 1366SOL    HW1 4997   1.210   4.425   0.658
 1366SOL    HW2 4998   1.080   4.408   0.755
 1367SOL     OW 4999   1.813   5.578   2.515
 1367SOL    HW1 5000   1.732   5.608   2.464
 1367SOL    HW2 5001   1.788   5.559   2.609
 1368SOL     OW 5002   0.148   6.775   3.435
 1368SOL    HW1 5003   0.220   6.843   3.451
 1368SOL    HW2 5004   0.148   6.709   3.510
 1369SOL     OW 5005   1.696   0.290   2.295
 1369SOL    HW1 5006   1.789   0.322   2.277
 1369SOL    HW2 5007   1.631   0.350   2.247
 1370SOL     OW 5008   4.801   1.921   3.495
 1370SOL    HW1 5009   4.787   1.982   3.573
 1370SOL    HW2 5010   4.799   1.974   3.411
 1371SOL     OW 5011   5.742   1.467   4.139
 1371SOL    HW1 5012   5.698   1.403   4.076
 1371SOL    HW2 5013   5.816   1.419   4.188
 1372SOL     OW 5014   1.147   2.388   0.659
 1372SOL    HW1 5015   1.087   2.448   0.712
 1372SOL    HW2 5016   1.243   2.414   0.675
 1373SOL     OW 5017   4.403   2.534   0.602
 1373SOL    HW1 5018   4.367   2.597   0.533
 1373SOL    HW2 5019   4.494   2.502   0.574
 1374SOL     OW 5020   4.253   1.912   1.114
 1374SOL    HW1 5021   4.198   1.916   1.030
 1374SOL    HW2 5022   4.308   1.828   1.113
 1375SOL     OW 5023   0.191   6.716   6.083
 1375SOL    HW1 5024   0.274   6.669   6.113
 1375SOL    HW2 5025   0.179   6.800   6.136
 1376SOL     OW 5026   4.517   4.814   5.151
 1376SOL    HW1 5027   4.515   4.799   5.053
 1376SOL    HW2 5028   4.554   4.905   5.170
 1377SOL     OW 5029   1.028   3.864   4.290
 1377SOL    HW1 5030   1.046   3.871   4.388
 1377SOL    HW2 5031   1.046   3.770   4.259
 1378SOL     OW 5032   5.749   2.235   4.394
 1378SOL    HW1 5033   5.823   2.178   4.431
 1378SOL    HW2 5034   5.750   2.325   4.438
 1379SOL     OW 5035   4.304   5.974   3.447
 1379SOL    HW1 5036   4.345   5.884   3.465
 1379SOL    HW2 5037   4.279   6.017   3.534
 1380SOL     OW 5038   0.761   6.931   3.132
 1380SOL    HW1 5039   0.740   6.876   3.051
 1380SOL    HW2 5040   0.716   7.020   3.125
 1381SOL     OW 5041   6.036   1.777   0.650
 1381SOL    HW1 5042   5.967   1.810   0.713
 1381SOL    HW2 5043   5.992   1.744   0.566
 1382SOL     OW 5044   5.755   3.401   0.980
 1382SOL    HW1 5045   5.823   3.468   0.951
 1382SOL    HW2 5046   5.664   3.430   0.949
 1383SOL     OW 5047   0.547   0.977   1.969
 1383SOL    HW1 5048   0.626   0.928   2.008
 1383SOL    HW2 5049   0.579   1.044   1.902
 1384SOL     OW 5050   4.535   0.672   1.707
 1384SOL    HW1 5051   4.479   0.723   1.773
 1384SOL    HW2 5052   4.627   0.660   1.744
 1385SOL     OW 5053   2.944   4.831   3.345
 1385SOL    HW1 5054   3.038   4.866   3.346
 1385SOL    HW2 5055   2.891   4.877   3.416
 1386SOL     OW 5056   2.967   1.181   4.228
 1386SOL    HW1 5057   2.958   1.261   4.167
 1386SOL    HW2 5058   3.057   1.140   4.216
 1387SOL     OW 5059   4.075   5.221   2.557
 1387SOL    HW1 5060   4.144   5.149   2.547
 1387SOL    HW2 5061   3.990   5.182   2.591
 1388SOL     OW 5062   0.120   0.599   2.696
 1388SOL    HW1 5063   0.213   0.627   2.719
 1388SOL    HW2 5064   0.069   0.577   2.779
 1389SOL     OW 5065   6.529   1.242   3.779
 1389SOL    HW1 5066   6.514   1.304   3.702
 1389SOL    HW2 5067   6.449   1.243   3.839
 1390SOL     OW 5068   6.588   2.393   6.185
 1390SOL    HW1 5069   6.571   2.385   6.087
 1390SOL    HW2 5070   6.644   2.475   6.202
 1391SOL     OW 5071   6.079   6.740   5.273
 1391SOL    HW1 5072   6.165   6.763   5.318
 1391SOL    HW2 5073   6.023   6.683   5.334
 1392SOL     OW 5074   6.069   6.595   5.645
 1392SOL    HW1 5075   6.166   6.606   5.623
 1392SOL    HW2 5076   6.055   6.509   5.692
 1393SOL     OW 5077   0.050   4.163   6.154
 1393SOL    HW1 5078   6.970   4.165   6.151
 1393SOL    HW2 5079   0.084   4.256   6.171
 1394SOL     OW 5080   3.820   5.450   5.616
 1394SOL    HW1 5081   3.789   5.465   5.710
 1394SOL    HW2 5082   3.877   5.368   5.613
 1395SOL     OW 5083   1.861   4.964   4.888
 1395SOL    HW1 5084   1.913   4.883   4.914
 1395SOL    HW2 5085   1.921   5.031   4.845
 1396SOL     OW 5086   0.144   1.520   5.105
 1396SOL    HW1 5087   0.199   1.537   5.023
 1396SOL    HW2 5088   0.202   1.524   5.186
 1397SOL     OW 5089   0.031   6.522   4.578
 1397SOL    HW1 5090   0.011   6.433   4.535
 1397SOL    HW2 5091   7.013   6.595   4.522
 1398SOL     OW 5092   2.720   0.870   6.499
 1398SOL    HW1 5093   2.801   0.922   6.470
 1398SOL    HW2 5094   2.676   0.829   6.419
 1399SOL     OW 5095   4.098   4.772   0.559
 1399SOL    HW1 5096   4.004   4.762   0.591
 1399SOL    HW2 5097   4.098   4.814   0.468
 1400SOL     OW 5098   0.393   1.507   4.241
 1400SOL    HW1 5099   0.397   1.606   4.254
 1400SOL    HW2 5100   0.445   1.462   4.314
 1401SOL     OW 5101   6.558   0.254   4.628
 1401SOL    HW1 5102   6.598   0.337   4.666
 1401SOL    HW2 5103   6.530   0.193   4.702
 1402SOL     OW 5104   5.243   3.534   6.848
 1402SOL    HW1 5105   5.333   3.499   6.875
 1402SOL    HW2 5106   5.247   3.566   6.754
 1403SOL     OW 5107   2.269   1.743   0.991
 1403SOL    HW1 5108   2.348   1.775   1.043
 1403SOL    HW2 5109   2.189   1.736   1.051
 1404SOL     OW 5110   6.323   0.150   6.693
 1404SOL    HW1 5111   6.423   0.148   6.689
 1404SOL    HW2 5112   6.292   0.244   6.696
 1405SOL     OW 5113   2.165   3.103   0.509
 1405SOL    HW1 5114   2.246   3.079   0.562
 1405SOL    HW2 5115   2.151   3.202   0.512
 1406SOL     OW 5116   0.847   5.658   0.573
 1406SOL    HW1 5117   0.794   5.624   0.651
 1406SOL    HW2 5118   0.817   5.751   0.550
 1407SOL     OW 5119   0.690   3.170   3.706
 1407SOL    HW1 5120   0.782   3.131   3.704
 1407SOL    HW2 5121   0.626   3.106   3.664
 1408SOL     OW 5122   5.215   1.779   5.423
 1408SOL    HW1 5123   5.308   1.741   5.419
 1408SOL    HW2 5124   5.159   1.738   5.350
 1409SOL     OW 5125   0.516   0.327   5.256
 1409SOL    HW1 5126   0.549   0.280   5.337
 1409SOL    HW2 5127   0.448   0.270   5.210
 1410SOL     OW 5128   1.643   4.741   6.761
 1410SOL    HW1 5129   1.549   4.708   6.758
 1410SOL    HW2 5130   1.679   4.731   6.853
 1411SOL     OW 5131   3.437   6.650   0.529
 1411SOL    HW1 5132   3.534   6.666   0.516
 1411SOL    HW2 5133   3.403   6.706   0.605
 1412SOL     OW 5134   0.930   2.900   1.007
 1412SOL    HW1 5135   0.911   2.832   1.078
 1412SOL    HW2 5136   1.025   2.891   0.977
 1413SOL     OW 5137   2.372   1.379   5.308
 1413SOL    HW1 5138   2.413   1.460   5.267
 1413SOL    HW2 5139   2.358   1.309   5.238
 1414SOL     OW 5140   2.333   1.717   2.154
 1414SOL    HW1 5141   2.310   1.814   2.152
 1414SOL    HW2 5142   2.250   1.664   2.170
 1415SOL     OW 5143   2.120   1.300   4.826
 1415SOL    HW1 5144   2.166   1.384   4.855
 1415SOL    HW2 5145   2.021   1.312   4.834
 1416SOL     OW 5146   4.307   5.186   4.554
 1416SOL    HW1 5147   4.324   5.258   4.621
 1416SOL    HW2 5148   4.213   5.193   4.520
 1417SOL     OW 5149   2.926   2.341   0.660
 1417SOL    HW1 5150   2.850   2.381   0.608
 1417SOL    HW2 5151   2.976   2.278   0.601
 1418SOL     OW 5152   3.252   3.601   2.355
 1418SOL    HW1 5153   3.333   3.659   2.352
 1418SOL    HW2 5154   3.171   3.658   2.369
 1419SOL     OW 5155   2.782   5.705   3.526
 1419SOL    HW1 5156   2.715   5.742   3.590
 1419SOL    HW2 5157   2.739   5.693   3.436
 1420SOL     OW 5158   2.075   6.406   2.086
 1420SOL    HW1 5159   2.018   6.357   2.021
 1420SOL    HW2 5160   2.172   6.390   2.064
 1421SOL     OW 5161   2.271   5.135   3.270
 1421SOL    HW1 5162   2.288   5.047   3.314
 1421SOL    HW2 5163   2.207   5.122   3.193
 1422SOL     OW 5164   1.410   4.089   6.616
 1422SOL    HW1 5165   1.447   4.032   6.543
 1422SOL    HW2 5166   1.361   4.167   6.576
 1423SOL     OW 5167   4.671   6.851   4.462
 1423SOL    HW1 5168   4.586   6.799   4.470
 1423SOL    HW2 5169   4.659   6.925   4.397
 1424SOL     OW 5170   6.652   4.037   6.784
 1424SOL    HW1 5171   6.655   4.067   6.879
 1424SOL    HW2 5172   6.563   4.061   6.744
 1425SOL     OW 5173   1.809   5.466   5.819
 1425SOL    HW1 5174   1.740   5.428   5.758
 1425SOL    HW2 5175   1.889   5.405   5.822
 1426SOL     OW 5176   2.617   3.018   6.624
 1426SOL    HW1 5177   2.676   2.943   6.595
 1426SOL    HW2 5178   2.529   2.982   6.656
 1427SOL     OW 5179   6.848   6.933   3.631
 1427SOL    HW1 5180   6.757   6.925   3.592
 1427SOL    HW2 5181   6.879   6.843   3.664
 1428SOL     OW 5182   0.680   1.854   0.048
 1428SOL    HW1 5183   0.597   1.811   0.014
 1428SOL    HW2 5184   0.737   1.882   6.991
 1429SOL     OW 5185   4.696   1.328   0.039
 1429SOL    HW1 5186   4.668   1.416   7.020
 1429SOL    HW2 5187   4.644   1.311   0.123
 1430SOL     OW 5188   1.645   5.321   3.762
 1430SOL    HW1 5189   1.553   5.354   3.739
 1430SOL    HW2 5190   1.705   5.400   3.777
 1431SOL     OW 5191   2.875   2.197   0.004
 1431SOL    HW1 5192   2.951   2.137   6.999
 1431SOL    HW2 5193   2.864   2.268   6.954
 1432SOL     OW 5194   2.764   1.698   1.514
 1432SOL    HW1 5195   2.720   1.764   1.453
 1432SOL    HW2 5196   2.847   1.737   1.552
 1433SOL     OW 5197   4.468   0.761   5.204
 1433SOL    HW1 5198   4.471   0.691   5.133
 1433SOL    HW2 5199   4.511   0.726   5.288
 1434SOL     OW 5200   1.457   0.171   5.583
 1434SOL    HW1 5201   1.427   0.077   5.565
 1434SOL    HW2 5202   1.443   0.192   5.680
 1435SOL     OW 5203   6.587   0.031   3.379
 1435SOL    HW1 5204   6.616   0.109   3.324
 1435SOL    HW2 5205   6.563   0.062   3.471
 1436SOL     OW 5206   4.860   3.461   6.334
 1436SOL    HW1 5207   4.812   3.381   6.297
 1436SOL    HW2 5208   4.943   3.478   6.281
 1437SOL     OW 5209   3.393   2.083   5.106
 1437SOL    HW1 5210   3.337   2.161   5.075
 1437SOL    HW2 5211   3.382   2.071   5.204
 1438SOL     OW 5212   2.761   6.750   2.137
 1438SOL    HW1 5213   2.801   6.672   2.088
 1438SOL    HW2 5214   2.827   6.785   2.203
 1439SOL     OW 5215   6.477   4.852   0.698
 1439SOL    HW1 5216   6.492   4.764   0.743
 1439SOL    HW2 5217   6.433   4.916   0.761
 1440SOL     OW 5218   3.128   3.075   6.243
 1440SOL    HW1 5219   3.054   3.132   6.278
 1440SOL    HW2 5220   3.163   3.115   6.158
 1441SOL     OW 5221   6.137   1.807   3.742
 1441SOL    HW1 5222   6.091   1.795   3.829
 1441SOL    HW2 5223   6.157   1.904   3.728
 1442SOL     OW 5224   6.859   5.467   6.630
 1442SOL    HW1 5225   6.866   5.562   6.660
 1442SOL    HW2 5226   6.929   5.449   6.561
 1443SOL     OW 5227   1.139   2.832   3.817
 1443SOL    HW1 5228   1.182   2.921   3.805
 1443SOL    HW2 5229   1.063   2.823   3.752
 1444SOL     OW 5230   4.912   5.358   0.765
 1444SOL    HW1 5231   4.892   5.262   0.746
 1444SOL    HW2 5232   4.959   5.398   0.686
 1445SOL     OW 5233   0.283   3.661   2.847
 1445SOL    HW1 5234   0.239   3.743   2.809
 1445SOL    HW2 5235   0.223   3.618   2.914
 1446SOL     OW 5236   5.084   2.577   0.476
 1446SOL    HW1 5237   5.007   2.632   0.509
 1446SOL    HW2 5238   5.053   2.483   0.460
 1447SOL     OW 5239   6.289   6.816   5.444
 1447SOL    HW1 5240   6.236   6.846   5.524
 1447SOL    HW2 5241   6.319   6.896   5.392
 1448SOL     OW 5242   7.019   1.987   5.760
 1448SOL    HW1 5243   7.020   1.979   5.860
 1448SOL    HW2 5244   6.977   1.906   5.720
 1449SOL     OW 5245   0.748   1.082   6.925
 1449SOL    HW1 5246   0.662   1.040   6.955
 1449SOL    HW2 5247   0.776   1.042   6.838
 1450SOL     OW 5248   0.614   2.418   1.346
 1450SOL    HW1 5249   0.670   2.459   1.417
 1450SOL    HW2 5250   0.670   2.401   1.265
 1451SOL     OW 5251   1.625   0.038   1.902
 1451SOL    HW1 5252   1.685   0.090   1.962
 1451SOL    HW2 5253   1.668   6.971   1.878
 1452SOL     OW 5254   4.890   0.837   4.361
 1452SOL    HW1 5255   4.932   0.836   4.270
 1452SOL    HW2 5256   4.812   0.774   4.363
 1453SOL     OW 5257   0.029   4.313   5.548
 1453SOL    HW1 5258   7.013   4.251   5.616
 1453SOL    HW2 5259   0.037   4.405   5.587
 1454SOL     OW 5260   0.372   3.416   2.200
 1454SOL    HW1 5261   0.389   3.319   2.185
 1454SOL    HW2 5262   0.371   3.464   2.112
 1455SOL     OW 5263   0.913   1.123   1.412
 1455SOL    HW1 5264   0.890   1.029   1.387
 1455SOL    HW2 5265   0.976   1.123   1.489
 1456SOL     OW 5266   6.719   6.389   5.264
 1456SOL    HW1 5267   6.638   6.415   5.212
 1456SOL    HW2 5268   6.755   6.469   5.313
 1457SOL     OW 5269   1.352   6.674   1.629
 1457SOL    HW1 5270   1.388   6.597   1.576
 1457SOL    HW2 5271   1.254   6.660   1.645
 1458SOL     OW 5272   5.622   5.919   3.593
 1458SOL    HW1 5273   5.667   5.852   3.651
 1458SOL    HW2 5274   5.679   5.937   3.513
 1459SOL     OW 5275   2.966   5.553   5.934
 1459SOL    HW1 5276   2.998   5.506   5.851
 1459SOL    HW2 5277   3.002   5.506   6.014
 1460SOL     OW 5278   0.914   6.244   4.864
 1460SOL    HW1 5279   0.880   6.187   4.789
 1460SOL    HW2 5280   0.988   6.197   4.911
 1461SOL     OW 5281   6.706   5.070   2.955
 1461SOL    HW1 5282   6.785   5.113   2.911
 1461SOL    HW2 5283   6.702   5.096   3.051
 1462SOL     OW 5284   1.587   6.997   6.803
 1462SOL    HW1 5285   1.664   6.946   6.764
 1462SOL    HW2 5286   1.519   7.015   6.732
 1463SOL     OW 5287   6.863   5.614   6.262
 1463SOL    HW1 5288   6.810   5.668   6.327
 1463SOL    HW2 5289   6.961   5.635   6.274
 1464SOL     OW 5290   0.149   6.862   1.447
 1464SOL    HW1 5291   0.123   6.912   1.364
 1464SOL    HW2 5292   0.246   6.842   1.445
 1465SOL     OW 5293   1.580   1.004   3.222
 1465SOL    HW1 5294   1.659   1.051   3.184
 1465SOL    HW2 5295   1.544   0.938   3.155
 1466SOL     OW 5296   1.793   2.109   2.098
 1466SOL    HW1 5297   1.805   2.114   1.998
 1466SOL    HW2 5298   1.729   2.180   2.127
 1467SOL     OW 5299   1.918   1.279   2.806
 1467SOL    HW1 5300   1.953   1.307   2.717
 1467SOL    HW2 5301   1.994   1.267   2.870
 1468SOL     OW 5302   4.222   6.188   2.226
 1468SOL    HW1 5303   4.322   6.182   2.235
 1468SOL    HW2 5304   4.195   6.284   2.216
 1469SOL     OW 5305   0.950   1.938   1.520
 1469SOL    HW1 5306   0.934   2.036   1.532
 1469SOL    HW2 5307   0.864   1.894   1.496
 1470SOL     OW 5308   0.953   2.118   2.664
 1470SOL    HW1 5309   0.938   2.161   2.575
 1470SOL    HW2 5310   0.867   2.116   2.715
 1471SOL     OW 5311   0.803   0.366   1.103
 1471SOL    HW1 5312   0.782   0.333   1.195
 1471SOL    HW2 5313   0.853   0.453   1.110
 1472SOL     OW 5314   3.750   5.353   6.075
 1472SOL    HW1 5315   3.677   5.422   6.067
 1472SOL    HW2 5316   3.836   5.398   6.100
 1473SOL     OW 5317   4.323   6.266   5.037
 1473SOL    HW1 5318   4.325   6.171   5.005
 1473SOL    HW2 5319   4.272   6.271   5.123
 1474SOL     OW 5320   5.429   5.152   2.366
 1474SOL    HW1 5321   5.483   5.088   2.420
 1474SOL    HW2 5322   5.464   5.244   2.378
 1475SOL     OW 5323   6.121   0.464   2.213
 1475SOL    HW1 5324   6.179   0.403   2.267
 1475SOL    HW2 5325   6.036   0.416   2.190
 1476SOL     OW 5326   2.953   0.864   1.060
 1476SOL    HW1 5327   2.892   0.937   1.029
 1476SOL    HW2 5328   2.930   0.839   1.154
 1477SOL     OW 5329   3.894   0.112   6.007
 1477SOL    HW1 5330   3.816   0.091   6.066
 1477SOL    HW2 5331   3.936   0.198   6.037
 1478SOL     OW 5332   6.061   5.766   6.342
 1478SOL    HW1 5333   6.056   5.670   6.372
 1478SOL    HW2 5334   6.140   5.810   6.386
 1479SOL     OW 5335   1.622   2.580   0.133
 1479SOL    HW1 5336   1.560   2.594   0.055
 1479SOL    HW2 5337   1.633   2.666   0.182
 1480SOL     OW 5338   3.220   0.689   5.204
 1480SOL    HW1 5339   3.214   0.771   5.147
 1480SOL    HW2 5340   3.307   0.689   5.253
 1481SOL     OW 5341   6.709   2.958   5.692
 1481SOL    HW1 5342   6.791   2.917   5.652
 1481SOL    HW2 5343   6.633   2.893   5.684
 1482SOL     OW 5344   4.640   1.870   1.447
 1482SOL    HW1 5345   4.726   1.904   1.409
 1482SOL    HW2 5346   4.634   1.897   1.543
 1483SOL     OW 5347   5.198   1.810   0.320
 1483SOL    HW1 5348   5.175   1.867   0.240
 1483SOL    HW2 5349   5.176   1.715   0.300
 1484SOL     OW 5350   5.468   4.222   4.709
 1484SOL    HW1 5351   5.553   4.179   4.682
 1484SOL    HW2 5352   5.476   4.321   4.700
 1485SOL     OW 5353   3.755   1.796   3.291
 1485SOL    HW1 5354   3.762   1.839   3.201
 1485SOL    HW2 5355   3.845   1.768   3.322
 1486SOL     OW 5356   5.151   1.648   2.278
 1486SOL    HW1 5357   5.060   1.685   2.299
 1486SOL    HW2 5358   5.209   1.654   2.360
 1487SOL     OW 5359   6.871   2.522   6.396
 1487SOL    HW1 5360   6.859   2.550   6.300
 1487SOL    HW2 5361   6.895   2.425   6.400
 1488SOL     OW 5362   5.098   1.166   3.762
 1488SOL    HW1 5363   5.107   1.138   3.667
 1488SOL    HW2 5364   5.139   1.256   3.775
 1489SOL     OW 5365   4.651   5.081   5.178
 1489SOL    HW1 5366   4.644   5.121   5.269
 1489SOL    HW2 5367   4.743   5.045   5.163
 1490SOL     OW 5368   0.820   3.169   2.431
 1490SOL    HW1 5369   0.822   3.071   2.414
 1490SOL    HW2 5370   0.771   3.215   2.357
 1491SOL     OW 5371   6.770   3.824   2.695
 1491SOL    HW1 5372   6.807   3.886   2.625
 1491SOL    HW2 5373   6.671   3.840   2.704
 1492SOL     OW 5374   5.699   0.919   2.690
 1492SOL    HW1 5375   5.758   0.989   2.730
 1492SOL    HW2 5376   5.619   0.961   2.649
 1493SOL     OW 5377   3.904   6.063   5.202
 1493SOL    HW1 5378   3.947   6.085   5.115
 1493SOL    HW2 5379   3.961   6.096   5.277
 1494SOL     OW 5380   4.786   2.065   6.921
 1494SOL    HW1 5381   4.832   2.074   7.010
 1494SOL    HW2 5382   4.832   1.994   6.867
 1495SOL     OW 5383   6.311   3.359   5.084
 1495SOL    HW1 5384   6.364   3.352   5.169
 1495SOL    HW2 5385   6.291   3.268   5.049
 1496SOL     OW 5386   0.502   1.635   1.396
 1496SOL    HW1 5387   0.449   1.716   1.372
 1496SOL    HW2 5388   0.506   1.573   1.318
 1497SOL     OW 5389   6.357   3.083   2.823
 1497SOL    HW1 5390   6.430   3.028   2.781
 1497SOL    HW2 5391   6.329   3.155   2.760
 1498SOL     OW 5392   2.592   5.228   6.940
 1498SOL    HW1 5393   2.553   5.320   6.935
 1498SOL    HW2 5394   2.682   5.227   6.897
 1499SOL     OW 5395   0.876   2.817   6.173
 1499SOL    HW1 5396   0.858   2.818   6.271
 1499SOL    HW2 5397   0.802   2.863   6.124
 1500SOL     OW 5398   0.015   0.084   0.282
 1500SOL    HW1 5399   6.944   0.046   0.301
 1500SOL    HW2 5400   0.006   0.163   0.222
 1501SOL     OW 5401   5.376   2.535   6.827
 1501SOL    HW1 5402   5.439   2.569   6.757
 1501SOL    HW2 5403   5.288   2.582   6.819
 1502SOL     OW 5404   4.193   7.016   0.119
 1502SOL    HW1 5405   4.122   6.984   0.182
 1502SOL    HW2 5406   4.213   0.092   0.138
 1503SOL     OW 5407   0.316   3.977   1.708
 1503SOL    HW1 5408   0.244   3.977   1.637
 1503SOL    HW2 5409   0.304   3.897   1.767
 1504SOL     OW 5410   0.587   0.224   5.528
 1504SOL    HW1 5411   0.529   0.144   5.515
 1504SOL    HW2 5412   0.682   0.201   5.510
 1505SOL     OW 5413   5.219   0.874   5.162
 1505SOL    HW1 5414   5.252   0.932   5.087
 1505SOL    HW2 5415   5.177   0.792   5.125
 1506SOL     OW 5416   0.729   6.346   0.819
 1506SOL    HW1 5417   0.733   6.431   0.871
 1506SOL    HW2 5418   0.643   6.299   0.839
 1507SOL     OW 5419   0.937   2.023   5.530
 1507SOL    HW1 5420   0.926   1.924   5.541
 1507SOL    HW2 5421   0.982   2.042   5.443
 1508SOL     OW 5422   6.728   1.365   1.740
 1508SOL    HW1 5423   6.704   1.269   1.757
 1508SOL    HW2 5424   6.750   1.377   1.644
 1509SOL     OW 5425   3.481   1.430   6.104
 1509SOL    HW1 5426   3.459   1.525   6.128
 1509SOL    HW2 5427   3.426   1.402   6.026
 1510SOL     OW 5428   4.845   1.881   4.586
 1510SOL    HW1 5429   4.900   1.820   4.527
 1510SOL    HW2 5430   4.888   1.971   4.589
 1511SOL     OW 5431   3.894   2.951   2.263
 1511SOL    HW1 5432   3.891   2.910   2.354
 1511SOL    HW2 5433   3.810   2.930   2.214
 1512SOL     OW 5434   0.341   5.696   1.744
 1512SOL    HW1 5435   0.359   5.639   1.824
 1512SOL    HW2 5436   0.301   5.783   1.773
 1513SOL     OW 5437   3.788   0.965   4.374
 1513SOL    HW1 5438   3.696   0.956   4.336
 1513SOL    HW2 5439   3.794   0.914   4.460
 1514SOL     OW 5440   4.239   1.996   5.713
 1514SOL    HW1 5441   4.288   2.083   5.724
 1514SOL    HW2 5442   4.167   1.990   5.782
 1515SOL     OW 5443   6.157   2.137   3.122
 1515SOL    HW1 5444   6.127   2.062   3.181
 1515SOL    HW2 5445   6.135   2.224   3.165
 1516SOL     OW 5446   6.925   6.383   0.220
 1516SOL    HW1 5447   0.001   6.393   0.244
 1516SOL    HW2 5448   6.910   6.294   0.177
 1517SOL     OW 5449   4.483   6.114   3.124
 1517SOL    HW1 5450   4.425   6.181   3.169
 1517SOL    HW2 5451   4.571   6.108   3.171
 1518SOL     OW 5452   1.363   3.029   6.758
 1518SOL    HW1 5453   1.431   2.962   6.728
 1518SOL    HW2 5454   1.397   3.077   6.838
 1519SOL     OW 5455   6.722   5.349   1.300
 1519SOL    HW1 5456   6.684   5.291   1.228
 1519SOL    HW2 5457   6.675   5.331   1.386
 1520SOL     OW 5458   0.504   4.102   2.042
 1520SOL    HW1 5459   0.414   4.121   2.003
 1520SOL    HW2 5460   0.573   4.101   1.970
 1521SOL     OW 5461   1.888   3.972   6.099
 1521SOL    HW1 5462   1.891   4.072   6.094
 1521SOL    HW2 5463   1.950   3.939   6.169
 1522SOL     OW 5464   6.312   6.293   5.289
 1522SOL    HW1 5465   6.334   6.345   5.206
 1522SOL    HW2 5466   6.231   6.236   5.272
 1523SOL     OW 5467   4.958   5.956   1.124
 1523SOL    HW1 5468   4.987   6.019   1.196
 1523SOL    HW2 5469   5.012   5.872   1.130
 1524SOL     OW 5470   2.335   1.997   2.150
 1524SOL    HW1 5471   2.299   2.064   2.216
 1524SOL    HW2 5472   2.380   2.046   2.075
 1525SOL     OW 5473   6.873   2.474   0.041
 1525SOL    HW1 5474   6.954   2.418   0.021
 1525SOL    HW2 5475   6.864   2.485   0.140
 1526SOL     OW 5476   6.421   0.185   6.328
 1526SOL    HW1 5477   6.328   0.158   6.352
 1526SOL    HW2 5478   6.486   0.145   6.394
 1527SOL     OW 5479   3.932   0.639   5.541
 1527SOL    HW1 5480   3.945   0.713   5.607
 1527SOL    HW2 5481   3.999   0.567   5.557
 1528SOL     OW 5482   4.696   5.402   2.141
 1528SOL    HW1 5483   4.615   5.458   2.121
 1528SOL    HW2 5484   4.678   5.344   2.220
 1529SOL     OW 5485   3.440   0.371   0.205
 1529SOL    HW1 5486   3.405   0.465   0.205
 1529SOL    HW2 5487   3.472   0.347   0.296
 1530SOL     OW 5488   3.436   1.668   1.881
 1530SOL    HW1 5489   3.444   1.589   1.942
 1530SOL    HW2 5490   3.364   1.729   1.914
 1531SOL     OW 5491   4.514   1.035   5.078
 1531SOL    HW1 5492   4.555   1.015   4.989
 1531SOL    HW2 5493   4.512   0.951   5.133
 1532SOL     OW 5494   2.661   3.600   6.334
 1532SOL    HW1 5495   2.659   3.623   6.237
 1532SOL    HW2 5496   2.726   3.660   6.381
 1533SOL     OW 5497   5.866   3.831   6.722
 1533SOL    HW1 5498   5.900   3.747   6.679
 1533SOL    HW2 5499   5.901   3.837   6.815
 1534SOL     OW 5500   2.428   4.685   6.482
 1534SOL    HW1 5501   2.394   4.605   6.432
 1534SOL    HW2 5502   2.379   4.767   6.451
 1535SOL     OW 5503   5.015   6.610   3.815
 1535SOL    HW1 5504   5.094   6.549   3.823
 1535SOL    HW2 5505   4.950   6.572   3.749
 1536SOL     OW 5506   4.070   4.369   5.338
 1536SOL    HW1 5507   4.133   4.407   5.270
 1536SOL    HW2 5508   3.976   4.377   5.305
 1537SOL     OW 5509   4.539   6.718   3.665
 1537SOL    HW1 5510   4.475   6.731   3.589
 1537SOL    HW2 5511   4.492   6.668   3.738
 1538SOL     OW 5512   4.157   5.653   6.449
 1538SOL    HW1 5513   4.232   5.607   6.496
 1538SOL    HW2 5514   4.186   5.679   6.356
 1539SOL     OW 5515   4.195   3.831   1.930
 1539SOL    HW1 5516   4.105   3.858   1.897
 1539SOL    HW2 5517   4.264   3.894   1.894
 1540SOL     OW 5518   1.333   5.811   6.276
 1540SOL    HW1 5519   1.405   5.751   6.243
 1540SOL    HW2 5520   1.244   5.768   6.262
 1541SOL     OW 5521   4.057   3.315   3.249
 1541SOL    HW1 5522   4.156   3.324   3.245
 1541SOL    HW2 5523   4.029   3.235   3.196
 1542SOL     OW 5524   5.785   5.979   2.450
 1542SOL    HW1 5525   5.779   5.894   2.501
 1542SOL    HW2 5526   5.713   6.042   2.480
 1543SOL     OW 5527   3.700   4.671   5.330
 1543SOL    HW1 5528   3.697   4.575   5.360
 1543SOL    HW2 5529   3.723   4.729   5.408
 1544SOL     OW 5530   3.507   3.375   3.061
 1544SOL    HW1 5531   3.476   3.421   2.977
 1544SOL    HW2 5532   3.567   3.299   3.036
 1545SOL     OW 5533   4.925   1.061   3.955
 1545SOL    HW1 5534   4.991   1.090   3.887
 1545SOL    HW2 5535   4.886   1.141   4.001
 1546SOL     OW 5536   3.833   6.039   6.030
 1546SOL    HW1 5537   3.852   6.034   5.932
 1546SOL    HW2 5538   3.752   6.096   6.046
 1547SOL     OW 5539   1.229   3.511   3.005
 1547SOL    HW1 5540   1.146   3.457   3.017
 1547SOL    HW2 5541   1.261   3.503   2.910
 1548SOL     OW 5542   4.747   3.567   5.796
 1548SOL    HW1 5543   4.730   3.513   5.713
 1548SOL    HW2 5544   4.690   3.649   5.794
 1549SOL     OW 5545   5.043   1.429   2.465
 1549SOL    HW1 5546   5.011   1.350   2.517
 1549SOL    HW2 5547   5.094   1.396   2.384
 1550SOL     OW 5548   3.109   4.236   6.872
 1550SOL    HW1 5549   3.206   4.223   6.852
 1550SOL    HW2 5550   3.098   4.263   6.968
 1551SOL     OW 5551   1.866   4.554   6.126
 1551SOL    HW1 5552   1.906   4.582   6.213
 1551SOL    HW2 5553   1.931   4.572   6.052
 1552SOL     OW 5554   0.368   6.119   6.534
 1552SOL    HW1 5555   0.371   6.213   6.567
 1552SOL    HW2 5556   0.433   6.064   6.586
 1553SOL     OW 5557   0.316   1.315   5.612
 1553SOL    HW1 5558   0.276   1.225   5.630
 1553SOL    HW2 5559   0.284   1.349   5.523
 1554SOL     OW 5560   4.478   1.582   3.133
 1554SOL    HW1 5561   4.512   1.675   3.151
 1554SOL    HW2 5562   4.555   1.519   3.123
 1555SOL     OW 5563   5.301   2.187   0.045
 1555SOL    HW1 5564   5.376   2.177   0.110
 1555SOL    HW2 5565   5.332   2.237   6.985
 1556SOL     OW 5566   3.204   0.890   0.908
 1556SOL    HW1 5567   3.291   0.912   0.952
 1556SOL    HW2 5568   3.133   0.880   0.978
 1557SOL     OW 5569   1.721   0.781   6.119
 1557SOL    HW1 5570   1.643   0.844   6.120
 1557SOL    HW2 5571   1.796   0.823   6.068
 1558SOL     OW 5572   5.235   0.410   4.778
 1558SOL    HW1 5573   5.286   0.483   4.732
 1558SOL    HW2 5574   5.247   0.417   4.877
 1559SOL     OW 5575   6.994   2.627   6.860
 1559SOL    HW1 5576   6.957   2.568   6.932
 1559SOL    HW2 5577   7.011   2.718   6.898
 1560SOL     OW 5578   1.941   1.462   5.682
 1560SOL    HW1 5579   2.019   1.496   5.630
 1560SOL    HW2 5580   1.921   1.524   5.758
 1561SOL     OW 5581   5.951   6.330   4.530
 1561SOL    HW1 5582   5.994   6.264   4.592
 1561SOL    HW2 5583   5.952   6.294   4.437
 1562SOL     OW 5584   4.135   5.796   2.589
 1562SOL    HW1 5585   4.147   5.729   2.663
 1562SOL    HW2 5586   4.079   5.755   2.517
 1563SOL     OW 5587   1.940   0.391   6.306
 1563SOL    HW1 5588   1.866   0.330   6.335
 1563SOL    HW2 5589   1.943   0.394   6.206
 1564SOL     OW 5590   1.363   3.085   2.819
 1564SOL    HW1 5591   1.409   3.055   2.735
 1564SOL    HW2 5592   1.284   3.141   2.795
 1565SOL     OW 5593   4.332   4.960   4.899
 1565SOL    HW1 5594   4.322   5.035   4.964
 1565SOL    HW2 5595   4.242   4.936   4.863
 1566SOL     OW 5596   5.005   4.999   3.623
 1566SOL    HW1 5597   4.985   5.094   3.600
 1566SOL    HW2 5598   5.003   4.987   3.722
 1567SOL     OW 5599   6.042   5.712   0.197
 1567SOL    HW1 5600   6.010   5.806   0.210
 1567SOL    HW2 5601   5.963   5.651   0.192
 1568SOL     OW 5602   1.623   5.759   1.551
 1568SOL    HW1 5603   1.710   5.802   1.525
 1568SOL    HW2 5604   1.642   5.671   1.595
 1569SOL     OW 5605   3.662   6.385   3.650
 1569SOL    HW1 5606   3.725   6.309   3.635
 1569SOL    HW2 5607   3.621   6.377   3.741
 1570SOL     OW 5608   2.005   6.426   1.064
 1570SOL    HW1 5609   1.924   6.463   1.018
 1570SOL    HW2 5610   2.074   6.401   0.996
 1571SOL     OW 5611   6.005   1.412   1.939
 1571SOL    HW1 5612   5.912   1.420   1.975
 1571SOL    HW2 5613   6.063   1.483   1.980
 1572SOL     OW 5614   0.348   6.791   0.589
 1572SOL    HW1 5615   0.369   6.699   0.554
 1572SOL    HW2 5616   0.341   6.855   0.512
 1573SOL     OW 5617   6.160   3.537   1.954
 1573SOL    HW1 5618   6.251   3.569   1.981
 1573SOL    HW2 5619   6.098   3.546   2.032
 1574SOL     OW 5620   0.442   0.885   2.695
 1574SOL    HW1 5621   0.476   0.802   2.651
 1574SOL    HW2 5622   0.449   0.876   2.794
 1575SOL     OW 5623   3.402   1.933   0.898
 1575SOL    HW1 5624   3.442   2.010   0.847
 1575SOL    HW2 5625   3.322   1.965   0.948
 1576SOL     OW 5626   1.016   0.492   3.348
 1576SOL    HW1 5627   0.995   0.408   3.297
 1576SOL    HW2 5628   1.097   0.477   3.405
 1577SOL     OW 5629   2.809   0.576   5.189
 1577SOL    HW1 5630   2.741   0.605   5.122
 1577SOL    HW2 5631   2.839   0.655   5.243
 1578SOL     OW 5632   5.955   2.603   5.785
 1578SOL    HW1 5633   5.984   2.651   5.868
 1578SOL    HW2 5634   5.930   2.670   5.715
 1579SOL     OW 5635   0.839   2.106   2.372
 1579SOL    HW1 5636   0.745   2.075   2.390
 1579SOL    HW2 5637   0.879   2.049   2.300
 1580SOL     OW 5638   3.097   4.033   4.058
 1580SOL    HW1 5639   3.108   3.998   3.965
 1580SOL    HW2 5640   3.185   4.067   4.091
 1581SOL     OW 5641   6.979   4.127   5.218
 1581SOL    HW1 5642   0.039   4.084   5.174
 1581SOL    HW2 5643   6.896   4.089   5.178
 1582SOL     OW 5644   2.056   0.101   4.257
 1582SOL    HW1 5645   2.005   0.043   4.194
 1582SOL    HW2 5646   2.036   0.074   4.352
 1583SOL     OW 5647   1.316   4.653   3.497
 1583SOL    HW1 5648   1.377   4.589   3.451
 1583SOL    HW2 5649   1.258   4.604   3.562
 1584SOL     OW 5650   1.452   6.251   5.986
 1584SOL    HW1 5651   1.380   6.319   5.973
 1584SOL    HW2 5652   1.428   6.193   6.065
 1585SOL     OW 5653   5.665   1.283   3.335
 1585SOL    HW1 5654   5.600   1.350   3.299
 1585SOL    HW2 5655   5.616   1.199   3.361
 1586SOL     OW 5656   3.608   4.889   2.160
 1586SOL    HW1 5657   3.612   4.811   2.098
 1586SOL    HW2 5658   3.523   4.885   2.214
 1587SOL     OW 5659   3.076   5.191   6.270
 1587SOL    HW1 5660   3.022   5.113   6.303
 1587SOL    HW2 5661   3.173   5.174   6.287
 1588SOL     OW 5662   4.190   0.968   3.114
 1588SOL    HW1 5663   4.278   0.934   3.082
 1588SOL    HW2 5664   4.204   1.046   3.174
 1589SOL     OW 5665   5.866   3.275   1.404
 1589SOL    HW1 5666   5.896   3.200   1.462
 1589SOL    HW2 5667   5.922   3.356   1.423
 1590SOL     OW 5668   3.890   6.050   5.763
 1590SOL    HW1 5669   3.982   6.038   5.727
 1590SOL    HW2 5670   3.834   5.970   5.739
 1591SOL     OW 5671   6.668   5.288   2.425
 1591SOL    HW1 5672   6.734   5.218   2.452
 1591SOL    HW2 5673   6.600   5.248   2.363
 1592SOL     OW 5674   2.236   4.516   6.336
 1592SOL    HW1 5675   2.142   4.549   6.339
 1592SOL    HW2 5676   2.251   4.449   6.408
 1593SOL     OW 5677   1.417   5.885   5.064
 1593SOL    HW1 5678   1.374   5.842   4.985
 1593SOL    HW2 5679   1.480   5.819   5.106
 1594SOL     OW 5680   0.164   6.320   2.160
 1594SOL    HW1 5681   0.082   6.375   2.144
 1594SOL    HW2 5682   0.137   6.229   2.192
 1595SOL     OW 5683   1.303   5.483   0.457
 1595SOL    HW1 5684   1.331   5.453   0.548
 1595SOL    HW2 5685   1.231   5.552   0.464
 1596SOL     OW 5686   0.279   2.391   3.931
 1596SOL    HW1 5687   0.212   2.411   3.859
 1596SOL    HW2 5688   0.347   2.327   3.896
 1597SOL     OW 5689   2.079   6.307   0.690
 1597SOL    HW1 5690   2.135   6.334   0.769
 1597SOL    HW2 5691   2.029   6.386   0.655
 1598SOL     OW 5692   0.902   3.773   6.214
 1598SOL    HW1 5693   0.959   3.816   6.145
 1598SOL    HW2 5694   0.879   3.840   6.285
 1599SOL     OW 5695   4.803   4.680   5.488
 1599SOL    HW1 5696   4.818   4.673   5.389
 1599SOL    HW2 5697   4.761   4.595   5.521
 1600SOL     OW 5698   4.424   1.712   3.624
 1600SOL    HW1 5699   4.400   1.681   3.716
 1600SOL    HW2 5700   4.371   1.793   3.601
 1601SOL     OW 5701   6.984   4.601   4.777
 1601SOL    HW1 5702   0.052   4.589   4.822
 1601SOL    HW2 5703   6.916   4.540   4.818
 1602SOL     OW 5704   3.395   4.893   3.260
 1602SOL    HW1 5705   3.323   4.883   3.329
 1602SOL    HW2 5706   3.358   4.873   3.170
 1603SOL     OW 5707   0.476   6.323   2.561
 1603SOL    HW1 5708   0.558   6.379   2.568
 1603SOL    HW2 5709   0.449   6.314   2.466
 1604SOL     OW 5710   5.654   5.353   1.612
 1604SOL    HW1 5711   5.579   5.292   1.638
 1604SOL    HW2 5712   5.693   5.321   1.525
 1605SOL     OW 5713   6.545   6.109   1.394
 1605SOL    HW1 5714   6.458   6.111   1.444
 1605SOL    HW2 5715   6.607   6.177   1.433
 1606SOL     OW 5716   3.160   0.720   4.851
 1606SOL    HW1 5717   3.169   0.702   4.753
 1606SOL    HW2 5718   3.130   0.814   4.866
 1607SOL     OW 5719   4.260   0.934   0.987
 1607SOL    HW1 5720   4.198   0.915   0.911
 1607SOL    HW2 5721   4.334   0.994   0.955
 1608SOL     OW 5722   0.836   0.386   3.638
 1608SOL    HW1 5723   0.846   0.330   3.556
 1608SOL    HW2 5724   0.822   0.326   3.717
 1609SOL     OW 5725   3.740   0.073   0.490
 1609SOL    HW1 5726   3.735   0.011   0.411
 1609SOL    HW2 5727   3.830   0.065   0.533
 1610SOL     OW 5728   5.724   4.783   6.844
 1610SOL    HW1 5729   5.624   4.791   6.848
 1610SOL    HW2 5730   5.750   4.687   6.852
 1611SOL     OW 5731   2.136   3.454   1.088
 1611SOL    HW1 5732   2.091   3.459   1.177
 1611SOL    HW2 5733   2.223   3.405   1.097
 1612SOL     OW 5734   2.846   0.466   5.766
 1612SOL    HW1 5735   2.755   0.506   5.776
 1612SOL    HW2 5736   2.866   0.451   5.669
 1613SOL     OW 5737   2.170   5.156   1.876
 1613SOL    HW1 5738   2.097   5.166   1.944
 1613SOL    HW2 5739   2.144   5.204   1.792
 1614SOL     OW 5740   5.953   3.277   7.000
 1614SOL    HW1 5741   5.910   3.358   0.020
 1614SOL    HW2 5742   5.926   3.196   0.032
 1615SOL     OW 5743   6.433   5.076   0.879
 1615SOL    HW1 5744   6.348   5.098   0.927
 1615SOL    HW2 5745   6.470   5.159   0.837
 1616SOL     OW 5746   3.065   0.963   4.880
 1616SOL    HW1 5747   3.027   1.044   4.836
 1616SOL    HW2 5748   3.088   0.986   4.975
 1617SOL     OW 5749   6.067   0.365   2.674
 1617SOL    HW1 5750   6.056   0.285   2.733
 1617SOL    HW2 5751   5.980   0.387   2.631
 1618SOL     OW 5752   1.935   3.877   1.569
 1618SOL    HW1 5753   1.892   3.906   1.655
 1618SOL    HW2 5754   1.992   3.951   1.534
 1619SOL     OW 5755   1.450   3.325   2.246
 1619SOL    HW1 5756   1.520   3.396   2.262
 1619SOL    HW2 5757   1.439   3.310   2.148
 1620SOL     OW 5758   2.752   4.883   1.958
 1620SOL    HW1 5759   2.767   4.931   1.872
 1620SOL    HW2 5760   2.801   4.795   1.955
 1621SOL     OW 5761   0.324   1.133   0.504
 1621SOL    HW1 5762   0.381   1.211   0.530
 1621SOL    HW2 5763   0.262   1.110   0.579
 1622SOL     OW 5764   0.194   2.991   4.990
 1622SOL    HW1 5765   0.101   3.024   5.007
 1622SOL    HW2 5766   0.231   3.035   4.908
 1623SOL     OW 5767   2.181   3.298   5.529
 1623SOL    HW1 5768   2.206   3.377   5.585
 1623SOL    HW2 5769   2.261   3.269   5.476
 1624SOL     OW 5770   2.678   0.358   5.047
 1624SOL    HW1 5771   2.734   0.380   5.127
 1624SOL    HW2 5772   2.614   0.433   5.030
 1625SOL     OW 5773   0.784   5.441   1.338
 1625SOL    HW1 5774   0.801   5.361   1.396
 1625SOL    HW2 5775   0.769   5.521   1.395
 1626SOL     OW 5776   4.159   1.842   6.950
 1626SOL    HW1 5777   4.252   1.868   6.975
 1626SOL    HW2 5778   4.160   1.755   6.901
 1627SOL     OW 5779   0.319   3.410   3.730
 1627SOL    HW1 5780   0.330   3.462   3.815
 1627SOL    HW2 5781   0.251   3.338   3.744
 1628SOL     OW 5782   4.460   4.537   0.397
 1628SOL    HW1 5783   4.443   4.633   0.418
 1628SOL    HW2 5784   4.420   4.514   0.309
 1629SOL     OW 5785   2.780   0.604   4.224
 1629SOL    HW1 5786   2.874   0.611   4.190
 1629SOL    HW2 5787   2.726   0.680   4.188
 1630SOL     OW 5788   1.616   5.347   5.645
 1630SOL    HW1 5789   1.625   5.287   5.725
 1630SOL    HW2 5790   1.523   5.385   5.642
 1631SOL     OW 5791   1.035   2.651   6.386
 1631SOL    HW1 5792   1.051   2.638   6.288
 1631SOL    HW2 5793   1.102   2.717   6.422
 1632SOL     OW 5794   0.187   1.949   6.873
 1632SOL    HW1 5795   0.100   1.905   6.895
 1632SOL    HW2 5796   0.176   2.009   6.794
 1633SOL     OW 5797   5.247   3.319   4.560
 1633SOL    HW1 5798   5.205   3.325   4.651
 1633SOL    HW2 5799   5.343   3.346   4.566
 1634SOL     OW 5800   4.630   5.380   5.913
 1634SOL    HW1 5801   4.573   5.416   5.987
 1634SOL    HW2 5802   4.574   5.325   5.851
 1635SOL     OW 5803   6.853   5.797   5.689
 1635SOL    HW1 5804   6.902   5.859   5.751
 1635SOL    HW2 5805   6.755   5.806   5.705
 1636SOL     OW 5806   3.094   4.464   1.664
 1636SOL    HW1 5807   3.027   4.445   1.736
 1636SOL    HW2 5808   3.154   4.385   1.652
 1637SOL     OW 5809   0.857   0.319   2.766
 1637SOL    HW1 5810   0.881   0.273   2.852
 1637SOL    HW2 5811   0.927   0.388   2.746
 1638SOL     OW 5812   0.691   4.477   3.422
 1638SOL    HW1 5813   0.777   4.427   3.408
 1638SOL    HW2 5814   0.707   4.553   3.484
 1639SOL     OW 5815   4.792   6.928   2.902
 1639SOL    HW1 5816   4.884   6.961   2.879
 1639SOL    HW2 5817   4.726   7.002   2.889
 1640SOL     OW 5818   5.836   0.873   0.440
 1640SOL    HW1 5819   5.781   0.853   0.521
 1640SOL    HW2 5820   5.776   0.884   0.360
 1641SOL     OW 5821   4.730   2.755   3.788
 1641SOL    HW1 5822   4.667   2.730   3.862
 1641SOL    HW2 5823   4.703   2.707   3.704
 1642SOL     OW 5824   5.601   3.482   6.572
 1642SOL    HW1 5825   5.613   3.394   6.526
 1642SOL    HW2 5826   5.573   3.466   6.667
 1643SOL     OW 5827   3.137   4.857   4.152
 1643SOL    HW1 5828   3.214   4.803   4.119
 1643SOL    HW2 5829   3.058   4.843   4.092
 1644SOL     OW 5830   7.015   3.116   1.013
 1644SOL    HW1 5831   0.010   3.053   1.088
 1644SOL    HW2 5832   0.082   3.158   0.986
 1645SOL     OW 5833   3.393   5.579   5.481
 1645SOL    HW1 5834   3.339   5.500   5.509
 1645SOL    HW2 5835   3.351   5.623   5.402
 1646SOL     OW 5836   3.056   5.645   0.470
 1646SOL    HW1 5837   2.965   5.651   0.429
 1646SOL    HW2 5838   3.062   5.709   0.546
 1647SOL     OW 5839   6.059   3.266   4.828
 1647SOL    HW1 5840   6.156   3.252   4.809
 1647SOL    HW2 5841   6.005   3.202   4.774
 1648SOL     OW 5842   5.769   5.385   1.086
 1648SOL    HW1 5843   5.822   5.301   1.083
 1648SOL    HW2 5844   5.820   5.458   1.039
 1649SOL     OW 5845   3.137   0.438   4.395
 1649SOL    HW1 5846   3.153   0.493   4.314
 1649SOL    HW2 5847   3.205   0.365   4.399
 1650SOL     OW 5848   1.933   6.172   5.397
 1650SOL    HW1 5849   1.990   6.128   5.467
 1650SOL    HW2 5850   1.918   6.268   5.421
 1651SOL     OW 5851   0.409   1.881   1.057
 1651SOL    HW1 5852   0.457   1.795   1.036
 1651SOL    HW2 5853   0.413   1.941   0.977
 1652SOL     OW 5854   0.977   3.539   2.642
 1652SOL    HW1 5855   0.912   3.590   2.586
 1652SOL    HW2 5856   0.955   3.442   2.639
 1653SOL     OW 5857   1.475   0.366   0.986
 1653SOL    HW1 5858   1.409   0.310   1.036
 1653SOL    HW2 5859   1.468   0.461   1.016
 1654SOL     OW 5860   6.593   3.663   1.304
 1654SOL    HW1 5861   6.526   3.684   1.376
 1654SOL    HW2 5862   6.553   3.685   1.215
 1655SOL     OW 5863   6.230   2.262   5.021
 1655SOL    HW1 5864   6.238   2.163   5.036
 1655SOL    HW2 5865   6.319   2.298   4.993
 1656SOL     OW 5866   2.483   4.553   1.726
 1656SOL    HW1 5867   2.397   4.527   1.770
 1656SOL    HW2 5868   2.483   4.652   1.709
 1657SOL     OW 5869   6.652   1.085   3.980
 1657SOL    HW1 5870   6.599   1.170   3.987
 1657SOL    HW2 5871   6.715   1.092   3.903
 1658SOL     OW 5872   1.240   0.017   1.377
 1658SOL    HW1 5873   1.152   0.060   1.356
 1658SOL    HW2 5874   1.270   0.045   1.468
 1659SOL     OW 5875   3.764   0.418   5.936
 1659SOL    HW1 5876   3.857   0.429   5.900
 1659SOL    HW2 5877   3.768   0.366   6.021
 1660SOL     OW 5878   1.452   5.347   4.424
 1660SOL    HW1 5879   1.400   5.302   4.497
 1660SOL    HW2 5880   1.507   5.279   4.376
 1661SOL     OW 5881   2.183   0.917   1.732
 1661SOL    HW1 5882   2.108   0.965   1.777
 1661SOL    HW2 5883   2.159   0.899   1.636
 1662SOL     OW 5884   6.663   0.006   4.026
 1662SOL    HW1 5885   6.579   0.011   3.973
 1662SOL    HW2 5886   6.684   6.931   4.047
 1663SOL     OW 5887   3.993   6.530   2.471
 1663SOL    HW1 5888   4.054   6.575   2.405
 1663SOL    HW2 5889   4.028   6.439   2.490
 1664SOL     OW 5890   1.949   6.708   4.653
 1664SOL    HW1 5891   1.914   6.684   4.744
 1664SOL    HW2 5892   2.014   6.783   4.661
 1665SOL     OW 5893   7.014   1.606   3.299
 1665SOL    HW1 5894   0.046   1.646   3.375
 1665SOL    HW2 5895   6.948   1.673   3.266
 1666SOL     OW 5896   5.615   2.759   0.116
 1666SOL    HW1 5897   5.684   2.714   0.060
 1666SOL    HW2 5898   5.532   2.704   0.118
 1667SOL     OW 5899   6.398   6.347   1.680
 1667SOL    HW1 5900   6.457   6.428   1.683
 1667SOL    HW2 5901   6.308   6.370   1.717
 1668SOL     OW 5902   5.580   6.376   5.746
 1668SOL    HW1 5903   5.671   6.413   5.761
 1668SOL    HW2 5904   5.523   6.392   5.826
 1669SOL     OW 5905   0.231   5.927   6.229
 1669SOL    HW1 5906   0.218   5.930   6.130
 1669SOL    HW2 5907   0.326   5.952   6.251
 1670SOL     OW 5908   0.568   3.962   6.247
 1670SOL    HW1 5909   0.596   4.045   6.198
 1670SOL    HW2 5910   0.645   3.930   6.302
 1671SOL     OW 5911   4.677   2.254   1.421
 1671SOL    HW1 5912   4.693   2.319   1.347
 1671SOL    HW2 5913   4.697   2.298   1.509
 1672SOL     OW 5914   1.794   2.957   0.817
 1672SOL    HW1 5915   1.750   3.032   0.867
 1672SOL    HW2 5916   1.771   2.870   0.861
 1673SOL     OW 5917   0.340   2.645   4.032
 1673SOL    HW1 5918   0.402   2.648   4.111
 1673SOL    HW2 5919   0.319   2.550   4.009
 1674SOL     OW 5920   0.363   4.099   2.308
 1674SOL    HW1 5921   0.433   4.087   2.237
 1674SOL    HW2 5922   0.408   4.128   2.393
 1675SOL     OW 5923   4.238   0.554   6.313
 1675SOL    HW1 5924   4.248   0.634   6.254
 1675SOL    HW2 5925   4.249   0.470   6.259
 1676SOL     OW 5926   2.015   1.900   1.905
 1676SOL    HW1 5927   1.941   1.940   1.851
 1676SOL    HW2 5928   2.102   1.938   1.874
 1677SOL     OW 5929   3.102   2.908   5.238
 1677SOL    HW1 5930   3.022   2.871   5.286
 1677SOL    HW2 5931   3.173   2.839   5.235
 1678SOL     OW 5932   4.563   4.748   4.591
 1678SOL    HW1 5933   4.555   4.768   4.688
 1678SOL    HW2 5934   4.472   4.732   4.552
 1679SOL     OW 5935   2.500   2.593   4.580
 1679SOL    HW1 5936   2.446   2.633   4.655
 1679SOL    HW2 5937   2.472   2.635   4.493
 1680SOL     OW 5938   6.977   3.634   4.687
 1680SOL    HW1 5939   6.957   3.682   4.602
 1680SOL    HW2 5940   6.892   3.603   4.728
 1681SOL     OW 5941   6.234   5.886   6.781
 1681SOL    HW1 5942   6.250   5.980   6.812
 1681SOL    HW2 5943   6.141   5.858   6.806
 1682SOL     OW 5944   0.453   1.522   4.706
 1682SOL    HW1 5945   0.426   1.460   4.632
 1682SOL    HW2 5946   0.548   1.551   4.693
 1683SOL     OW 5947   4.314   5.409   1.332
 1683SOL    HW1 5948   4.398   5.361   1.355
 1683SOL    HW2 5949   4.333   5.506   1.319
 1684SOL     OW 5950   1.288   6.198   2.589
 1684SOL    HW1 5951   1.376   6.166   2.555
 1684SOL    HW2 5952   1.302   6.274   2.652
 1685SOL     OW 5953   2.288   0.538   5.662
 1685SOL    HW1 5954   2.208   0.594   5.642
 1685SOL    HW2 5955   2.269   0.480   5.741
 1686SOL     OW 5956   2.485   5.399   4.655
 1686SOL    HW1 5957   2.529   5.423   4.569
 1686SOL    HW2 5958   2.542   5.333   4.705
 1687SOL     OW 5959   2.517   3.379   1.261
 1687SOL    HW1 5960   2.482   3.470   1.241
 1687SOL    HW2 5961   2.442   3.321   1.293
 1688SOL     OW 5962   1.718   2.516   4.701
 1688SOL    HW1 5963   1.774   2.466   4.634
 1688SOL    HW2 5964   1.641   2.459   4.729
 1689SOL     OW 5965   5.506   1.077   2.536
 1689SOL    HW1 5966   5.470   1.170   2.523
 1689SOL    HW2 5967   5.431   1.011   2.525
 1690SOL     OW 5968   1.770   3.009   3.679
 1690SOL    HW1 5969   1.833   3.052   3.613
 1690SOL    HW2 5970   1.813   3.006   3.769
 1691SOL     OW 5971   6.060   3.828   3.193
 1691SOL    HW1 5972   6.127   3.783   3.133
 1691SOL    HW2 5973   6.090   3.921   3.214
 1692SOL     OW 5974   5.701   0.068   1.739
 1692SOL    HW1 5975   5.649   0.134   1.792
 1692SOL    HW2 5976   5.688   0.085   1.641
 1693SOL     OW 5977   0.639   2.366   1.988
 1693SOL    HW1 5978   0.662   2.288   1.930
 1693SOL    HW2 5979   0.632   2.337   2.083
 1694SOL     OW 5980   5.307   0.464   3.097
 1694SOL    HW1 5981   5.373   0.398   3.061
 1694SOL    HW2 5982   5.223   0.416   3.123
 1695SOL     OW 5983   3.158   1.589   6.312
 1695SOL    HW1 5984   3.225   1.554   6.377
 1695SOL    HW2 5985   3.159   1.532   6.229
 1696SOL     OW 5986   4.869   4.356   0.736
 1696SOL    HW1 5987   4.951   4.410   0.716
 1696SOL    HW2 5988   4.833   4.380   0.826
 1697SOL     OW 5989   5.894   6.536   1.463
 1697SOL    HW1 5990   5.903   6.437   1.447
 1697SOL    HW2 5991   5.808   6.554   1.511
 1698SOL     OW 5992   4.300   0.838   7.017
 1698SOL    HW1 5993   4.361   0.877   6.947
 1698SOL    HW2 5994   4.236   0.775   6.974
 1699SOL     OW 5995   2.531   1.229   0.737
 1699SOL    HW1 5996   2.489   1.259   0.822
 1699SOL    HW2 5997   2.533   1.129   0.735
 1700SOL     OW 5998   5.426   2.307   2.848
 1700SOL    HW1 5999   5.509   2.356   2.877
 1700SOL    HW2 6000   5.449   2.245   2.773
 1701SOL     OW 6001   5.128   4.436   5.913
 1701SOL    HW1 6002   5.054   4.386   5.957
 1701SOL    HW2 6003   5.154   4.390   5.828
 1702SOL     OW 6004   0.112   2.981   0.128
 1702SOL    HW1 6005   0.143   2.925   0.204
 1702SOL    HW2 6006   0.182   3.050   0.106
 1703SOL     OW 6007   3.289   3.109   2.114
 1703SOL    HW1 6008   3.263   3.052   2.036
 1703SOL    HW2 6009   3.320   3.199   2.082
 1704SOL     OW 6010   0.901   2.600   1.172
 1704SOL    HW1 6011   0.843   2.605   1.253
 1704SOL    HW2 6012   0.846   2.622   1.091
 1705SOL     OW 6013   3.465   1.960   1.732
 1705SOL    HW1 6014   3.500   2.049   1.704
 1705SOL    HW2 6015   3.528   1.889   1.702
 1706SOL     OW 6016   4.972   1.171   1.658
 1706SOL    HW1 6017   4.897   1.216   1.610
 1706SOL    HW2 6018   4.946   1.077   1.681
 1707SOL     OW 6019   5.408   1.956   2.458
 1707SOL    HW1 6020   5.382   1.864   2.488
 1707SOL    HW2 6021   5.371   1.973   2.366
 1708SOL     OW 6022   5.115   5.170   2.282
 1708SOL    HW1 6023   5.049   5.217   2.341
 1708SOL    HW2 6024   5.205   5.170   2.326
 1709SOL     OW 6025   2.799   5.455   1.551
 1709SOL    HW1 6026   2.876   5.400   1.584
 1709SOL    HW2 6027   2.755   5.501   1.628
 1710SOL     OW 6028   5.224   5.192   3.923
 1710SOL    HW1 6029   5.295   5.253   3.957
 1710SOL    HW2 6030   5.142   5.201   3.979
 1711SOL     OW 6031   0.461   4.670   4.528
 1711SOL    HW1 6032   0.489   4.574   4.518
 1711SOL    HW2 6033   0.425   4.703   4.440
 1712SOL     OW 6034   0.142   3.231   5.726
 1712SOL    HW1 6035   0.173   3.321   5.757
 1712SOL    HW2 6036   0.188   3.207   5.641
 1713SOL     OW 6037   4.311   2.203   2.242
 1713SOL    HW1 6038   4.336   2.247   2.329
 1713SOL    HW2 6039   4.321   2.269   2.167
 1714SOL     OW 6040   3.569   2.045   5.619
 1714SOL    HW1 6041   3.497   2.095   5.570
 1714SOL    HW2 6042   3.535   2.019   5.710
 1715SOL     OW 6043   6.999   4.527   3.063
 1715SOL    HW1 6044   0.030   4.564   2.985
 1715SOL    HW2 6045   6.989   4.598   3.133
 1716SOL     OW 6046   4.433   6.823   2.965
 1716SOL    HW1 6047   4.466   6.812   2.871
 1716SOL    HW2 6048   4.361   6.892   2.967
 1717SOL     OW 6049   2.762   6.151   6.104
 1717SOL    HW1 6050   2.708   6.077   6.065
 1717SOL    HW2 6051   2.831   6.180   6.038
 1718SOL     OW 6052   2.389   2.458   1.700
 1718SOL    HW1 6053   2.468   2.462   1.762
 1718SOL    HW2 6054   2.318   2.519   1.734
 1719SOL     OW 6055   1.573   3.786   0.684
 1719SOL    HW1 6056   1.634   3.819   0.613
 1719SOL    HW2 6057   1.620   3.713   0.736
 1720SOL     OW 6058   0.592   2.663   0.103
 1720SOL    HW1 6059   0.500   2.660   0.064
 1720SOL    HW2 6060   0.657   2.696   0.034
 1721SOL     OW 6061   1.417   6.449   1.464
 1721SOL    HW1 6062   1.494   6.473   1.404
 1721SOL    HW2 6063   1.340   6.418   1.409
 1722SOL     OW 6064   4.195   2.284   4.234
 1722SOL    HW1 6065   4.123   2.218   4.214
 1722SOL    HW2 6066   4.213   2.340   4.153
 1723SOL     OW 6067   6.635   2.727   2.437
 1723SOL    HW1 6068   6.597   2.810   2.477
 1723SOL    HW2 6069   6.566   2.680   2.384
 1724SOL     OW 6070   6.460   2.383   0.561
 1724SOL    HW1 6071   6.516   2.323   0.505
 1724SOL    HW2 6072   6.427   2.334   0.642
 1725SOL     OW 6073   2.486   5.036   6.746
 1725SOL    HW1 6074   2.518   5.119   6.793
 1725SOL    HW2 6075   2.469   4.964   6.814
 1726SOL     OW 6076   5.068   4.567   5.546
 1726SOL    HW1 6077   5.142   4.501   5.558
 1726SOL    HW2 6078   5.007   4.536   5.473
 1727SOL     OW 6079   3.818   3.259   4.324
 1727SOL    HW1 6080   3.853   3.187   4.384
 1727SOL    HW2 6081   3.725   3.235   4.294
 1728SOL     OW 6082   4.975   4.911   5.459
 1728SOL    HW1 6083   4.978   4.982   5.529
 1728SOL    HW2 6084   4.921   4.833   5.492
 1729SOL     OW 6085   2.217   4.105   2.616
 1729SOL    HW1 6086   2.254   4.125   2.526
 1729SOL    HW2 6087   2.291   4.108   2.684
 1730SOL     OW 6088   1.221   6.978   5.807
 1730SOL    HW1 6089   1.214   0.027   5.879
 1730SOL    HW2 6090   1.317   6.950   5.798
 1731SOL     OW 6091   0.251   4.353   2.238
 1731SOL    HW1 6092   0.277   4.258   2.256
 1731SOL    HW2 6093   0.330   4.403   2.204
 1732SOL     OW 6094   2.901   4.542   5.624
 1732SOL    HW1 6095   2.882   4.631   5.583
 1732SOL    HW2 6096   2.881   4.470   5.557
 1733SOL     OW 6097   1.801   3.993   1.811
 1733SOL    HW1 6098   1.725   4.034   1.760
 1733SOL    HW2 6099   1.884   4.044   1.792
 1734SOL     OW 6100   4.837   3.229   1.494
 1734SOL    HW1 6101   4.840   3.129   1.497
 1734SOL    HW2 6102   4.890   3.261   1.415
 1735SOL     OW 6103   5.216   6.161   1.067
 1735SOL    HW1 6104   5.274   6.182   0.988
 1735SOL    HW2 6105   5.217   6.062   1.084
 1736SOL     OW 6106   3.846   2.832   1.042
 1736SOL    HW1 6107   3.907   2.862   1.115
 1736SOL    HW2 6108   3.817   2.738   1.059
 1737SOL     OW 6109   2.105   1.405   4.114
 1737SOL    HW1 6110   2.179   1.472   4.119
 1737SOL    HW2 6111   2.089   1.379   4.019
 1738SOL     OW 6112   1.938   2.067   3.898
 1738SOL    HW1 6113   1.990   2.064   3.983
 1738SOL    HW2 6114   1.988   2.017   3.827
 1739SOL     OW 6115   6.408   2.464   5.354
 1739SOL    HW1 6116   6.310   2.467   5.333
 1739SOL    HW2 6117   6.452   2.394   5.297
 1740SOL     OW 6118   6.476   1.828   5.656
 1740SOL    HW1 6119   6.556   1.880   5.625
 1740SOL    HW2 6120   6.404   1.891   5.685
 1741SOL     OW 6121   2.058   0.814   3.982
 1741SOL    HW1 6122   2.016   0.904   3.966
 1741SOL    HW2 6123   2.001   0.743   3.942
 1742SOL     OW 6124   5.408   0.729   6.392
 1742SOL    HW1 6125   5.384   0.784   6.313
 1742SOL    HW2 6126   5.447   0.642   6.362
 1743SOL     OW 6127   1.321   2.384   1.832
 1743SOL    HW1 6128   1.372   2.300   1.851
 1743SOL    HW2 6129   1.223   2.365   1.833
 1744SOL     OW 6130   0.459   1.626   2.143
 1744SOL    HW1 6131   0.547   1.581   2.160
 1744SOL    HW2 6132   0.386   1.558   2.151
 1745SOL     OW 6133   6.390   6.869   3.253
 1745SOL    HW1 6134   6.474   6.819   3.234
 1745SOL    HW2 6135   6.412   6.960   3.289
 1746SOL     OW 6136   2.174   5.117   4.887
 1746SOL    HW1 6137   2.147   5.122   4.983
 1746SOL    HW2 6138   2.215   5.028   4.868
 1747SOL     OW 6139   5.630   1.914   2.768
 1747SOL    HW1 6140   5.697   1.988   2.762
 1747SOL    HW2 6141   5.658   1.839   2.707
 1748SOL     OW 6142   1.084   0.644   4.643
 1748SOL    HW1 6143   1.025   0.695   4.706
 1748SOL    HW2 6144   1.180   0.669   4.661
 1749SOL     OW 6145   2.865   6.627   4.411
 1749SOL    HW1 6146   2.827   6.719   4.408
 1749SOL    HW2 6147   2.954   6.629   4.455
 1750SOL     OW 6148   5.972   0.277   3.887
 1750SOL    HW1 6149   5.956   0.207   3.818
 1750SOL    HW2 6150   5.945   0.366   3.851
 1751SOL     OW 6151   4.041   5.814   5.344
 1751SOL    HW1 6152   4.136   5.811   5.313
 1751SOL    HW2 6153   4.019   5.907   5.373
 1752SOL     OW 6154   6.822   2.294   1.468
 1752SOL    HW1 6155   6.788   2.369   1.525
 1752SOL    HW2 6156   6.748   2.259   1.410
 1753SOL     OW 6157   0.292   1.638   0.697
 1753SOL    HW1 6158   0.238   1.722   0.699
 1753SOL    HW2 6159   0.253   1.571   0.760
 1754SOL     OW 6160   2.376   3.899   1.119
 1754SOL    HW1 6161   2.330   3.897   1.208
 1754SOL    HW2 6162   2.421   3.987   1.106
 1755SOL     OW 6163   6.448   6.201   2.168
 1755SOL    HW1 6164   6.389   6.191   2.248
 1755SOL    HW2 6165   6.468   6.111   2.130
 1756SOL     OW 6166   4.319   5.321   6.470
 1756SOL    HW1 6167   4.327   5.367   6.559
 1756SOL    HW2 6168   4.408   5.282   6.446
 1757SOL     OW 6169   2.175   5.227   4.636
 1757SOL    HW1 6170   2.220   5.202   4.722
 1757SOL    HW2 6171   2.179   5.326   4.624
 1758SOL     OW 6172   1.759   0.428   3.978
 1758SOL    HW1 6173   1.808   0.476   3.906
 1758SOL    HW2 6174   1.709   0.351   3.939
 1759SOL     OW 6175   2.142   5.382   6.723
 1759SOL    HW1 6176   2.188   5.434   6.651
 1759SOL    HW2 6177   2.043   5.396   6.717
 1760SOL     OW 6178   5.956   1.576   2.479
 1760SOL    HW1 6179   6.041   1.629   2.474
 1760SOL    HW2 6180   5.907   1.599   2.563
 1761SOL     OW 6181   0.514   0.397   0.071
 1761SOL    HW1 6182   0.505   0.323   0.004
 1761SOL    HW2 6183   0.597   0.383   0.124
 1762SOL     OW 6184   0.282   1.900   4.875
 1762SOL    HW1 6185   0.260   1.974   4.811
 1762SOL    HW2 6186   0.298   1.938   4.966
 1763SOL     OW 6187   1.268   3.507   4.063
 1763SOL    HW1 6188   1.225   3.490   3.974
 1763SOL    HW2 6189   1.358   3.463   4.065
 1764SOL     OW 6190   2.087   3.667   2.188
 1764SOL    HW1 6191   2.128   3.597   2.129
 1764SOL    HW2 6192   2.082   3.754   2.139
 1765SOL     OW 6193   3.939   1.095   0.636
 1765SOL    HW1 6194   4.002   1.121   0.563
 1765SOL    HW2 6195   3.935   1.169   0.704
 1766SOL     OW 6196   4.865   3.226   2.808
 1766SOL    HW1 6197   4.774   3.228   2.767
 1766SOL    HW2 6198   4.916   3.307   2.778
 1767SOL     OW 6199   0.245   3.103   3.150
 1767SOL    HW1 6200   0.331   3.056   3.134
 1767SOL    HW2 6201   0.259   3.175   3.219
 1768SOL     OW 6202   3.942   1.458   5.560
 1768SOL    HW1 6203   3.957   1.516   5.480
 1768SOL    HW2 6204   4.030   1.420   5.590
 1769SOL     OW 6205   4.227   2.984   5.897
 1769SOL    HW1 6206   4.157   3.008   5.831
 1769SOL    HW2 6207   4.308   3.041   5.883
 1770SOL     OW 6208   6.640   5.159   4.813
 1770SOL    HW1 6209   6.607   5.252   4.796
 1770SOL    HW2 6210   6.654   5.112   4.727
 1771SOL     OW 6211   2.561   4.898   6.983
 1771SOL    HW1 6212   2.616   4.834   0.016
 1771SOL    HW2 6213   2.609   4.986   6.978
 1772SOL     OW 6214   3.700   6.719   3.140
 1772SOL    HW1 6215   3.622   6.670   3.178
 1772SOL    HW2 6216   3.785   6.682   3.178
 1773SOL     OW 6217   3.322   3.846   6.544
 1773SOL    HW1 6218   3.374   3.893   6.473
 1773SOL    HW2 6219   3.239   3.898   6.566
 1774SOL     OW 6220   4.294   0.501   1.724
 1774SOL    HW1 6221   4.356   0.577   1.705
 1774SOL    HW2 6222   4.289   0.440   1.645
 1775SOL     OW 6223   1.317   5.385   4.048
 1775SOL    HW1 6224   1.346   5.335   4.129
 1775SOL    HW2 6225   1.326   5.327   3.968
 1776SOL     OW 6226   3.453   0.644   5.651
 1776SOL    HW1 6227   3.542   0.602   5.634
 1776SOL    HW2 6228   3.421   0.619   5.743
 1777SOL     OW 6229   3.317   5.335   5.528
 1777SOL    HW1 6230   3.380   5.330   5.606
 1777SOL    HW2 6231   3.356   5.283   5.451
 1778SOL     OW 6232   4.481   2.056   4.900
 1778SOL    HW1 6233   4.415   2.009   4.957
 1778SOL    HW2 6234   4.476   2.154   4.916
 1779SOL     OW 6235   4.890   2.208   4.002
 1779SOL    HW1 6236   4.951   2.171   4.072
 1779SOL    HW2 6237   4.828   2.275   4.044
 1780SOL     OW 6238   2.678   4.611   5.782
 1780SOL    HW1 6239   2.766   4.584   5.742
 1780SOL    HW2 6240   2.659   4.706   5.760
 1781SOL     OW 6241   4.388   5.427   3.570
 1781SOL    HW1 6242   4.288   5.417   3.578
 1781SOL    HW2 6243   4.424   5.469   3.653
 1782SOL     OW 6244   2.924   1.562   3.057
 1782SOL    HW1 6245   2.941   1.655   3.090
 1782SOL    HW2 6246   3.000   1.503   3.084
 1783SOL     OW 6247   1.723   3.280   6.672
 1783SOL    HW1 6248   1.709   3.334   6.755
 1783SOL    HW2 6249   1.764   3.192   6.697
 1784SOL     OW 6250   2.892   0.638   3.614
 1784SOL    HW1 6251   2.821   0.576   3.649
 1784SOL    HW2 6252   2.970   0.638   3.676
 1785SOL     OW 6253   5.010   6.224   3.925
 1785SOL    HW1 6254   5.110   6.224   3.928
 1785SOL    HW2 6255   4.979   6.166   3.849
 1786SOL     OW 6256   1.431   3.093   0.668
 1786SOL    HW1 6257   1.365   3.143   0.612
 1786SOL    HW2 6258   1.457   3.008   0.622
 1787SOL     OW 6259   2.221   1.224   4.463
 1787SOL    HW1 6260   2.153   1.298   4.470
 1787SOL    HW2 6261   2.270   1.231   4.376
 1788SOL     OW 6262   2.914   3.193   0.385
 1788SOL    HW1 6263   2.876   3.181   0.293
 1788SOL    HW2 6264   3.013   3.186   0.381
 1789SOL     OW 6265   6.954   2.188   2.149
 1789SOL    HW1 6266   6.879   2.135   2.110
 1789SOL    HW2 6267   7.009   2.227   2.076
 1790SOL     OW 6268   3.895   5.946   4.344
 1790SOL    HW1 6269   3.969   5.918   4.406
 1790SOL    HW2 6270   3.816   5.976   4.398
 1791SOL     OW 6271   0.225   2.348   4.915
 1791SOL    HW1 6272   0.195   2.269   4.861
 1791SOL    HW2 6273   0.159   2.422   4.906
 1792SOL     OW 6274   0.761   2.790   4.043
 1792SOL    HW1 6275   0.850   2.828   4.017
 1792SOL    HW2 6276   0.770   2.691   4.057
 1793SOL     OW 6277   6.730   0.324   3.436
 1793SOL    HW1 6278   6.776   0.387   3.500
 1793SOL    HW2 6279   6.640   0.299   3.472
 1794SOL     OW 6280   5.178   6.207   6.611
 1794SOL    HW1 6281   5.094   6.191   6.560
 1794SOL    HW2 6282   5.244   6.253   6.552
 1795SOL     OW 6283   0.687   4.514   2.272
 1795SOL    HW1 6284   0.749   4.552   2.341
 1795SOL    HW2 6285   0.661   4.421   2.299
 1796SOL     OW 6286   1.880   1.448   4.865
 1796SOL    HW1 6287   1.910   1.530   4.913
 1796SOL    HW2 6288   1.781   1.453   4.849
 1797SOL     OW 6289   1.559   0.550   6.035
 1797SOL    HW1 6290   1.559   0.459   6.076
 1797SOL    HW2 6291   1.629   0.606   6.078
 1798SOL     OW 6292   4.559   2.748   5.623
 1798SOL    HW1 6293   4.527   2.813   5.553
 1798SOL    HW2 6294   4.480   2.701   5.663
 1799SOL     OW 6295   6.649   1.950   6.446
 1799SOL    HW1 6296   6.663   2.008   6.366
 1799SOL    HW2 6297   6.554   1.958   6.477
 1800SOL     OW 6298   4.470   5.176   3.485
 1800SOL    HW1 6299   4.447   5.273   3.479
 1800SOL    HW2 6300   4.557   5.160   3.439
 1801SOL     OW 6301   1.213   1.387   2.305
 1801SOL    HW1 6302   1.238   1.391   2.209
 1801SOL    HW2 6303   1.119   1.354   2.314
 1802SOL     OW 6304   5.594   5.221   3.043
 1802SOL    HW1 6305   5.682   5.179   3.023
 1802SOL    HW2 6306   5.544   5.165   3.109
 1803SOL     OW 6307   6.705   5.946   0.589
 1803SOL    HW1 6308   6.681   6.003   0.511
 1803SOL    HW2 6309   6.778   5.882   0.563
 1804SOL     OW 6310   2.503   3.222   6.019
 1804SOL    HW1 6311   2.555   3.268   6.091
 1804SOL    HW2 6312   2.536   3.251   5.930
 1805SOL     OW 6313   0.683   4.263   5.787
 1805SOL    HW1 6314   0.715   4.185   5.734
 1805SOL    HW2 6315   0.702   4.348   5.737
 1806SOL     OW 6316   1.362   0.882   1.364
 1806SOL    HW1 6317   1.397   0.941   1.435
 1806SOL    HW2 6318   1.438   0.843   1.311
 1807SOL     OW 6319   5.312   2.410   6.405
 1807SOL    HW1 6320   5.229   2.415   6.462
 1807SOL    HW2 6321   5.286   2.410   6.309
 1808SOL     OW 6322   6.152   3.710   4.942
 1808SOL    HW1 6323   6.078   3.777   4.946
 1808SOL    HW2 6324   6.138   3.640   5.012
 1809SOL     OW 6325   2.290   2.926   4.489
 1809SOL    HW1 6326   2.343   2.912   4.573
 1809SOL    HW2 6327   2.212   2.863   4.488
 1810SOL     OW 6328   2.498   0.149   5.715
 1810SOL    HW1 6329   2.441   0.176   5.793
 1810SOL    HW2 6330   2.502   0.224   5.650
 1811SOL     OW 6331   4.104   4.818   3.234
 1811SOL    HW1 6332   4.140   4.783   3.321
 1811SOL    HW2 6333   4.165   4.790   3.160
 1812SOL     OW 6334   4.477   0.284   6.039
 1812SOL    HW1 6335   4.470   0.199   6.092
 1812SOL    HW2 6336   4.572   0.298   6.011
 1813SOL     OW 6337   4.088   5.006   1.205
 1813SOL    HW1 6338   4.139   5.045   1.129
 1813SOL    HW2 6339   3.990   5.021   1.191
 1814SOL     OW 6340   6.877   0.367   6.821
 1814SOL    HW1 6341   6.836   0.415   6.899
 1814SOL    HW2 6342   6.917   0.433   6.758
 1815SOL     OW 6343   6.563   1.963   1.402
 1815SOL    HW1 6344   6.587   1.880   1.352
 1815SOL    HW2 6345   6.605   2.042   1.358
 1816SOL     OW 6346   1.794   4.131   0.864
 1816SOL    HW1 6347   1.759   4.225   0.863
 1816SOL    HW2 6348   1.891   4.132   0.889
 1817SOL     OW 6349   3.600   6.426   2.938
 1817SOL    HW1 6350   3.700   6.425   2.937
 1817SOL    HW2 6351   3.566   6.394   3.026
 1818SOL     OW 6352   2.372   5.831   1.961
 1818SOL    HW1 6353   2.334   5.740   1.975
 1818SOL    HW2 6354   2.362   5.885   2.044
 1819SOL     OW 6355   0.595   5.547   1.724
 1819SOL    HW1 6356   0.669   5.524   1.660
 1819SOL    HW2 6357   0.523   5.596   1.675
 1820SOL     OW 6358   2.409   0.805   2.295
 1820SOL    HW1 6359   2.440   0.739   2.228
 1820SOL    HW2 6360   2.424   0.769   2.387
 1821SOL     OW 6361   2.478   0.643   2.088
 1821SOL    HW1 6362   2.564   0.607   2.051
 1821SOL    HW2 6363   2.405   0.631   2.020
 1822SOL     OW 6364   1.460   3.606   1.285
 1822SOL    HW1 6365   1.551   3.583   1.249
 1822SOL    HW2 6366   1.439   3.546   1.362
 1823SOL     OW 6367   2.682   5.690   2.754
 1823SOL    HW1 6368   2.693   5.778   2.800
 1823SOL    HW2 6369   2.687   5.704   2.655
 1824SOL     OW 6370   3.289   3.602   1.427
 1824SOL    HW1 6371   3.268   3.591   1.524
 1824SOL    HW2 6372   3.217   3.655   1.383
 1825SOL     OW 6373   1.429   2.425   4.420
 1825SOL    HW1 6374   1.526   2.402   4.423
 1825SOL    HW2 6375   1.379   2.369   4.485
 1826SOL     OW 6376   3.388   0.737   1.282
 1826SOL    HW1 6377   3.360   0.709   1.374
 1826SOL    HW2 6378   3.450   0.668   1.244
 1827SOL     OW 6379   6.958   5.886   1.679
 1827SOL    HW1 6380   7.018   5.952   1.725
 1827SOL    HW2 6381   7.013   5.812   1.640
 1828SOL     OW 6382   1.317   2.429   0.447
 1828SOL    HW1 6383   1.315   2.421   0.347
 1828SOL    HW2 6384   1.236   2.385   0.486
 1829SOL     OW 6385   2.764   0.823   3.293
 1829SOL    HW1 6386   2.782   0.749   3.227
 1829SOL    HW2 6387   2.741   0.907   3.244
 1830SOL     OW 6388   5.994   6.458   3.723
 1830SOL    HW1 6389   6.063   6.463   3.651
 1830SOL    HW2 6390   5.904   6.439   3.684
 1831SOL     OW 6391   5.738   0.384   2.150
 1831SOL    HW1 6392   5.815   0.341   2.197
 1831SOL    HW2 6393   5.652   0.344   2.182
 1832SOL     OW 6394   4.528   1.441   1.371
 1832SOL    HW1 6395   4.515   1.505   1.447
 1832SOL    HW2 6396   4.609   1.469   1.318
 1833SOL     OW 6397   5.406   0.945   0.451
 1833SOL    HW1 6398   5.473   0.887   0.405
 1833SOL    HW2 6399   5.439   1.039   0.453
 1834SOL     OW 6400   2.738   3.311   0.714
 1834SOL    HW1 6401   2.700   3.313   0.621
 1834SOL    HW2 6402   2.696   3.235   0.764
 1835SOL     OW 6403   0.380   4.876   2.268
 1835SOL    HW1 6404   0.281   4.887   2.280
 1835SOL    HW2 6405   0.405   4.899   2.174
 1836SOL     OW 6406   5.204   1.848   1.610
 1836SOL    HW1 6407   5.149   1.772   1.645
 1836SOL    HW2 6408   5.287   1.811   1.567
 1837SOL     OW 6409   0.816   7.005   4.634
 1837SOL    HW1 6410   0.847   0.043   4.708
 1837SOL    HW2 6411   0.799   0.040   4.552
 1838SOL     OW 6412   6.710   1.191   4.834
 1838SOL    HW1 6413   6.623   1.202   4.882
 1838SOL    HW2 6414   6.697   1.133   4.754
 1839SOL     OW 6415   6.283   1.957   5.066
 1839SOL    HW1 6416   6.340   1.913   4.996
 1839SOL    HW2 6417   6.338   2.027   5.113
 1840SOL     OW 6418   4.025   0.089   1.456
 1840SOL    HW1 6419   3.934   0.054   1.480
 1840SOL    HW2 6420   4.019   0.188   1.442
 1841SOL     OW 6421   1.817   1.468   3.246
 1841SOL    HW1 6422   1.815   1.446   3.343
 1841SOL    HW2 6423   1.728   1.502   3.217
 1842SOL     OW 6424   1.881   5.944   0.291
 1842SOL    HW1 6425   1.969   5.959   0.338
 1842SOL    HW2 6426   1.862   6.023   0.232
 1843SOL     OW 6427   6.375   2.099   3.317
 1843SOL    HW1 6428   6.333   2.099   3.226
 1843SOL    HW2 6429   6.311   2.058   3.383
 1844SOL     OW 6430   3.372   6.520   5.256
 1844SOL    HW1 6431   3.372   6.592   5.325
 1844SOL    HW2 6432   3.322   6.441   5.290
 1845SOL     OW 6433   3.174   6.883   4.304
 1845SOL    HW1 6434   3.101   6.862   4.238
 1845SOL    HW2 6435   3.248   6.817   4.293
 1846SOL     OW 6436   3.543   1.555   1.662
 1846SOL    HW1 6437   3.496   1.603   1.589
 1846SOL    HW2 6438   3.509   1.587   1.751
 1847SOL     OW 6439   1.501   0.851   6.747
 1847SOL    HW1 6440   1.566   0.804   6.807
 1847SOL    HW2 6441   1.447   0.916   6.801
 1848SOL     OW 6442   1.663   5.717   3.813
 1848SOL    HW1 6443   1.667   5.661   3.731
 1848SOL    HW2 6444   1.667   5.814   3.788
 1849SOL     OW 6445   3.700   2.275   1.449
 1849SOL    HW1 6446   3.773   2.330   1.489
 1849SOL    HW2 6447   3.716   2.266   1.350
 1850SOL     OW 6448   0.260   2.999   1.940
 1850SOL    HW1 6449   0.207   3.057   2.001
 1850SOL    HW2 6450   0.268   2.907   1.978
 1851SOL     OW 6451   0.417   2.415   0.295
 1851SOL    HW1 6452   0.434   2.465   0.381
 1851SOL    HW2 6453   0.399   2.319   0.315
 1852SOL     OW 6454   6.665   4.385   2.684
 1852SOL    HW1 6455   6.658   4.452   2.758
 1852SOL    HW2 6456   6.671   4.293   2.724
 1853SOL     OW 6457   0.371   2.454   2.931
 1853SOL    HW1 6458   0.403   2.372   2.978
 1853SOL    HW2 6459   0.403   2.536   2.980
 1854SOL     OW 6460   2.398   5.850   2.901
 1854SOL    HW1 6461   2.497   5.855   2.916
 1854SOL    HW2 6462   2.366   5.759   2.927
 1855SOL     OW 6463   4.941   3.043   5.655
 1855SOL    HW1 6464   4.934   3.045   5.555
 1855SOL    HW2 6465   5.033   3.072   5.682
 1856SOL     OW 6466   6.071   4.298   5.749
 1856SOL    HW1 6467   6.152   4.239   5.740
 1856SOL    HW2 6468   6.029   4.284   5.839
 1857SOL     OW 6469   4.667   1.851   6.224
 1857SOL    HW1 6470   4.684   1.755   6.202
 1857SOL    HW2 6471   4.750   1.892   6.263
 1858SOL     OW 6472   5.683   4.052   3.889
 1858SOL    HW1 6473   5.699   4.019   3.983
 1858SOL    HW2 6474   5.764   4.033   3.834
 1859SOL     OW 6475   5.660   2.443   3.885
 1859SOL    HW1 6476   5.583   2.389   3.853
 1859SOL    HW2 6477   5.628   2.532   3.917
 1860SOL     OW 6478   0.130   0.685   5.602
 1860SOL    HW1 6479   0.103   0.617   5.534
 1860SOL    HW2 6480   0.068   0.763   5.598
 1861SOL     OW 6481   6.248   6.767   1.917
 1861SOL    HW1 6482   6.167   6.798   1.967
 1861SOL    HW2 6483   6.271   6.674   1.946
 1862SOL     OW 6484   3.671   0.165   6.179
 1862SOL    HW1 6485   3.583   0.124   6.152
 1862SOL    HW2 6486   3.654   0.246   6.235
 1863SOL     OW 6487   0.654   3.328   3.975
 1863SOL    HW1 6488   0.725   3.300   3.910
 1863SOL    HW2 6489   0.571   3.275   3.958
 1864SOL     OW 6490   1.630   6.837   4.667
 1864SOL    HW1 6491   1.648   6.886   4.581
 1864SOL    HW2 6492   1.716   6.821   4.714
 1865SOL     OW 6493   3.220   6.808   6.880
 1865SOL    HW1 6494   3.272   6.811   6.965
 1865SOL    HW2 6495   3.197   6.714   6.858
 1866SOL     OW 6496   4.775   4.961   3.430
 1866SOL    HW1 6497   4.726   5.025   3.371
 1866SOL    HW2 6498   4.860   5.004   3.460
 1867SOL     OW 6499   0.744   4.135   0.017
 1867SOL    HW1 6500   0.667   4.158   0.077
 1867SOL    HW2 6501   0.732   4.179   6.948
 1868SOL     OW 6502   4.872   2.907   6.002
 1868SOL    HW1 6503   4.961   2.874   5.971
 1868SOL    HW2 6504   4.814   2.926   5.922
 1869SOL     OW 6505   5.942   3.373   5.546
 1869SOL    HW1 6506   5.916   3.354   5.640
 1869SOL    HW2 6507   6.002   3.299   5.513
 1870SOL     OW 6508   1.527   2.891   5.023
 1870SOL    HW1 6509   1.533   2.936   4.934
 1870SOL    HW2 6510   1.593   2.932   5.085
 1871SOL     OW 6511   0.595   0.507   6.574
 1871SOL    HW1 6512   0.569   0.581   6.511
 1871SOL    HW2 6513   0.520   0.490   6.638
 1872SOL     OW 6514   4.143   1.598   6.795
 1872SOL    HW1 6515   4.215   1.538   6.830
 1872SOL    HW2 6516   4.054   1.557   6.812
 1873SOL     OW 6517   5.202   1.074   6.109
 1873SOL    HW1 6518   5.229   1.109   6.020
 1873SOL    HW2 6519   5.104   1.088   6.122
 1874SOL     OW 6520   2.728   0.975   0.693
 1874SOL    HW1 6521   2.733   1.051   0.628
 1874SOL    HW2 6522   2.692   0.894   0.647
 1875SOL     OW 6523   0.199   0.402   6.974
 1875SOL    HW1 6524   0.235   0.448   0.035
 1875SOL    HW2 6525   0.246   0.437   6.893
 1876SOL     OW 6526   3.516   5.790   6.539
 1876SOL    HW1 6527   3.548   5.823   6.451
 1876SOL    HW2 6528   3.591   5.792   6.605
 1877SOL     OW 6529   0.858   1.471   3.012
 1877SOL    HW1 6530   0.826   1.410   2.939
 1877SOL    HW2 6531   0.946   1.510   2.985
 1878SOL     OW 6532   6.638   3.241   3.815
 1878SOL    HW1 6533   6.714   3.291   3.772
 1878SOL    HW2 6534   6.630   3.151   3.772
 1879SOL     OW 6535   1.692   5.227   3.385
 1879SOL    HW1 6536   1.686   5.128   3.395
 1879SOL    HW2 6537   1.663   5.271   3.471
 1880SOL     OW 6538   6.682   0.701   3.946
 1880SOL    HW1 6539   6.586   0.676   3.930
 1880SOL    HW2 6540   6.731   0.703   3.858
 1881SOL     OW 6541   6.937   3.301   2.908
 1881SOL    HW1 6542   6.966   3.230   2.844
 1881SOL    HW2 6543   6.951   3.391   2.865
 1882SOL     OW 6544   1.286   3.997   0.172
 1882SOL    HW1 6545   1.195   4.036   0.158
 1882SOL    HW2 6546   1.299   3.976   0.269
 1883SOL     OW 6547   1.284   3.085   3.829
 1883SOL    HW1 6548   1.357   3.090   3.760
 1883SOL    HW2 6549   1.253   3.177   3.851
 1884SOL     OW 6550   6.292   3.040   6.768
 1884SOL    HW1 6551   6.236   3.104   6.715
 1884SOL    HW2 6552   6.364   3.090   6.816
 1885SOL     OW 6553   0.731   2.218   5.878
 1885SOL    HW1 6554   0.758   2.285   5.946
 1885SOL    HW2 6555   0.810   2.162   5.852
 1886SOL     OW 6556   2.415   0.387   1.401
 1886SOL    HW1 6557   2.479   0.373   1.476
 1886SOL    HW2 6558   2.429   0.317   1.331
 1887SOL     OW 6559   1.716   5.957   5.760
 1887SOL    HW1 6560   1.773   5.882   5.793
 1887SOL    HW2 6561   1.728   5.967   5.661
 1888SOL     OW 6562   2.875   2.451   6.587
 1888SOL    HW1 6563   2.867   2.356   6.618
 1888SOL    HW2 6564   2.789   2.481   6.545
 1889SOL     OW 6565   6.576   3.363   6.214
 1889SOL    HW1 6566   6.628   3.328   6.292
 1889SOL    HW2 6567   6.617   3.328   6.129
 1890SOL     OW 6568   1.847   5.848   4.441
 1890SOL    HW1 6569   1.754   5.817   4.423
 1890SOL    HW2 6570   1.865   5.931   4.387
 1891SOL     OW 6571   6.016   2.395   3.137
 1891SOL    HW1 6572   6.040   2.483   3.098
 1891SOL    HW2 6573   6.015   2.401   3.237
 1892SOL     OW 6574   3.041   1.209   0.860
 1892SOL    HW1 6575   3.087   1.265   0.792
 1892SOL    HW2 6576   3.105   1.184   0.933
 1893SOL     OW 6577   3.297   2.721   0.404
 1893SOL    HW1 6578   3.244   2.661   0.343
 1893SOL    HW2 6579   3.323   2.671   0.486
 1894SOL     OW 6580   4.020   3.817   3.371
 1894SOL    HW1 6581   3.923   3.834   3.349
 1894SOL    HW2 6582   4.073   3.900   3.351
 1895SOL     OW 6583   6.338   0.947   1.952
 1895SOL    HW1 6584   6.355   1.038   1.989
 1895SOL    HW2 6585   6.383   0.878   2.010
 1896SOL     OW 6586   6.874   0.651   1.375
 1896SOL    HW1 6587   6.804   0.612   1.436
 1896SOL    HW2 6588   6.961   0.655   1.423
 1897SOL     OW 6589   1.448   4.432   2.493
 1897SOL    HW1 6590   1.514   4.454   2.565
 1897SOL    HW2 6591   1.445   4.333   2.479
 1898SOL     OW 6592   3.168   4.938   2.679
 1898SOL    HW1 6593   3.237   4.987   2.732
 1898SOL    HW2 6594   3.113   4.881   2.739
 1899SOL     OW 6595   1.100   1.678   2.124
 1899SOL    HW1 6596   1.187   1.728   2.126
 1899SOL    HW2 6597   1.079   1.651   2.030
 1900SOL     OW 6598   1.505   0.583   6.601
 1900SOL    HW1 6599   1.440   0.613   6.531
 1900SOL    HW2 6600   1.529   0.661   6.660
 1901SOL     OW 6601   2.102   2.375   1.546
 1901SOL    HW1 6602   2.028   2.410   1.488
 1901SOL    HW2 6603   2.188   2.417   1.518
 1902SOL     OW 6604   2.268   2.065   4.823
 1902SOL    HW1 6605   2.356   2.110   4.810
 1902SOL    HW2 6606   2.233   2.085   4.915
 1903SOL     OW 6607   6.804   3.395   3.165
 1903SOL    HW1 6608   6.845   3.357   3.083
 1903SOL    HW2 6609   6.728   3.455   3.140
 1904SOL     OW 6610   5.518   6.469   4.767
 1904SOL    HW1 6611   5.609   6.442   4.735
 1904SOL    HW2 6612   5.453   6.462   4.692
 1905SOL     OW 6613   1.512   0.577   4.024
 1905SOL    HW1 6614   1.543   0.626   3.942
 1905SOL    HW2 6615   1.591   0.535   4.069
 1906SOL     OW 6616   2.114   0.578   5.170
 1906SOL    HW1 6617   2.158   0.488   5.168
 1906SOL    HW2 6618   2.024   0.571   5.127
 1907SOL     OW 6619   3.469   6.834   2.916
 1907SOL    HW1 6620   3.514   6.821   2.828
 1907SOL    HW2 6621   3.507   6.769   2.982
 1908SOL     OW 6622   3.556   0.036   5.123
 1908SOL    HW1 6623   3.530   0.123   5.083
 1908SOL    HW2 6624   3.481   6.990   5.111
 1909SOL     OW 6625   0.650   4.319   2.519
 1909SOL    HW1 6626   0.722   4.327   2.587
 1909SOL    HW2 6627   0.685   4.269   2.439
 1910SOL     OW 6628   6.757   2.885   6.241
 1910SOL    HW1 6629   6.724   2.815   6.178
 1910SOL    HW2 6630   6.682   2.914   6.300
 1911SOL     OW 6631   5.452   3.041   5.131
 1911SOL    HW1 6632   5.374   3.083   5.177
 1911SOL    HW2 6633   5.465   3.084   5.042
 1912SOL     OW 6634   3.533   6.141   0.748
 1912SOL    HW1 6635   3.434   6.136   0.736
 1912SOL    HW2 6636   3.572   6.049   0.745
 1913SOL     OW 6637   1.631   5.655   4.848
 1913SOL    HW1 6638   1.608   5.637   4.943
 1913SOL    HW2 6639   1.574   5.729   4.813
 1914SOL     OW 6640   4.015   2.965   6.436
 1914SOL    HW1 6641   3.969   2.956   6.349
 1914SOL    HW2 6642   4.046   3.059   6.449
 1915SOL     OW 6643   4.194   2.220   5.283
 1915SOL    HW1 6644   4.119   2.173   5.330
 1915SOL    HW2 6645   4.222   2.167   5.203
 1916SOL     OW 6646   4.010   5.703   1.185
 1916SOL    HW1 6647   4.087   5.714   1.122
 1916SOL    HW2 6648   4.008   5.609   1.219
 1917SOL     OW 6649   2.873   3.181   5.294
 1917SOL    HW1 6650   2.875   3.087   5.261
 1917SOL    HW2 6651   2.792   3.195   5.350
 1918SOL     OW 6652   0.884   1.053   4.996
 1918SOL    HW1 6653   0.811   1.035   5.062
 1918SOL    HW2 6654   0.921   0.966   4.963
 1919SOL     OW 6655   2.371   0.722   1.728
 1919SOL    HW1 6656   2.348   0.650   1.793
 1919SOL    HW2 6657   2.294   0.786   1.720
 1920SOL     OW 6658   1.611   4.430   2.713
 1920SOL    HW1 6659   1.604   4.378   2.798
 1920SOL    HW2 6660   1.681   4.388   2.654
 1921SOL     OW 6661   1.324   5.010   6.748
 1921SOL    HW1 6662   1.236   5.007   6.795
 1921SOL    HW2 6663   1.317   5.070   6.669
 1922SOL     OW 6664   1.894   4.178   1.164
 1922SOL    HW1 6665   1.879   4.126   1.248
 1922SOL    HW2 6666   1.854   4.270   1.174
 1923SOL     OW 6667   3.459   0.658   5.369
 1923SOL    HW1 6668   3.432   0.655   5.466
 1923SOL    HW2 6669   3.538   0.718   5.358
 1924SOL     OW 6670   4.583   5.539   1.288
 1924SOL    HW1 6671   4.545   5.624   1.324
 1924SOL    HW2 6672   4.553   5.526   1.193
 1925SOL     OW 6673   2.032   4.930   0.430
 1925SOL    HW1 6674   2.036   4.858   0.500
 1925SOL    HW2 6675   2.079   4.898   0.348
 1926SOL     OW 6676   2.256   6.776   3.199
 1926SOL    HW1 6677   2.307   6.762   3.284
 1926SOL    HW2 6678   2.316   6.818   3.131
 1927SOL     OW 6679   2.830   4.760   6.521
 1927SOL    HW1 6680   2.740   4.799   6.542
 1927SOL    HW2 6681   2.818   4.669   6.483
 1928SOL     OW 6682   6.654   4.683   5.944
 1928SOL    HW1 6683   6.679   4.780   5.942
 1928SOL    HW2 6684   6.705   4.638   6.018
 1929SOL     OW 6685   1.473   5.098   1.285
 1929SOL    HW1 6686   1.482   5.183   1.233
 1929SOL    HW2 6687   1.519   5.108   1.373
 1930SOL     OW 6688   3.609   3.806   6.572
 1930SOL    HW1 6689   3.523   3.759   6.594
 1930SOL    HW2 6690   3.668   3.806   6.652
 1931SOL     OW 6691   0.800   4.194   2.308
 1931SOL    HW1 6692   0.883   4.199   2.364
 1931SOL    HW2 6693   0.814   4.130   2.232
 1932SOL     OW 6694   5.042   3.534   3.189
 1932SOL    HW1 6695   4.990   3.619   3.197
 1932SOL    HW2 6696   4.990   3.467   3.137
 1933SOL     OW 6697   1.960   3.368   0.600
 1933SOL    HW1 6698   2.047   3.404   0.567
 1933SOL    HW2 6699   1.964   3.362   0.700
 1934SOL     OW 6700   0.322   0.156   5.116
 1934SOL    HW1 6701   0.252   0.136   5.048
 1934SOL    HW2 6702   0.365   0.070   5.146
 1935SOL     OW 6703   4.005   6.163   3.866
 1935SOL    HW1 6704   3.942   6.086   3.876
 1935SOL    HW2 6705   3.989   6.208   3.778
 1936SOL     OW 6706   6.048   3.684   3.707
 1936SOL    HW1 6707   5.971   3.715   3.762
 1936SOL    HW2 6708   6.020   3.676   3.611
 1937SOL     OW 6709   4.115   6.850   1.412
 1937SOL    HW1 6710   4.040   6.811   1.359
 1937SOL    HW2 6711   4.092   6.944   1.437
 1938SOL     OW 6712   2.328   1.676   1.863
 1938SOL    HW1 6713   2.350   1.701   1.958
 1938SOL    HW2 6714   2.413   1.653   1.815
 1939SOL     OW 6715   6.422   0.432   4.416
 1939SOL    HW1 6716   6.329   0.396   4.423
 1939SOL    HW2 6717   6.485   0.371   4.464
 1940SOL     OW 6718   5.646   4.901   0.968
 1940SOL    HW1 6719   5.652   4.802   0.982
 1940SOL    HW2 6720   5.604   4.920   0.880
 1941SOL     OW 6721   0.888   3.535   4.319
 1941SOL    HW1 6722   0.806   3.481   4.301
 1941SOL    HW2 6723   0.921   3.515   4.411
 1942SOL     OW 6724   5.278   2.111   1.644
 1942SOL    HW1 6725   5.292   2.167   1.562
 1942SOL    HW2 6726   5.264   2.016   1.617
 1943SOL     OW 6727   2.050   6.139   3.880
 1943SOL    HW1 6728   2.095   6.163   3.966
 1943SOL    HW2 6729   2.001   6.218   3.845
 1944SOL     OW 6730   6.235   2.797   6.924
 1944SOL    HW1 6731   6.320   2.744   6.935
 1944SOL    HW2 6732   6.247   2.863   6.850
 1945SOL     OW 6733   3.827   5.257   0.729
 1945SOL    HW1 6734   3.853   5.330   0.792
 1945SOL    HW2 6735   3.785   5.298   0.648
 1946SOL     OW 6736   6.151   6.841   0.811
 1946SOL    HW1 6737   6.183   6.795   0.894
 1946SOL    HW2 6738   6.163   6.780   0.733
 1947SOL     OW 6739   4.987   6.349   4.389
 1947SOL    HW1 6740   5.009   6.370   4.293
 1947SOL    HW2 6741   4.900   6.301   4.392
 1948SOL     OW 6742   5.763   5.491   3.779
 1948SOL    HW1 6743   5.709   5.552   3.722
 1948SOL    HW2 6744   5.826   5.438   3.722
 1949SOL     OW 6745   3.508   3.722   6.183
 1949SOL    HW1 6746   3.591   3.728   6.238
 1949SOL    HW2 6747   3.453   3.644   6.213
 1950SOL     OW 6748   4.113   3.147   0.491
 1950SOL    HW1 6749   4.042   3.080   0.510
 1950SOL    HW2 6750   4.081   3.212   0.422
 1951SOL     OW 6751   5.950   4.050   0.159
 1951SOL    HW1 6752   5.911   4.141   0.152
 1951SOL    HW2 6753   6.046   4.057   0.188
 1952SOL     OW 6754   4.938   3.811   1.457
 1952SOL    HW1 6755   5.020   3.868   1.456
 1952SOL    HW2 6756   4.960   3.722   1.498
 1953SOL     OW 6757   6.363   1.545   5.667
 1953SOL    HW1 6758   6.325   1.483   5.736
 1953SOL    HW2 6759   6.343   1.640   5.692
 1954SOL     OW 6760   0.031   0.847   2.602
 1954SOL    HW1 6761   0.062   0.755   2.629
 1954SOL    HW2 6762   0.039   0.856   2.503
 1955SOL     OW 6763   0.434   1.265   2.323
 1955SOL    HW1 6764   0.531   1.287   2.317
 1955SOL    HW2 6765   0.416   1.219   2.410
 1956SOL     OW 6766   4.797   0.524   2.133
 1956SOL    HW1 6767   4.822   0.428   2.147
 1956SOL    HW2 6768   4.749   0.559   2.213
 1957SOL     OW 6769   5.749   4.212   4.395
 1957SOL    HW1 6770   5.784   4.196   4.487
 1957SOL    HW2 6771   5.818   4.184   4.328
 1958SOL     OW 6772   4.832   1.874   2.078
 1958SOL    HW1 6773   4.926   1.871   2.043
 1958SOL    HW2 6774   4.825   1.817   2.160
 1959SOL     OW 6775   1.275   0.065   4.140
 1959SOL    HW1 6776   1.355   0.043   4.196
 1959SOL    HW2 6777   1.293   0.149   4.089
 1960SOL     OW 6778   6.893   4.990   1.800
 1960SOL    HW1 6779   6.875   5.007   1.703
 1960SOL    HW2 6780   6.806   4.984   1.849
 1961SOL     OW 6781   5.952   4.143   4.573
 1961SOL    HW1 6782   5.967   4.074   4.502
 1961SOL    HW2 6783   6.016   4.219   4.560
 1962SOL     OW 6784   1.013   6.676   3.100
 1962SOL    HW1 6785   0.932   6.621   3.119
 1962SOL    HW2 6786   1.095   6.626   3.127
 1963SOL     OW 6787   1.030   1.889   1.166
 1963SOL    HW1 6788   0.937   1.919   1.150
 1963SOL    HW2 6789   1.038   1.853   1.259
 1964SOL     OW 6790   4.882   4.401   1.212
 1964SOL    HW1 6791   4.810   4.399   1.282
 1964SOL    HW2 6792   4.840   4.410   1.122
 1965SOL     OW 6793   1.952   2.864   5.027
 1965SOL    HW1 6794   1.957   2.942   4.964
 1965SOL    HW2 6795   1.933   2.781   4.975
 1966SOL     OW 6796   0.328   6.403   0.781
 1966SOL    HW1 6797   0.373   6.380   0.868
 1966SOL    HW2 6798   0.260   6.333   0.759
 1967SOL     OW 6799   5.681   2.790   5.482
 1967SOL    HW1 6800   5.780   2.774   5.486
 1967SOL    HW2 6801   5.663   2.883   5.450
 1968SOL     OW 6802   1.139   6.951   5.104
 1968SOL    HW1 6803   1.224   6.974   5.151
 1968SOL    HW2 6804   1.089   0.015   5.081
 1969SOL     OW 6805   1.841   1.905   0.635
 1969SOL    HW1 6806   1.872   1.880   0.542
 1969SOL    HW2 6807   1.906   1.868   0.702
 1970SOL     OW 6808   3.011   6.301   6.399
 1970SOL    HW1 6809   2.994   6.382   6.343
 1970SOL    HW2 6810   2.983   6.319   6.493
 1971SOL     OW 6811   0.611   0.342   5.765
 1971SOL    HW1 6812   0.632   0.253   5.806
 1971SOL    HW2 6813   0.559   0.328   5.680
 1972SOL     OW 6814   5.331   1.918   2.179
 1972SOL    HW1 6815   5.265   1.988   2.150
 1972SOL    HW2 6816   5.306   1.830   2.139
 1973SOL     OW 6817   3.079   2.625   0.209
 1973SOL    HW1 6818   3.137   2.628   0.128
 1973SOL    HW2 6819   3.043   2.716   0.229
 1974SOL     OW 6820   5.279   6.672   5.184
 1974SOL    HW1 6821   5.237   6.742   5.126
 1974SOL    HW2 6822   5.350   6.624   5.131
 1975SOL     OW 6823   1.950   1.707   4.164
 1975SOL    HW1 6824   2.040   1.665   4.151
 1975SOL    HW2 6825   1.959   1.807   4.158
 1976SOL     OW 6826   6.368   0.090   0.515
 1976SOL    HW1 6827   6.425   0.168   0.491
 1976SOL    HW2 6828   6.303   0.071   0.441
 1977SOL     OW 6829   1.755   3.264   5.054
 1977SOL    HW1 6830   1.821   3.193   5.028
 1977SOL    HW2 6831   1.792   3.354   5.030
 1978SOL     OW 6832   1.923   6.212   3.166
 1978SOL    HW1 6833   1.908   6.205   3.067
 1978SOL    HW2 6834   1.933   6.309   3.191
 1979SOL     OW 6835   5.892   4.311   0.086
 1979SOL    HW1 6836   5.793   4.321   0.075
 1979SOL    HW2 6837   5.931   4.268   0.005
 1980SOL     OW 6838   3.413   6.743   4.259
 1980SOL    HW1 6839   3.469   6.792   4.193
 1980SOL    HW2 6840   3.464   6.730   4.344
 1981SOL     OW 6841   6.893   3.043   2.084
 1981SOL    HW1 6842   6.800   3.017   2.111
 1981SOL    HW2 6843   6.958   3.008   2.151
 1982SOL     OW 6844   0.985   4.161   4.294
 1982SOL    HW1 6845   0.949   4.069   4.284
 1982SOL    HW2 6846   1.066   4.172   4.237
 1983SOL     OW 6847   0.834   0.763   2.464
 1983SOL    HW1 6848   0.933   0.746   2.462
 1983SOL    HW2 6849   0.817   0.856   2.495
 1984SOL     OW 6850   4.816   1.972   4.948
 1984SOL    HW1 6851   4.779   1.965   5.041
 1984SOL    HW2 6852   4.766   2.041   4.897
 1985SOL     OW 6853   0.884   6.520   2.191
 1985SOL    HW1 6854   0.979   6.489   2.188
 1985SOL    HW2 6855   0.880   6.618   2.173
 1986SOL     OW 6856   2.893   1.051   6.948
 1986SOL    HW1 6857   2.855   0.974   6.897
 1986SOL    HW2 6858   2.939   1.113   6.886
 1987SOL     OW 6859   1.654   1.878   2.799
 1987SOL    HW1 6860   1.655   1.848   2.703
 1987SOL    HW2 6861   1.736   1.844   2.844
 1988SOL     OW 6862   6.256   3.700   0.219
 1988SOL    HW1 6863   6.225   3.606   0.206
 1988SOL    HW2 6864   6.229   3.732   0.310
 1989SOL     OW 6865   1.935   5.391   4.805
 1989SOL    HW1 6866   1.894   5.399   4.715
 1989SOL    HW2 6867   1.994   5.310   4.809
 1990SOL     OW 6868   3.895   5.586   0.500
 1990SOL    HW1 6869   3.896   5.652   0.425
 1990SOL    HW2 6870   3.980   5.532   0.497
 1991SOL     OW 6871   2.858   4.667   6.853
 1991SOL    HW1 6872   2.852   4.721   6.937
 1991SOL    HW2 6873   2.916   4.714   6.787
 1992SOL     OW 6874   0.283   0.931   0.332
 1992SOL    HW1 6875   0.299   1.009   0.392
 1992SOL    HW2 6876   0.370   0.894   0.301
 1993SOL     OW 6877   3.680   2.519   5.407
 1993SOL    HW1 6878   3.774   2.516   5.441
 1993SOL    HW2 6879   3.656   2.430   5.369
 1994SOL     OW 6880   0.534   1.673   0.300
 1994SOL    HW1 6881   0.518   1.720   0.386
 1994SOL    HW2 6882   0.631   1.674   0.278
 1995SOL     OW 6883   5.436   2.652   3.833
 1995SOL    HW1 6884   5.376   2.585   3.788
 1995SOL    HW2 6885   5.390   2.691   3.912
 1996SOL     OW 6886   2.381   2.808   0.312
 1996SOL    HW1 6887   2.462   2.841   0.262
 1996SOL    HW2 6888   2.409   2.774   0.402
 1997SOL     OW 6889   3.083   2.008   5.017
 1997SOL    HW1 6890   3.163   1.951   4.999
 1997SOL    HW2 6891   3.107   2.104   5.006
 1998SOL     OW 6892   3.004   3.693   0.296
 1998SOL    HW1 6893   2.927   3.651   0.249
 1998SOL    HW2 6894   3.084   3.693   0.236
 1999SOL     OW 6895   2.225   6.351   6.097
 1999SOL    HW1 6896   2.259   6.432   6.145
 1999SOL    HW2 6897   2.245   6.360   6.000
 2000SOL     OW 6898   4.246   2.649   5.448
 2000SOL    HW1 6899   4.200   2.595   5.378
 2000SOL    HW2 6900   4.290   2.729   5.405
 2001SOL     OW 6901   2.959   0.044   1.879
 2001SOL    HW1 6902   2.912   0.065   1.793
 2001SOL    HW2 6903   3.006   6.976   1.871
 2002SOL     OW 6904   0.612   4.652   7.003
 2002SOL    HW1 6905   0.556   4.569   6.999
 2002SOL    HW2 6906   0.697   4.634   0.032
 2003SOL     OW 6907   6.151   5.491   2.764
 2003SOL    HW1 6908   6.194   5.442   2.689
 2003SOL    HW2 6909   6.066   5.445   2.790
 2004SOL     OW 6910   5.090   1.616   4.368
 2004SOL    HW1 6911   5.036   1.691   4.329
 2004SOL    HW2 6912   5.032   1.562   4.429
 2005SOL     OW 6913   0.192   5.204   0.434
 2005SOL    HW1 6914   0.186   5.232   0.339
 2005SOL    HW2 6915   0.281   5.231   0.471
 2006SOL     OW 6916   5.847   6.944   2.969
 2006SOL    HW1 6917   5.918   6.972   3.033
 2006SOL    HW2 6918   5.863   6.850   2.940
 2007SOL     OW 6919   4.444   4.312   0.922
 2007SOL    HW1 6920   4.454   4.352   0.830
 2007SOL    HW2 6921   4.510   4.239   0.934
 2008SOL     OW 6922   2.018   4.086   4.013
 2008SOL    HW1 6923   2.027   4.123   3.920
 2008SOL    HW2 6924   2.030   4.159   4.080
 2009SOL     OW 6925   5.462   6.827   2.442
 2009SOL    HW1 6926   5.475   6.829   2.342
 2009SOL    HW2 6927   5.443   6.919   2.475
 2010SOL     OW 6928   2.804   1.879   2.196
 2010SOL    HW1 6929   2.823   1.828   2.279
 2010SOL    HW2 6930   2.865   1.959   2.191
 2011SOL     OW 6931   0.102   0.152   4.949
 2011SOL    HW1 6932   0.117   0.176   4.854
 2011SOL    HW2 6933   0.058   0.061   4.955
 2012SOL     OW 6934   1.055   4.625   2.013
 2012SOL    HW1 6935   1.108   4.629   2.098
 2012SOL    HW2 6936   1.074   4.539   1.966
 2013SOL     OW 6937   6.449   2.640   3.026
 2013SOL    HW1 6938   6.406   2.688   3.102
 2013SOL    HW2 6939   6.443   2.541   3.042
 2014SOL     OW 6940   2.492   6.410   3.375
 2014SOL    HW1 6941   2.520   6.443   3.285
 2014SOL    HW2 6942   2.392   6.399   3.376
 2015SOL     OW 6943   1.827   0.748   0.320
 2015SOL    HW1 6944   1.887   0.677   0.356
 2015SOL    HW2 6945   1.859   0.838   0.349
 2016SOL     OW 6946   1.699   6.080   5.991
 2016SOL    HW1 6947   1.606   6.113   6.006
 2016SOL    HW2 6948   1.704   6.032   5.904
 2017SOL     OW 6949   3.712   0.100   3.980
 2017SOL    HW1 6950   3.623   0.089   4.024
 2017SOL    HW2 6951   3.751   0.010   3.961
 2018SOL     OW 6952   5.497   2.094   4.429
 2018SOL    HW1 6953   5.592   2.115   4.406
 2018SOL    HW2 6954   5.481   2.110   4.526
 2019SOL     OW 6955   5.132   3.476   6.220
 2019SOL    HW1 6956   5.210   3.539   6.217
 2019SOL    HW2 6957   5.126   3.425   6.134
 2020SOL     OW 6958   1.907   6.999   5.073
 2020SOL    HW1 6959   1.929   6.992   5.171
 2020SOL    HW2 6960   1.985   6.966   5.019
 2021SOL     OW 6961   0.195   6.401   4.768
 2021SOL    HW1 6962   0.112   6.441   4.729
 2021SOL    HW2 6963   0.266   6.472   4.773
 2022SOL     OW 6964   1.332   5.007   3.446
 2022SOL    HW1 6965   1.429   4.986   3.438
 2022SOL    HW2 6966   1.298   4.974   3.535
 2023SOL     OW 6967   0.086   0.714   6.462
 2023SOL    HW1 6968   0.121   0.797   6.504
 2023SOL    HW2 6969   0.145   0.687   6.386
 2024SOL     OW 6970   0.022   6.057   3.259
 2024SOL    HW1 6971   0.102   6.052   3.200
 2024SOL    HW2 6972   7.011   5.964   3.281
 2025SOL     OW 6973   3.275   1.335   3.790
 2025SOL    HW1 6974   3.267   1.411   3.725
 2025SOL    HW2 6975   3.371   1.321   3.813
 2026SOL     OW 6976   6.539   3.580   5.745
 2026SOL    HW1 6977   6.441   3.592   5.727
 2026SOL    HW2 6978   6.556   3.486   5.772
 2027SOL     OW 6979   1.473   0.019   0.190
 2027SOL    HW1 6980   1.404   0.064   0.134
 2027SOL    HW2 6981   1.445   0.023   0.286
 2028SOL     OW 6982   2.961   5.392   4.594
 2028SOL    HW1 6983   3.055   5.380   4.626
 2028SOL    HW2 6984   2.938   5.319   4.529
 2029SOL     OW 6985   6.182   1.620   0.104
 2029SOL    HW1 6986   6.167   1.604   0.202
 2029SOL    HW2 6987   6.279   1.639   0.089
 2030SOL     OW 6988   2.876   1.011   3.809
 2030SOL    HW1 6989   2.957   0.953   3.815
 2030SOL    HW2 6990   2.904   1.106   3.796
 2031SOL     OW 6991   6.657   5.582   1.195
 2031SOL    HW1 6992   6.653   5.499   1.250
 2031SOL    HW2 6993   6.748   5.624   1.203
 2032SOL     OW 6994   4.477   0.720   2.156
 2032SOL    HW1 6995   4.405   0.776   2.196
 2032SOL    HW2 6996   4.437   0.637   2.117
 2033SOL     OW 6997   3.414   2.775   6.577
 2033SOL    HW1 6998   3.489   2.829   6.539
 2033SOL    HW2 6999   3.393   2.699   6.516
 2034SOL     OW 7000   2.238   5.049   5.600
 2034SOL    HW1 7001   2.290   4.998   5.532
 2034SOL    HW2 7002   2.288   5.133   5.624
 2035SOL     OW 7003   6.469   6.304   3.539
 2035SOL    HW1 7004   6.465   6.309   3.440
 2035SOL    HW2 7005   6.558   6.268   3.568
 2036SOL     OW 7006   0.654   3.967   3.026
 2036SOL    HW1 7007   0.599   4.029   2.971
 2036SOL    HW2 7008   0.727   3.928   2.969
 2037SOL     OW 7009   6.313   3.160   6.101
 2037SOL    HW1 7010   6.311   3.215   6.185
 2037SOL    HW2 7011   6.358   3.212   6.029
 2038SOL     OW 7012   2.030   1.970   0.031
 2038SOL    HW1 7013   2.090   1.958   6.973
 2038SOL    HW2 7014   2.054   2.055   0.078
 2039SOL     OW 7015   0.146   5.731   3.708
 2039SOL    HW1 7016   0.169   5.717   3.611
 2039SOL    HW2 7017   0.073   5.667   3.734
 2040SOL     OW 7018   2.384   2.972   5.956
 2040SOL    HW1 7019   2.290   2.983   5.926
 2040SOL    HW2 7020   2.421   3.061   5.983
 2041SOL     OW 7021   0.944   6.411   5.961
 2041SOL    HW1 7022   1.006   6.485   5.935
 2041SOL    HW2 7023   0.990   6.323   5.949
 2042SOL     OW 7024   4.660   6.363   6.968
 2042SOL    HW1 7025   4.715   6.441   6.998
 2042SOL    HW2 7026   4.598   6.337   0.022
 2043SOL     OW 7027   6.252   3.737   2.999
 2043SOL    HW1 7028   6.262   3.674   2.921
 2043SOL    HW2 7029   6.319   3.714   3.069
 2044SOL     OW 7030   0.100   0.685   1.525
 2044SOL    HW1 7031   0.132   0.673   1.618
 2044SOL    HW2 7032   0.158   0.632   1.462
 2045SOL     OW 7033   1.858   5.118   4.272
 2045SOL    HW1 7034   1.844   5.019   4.263
 2045SOL    HW2 7035   1.774   5.161   4.303
 2046SOL     OW 7036   6.835   1.771   4.410
 2046SOL    HW1 7037   6.831   1.722   4.323
 2046SOL    HW2 7038   6.930   1.776   4.442
 2047SOL     OW 7039   0.071   3.169   0.484
 2047SOL    HW1 7040   7.007   3.218   0.508
 2047SOL    HW2 7041   0.108   3.125   0.566
 2048SOL     OW 7042   1.404   6.524   5.748
 2048SOL    HW1 7043   1.480   6.586   5.729
 2048SOL    HW2 7044   1.370   6.486   5.661
 2049SOL     OW 7045   5.530   1.637   3.837
 2049SOL    HW1 7046   5.451   1.588   3.873
 2049SOL    HW2 7047   5.614   1.594   3.869
 2050SOL     OW 7048   6.256   2.826   3.997
 2050SOL    HW1 7049   6.299   2.767   3.929
 2050SOL    HW2 7050   6.157   2.815   3.993
 2051SOL     OW 7051   1.287   6.121   6.810
 2051SOL    HW1 7052   1.322   6.035   6.850
 2051SOL    HW2 7053   1.334   6.198   6.852
 2052SOL     OW 7054   1.748   3.059   1.258
 2052SOL    HW1 7055   1.649   3.046   1.252
 2052SOL    HW2 7056   1.770   3.109   1.342
 2053SOL     OW 7057   6.236   6.013   4.758
 2053SOL    HW1 7058   6.192   6.002   4.848
 2053SOL    HW2 7059   6.216   5.934   4.701
 2054SOL     OW 7060   3.432   4.196   3.302
 2054SOL    HW1 7061   3.401   4.260   3.372
 2054SOL    HW2 7062   3.362   4.188   3.231
 2055SOL     OW 7063   5.464   3.327   4.142
 2055SOL    HW1 7064   5.401   3.357   4.070
 2055SOL    HW2 7065   5.505   3.240   4.115
 2056SOL     OW 7066   4.250   5.686   1.031
 2056SOL    HW1 7067   4.305   5.605   1.014
 2056SOL    HW2 7068   4.309   5.766   1.041
 2057SOL     OW 7069   5.402   4.492   6.107
 2057SOL    HW1 7070   5.325   4.445   6.064
 2057SOL    HW2 7071   5.376   4.525   6.197
 2058SOL     OW 7072   0.585   0.138   3.300
 2058SOL    HW1 7073   0.628   0.065   3.353
 2058SOL    HW2 7074   0.635   0.224   3.314
 2059SOL     OW 7075   1.688   5.745   6.269
 2059SOL    HW1 7076   1.659   5.704   6.182
 2059SOL    HW2 7077   1.743   5.826   6.250
 2060SOL     OW 7078   0.487   4.131   1.545
 2060SOL    HW1 7079   0.447   4.134   1.453
 2060SOL    HW2 7080   0.423   4.084   1.607
 2061SOL     OW 7081   1.574   1.902   2.135
 2061SOL    HW1 7082   1.636   1.978   2.116
 2061SOL    HW2 7083   1.626   1.820   2.159
 2062SOL     OW 7084   6.986   5.188   5.273
 2062SOL    HW1 7085   0.038   5.250   5.302
 2062SOL    HW2 7086   6.909   5.241   5.238
 2063SOL     OW 7087   1.066   6.527   5.085
 2063SOL    HW1 7088   1.096   6.596   5.019
 2063SOL    HW2 7089   0.974   6.548   5.116
 2064SOL     OW 7090   6.938   2.611   4.610
 2064SOL    HW1 7091   6.950   2.704   4.645
 2064SOL    HW2 7092   6.867   2.610   4.540
 2065SOL     OW 7093   6.010   2.370   5.682
 2065SOL    HW1 7094   6.027   2.311   5.761
 2065SOL    HW2 7095   6.006   2.465   5.711
 2066SOL     OW 7096   6.866   4.427   4.985
 2066SOL    HW1 7097   6.783   4.480   5.003
 2066SOL    HW2 7098   6.917   4.414   5.071
 2067SOL     OW 7099   0.037   5.312   0.762
 2067SOL    HW1 7100   0.059   5.374   0.686
 2067SOL    HW2 7101   0.103   5.325   0.835
 2068SOL     OW 7102   2.201   0.448   4.517
 2068SOL    HW1 7103   2.114   0.449   4.468
 2068SOL    HW2 7104   2.262   0.380   4.476
 2069SOL     OW 7105   6.703   2.438   3.890
 2069SOL    HW1 7106   6.734   2.525   3.853
 2069SOL    HW2 7107   6.763   2.409   3.964
 2070SOL     OW 7108   1.121   1.392   0.625
 2070SOL    HW1 7109   1.175   1.447   0.562
 2070SOL    HW2 7110   1.180   1.322   0.666
 2071SOL     OW 7111   6.112   0.625   5.695
 2071SOL    HW1 7112   6.185   0.562   5.721
 2071SOL    HW2 7113   6.047   0.634   5.770
 2072SOL     OW 7114   4.481   5.259   5.030
 2072SOL    HW1 7115   4.553   5.190   5.042
 2072SOL    HW2 7116   4.392   5.214   5.033
 2073SOL     OW 7117   4.444   6.795   4.973
 2073SOL    HW1 7118   4.413   6.707   5.010
 2073SOL    HW2 7119   4.495   6.844   5.043
 2074SOL     OW 7120   2.256   2.471   5.913
 2074SOL    HW1 7121   2.217   2.443   5.825
 2074SOL    HW2 7122   2.204   2.430   5.987
 2075SOL     OW 7123   6.796   2.602   3.002
 2075SOL    HW1 7124   6.749   2.675   2.953
 2075SOL    HW2 7125   6.884   2.635   3.036
 2076SOL     OW 7126   5.168   6.654   6.157
 2076SOL    HW1 7127   5.076   6.628   6.127
 2076SOL    HW2 7128   5.180   6.752   6.144
 2077SOL     OW 7129   7.016   1.732   2.358
 2077SOL    HW1 7130   0.026   1.749   2.452
 2077SOL    HW2 7131   0.011   1.636   2.334
 2078SOL     OW 7132   1.772   5.208   6.473
 2078SOL    HW1 7133   1.795   5.300   6.505
 2078SOL    HW2 7134   1.675   5.202   6.453
 2079SOL     OW 7135   0.095   1.805   2.996
 2079SOL    HW1 7136   0.106   1.834   3.091
 2079SOL    HW2 7137   0.145   1.866   2.936
 2080SOL     OW 7138   2.060   0.643   4.685
 2080SOL    HW1 7139   2.018   0.636   4.595
 2080SOL    HW2 7140   2.024   0.571   4.744
 2081SOL     OW 7141   0.653   6.444   4.434
 2081SOL    HW1 7142   0.726   6.472   4.496
 2081SOL    HW2 7143   0.687   6.443   4.340
 2082SOL     OW 7144   0.982   6.819   2.885
 2082SOL    HW1 7145   0.887   6.833   2.856
 2082SOL    HW2 7146   0.983   6.782   2.978
 2083SOL     OW 7147   1.278   5.034   5.305
 2083SOL    HW1 7148   1.281   5.080   5.394
 2083SOL    HW2 7149   1.262   4.937   5.318
 2084SOL     OW 7150   0.949   4.377   2.551
 2084SOL    HW1 7151   0.998   4.411   2.631
 2084SOL    HW2 7152   0.945   4.277   2.554
 2085SOL     OW 7153   4.754   0.820   1.038
 2085SOL    HW1 7154   4.795   0.861   0.956
 2085SOL    HW2 7155   4.657   0.802   1.022
 2086SOL     OW 7156   3.489   6.607   0.018
 2086SOL    HW1 7157   3.551   6.678   7.004
 2086SOL    HW2 7158   3.473   6.621   0.115
 2087SOL     OW 7159   5.360   1.548   1.754
 2087SOL    HW1 7160   5.325   1.461   1.788
 2087SOL    HW2 7161   5.356   1.549   1.654
 2088SOL     OW 7162   1.378   5.925   6.987
 2088SOL    HW1 7163   1.357   5.827   6.991
 2088SOL    HW2 7164   1.440   5.949   0.041
 2089SOL     OW 7165   4.574   2.857   6.137
 2089SOL    HW1 7166   4.671   2.878   6.127
 2089SOL    HW2 7167   4.561   2.795   6.215
 2090SOL     OW 7168   4.181   3.252   5.857
 2090SOL    HW1 7169   4.276   3.229   5.876
 2090SOL    HW2 7170   4.177   3.325   5.789
 2091SOL     OW 7171   6.757   4.568   0.907
 2091SOL    HW1 7172   6.736   4.488   0.964
 2091SOL    HW2 7173   6.790   4.539   0.818
 2092SOL     OW 7174   5.427   3.719   0.454
 2092SOL    HW1 7175   5.361   3.785   0.417
 2092SOL    HW2 7176   5.517   3.762   0.459
 2093SOL     OW 7177   3.007   2.377   1.659
 2093SOL    HW1 7178   3.092   2.324   1.659
 2093SOL    HW2 7179   2.991   2.413   1.750
 2094SOL     OW 7180   5.863   1.466   1.660
 2094SOL    HW1 7181   5.854   1.496   1.755
 2094SOL    HW2 7182   5.955   1.432   1.643
 2095SOL     OW 7183   6.312   6.454   4.867
 2095SOL    HW1 7184   6.357   6.366   4.882
 2095SOL    HW2 7185   6.380   6.527   4.870
 2096SOL     OW 7186   4.709   5.286   3.642
 2096SOL    HW1 7187   4.731   5.379   3.670
 2096SOL    HW2 7188   4.611   5.279   3.621
 2097SOL     OW 7189   3.052   2.800   6.252
 2097SOL    HW1 7190   3.070   2.898   6.250
 2097SOL    HW2 7191   3.014   2.774   6.341
 2098SOL     OW 7192   4.370   5.772   1.957
 2098SOL    HW1 7193   4.354   5.758   1.860
 2098SOL    HW2 7194   4.289   5.813   1.999
 2099SOL     OW 7195   3.647   1.413   0.049
 2099SOL    HW1 7196   3.560   1.400   0.097
 2099SOL    HW2 7197   3.691   1.324   0.036
 2100SOL     OW 7198   5.759   1.359   0.822
 2100SOL    HW1 7199   5.722   1.448   0.794
 2100SOL    HW2 7200   5.812   1.370   0.905
 2101SOL     OW 7201   0.405   6.673   1.091
 2101SOL    HW1 7202   0.325   6.645   1.143
 2101SOL    HW2 7203   0.388   6.658   0.993
 2102SOL     OW 7204   5.075   4.030   2.049
 2102SOL    HW1 7205   5.125   4.114   2.072
 2102SOL    HW2 7206   4.998   4.053   1.989
 2103SOL     OW 7207   3.250   3.547   6.918
 2103SOL    HW1 7208   3.340   3.504   6.924
 2103SOL    HW2 7209   3.180   3.476   6.921
 2104SOL     OW 7210   1.783   4.372   2.519
 2104SOL    HW1 7211   1.759   4.329   2.432
 2104SOL    HW2 7212   1.784   4.472   2.507
 2105SOL     OW 7213   4.549   4.272   6.348
 2105SOL    HW1 7214   4.591   4.213   6.279
 2105SOL    HW2 7215   4.620   4.320   6.399
 2106SOL     OW 7216   5.194   3.881   1.527
 2106SOL    HW1 7217   5.192   3.859   1.624
 2106SOL    HW2 7218   5.214   3.978   1.515
 2107SOL     OW 7219   6.210   2.017   5.691
 2107SOL    HW1 7220   6.252   2.081   5.756
 2107SOL    HW2 7221   6.223   2.051   5.598
 2108SOL     OW 7222   6.046   5.125   5.158
 2108SOL    HW1 7223   5.979   5.111   5.231
 2108SOL    HW2 7224   6.095   5.210   5.174
 2109SOL     OW 7225   3.747   6.157   2.519
 2109SOL    HW1 7226   3.832   6.106   2.527
 2109SOL    HW2 7227   3.688   6.113   2.452
 2110SOL     OW 7228   3.073   0.869   0.660
 2110SOL    HW1 7229   3.118   0.886   0.748
 2110SOL    HW2 7230   2.974   0.882   0.671
 2111SOL     OW 7231   2.081   3.344   6.695
 2111SOL    HW1 7232   2.170   3.388   6.709
 2111SOL    HW2 7233   2.055   3.294   6.777
 2112SOL     OW 7234   4.966   1.722   0.846
 2112SOL    HW1 7235   4.888   1.784   0.850
 2112SOL    HW2 7236   5.049   1.771   0.871
 2113SOL     OW 7237   2.515   0.972   5.184
 2113SOL    HW1 7238   2.513   0.952   5.283
 2113SOL    HW2 7239   2.497   0.887   5.134
 2114SOL     OW 7240   2.581   1.765   6.405
 2114SOL    HW1 7241   2.678   1.786   6.396
 2114SOL    HW2 7242   2.563   1.673   6.368
 2115SOL     OW 7243   0.667   4.514   2.008
 2115SOL    HW1 7244   0.661   4.533   2.106
 2115SOL    HW2 7245   0.577   4.488   1.973
 2116SOL     OW 7246   1.217   3.647   2.499
 2116SOL    HW1 7247   1.181   3.735   2.527
 2116SOL    HW2 7248   1.143   3.579   2.498
 2117SOL     OW 7249   5.798   3.887   1.588
 2117SOL    HW1 7250   5.868   3.883   1.517
 2117SOL    HW2 7251   5.734   3.811   1.576
 2118SOL     OW 7252   6.497   3.312   3.325
 2118SOL    HW1 7253   6.499   3.230   3.267
 2118SOL    HW2 7254   6.454   3.289   3.413
 2119SOL     OW 7255   2.032   0.120   0.676
 2119SOL    HW1 7256   1.965   0.066   0.625
 2119SOL    HW2 7257   2.005   0.127   0.772
 2120SOL     OW 7258   0.552   4.063   2.789
 2120SOL    HW1 7259   0.651   4.076   2.783
 2120SOL    HW2 7260   0.520   4.007   2.713
 2121SOL     OW 7261   1.419   2.219   5.529
 2121SOL    HW1 7262   1.367   2.182   5.606
 2121SOL    HW2 7263   1.466   2.144   5.482
 2122SOL     OW 7264   5.748   6.166   6.655
 2122SOL    HW1 7265   5.650   6.150   6.673
 2122SOL    HW2 7266   5.774   6.255   6.692
 2123SOL     OW 7267   6.509   5.814   1.298
 2123SOL    HW1 7268   6.566   5.733   1.282
 2123SOL    HW2 7269   6.560   5.879   1.354
 2124SOL     OW 7270   2.669   1.575   0.149
 2124SOL    HW1 7271   2.622   1.642   0.092
 2124SOL    HW2 7272   2.709   1.622   0.229
 2125SOL     OW 7273   1.027   6.117   1.960
 2125SOL    HW1 7274   1.007   6.020   1.952
 2125SOL    HW2 7275   1.008   6.148   2.053
 2126SOL     OW 7276   3.435   2.341   6.844
 2126SOL    HW1 7277   3.421   2.296   6.756
 2126SOL    HW2 7278   3.445   2.440   6.830
 2127SOL     OW 7279   0.622   1.532   5.545
 2127SOL    HW1 7280   0.577   1.535   5.635
 2127SOL    HW2 7281   0.580   1.460   5.490
 2128SOL     OW 7282   6.353   2.786   2.524
 2128SOL    HW1 7283   6.328   2.732   2.443
 2128SOL    HW2 7284   6.381   2.724   2.598
 2129SOL     OW 7285   4.557   4.433   5.124
 2129SOL    HW1 7286   4.475   4.476   5.085
 2129SOL    HW2 7287   4.532   4.385   5.208
 2130SOL     OW 7288   2.891   0.197   2.602
 2130SOL    HW1 7289   2.835   0.179   2.521
 2130SOL    HW2 7290   2.988   0.187   2.578
 2131SOL     OW 7291   5.180   1.333   0.708
 2131SOL    HW1 7292   5.085   1.310   0.727
 2131SOL    HW2 7293   5.233   1.248   0.700
 2132SOL     OW 7294   2.872   1.936   6.585
 2132SOL    HW1 7295   2.868   1.893   6.675
 2132SOL    HW2 7296   2.933   1.885   6.526
 2133SOL     OW 7297   3.448   2.860   0.878
 2133SOL    HW1 7298   3.466   2.891   0.971
 2133SOL    HW2 7299   3.361   2.811   0.875
 2134SOL     OW 7300   0.861   0.905   4.731
 2134SOL    HW1 7301   0.850   1.003   4.743
 2134SOL    HW2 7302   0.771   0.862   4.720
 2135SOL     OW 7303   0.740   1.331   4.398
 2135SOL    HW1 7304   0.680   1.252   4.382
 2135SOL    HW2 7305   0.789   1.353   4.314
 2136SOL     OW 7306   1.405   4.293   4.801
 2136SOL    HW1 7307   1.311   4.320   4.819
 2136SOL    HW2 7308   1.409   4.240   4.716
 2137SOL     OW 7309   6.821   6.053   4.509
 2137SOL    HW1 7310   6.853   6.047   4.415
 2137SOL    HW2 7311   6.885   6.006   4.570
 2138SOL     OW 7312   6.569   1.702   1.800
 2138SOL    HW1 7313   6.494   1.736   1.743
 2138SOL    HW2 7314   6.566   1.602   1.803
 2139SOL     OW 7315   3.683   0.567   2.930
 2139SOL    HW1 7316   3.672   0.568   3.030
 2139SOL    HW2 7317   3.735   0.647   2.902
 2140SOL     OW 7318   3.053   5.588   3.106
 2140SOL    HW1 7319   3.008   5.664   3.153
 2140SOL    HW2 7320   3.008   5.572   3.018
 2141SOL     OW 7321   6.932   4.075   1.032
 2141SOL    HW1 7322   6.965   4.151   0.976
 2141SOL    HW2 7323   6.849   4.038   0.991
 2142SOL     OW 7324   1.171   2.276   2.684
 2142SOL    HW1 7325   1.096   2.212   2.701
 2142SOL    HW2 7326   1.223   2.246   2.604
 2143SOL     OW 7327   3.570   5.016   1.313
 2143SOL    HW1 7328   3.514   4.943   1.273
 2143SOL    HW2 7329   3.530   5.046   1.400
 2144SOL     OW 7330   1.365   6.894   3.023
 2144SOL    HW1 7331   1.272   6.926   3.041
 2144SOL    HW2 7332   1.362   6.798   2.998
 2145SOL     OW 7333   3.587   5.902   4.076
 2145SOL    HW1 7334   3.670   5.952   4.103
 2145SOL    HW2 7335   3.519   5.966   4.041
 2146SOL     OW 7336   2.892   3.372   2.403
 2146SOL    HW1 7337   2.972   3.334   2.357
 2146SOL    HW2 7338   2.850   3.442   2.345
 2147SOL     OW 7339   0.215   0.669   6.707
 2147SOL    HW1 7340   0.164   0.703   6.786
 2147SOL    HW2 7341   0.176   0.706   6.623
 2148SOL     OW 7342   5.013   2.706   4.321
 2148SOL    HW1 7343   4.997   2.775   4.250
 2148SOL    HW2 7344   5.035   2.752   4.407
 2149SOL     OW 7345   3.818   0.953   1.594
 2149SOL    HW1 7346   3.737   0.993   1.637
 2149SOL    HW2 7347   3.805   0.855   1.584
 2150SOL     OW 7348   2.108   2.377   2.781
 2150SOL    HW1 7349   2.073   2.304   2.840
 2150SOL    HW2 7350   2.121   2.343   2.688
 2151SOL     OW 7351   1.763   1.471   4.070
 2151SOL    HW1 7352   1.797   1.555   4.113
 2151SOL    HW2 7353   1.700   1.424   4.132
 2152SOL     OW 7354   3.650   6.348   1.273
 2152SOL    HW1 7355   3.723   6.414   1.258
 2152SOL    HW2 7356   3.661   6.271   1.211
 2153SOL     OW 7357   4.034   0.014   3.244
 2153SOL    HW1 7358   3.969   7.015   3.171
 2153SOL    HW2 7359   4.034   0.112   3.265
 2154SOL     OW 7360   4.913   0.402   4.444
 2154SOL    HW1 7361   4.994   0.437   4.397
 2154SOL    HW2 7362   4.850   0.477   4.462
 2155SOL     OW 7363   2.065   5.562   0.352
 2155SOL    HW1 7364   2.000   5.630   0.386
 2155SOL    HW2 7365   2.042   5.538   0.258
 2156SOL     OW 7366   2.506   0.419   2.657
 2156SOL    HW1 7367   2.521   0.457   2.748
 2156SOL    HW2 7368   2.592   0.418   2.606
 2157SOL     OW 7369   6.066   1.355   2.935
 2157SOL    HW1 7370   6.135   1.373   3.004
 2157SOL    HW2 7371   6.018   1.270   2.956
 2158SOL     OW 7372   4.339   6.050   0.947
 2158SOL    HW1 7373   4.385   5.962   0.960
 2158SOL    HW2 7374   4.401   6.124   0.971
 2159SOL     OW 7375   1.844   5.414   5.470
 2159SOL    HW1 7376   1.874   5.345   5.405
 2159SOL    HW2 7377   1.767   5.380   5.523
 2160SOL     OW 7378   4.552   3.281   1.467
 2160SOL    HW1 7379   4.649   3.270   1.442
 2160SOL    HW2 7380   4.495   3.259   1.388
 2161SOL     OW 7381   5.462   2.700   3.479
 2161SOL    HW1 7382   5.513   2.732   3.559
 2161SOL    HW2 7383   5.371   2.741   3.479
 2162SOL     OW 7384   2.668   0.684   0.002
 2162SOL    HW1 7385   2.718   0.734   6.952
 2162SOL    HW2 7386   2.731   0.629   0.056
 2163SOL     OW 7387   0.408   5.522   6.158
 2163SOL    HW1 7388   0.326   5.467   6.177
 2163SOL    HW2 7389   0.383   5.601   6.103
 2164SOL     OW 7390   1.560   2.287   0.104
 2164SOL    HW1 7391   1.501   2.278   0.024
 2164SOL    HW2 7392   1.558   2.382   0.136
 2165SOL     OW 7393   1.158   1.653   2.443
 2165SOL    HW1 7394   1.069   1.652   2.398
 2165SOL    HW2 7395   1.207   1.569   2.422
 2166SOL     OW 7396   1.951   1.996   5.265
 2166SOL    HW1 7397   1.859   2.034   5.276
 2166SOL    HW2 7398   1.964   1.969   5.169
 2167SOL     OW 7399   1.801   1.096   3.510
 2167SOL    HW1 7400   1.859   1.028   3.467
 2167SOL    HW2 7401   1.712   1.056   3.531
 2168SOL     OW 7402   0.393   2.199   3.395
 2168SOL    HW1 7403   0.344   2.169   3.477
 2168SOL    HW2 7404   0.344   2.169   3.313
 2169SOL     OW 7405   6.000   2.157   5.880
 2169SOL    HW1 7406   6.000   2.113   5.970
 2169SOL    HW2 7407   6.051   2.100   5.816
 2170SOL     OW 7408   5.609   4.866   5.829
 2170SOL    HW1 7409   5.642   4.836   5.740
 2170SOL    HW2 7410   5.573   4.787   5.879
 2171SOL     OW 7411   6.213   3.160   0.938
 2171SOL    HW1 7412   6.219   3.061   0.941
 2171SOL    HW2 7413   6.129   3.191   0.982
 2172SOL     OW 7414   2.283   1.527   0.515
 2172SOL    HW1 7415   2.317   1.507   0.607
 2172SOL    HW2 7416   2.342   1.485   0.447
 2173SOL     OW 7417   3.909   0.004   5.574
 2173SOL    HW1 7418   3.832   7.005   5.513
 2173SOL    HW2 7419   3.877   0.008   5.668
 2174SOL     OW 7420   5.828   5.090   6.038
 2174SOL    HW1 7421   5.781   5.091   5.950
 2174SOL    HW2 7422   5.889   5.011   6.042
 2175SOL     OW 7423   3.235   2.161   3.254
 2175SOL    HW1 7424   3.313   2.187   3.311
 2175SOL    HW2 7425   3.181   2.091   3.301
 2176SOL     OW 7426   0.787   2.853   0.559
 2176SOL    HW1 7427   0.879   2.874   0.526
 2176SOL    HW2 7428   0.760   2.919   0.629
 2177SOL     OW 7429   6.843   0.678   2.882
 2177SOL    HW1 7430   6.776   0.699   2.953
 2177SOL    HW2 7431   6.795   0.664   2.795
 2178SOL     OW 7432   2.035   4.657   0.538
 2178SOL    HW1 7433   1.936   4.651   0.549
 2178SOL    HW2 7434   2.078   4.657   0.628
 2179SOL     OW 7435   1.816   5.427   4.561
 2179SOL    HW1 7436   1.775   5.475   4.484
 2179SOL    HW2 7437   1.770   5.339   4.573
 2180SOL     OW 7438   2.857   3.584   2.188
 2180SOL    HW1 7439   2.763   3.600   2.158
 2180SOL    HW2 7440   2.906   3.533   2.117
 2181SOL     OW 7441   5.590   4.619   5.959
 2181SOL    HW1 7442   5.530   4.566   6.018
 2181SOL    HW2 7443   5.594   4.578   5.869
 2182SOL     OW 7444   5.923   3.211   5.056
 2182SOL    HW1 7445   5.968   3.274   4.993
 2182SOL    HW2 7446   5.916   3.120   5.014
 2183SOL     OW 7447   3.338   3.584   6.501
 2183SOL    HW1 7448   3.427   3.560   6.539
 2183SOL    HW2 7449   3.332   3.683   6.490
 2184SOL     OW 7450   3.506   1.441   5.350
 2184SOL    HW1 7451   3.570   1.503   5.305
 2184SOL    HW2 7452   3.511   1.453   5.449
 2185SOL     OW 7453   1.539   2.403   0.880
 2185SOL    HW1 7454   1.565   2.371   0.789
 2185SOL    HW2 7455   1.574   2.340   0.949
 2186SOL     OW 7456   0.197   4.906   2.607
 2186SOL    HW1 7457   0.213   4.812   2.577
 2186SOL    HW2 7458   0.164   4.961   2.530
 2187SOL     OW 7459   0.340   2.044   1.730
 2187SOL    HW1 7460   0.284   1.993   1.666
 2187SOL    HW2 7461   0.332   2.142   1.712
 2188SOL     OW 7462   5.548   5.986   4.394
 2188SOL    HW1 7463   5.528   6.073   4.439
 2188SOL    HW2 7464   5.522   5.910   4.454
 2189SOL     OW 7465   1.825   6.288   6.436
 2189SOL    HW1 7466   1.909   6.339   6.455
 2189SOL    HW2 7467   1.751   6.323   6.494
 2190SOL     OW 7468   0.251   2.372   2.132
 2190SOL    HW1 7469   0.208   2.305   2.072
 2190SOL    HW2 7470   0.180   2.420   2.185
 2191SOL     OW 7471   3.165   1.405   6.107
 2191SOL    HW1 7472   3.226   1.386   6.030
 2191SOL    HW2 7473   3.073   1.373   6.086
 2192SOL     OW 7474   3.797   6.820   3.899
 2192SOL    HW1 7475   3.759   6.818   3.991
 2192SOL    HW2 7476   3.784   6.731   3.855
 2193SOL     OW 7477   7.000   6.250   6.022
 2193SOL    HW1 7478   6.940   6.171   6.013
 2193SOL    HW2 7479   0.039   6.257   5.941
 2194SOL     OW 7480   2.428   4.251   6.864
 2194SOL    HW1 7481   2.332   4.277   6.871
 2194SOL    HW2 7482   2.473   4.309   6.795
 2195SOL     OW 7483   0.693   6.620   2.852
 2195SOL    HW1 7484   0.749   6.597   2.932
 2195SOL    HW2 7485   0.598   6.595   2.870
 2196SOL     OW 7486   3.325   0.302   5.515
 2196SOL    HW1 7487   3.261   0.374   5.540
 2196SOL    HW2 7488   3.277   0.215   5.507
 2197SOL     OW 7489   4.710   3.508   1.612
 2197SOL    HW1 7490   4.734   3.415   1.584
 2197SOL    HW2 7491   4.611   3.514   1.627
 2198SOL     OW 7492   6.831   1.504   0.089
 2198SOL    HW1 7493   6.809   1.407   0.083
 2198SOL    HW2 7494   6.929   1.517   0.074
 2199SOL     OW 7495   5.557   0.878   1.893
 2199SOL    HW1 7496   5.654   0.869   1.914
 2199SOL    HW2 7497   5.520   0.790   1.863
 2200SOL     OW 7498   4.389   0.309   4.644
 2200SOL    HW1 7499   4.405   0.288   4.740
 2200SOL    HW2 7500   4.295   0.286   4.620
 2201SOL     OW 7501   6.656   2.941   2.154
 2201SOL    HW1 7502   6.645   3.004   2.231
 2201SOL    HW2 7503   6.696   2.855   2.187
 2202SOL     OW 7504   3.534   5.202   4.022
 2202SOL    HW1 7505   3.471   5.278   4.031
 2202SOL    HW2 7506   3.571   5.200   3.929
 2203SOL     OW 7507   2.264   2.384   2.043
 2203SOL    HW1 7508   2.195   2.440   1.997
 2203SOL    HW2 7509   2.230   2.359   2.134
 2204SOL     OW 7510   3.443   1.180   6.773
 2204SOL    HW1 7511   3.365   1.167   6.712
 2204SOL    HW2 7512   3.412   1.229   6.855
 2205SOL     OW 7513   1.793   0.004   6.304
 2205SOL    HW1 7514   1.876   0.001   6.360
 2205SOL    HW2 7515   1.747   0.092   6.317
 2206SOL     OW 7516   3.023   3.946   5.274
 2206SOL    HW1 7517   3.060   4.039   5.263
 2206SOL    HW2 7518   3.004   3.906   5.185
 2207SOL     OW 7519   2.015   3.867   6.323
 2207SOL    HW1 7520   2.112   3.846   6.324
 2207SOL    HW2 7521   1.962   3.783   6.320
 2208SOL     OW 7522   1.752   4.836   2.192
 2208SOL    HW1 7523   1.729   4.840   2.095
 2208SOL    HW2 7524   1.841   4.879   2.207
 2209SOL     OW 7525   1.354   5.448   5.938
 2209SOL    HW1 7526   1.440   5.483   5.976
 2209SOL    HW2 7527   1.297   5.524   5.908
 2210SOL     OW 7528   0.257   4.953   3.776
 2210SOL    HW1 7529   0.294   5.003   3.854
 2210SOL    HW2 7530   0.326   4.891   3.740
 2211SOL     OW 7531   5.317   1.166   6.917
 2211SOL    HW1 7532   5.412   1.197   6.907
 2211SOL    HW2 7533   5.285   1.187   7.009
 2212SOL     OW 7534   1.699   6.140   0.806
 2212SOL    HW1 7535   1.691   6.139   0.905
 2212SOL    HW2 7536   1.723   6.232   0.775
 2213SOL     OW 7537   3.924   2.851   5.446
 2213SOL    HW1 7538   3.957   2.758   5.431
 2213SOL    HW2 7539   3.907   2.895   5.357
 2214SOL     OW 7540   4.779   1.301   5.193
 2214SOL    HW1 7541   4.687   1.306   5.231
 2214SOL    HW2 7542   4.773   1.301   5.093
 2215SOL     OW 7543   6.736   1.970   5.947
 2215SOL    HW1 7544   6.794   1.999   6.023
 2215SOL    HW2 7545   6.755   1.874   5.926
 2216SOL     OW 7546   1.643   0.612   6.853
 2216SOL    HW1 7547   1.717   0.590   6.789
 2216SOL    HW2 7548   1.632   0.538   6.919
 2217SOL     OW 7549   3.148   0.262   1.777
 2217SOL    HW1 7550   3.113   0.356   1.776
 2217SOL    HW2 7551   3.079   0.201   1.816
 2218SOL     OW 7552   1.309   6.819   1.225
 2218SOL    HW1 7553   1.261   6.894   1.269
 2218SOL    HW2 7554   1.407   6.838   1.223
 2219SOL     OW 7555   0.702   4.097   3.290
 2219SOL    HW1 7556   0.780   4.153   3.317
 2219SOL    HW2 7557   0.723   4.050   3.204
 2220SOL     OW 7558   0.178   1.293   4.351
 2220SOL    HW1 7559   0.159   1.262   4.257
 2220SOL    HW2 7560   0.166   1.216   4.414
 2221SOL     OW 7561   6.915   0.880   0.059
 2221SOL    HW1 7562   6.963   0.967   0.062
 2221SOL    HW2 7563   6.828   0.888   0.106
 2222SOL     OW 7564   3.795   0.626   0.818
 2222SOL    HW1 7565   3.838   0.644   0.906
 2222SOL    HW2 7566   3.795   0.710   0.763
 2223SOL     OW 7567   5.457   6.652   3.908
 2223SOL    HW1 7568   5.508   6.739   3.905
 2223SOL    HW2 7569   5.402   6.648   3.991
 2224SOL     OW 7570   2.249   4.534   1.877
 2224SOL    HW1 7571   2.230   4.534   1.975
 2224SOL    HW2 7572   2.191   4.602   1.832
 2225SOL     OW 7573   6.112   5.742   2.879
 2225SOL    HW1 7574   6.115   5.647   2.849
 2225SOL    HW2 7575   6.190   5.761   2.939
 2226SOL     OW 7576   4.377   3.452   0.760
 2226SOL    HW1 7577   4.313   3.514   0.715
 2226SOL    HW2 7578   4.336   3.361   0.767
 2227SOL     OW 7579   6.092   4.364   0.251
 2227SOL    HW1 7580   6.014   4.373   0.190
 2227SOL    HW2 7581   6.094   4.441   0.314
 2228SOL     OW 7582   3.034   5.878   0.721
 2228SOL    HW1 7583   3.101   5.931   0.668
 2228SOL    HW2 7584   3.081   5.833   0.797
 2229SOL     OW 7585   4.258   1.277   4.320
 2229SOL    HW1 7586   4.224   1.316   4.406
 2229SOL    HW2 7587   4.342   1.227   4.338
 2230SOL     OW 7588   0.783   6.047   4.689
 2230SOL    HW1 7589   0.793   6.001   4.601
 2230SOL    HW2 7590   0.686   6.048   4.715
 2231SOL     OW 7591   1.490   1.386   1.205
 2231SOL    HW1 7592   1.481   1.356   1.110
 2231SOL    HW2 7593   1.534   1.314   1.259
 2232SOL     OW 7594   0.962   2.289   3.922
 2232SOL    HW1 7595   0.947   2.251   4.013
 2232SOL    HW2 7596   1.036   2.239   3.877
 2233SOL     OW 7597   2.366   4.399   0.537
 2233SOL    HW1 7598   2.449   4.409   0.482
 2233SOL    HW2 7599   2.380   4.328   0.605
 2234SOL     OW 7600   5.005   2.377   1.536
 2234SOL    HW1 7601   4.977   2.295   1.587
 2234SOL    HW2 7602   5.041   2.445   1.601
 2235SOL     OW 7603   1.861   0.085   0.449
 2235SOL    HW1 7604   1.826   0.177   0.467
 2235SOL    HW2 7605   1.823   0.051   0.363
 2236SOL     OW 7606   0.849   4.554   0.598
 2236SOL    HW1 7607   0.819   4.602   0.516
 2236SOL    HW2 7608   0.923   4.605   0.641
 2237SOL     OW 7609   5.643   3.931   4.143
 2237SOL    HW1 7610   5.587   4.014   4.148
 2237SOL    HW2 7611   5.590   3.853   4.176
 2238SOL     OW 7612   6.561   5.978   2.744
 2238SOL    HW1 7613   6.645   5.943   2.704
 2238SOL    HW2 7614   6.558   5.954   2.842
 2239SOL     OW 7615   3.803   5.379   3.902
 2239SOL    HW1 7616   3.739   5.358   3.828
 2239SOL    HW2 7617   3.808   5.478   3.916
 2240SOL     OW 7618   5.813   5.868   4.054
 2240SOL    HW1 7619   5.839   5.916   3.970
 2240SOL    HW2 7620   5.751   5.793   4.033
 2241SOL     OW 7621   0.268   6.737   2.249
 2241SOL    HW1 7622   0.284   6.828   2.210
 2241SOL    HW2 7623   0.347   6.679   2.230
 2242SOL     OW 7624   5.976   2.309   2.784
 2242SOL    HW1 7625   5.936   2.337   2.872
 2242SOL    HW2 7626   5.991   2.390   2.727
 2243SOL     OW 7627   2.981   6.298   5.219
 2243SOL    HW1 7628   2.952   6.219   5.274
 2243SOL    HW2 7629   2.900   6.350   5.191
 2244SOL     OW 7630   3.523   0.836   3.400
 2244SOL    HW1 7631   3.532   0.859   3.303
 2244SOL    HW2 7632   3.613   0.839   3.443
 2245SOL     OW 7633   0.159   2.289   1.253
 2245SOL    HW1 7634   0.219   2.349   1.201
 2245SOL    HW2 7635   0.097   2.344   1.309
 2246SOL     OW 7636   1.352   1.745   4.474
 2246SOL    HW1 7637   1.447   1.777   4.481
 2246SOL    HW2 7638   1.322   1.752   4.379
 2247SOL     OW 7639   2.218   2.519   6.534
 2247SOL    HW1 7640   2.269   2.604   6.545
 2247SOL    HW2 7641   2.120   2.539   6.534
 2248SOL     OW 7642   4.620   3.766   6.188
 2248SOL    HW1 7643   4.711   3.738   6.155
 2248SOL    HW2 7644   4.601   3.721   6.275
 2249SOL     OW 7645   5.004   6.445   2.966
 2249SOL    HW1 7646   5.011   6.490   2.877
 2249SOL    HW2 7647   4.982   6.513   3.036
 2250SOL     OW 7648   5.274   3.755   1.309
 2250SOL    HW1 7649   5.228   3.773   1.223
 2250SOL    HW2 7650   5.237   3.815   1.380
 2251SOL     OW 7651   5.638   1.461   0.290
 2251SOL    HW1 7652   5.548   1.436   0.327
 2251SOL    HW2 7653   5.628   1.483   0.193
 2252SOL     OW 7654   6.586   2.565   4.221
 2252SOL    HW1 7655   6.513   2.526   4.165
 2252SOL    HW2 7656   6.600   2.508   4.302
 2253SOL     OW 7657   1.226   3.219   0.222
 2253SOL    HW1 7658   1.181   3.302   0.190
 2253SOL    HW2 7659   1.325   3.230   0.218
 2254SOL     OW 7660   2.477   2.864   5.551
 2254SOL    HW1 7661   2.379   2.850   5.567
 2254SOL    HW2 7662   2.489   2.951   5.502
 2255SOL     OW 7663   6.639   2.447   0.802
 2255SOL    HW1 7664   6.556   2.494   0.832
 2255SOL    HW2 7665   6.637   2.436   0.702
 2256SOL     OW 7666   4.067   5.821   1.454
 2256SOL    HW1 7667   4.161   5.855   1.450
 2256SOL    HW2 7668   4.041   5.782   1.366
 2257SOL     OW 7669   0.171   3.017   4.347
 2257SOL    HW1 7670   0.113   2.937   4.335
 2257SOL    HW2 7671   0.230   3.005   4.426
 2258SOL     OW 7672   1.161   5.776   4.884
 2258SOL    HW1 7673   1.105   5.753   4.964
 2258SOL    HW2 7674   1.212   5.695   4.856
 2259SOL     OW 7675   4.344   3.453   6.183
 2259SOL    HW1 7676   4.403   3.427   6.259
 2259SOL    HW2 7677   4.270   3.387   6.174
 2260SOL     OW 7678   4.719   4.520   3.173
 2260SOL    HW1 7679   4.625   4.544   3.197
 2260SOL    HW2 7680   4.783   4.579   3.222
 2261SOL     OW 7681   5.956   6.959   0.987
 2261SOL    HW1 7682   6.008   0.003   1.044
 2261SOL    HW2 7683   6.005   6.943   0.902
 2262SOL     OW 7684   6.055   3.138   2.632
 2262SOL    HW1 7685   6.069   3.096   2.721
 2262SOL    HW2 7686   5.984   3.089   2.582
 2263SOL     OW 7687   2.894   5.600   6.292
 2263SOL    HW1 7688   2.897   5.519   6.352
 2263SOL    HW2 7689   2.799   5.624   6.274
 2264SOL     OW 7690   3.092   3.995   2.319
 2264SOL    HW1 7691   3.148   4.043   2.387
 2264SOL    HW2 7692   3.069   3.904   2.354
 2265SOL     OW 7693   0.345   0.746   3.707
 2265SOL    HW1 7694   0.384   0.655   3.702
 2265SOL    HW2 7695   0.325   0.778   3.614
 2266SOL     OW 7696   6.280   1.123   1.072
 2266SOL    HW1 7697   6.311   1.059   1.001
 2266SOL    HW2 7698   6.350   1.129   1.143
 2267SOL     OW 7699   5.444   2.537   4.968
 2267SOL    HW1 7700   5.437   2.515   4.870
 2267SOL    HW2 7701   5.503   2.617   4.980
 2268SOL     OW 7702   6.605   4.900   0.274
 2268SOL    HW1 7703   6.696   4.908   0.232
 2268SOL    HW2 7704   6.555   4.825   0.230
 2269SOL     OW 7705   5.943   5.747   5.523
 2269SOL    HW1 7706   5.850   5.769   5.551
 2269SOL    HW2 7707   5.980   5.821   5.468
 2270SOL     OW 7708   3.770   3.381   0.130
 2270SOL    HW1 7709   3.786   3.480   0.133
 2270SOL    HW2 7710   3.769   3.350   0.035
 2271SOL     OW 7711   5.821   4.107   1.146
 2271SOL    HW1 7712   5.904   4.053   1.158
 2271SOL    HW2 7713   5.756   4.056   1.090
 2272SOL     OW 7714   5.964   2.082   4.919
 2272SOL    HW1 7715   5.977   2.153   4.988
 2272SOL    HW2 7716   5.872   2.088   4.882
 2273SOL     OW 7717   1.856   1.598   1.409
 2273SOL    HW1 7718   1.919   1.654   1.462
 2273SOL    HW2 7719   1.772   1.650   1.391
 2274SOL     OW 7720   1.214   3.394   5.811
 2274SOL    HW1 7721   1.277   3.364   5.739
 2274SOL    HW2 7722   1.181   3.314   5.861
 2275SOL     OW 7723   5.230   0.103   4.544
 2275SOL    HW1 7724   5.174   0.148   4.613
 2275SOL    HW2 7725   5.205   0.006   4.539
 2276SOL     OW 7726   3.375   5.212   1.499
 2276SOL    HW1 7727   3.335   5.304   1.503
 2276SOL    HW2 7728   3.412   5.188   1.588
 2277SOL     OW 7729   3.074   3.886   4.505
 2277SOL    HW1 7730   3.031   3.803   4.542
 2277SOL    HW2 7731   3.111   3.941   4.579
 2278SOL     OW 7732   4.855   6.731   4.062
 2278SOL    HW1 7733   4.828   6.818   4.019
 2278SOL    HW2 7734   4.925   6.687   4.005
 2279SOL     OW 7735   5.289   5.467   4.305
 2279SOL    HW1 7736   5.290   5.480   4.405
 2279SOL    HW2 7737   5.213   5.406   4.281
 2280SOL     OW 7738   6.507   6.433   5.093
 2280SOL    HW1 7739   6.494   6.521   5.048
 2280SOL    HW2 7740   6.507   6.360   5.024
 2281SOL     OW 7741   3.766   1.112   1.953
 2281SOL    HW1 7742   3.835   1.100   1.882
 2281SOL    HW2 7743   3.765   1.032   2.013
 2282SOL     OW 7744   5.616   0.035   4.971
 2282SOL    HW1 7745   5.557   0.043   4.891
 2282SOL    HW2 7746   5.702   7.010   4.945
 2283SOL     OW 7747   6.838   4.414   1.215
 2283SOL    HW1 7748   6.745   4.417   1.250
 2283SOL    HW2 7749   6.849   4.335   1.154
 2284SOL     OW 7750   1.969   1.468   0.426
 2284SOL    HW1 7751   2.047   1.511   0.470
 2284SOL    HW2 7752   1.898   1.536   0.409
 2285SOL     OW 7753   1.995   3.545   6.939
 2285SOL    HW1 7754   1.922   3.494   6.985
 2285SOL    HW2 7755   1.982   3.538   6.840
 2286SOL     OW 7756   6.229   6.721   4.244
 2286SOL    HW1 7757   6.306   6.684   4.192
 2286SOL    HW2 7758   6.202   6.655   4.314
 2287SOL     OW 7759   2.531   2.444   2.038
 2287SOL    HW1 7760   2.433   2.454   2.022
 2287SOL    HW2 7761   2.582   2.487   1.964
 2288SOL     OW 7762   6.694   5.263   4.445
 2288SOL    HW1 7763   6.691   5.286   4.542
 2288SOL    HW2 7764   6.626   5.317   4.396
 2289SOL     OW 7765   6.437   3.567   2.578
 2289SOL    HW1 7766   6.383   3.544   2.497
 2289SOL    HW2 7767   6.448   3.666   2.583
 2290SOL     OW 7768   2.112   3.649   1.833
 2290SOL    HW1 7769   2.017   3.618   1.820
 2290SOL    HW2 7770   2.171   3.569   1.842
 2291SOL     OW 7771   2.113   2.201   0.147
 2291SOL    HW1 7772   2.199   2.223   0.193
 2291SOL    HW2 7773   2.042   2.264   0.177
 2292SOL     OW 7774   5.024   2.759   3.446
 2292SOL    HW1 7775   4.936   2.793   3.414
 2292SOL    HW2 7776   5.030   2.660   3.429
 2293SOL     OW 7777   6.208   0.141   0.937
 2293SOL    HW1 7778   6.222   0.108   1.030
 2293SOL    HW2 7779   6.295   0.170   0.898
 2294SOL     OW 7780   3.161   1.809   6.025
 2294SOL    HW1 7781   3.082   1.751   6.048
 2294SOL    HW2 7782   3.152   1.841   5.931
 2295SOL     OW 7783   0.213   1.095   3.044
 2295SOL    HW1 7784   0.168   1.173   3.001
 2295SOL    HW2 7785   0.146   1.022   3.059
 2296SOL     OW 7786   2.975   4.886   2.895
 2296SOL    HW1 7787   2.949   4.831   2.974
 2296SOL    HW2 7788   2.895   4.907   2.840
 2297SOL     OW 7789   5.370   4.795   6.130
 2297SOL    HW1 7790   5.446   4.761   6.186
 2297SOL    HW2 7791   5.354   4.732   6.054
 2298SOL     OW 7792   3.602   3.662   3.111
 2298SOL    HW1 7793   3.686   3.609   3.099
 2298SOL    HW2 7794   3.524   3.600   3.115
 2299SOL     OW 7795   4.982   4.488   5.129
 2299SOL    HW1 7796   4.967   4.444   5.217
 2299SOL    HW2 7797   4.988   4.418   5.058
 2300SOL     OW 7798   2.857   6.553   3.312
 2300SOL    HW1 7799   2.855   6.568   3.213
 2300SOL    HW2 7800   2.912   6.472   3.332
 2301SOL     OW 7801   3.648   2.945   3.718
 2301SOL    HW1 7802   3.723   2.949   3.784
 2301SOL    HW2 7803   3.561   2.955   3.766
 2302SOL     OW 7804   3.226   0.423   1.328
 2302SOL    HW1 7805   3.310   0.371   1.346
 2302SOL    HW2 7806   3.191   0.399   1.238
 2303SOL     OW 7807   2.314   3.256   1.094
 2303SOL    HW1 7808   2.277   3.168   1.125
 2303SOL    HW2 7809   2.404   3.270   1.136
 2304SOL     OW 7810   5.553   5.749   4.509
 2304SOL    HW1 7811   5.643   5.739   4.465
 2304SOL    HW2 7812   5.562   5.732   4.607
 2305SOL     OW 7813   2.101   0.453   3.523
 2305SOL    HW1 7814   2.069   0.545   3.544
 2305SOL    HW2 7815   2.169   0.456   3.450
 2306SOL     OW 7816   1.707   5.520   1.649
 2306SOL    HW1 7817   1.712   5.510   1.748
 2306SOL    HW2 7818   1.793   5.491   1.608
 2307SOL     OW 7819   0.208   3.114   5.254
 2307SOL    HW1 7820   0.240   3.058   5.178
 2307SOL    HW2 7821   0.213   3.211   5.230
 2308SOL     OW 7822   2.579   4.807   1.284
 2308SOL    HW1 7823   2.643   4.741   1.325
 2308SOL    HW2 7824   2.535   4.860   1.356
 2309SOL     OW 7825   1.979   1.019   4.718
 2309SOL    HW1 7826   1.902   0.995   4.778
 2309SOL    HW2 7827   1.948   1.017   4.622
 2310SOL     OW 7828   5.550   6.101   2.550
 2310SOL    HW1 7829   5.610   6.168   2.505
 2310SOL    HW2 7830   5.481   6.150   2.603
 2311SOL     OW 7831   3.000   5.982   6.830
 2311SOL    HW1 7832   3.002   5.914   6.757
 2311SOL    HW2 7833   3.012   5.936   6.918
 2312SOL     OW 7834   4.352   5.718   3.512
 2312SOL    HW1 7835   4.254   5.713   3.497
 2312SOL    HW2 7836   4.394   5.629   3.495
 2313SOL     OW 7837   4.752   5.006   2.313
 2313SOL    HW1 7838   4.801   4.919   2.315
 2313SOL    HW2 7839   4.687   5.005   2.237
 2314SOL     OW 7840   4.145   0.006   2.731
 2314SOL    HW1 7841   4.159   6.930   2.705
 2314SOL    HW2 7842   4.152   0.015   2.830
 2315SOL     OW 7843   5.268   3.315   5.906
 2315SOL    HW1 7844   5.270   3.360   5.817
 2315SOL    HW2 7845   5.175   3.287   5.928
 2316SOL     OW 7846   5.085   2.231   3.802
 2316SOL    HW1 7847   5.022   2.242   3.879
 2316SOL    HW2 7848   5.091   2.134   3.778
 2317SOL     OW 7849   0.226   5.620   3.467
 2317SOL    HW1 7850   0.171   5.538   3.452
 2317SOL    HW2 7851   0.322   5.600   3.444
 2318SOL     OW 7852   0.212   2.920   3.407
 2318SOL    HW1 7853   0.180   3.009   3.372
 2318SOL    HW2 7854   0.158   2.895   3.487
 2319SOL     OW 7855   1.610   4.837   4.718
 2319SOL    HW1 7856   1.710   4.843   4.721
 2319SOL    HW2 7857   1.580   4.764   4.779
 2320SOL     OW 7858   1.145   2.705   4.306
 2320SOL    HW1 7859   1.074   2.666   4.248
 2320SOL    HW2 7860   1.104   2.770   4.371
 2321SOL     OW 7861   3.427   1.210   5.198
 2321SOL    HW1 7862   3.394   1.246   5.111
 2321SOL    HW2 7863   3.463   1.284   5.254
 2322SOL     OW 7864   2.553   1.621   5.255
 2322SOL    HW1 7865   2.629   1.647   5.314
 2322SOL    HW2 7866   2.575   1.643   5.160
 2323SOL     OW 7867   2.575   4.572   2.338
 2323SOL    HW1 7868   2.583   4.624   2.423
 2323SOL    HW2 7869   2.496   4.511   2.345
 2324SOL     OW 7870   0.321   6.349   2.784
 2324SOL    HW1 7871   0.352   6.424   2.843
 2324SOL    HW2 7872   0.374   6.350   2.699
 2325SOL     OW 7873   0.961   3.938   1.765
 2325SOL    HW1 7874   1.019   3.867   1.725
 2325SOL    HW2 7875   0.892   3.966   1.698
 2326SOL     OW 7876   2.755   3.918   6.186
 2326SOL    HW1 7877   2.703   4.002   6.171
 2326SOL    HW2 7878   2.786   3.914   6.281
 2327SOL     OW 7879   5.215   2.300   4.876
 2327SOL    HW1 7880   5.275   2.345   4.809
 2327SOL    HW2 7881   5.257   2.303   4.966
 2328SOL     OW 7882   5.109   1.687   3.870
 2328SOL    HW1 7883   5.120   1.732   3.781
 2328SOL    HW2 7884   5.063   1.749   3.933
 2329SOL     OW 7885   1.640   5.360   4.920
 2329SOL    HW1 7886   1.727   5.387   4.878
 2329SOL    HW2 7887   1.646   5.264   4.950
 2330SOL     OW 7888   0.385   4.408   1.833
 2330SOL    HW1 7889   0.472   4.367   1.807
 2330SOL    HW2 7890   0.326   4.338   1.874
 2331SOL     OW 7891   6.111   4.876   6.614
 2331SOL    HW1 7892   6.080   4.843   6.703
 2331SOL    HW2 7893   6.053   4.952   6.584
 2332SOL     OW 7894   4.661   2.091   5.443
 2332SOL    HW1 7895   4.654   2.185   5.476
 2332SOL    HW2 7896   4.579   2.040   5.471
 2333SOL     OW 7897   0.189   4.856   3.033
 2333SOL    HW1 7898   0.154   4.809   2.952
 2333SOL    HW2 7899   0.288   4.866   3.025
 2334SOL     OW 7900   2.712   6.817   0.049
 2334SOL    HW1 7901   2.622   6.832   0.091
 2334SOL    HW2 7902   2.777   6.790   0.120
 2335SOL     OW 7903   6.282   1.052   3.145
 2335SOL    HW1 7904   6.261   1.024   3.052
 2335SOL    HW2 7905   6.373   1.093   3.148
 2336SOL     OW 7906   4.685   1.505   5.467
 2336SOL    HW1 7907   4.775   1.537   5.498
 2336SOL    HW2 7908   4.672   1.529   5.371
 2337SOL     OW 7909   5.039   0.766   3.673
 2337SOL    HW1 7910   4.969   0.790   3.606
 2337SOL    HW2 7911   5.118   0.828   3.662
 2338SOL     OW 7912   0.941   0.122   6.448
 2338SOL    HW1 7913   0.869   0.189   6.468
 2338SOL    HW2 7914   1.025   0.171   6.423
 2339SOL     OW 7915   3.634   3.622   5.351
 2339SOL    HW1 7916   3.558   3.633   5.414
 2339SOL    HW2 7917   3.647   3.707   5.299
 2340SOL     OW 7918   4.747   6.788   5.664
 2340SOL    HW1 7919   4.714   6.769   5.572
 2340SOL    HW2 7920   4.842   6.757   5.672
 2341SOL     OW 7921   5.151   3.957   0.873
 2341SOL    HW1 7922   5.188   3.950   0.781
 2341SOL    HW2 7923   5.130   4.053   0.894
 2342SOL     OW 7924   0.628   6.299   5.468
 2342SOL    HW1 7925   0.565   6.222   5.460
 2342SOL    HW2 7926   0.614   6.344   5.556
 2343SOL     OW 7927   1.834   6.644   1.255
 2343SOL    HW1 7928   1.911   6.690   1.212
 2343SOL    HW2 7929   1.748   6.685   1.224
 2344SOL     OW 7930   2.032   1.421   1.467
 2344SOL    HW1 7931   1.957   1.480   1.438
 2344SOL    HW2 7932   2.099   1.414   1.393
 2345SOL     OW 7933   1.798   6.419   5.485
 2345SOL    HW1 7934   1.737   6.436   5.407
 2345SOL    HW2 7935   1.745   6.380   5.560
 2346SOL     OW 7936   4.624   2.897   5.186
 2346SOL    HW1 7937   4.575   2.814   5.212
 2346SOL    HW2 7938   4.678   2.880   5.104
 2347SOL     OW 7939   1.734   4.388   2.214
 2347SOL    HW1 7940   1.687   4.476   2.216
 2347SOL    HW2 7941   1.675   4.320   2.170
 2348SOL     OW 7942   2.161   6.113   3.384
 2348SOL    HW1 7943   2.061   6.118   3.386
 2348SOL    HW2 7944   2.196   6.094   3.476
 2349SOL     OW 7945   1.051   6.227   0.135
 2349SOL    HW1 7946   1.001   6.261   0.215
 2349SOL    HW2 7947   1.143   6.266   0.135
 2350SOL     OW 7948   3.844   6.588   5.555
 2350SOL    HW1 7949   3.785   6.658   5.596
 2350SOL    HW2 7950   3.938   6.621   5.551
 2351SOL     OW 7951   3.393   5.170   3.327
 2351SOL    HW1 7952   3.393   5.181   3.426
 2351SOL    HW2 7953   3.376   5.074   3.305
 2352SOL     OW 7954   0.766   4.768   3.292
 2352SOL    HW1 7955   0.852   4.770   3.344
 2352SOL    HW2 7956   0.704   4.701   3.333
 2353SOL     OW 7957   2.610   4.608   4.478
 2353SOL    HW1 7958   2.642   4.654   4.561
 2353SOL    HW2 7959   2.580   4.676   4.412
 2354SOL     OW 7960   3.770   1.890   6.601
 2354SOL    HW1 7961   3.705   1.840   6.544
 2354SOL    HW2 7962   3.856   1.900   6.551
 2355SOL     OW 7963   0.338   5.949   0.621
 2355SOL    HW1 7964   0.293   5.878   0.567
 2355SOL    HW2 7965   0.351   6.031   0.564
 2356SOL     OW 7966   2.581   3.795   1.652
 2356SOL    HW1 7967   2.648   3.748   1.709
 2356SOL    HW2 7968   2.610   3.790   1.556
 2357SOL     OW 7969   4.422   5.336   3.897
 2357SOL    HW1 7970   4.465   5.407   3.840
 2357SOL    HW2 7971   4.325   5.355   3.905
 2358SOL     OW 7972   3.039   6.441   4.123
 2358SOL    HW1 7973   3.121   6.471   4.172
 2358SOL    HW2 7974   3.053   6.449   4.025
 2359SOL     OW 7975   1.915   0.897   6.000
 2359SOL    HW1 7976   1.874   0.980   5.961
 2359SOL    HW2 7977   1.999   0.921   6.049
 2360SOL     OW 7978   4.430   4.734   6.527
 2360SOL    HW1 7979   4.504   4.736   6.594
 2360SOL    HW2 7980   4.413   4.827   6.494
 2361SOL     OW 7981   2.852   6.634   3.919
 2361SOL    HW1 7982   2.755   6.656   3.907
 2361SOL    HW2 7983   2.861   6.539   3.946
 2362SOL     OW 7984   4.312   6.581   5.124
 2362SOL    HW1 7985   4.339   6.561   5.030
 2362SOL    HW2 7986   4.215   6.558   5.136
 2363SOL     OW 7987   4.911   2.550   5.421
 2363SOL    HW1 7988   4.840   2.509   5.364
 2363SOL    HW2 7989   4.869   2.605   5.493
 2364SOL     OW 7990   6.101   2.117   2.135
 2364SOL    HW1 7991   6.188   2.077   2.162
 2364SOL    HW2 7992   6.038   2.116   2.212
 2365SOL     OW 7993   5.639   4.471   5.716
 2365SOL    HW1 7994   5.683   4.393   5.671
 2365SOL    HW2 7995   5.685   4.555   5.688
 2366SOL     OW 7996   1.210   3.993   5.806
 2366SOL    HW1 7997   1.221   3.893   5.803
 2366SOL    HW2 7998   1.120   4.017   5.769
 2367SOL     OW 7999   0.896   3.157   6.264
 2367SOL    HW1 8000   0.929   3.072   6.223
 2367SOL    HW2 8001   0.887   3.227   6.193
 2368SOL     OW 8002   4.514   1.309   5.151
 2368SOL    HW1 8003   4.451   1.298   5.228
 2368SOL    HW2 8004   4.551   1.220   5.125
 2369SOL     OW 8005   2.107   1.980   4.126
 2369SOL    HW1 8006   2.114   2.079   4.143
 2369SOL    HW2 8007   2.180   1.933   4.175
 2370SOL     OW 8008   4.548   3.113   0.621
 2370SOL    HW1 8009   4.518   3.136   0.529
 2370SOL    HW2 8010   4.612   3.182   0.654
 2371SOL     OW 8011   1.435   5.876   2.452
 2371SOL    HW1 8012   1.483   5.803   2.500
 2371SOL    HW2 8013   1.415   5.847   2.358
 2372SOL     OW 8014   0.288   1.575   6.976
 2372SOL    HW1 8015   0.199   1.606   7.009
 2372SOL    HW2 8016   0.291   1.475   6.979
 2373SOL     OW 8017   6.785   1.417   6.428
 2373SOL    HW1 8018   6.772   1.493   6.364
 2373SOL    HW2 8019   6.698   1.399   6.476
 2374SOL     OW 8020   6.144   5.653   3.195
 2374SOL    HW1 8021   6.223   5.624   3.141
 2374SOL    HW2 8022   6.175   5.698   3.279
 2375SOL     OW 8023   0.816   0.604   4.161
 2375SOL    HW1 8024   0.848   0.699   4.164
 2375SOL    HW2 8025   0.895   0.544   4.154
 2376SOL     OW 8026   6.100   2.644   3.093
 2376SOL    HW1 8027   6.127   2.647   2.997
 2376SOL    HW2 8028   6.149   2.715   3.143
 2377SOL     OW 8029   3.281   3.789   4.330
 2377SOL    HW1 8030   3.228   3.756   4.253
 2377SOL    HW2 8031   3.220   3.825   4.401
 2378SOL     OW 8032   5.480   1.814   0.416
 2378SOL    HW1 8033   5.459   1.721   0.387
 2378SOL    HW2 8034   5.398   1.856   0.455
 2379SOL     OW 8035   6.489   3.543   6.932
 2379SOL    HW1 8036   6.537   3.611   6.988
 2379SOL    HW2 8037   6.556   3.486   6.884
 2380SOL     OW 8038   6.295   1.120   5.286
 2380SOL    HW1 8039   6.210   1.169   5.307
 2380SOL    HW2 8040   6.364   1.143   5.353
 2381SOL     OW 8041   1.384   4.458   5.269
 2381SOL    HW1 8042   1.410   4.414   5.183
 2381SOL    HW2 8043   1.448   4.432   5.341
 2382SOL     OW 8044   2.432   5.637   2.599
 2382SOL    HW1 8045   2.505   5.680   2.547
 2382SOL    HW2 8046   2.469   5.596   2.682
 2383SOL     OW 8047   5.608   6.392   6.525
 2383SOL    HW1 8048   5.523   6.365   6.479
 2383SOL    HW2 8049   5.675   6.421   6.456
 2384SOL     OW 8050   1.564   2.558   1.221
 2384SOL    HW1 8051   1.496   2.599   1.160
 2384SOL    HW2 8052   1.609   2.482   1.175
 2385SOL     OW 8053   0.449   0.733   0.515
 2385SOL    HW1 8054   0.491   0.786   0.588
 2385SOL    HW2 8055   0.500   0.746   0.430
 2386SOL     OW 8056   3.004   5.535   4.167
 2386SOL    HW1 8057   3.081   5.509   4.225
 2386SOL    HW2 8058   2.926   5.562   4.224
 2387SOL     OW 8059   6.745   3.140   4.380
 2387SOL    HW1 8060   6.705   3.190   4.303
 2387SOL    HW2 8061   6.839   3.172   4.395
 2388SOL     OW 8062   0.755   1.805   5.622
 2388SOL    HW1 8063   0.715   1.714   5.614
 2388SOL    HW2 8064   0.682   1.873   5.628
 2389SOL     OW 8065   4.356   4.580   3.585
 2389SOL    HW1 8066   4.422   4.643   3.544
 2389SOL    HW2 8067   4.389   4.486   3.576
 2390SOL     OW 8068   3.782   3.563   4.595
 2390SOL    HW1 8069   3.684   3.565   4.613
 2390SOL    HW2 8070   3.824   3.648   4.629
 2391SOL     OW 8071   3.646   3.982   6.345
 2391SOL    HW1 8072   3.669   3.923   6.268
 2391SOL    HW2 8073   3.644   3.928   6.429
 2392SOL     OW 8074   3.050   3.866   6.353
 2392SOL    HW1 8075   3.039   3.848   6.255
 2392SOL    HW2 8076   2.969   3.914   6.387
 2393SOL     OW 8077   3.858   5.252   1.213
 2393SOL    HW1 8078   3.876   5.180   1.280
 2393SOL    HW2 8079   3.780   5.224   1.156
 2394SOL     OW 8080   0.881   3.981   4.103
 2394SOL    HW1 8081   0.910   3.900   4.155
 2394SOL    HW2 8082   0.809   3.955   4.039
 2395SOL     OW 8083   7.019   3.026   6.480
 2395SOL    HW1 8084   7.012   3.109   6.536
 2395SOL    HW2 8085   0.062   2.962   6.522
 2396SOL     OW 8086   5.800   6.302   0.657
 2396SOL    HW1 8087   5.894   6.319   0.626
 2396SOL    HW2 8088   5.751   6.251   0.586
 2397SOL     OW 8089   6.788   4.919   0.510
 2397SOL    HW1 8090   6.870   4.975   0.523
 2397SOL    HW2 8091   6.762   4.920   0.413
 2398SOL     OW 8092   2.955   4.830   4.814
 2398SOL    HW1 8093   3.035   4.859   4.761
 2398SOL    HW2 8094   2.978   4.828   4.911
 2399SOL     OW 8095   3.501   1.931   3.306
 2399SOL    HW1 8096   3.467   1.996   3.375
 2399SOL    HW2 8097   3.601   1.929   3.309
 2400SOL     OW 8098   2.592   3.731   0.781
 2400SOL    HW1 8099   2.545   3.652   0.822
 2400SOL    HW2 8100   2.614   3.710   0.686
 2401SOL     OW 8101   3.391   0.433   4.233
 2401SOL    HW1 8102   3.478   0.461   4.275
 2401SOL    HW2 8103   3.406   0.350   4.179
 2402SOL     OW 8104   0.170   1.551   3.944
 2402SOL    HW1 8105   0.085   1.567   3.993
 2402SOL    HW2 8106   0.221   1.477   3.988
 2403SOL     OW 8107   3.093   2.872   0.299
 2403SOL    HW1 8108   3.185   2.890   0.332
 2403SOL    HW2 8109   3.038   2.832   0.372
 2404SOL     OW 8110   5.819   1.966   1.709
 2404SOL    HW1 8111   5.840   1.989   1.805
 2404SOL    HW2 8112   5.780   1.874   1.705
 2405SOL     OW 8113   3.461   3.918   5.576
 2405SOL    HW1 8114   3.455   3.974   5.658
 2405SOL    HW2 8115   3.557   3.902   5.553
 2406SOL     OW 8116   2.314   0.245   4.373
 2406SOL    HW1 8117   2.399   0.194   4.368
 2406SOL    HW2 8118   2.238   0.186   4.345
 2407SOL     OW 8119   4.508   2.581   3.246
 2407SOL    HW1 8120   4.551   2.669   3.269
 2407SOL    HW2 8121   4.536   2.554   3.154
 2408SOL     OW 8122   3.229   4.891   3.042
 2408SOL    HW1 8123   3.294   4.952   2.996
 2408SOL    HW2 8124   3.158   4.864   2.977
 2409SOL     OW 8125   2.247   2.788   1.004
 2409SOL    HW1 8126   2.186   2.713   1.030
 2409SOL    HW2 8127   2.194   2.868   0.979
 2410SOL     OW 8128   6.004   3.638   5.498
 2410SOL    HW1 8129   6.007   3.672   5.404
 2410SOL    HW2 8130   5.985   3.540   5.498
 2411SOL     OW 8131   3.207   3.462   5.591
 2411SOL    HW1 8132   3.228   3.393   5.660
 2411SOL    HW2 8133   3.170   3.417   5.509
 2412SOL     OW 8134   2.754   2.936   0.407
 2412SOL    HW1 8135   2.667   2.935   0.358
 2412SOL    HW2 8136   2.779   3.030   0.428
 2413SOL     OW 8137   5.362   3.629   6.211
 2413SOL    HW1 8138   5.452   3.595   6.239
 2413SOL    HW2 8139   5.334   3.703   6.272
 2414SOL     OW 8140   5.647   3.641   3.394
 2414SOL    HW1 8141   5.739   3.620   3.361
 2414SOL    HW2 8142   5.581   3.582   3.348
 2415SOL     OW 8143   2.031   0.174   1.931
 2415SOL    HW1 8144   1.990   0.199   1.843
 2415SOL    HW2 8145   1.960   0.144   1.994
 2416SOL     OW 8146   1.397   2.097   4.694
 2416SOL    HW1 8147   1.362   2.093   4.601
 2416SOL    HW2 8148   1.404   2.004   4.731
 2417SOL     OW 8149   5.200   2.142   0.941
 2417SOL    HW1 8150   5.127   2.120   1.006
 2417SOL    HW2 8151   5.220   2.062   0.885
 2418SOL     OW 8152   3.325   3.238   4.809
 2418SOL    HW1 8153   3.393   3.289   4.861
 2418SOL    HW2 8154   3.283   3.169   4.869
 2419SOL     OW 8155   1.644   0.094   4.781
 2419SOL    HW1 8156   1.564   0.064   4.833
 2419SOL    HW2 8157   1.678   0.019   4.726
 2420SOL     OW 8158   3.933   6.637   2.040
 2420SOL    HW1 8159   3.840   6.604   2.053
 2420SOL    HW2 8160   3.988   6.613   2.120
 2421SOL     OW 8161   3.398   6.874   4.015
 2421SOL    HW1 8162   3.410   6.952   4.076
 2421SOL    HW2 8163   3.379   6.907   3.923
 2422SOL     OW 8164   4.934   0.263   0.538
 2422SOL    HW1 8165   4.948   0.192   0.607
 2422SOL    HW2 8166   4.961   0.351   0.575
 2423SOL     OW 8167   1.926   5.250   1.620
 2423SOL    HW1 8168   2.022   5.248   1.593
 2423SOL    HW2 8169   1.875   5.181   1.568
 2424SOL     OW 8170   5.564   6.736   6.891
 2424SOL    HW1 8171   5.464   6.738   6.892
 2424SOL    HW2 8172   5.596   6.647   6.858
 2425SOL     OW 8173   6.029   6.808   6.186
 2425SOL    HW1 8174   6.112   6.777   6.233
 2425SOL    HW2 8175   6.017   6.906   6.200
 2426SOL     OW 8176   0.918   5.424   4.554
 2426SOL    HW1 8177   0.995   5.404   4.493
 2426SOL    HW2 8178   0.847   5.355   4.542
 2427SOL     OW 8179   5.355   5.771   0.319
 2427SOL    HW1 8180   5.423   5.718   0.268
 2427SOL    HW2 8181   5.379   5.769   0.416
 2428SOL     OW 8182   0.594   0.333   2.678
 2428SOL    HW1 8183   0.679   0.327   2.731
 2428SOL    HW2 8184   0.567   0.429   2.669
 2429SOL     OW 8185   6.032   4.798   3.187
 2429SOL    HW1 8186   6.073   4.723   3.135
 2429SOL    HW2 8187   6.037   4.776   3.285
 2430SOL     OW 8188   5.347   3.079   0.378
 2430SOL    HW1 8189   5.262   3.033   0.354
 2430SOL    HW2 8190   5.365   3.152   0.312
 2431SOL     OW 8191   4.586   0.945   0.737
 2431SOL    HW1 8192   4.552   0.990   0.820
 2431SOL    HW2 8193   4.522   0.873   0.710
 2432SOL     OW 8194   3.212   6.487   2.469
 2432SOL    HW1 8195   3.165   6.534   2.395
 2432SOL    HW2 8196   3.147   6.471   2.544
 2433SOL     OW 8197   1.852   6.547   0.163
 2433SOL    HW1 8198   1.846   6.449   0.186
 2433SOL    HW2 8199   1.891   6.557   0.072
 2434SOL     OW 8200   5.423   1.687   3.005
 2434SOL    HW1 8201   5.444   1.591   2.992
 2434SOL    HW2 8202   5.339   1.696   3.059
 2435SOL     OW 8203   5.176   4.849   0.503
 2435SOL    HW1 8204   5.127   4.899   0.574
 2435SOL    HW2 8205   5.163   4.894   0.415
 2436SOL     OW 8206   1.863   6.871   1.510
 2436SOL    HW1 8207   1.845   6.782   1.553
 2436SOL    HW2 8208   1.843   6.865   1.412
 2437SOL     OW 8209   4.987   7.020   1.400
 2437SOL    HW1 8210   4.894   0.033   1.409
 2437SOL    HW2 8211   5.038   0.021   1.483
 2438SOL     OW 8212   4.116   1.097   4.159
 2438SOL    HW1 8213   4.140   1.136   4.070
 2438SOL    HW2 8214   4.167   1.143   4.231
 2439SOL     OW 8215   0.614   4.157   0.451
 2439SOL    HW1 8216   0.692   4.215   0.477
 2439SOL    HW2 8217   0.600   4.088   0.522
 2440SOL     OW 8218   3.851   6.279   5.575
 2440SOL    HW1 8219   3.833   6.377   5.566
 2440SOL    HW2 8220   3.890   6.261   5.665
 2441SOL     OW 8221   6.000   0.924   6.838
 2441SOL    HW1 8222   5.955   0.854   6.782
 2441SOL    HW2 8223   6.093   0.939   6.803
 2442SOL     OW 8224   5.296   5.447   3.272
 2442SOL    HW1 8225   5.302   5.450   3.372
 2442SOL    HW2 8226   5.386   5.432   3.234
 2443SOL     OW 8227   3.243   0.191   6.482
 2443SOL    HW1 8228   3.216   0.143   6.398
 2443SOL    HW2 8229   3.241   0.127   6.559
 2444SOL     OW 8230   3.614   3.615   0.458
 2444SOL    HW1 8231   3.702   3.577   0.488
 2444SOL    HW2 8232   3.549   3.540   0.444
 2445SOL     OW 8233   6.206   1.566   1.757
 2445SOL    HW1 8234   6.168   1.585   1.667
 2445SOL    HW2 8235   6.287   1.507   1.748
 2446SOL     OW 8236   0.759   3.293   4.735
 2446SOL    HW1 8237   0.748   3.355   4.658
 2446SOL    HW2 8238   0.764   3.346   4.820
 2447SOL     OW 8239   2.596   1.277   1.266
 2447SOL    HW1 8240   2.573   1.193   1.315
 2447SOL    HW2 8241   2.620   1.349   1.331
 2448SOL     OW 8242   6.585   1.384   4.092
 2448SOL    HW1 8243   6.676   1.373   4.052
 2448SOL    HW2 8244   6.577   1.324   4.172
 2449SOL     OW 8245   0.753   4.110   1.908
 2449SOL    HW1 8246   0.775   4.013   1.920
 2449SOL    HW2 8247   0.833   4.166   1.928
 2450SOL     OW 8248   3.685   4.402   6.466
 2450SOL    HW1 8249   3.667   4.409   6.564
 2450SOL    HW2 8250   3.651   4.484   6.420
 2451SOL     OW 8251   1.522   6.993   3.744
 2451SOL    HW1 8252   1.489   6.928   3.812
 2451SOL    HW2 8253   1.454   7.001   3.670
 2452SOL     OW 8254   2.725   2.054   4.260
 2452SOL    HW1 8255   2.750   2.146   4.289
 2452SOL    HW2 8256   2.626   2.043   4.264
 2453SOL     OW 8257   0.557   3.692   0.609
 2453SOL    HW1 8258   0.458   3.702   0.622
 2453SOL    HW2 8259   0.593   3.624   0.673
 2454SOL     OW 8260   2.947   0.438   6.956
 2454SOL    HW1 8261   2.928   0.413   0.031
 2454SOL    HW2 8262   2.996   0.363   6.912
 2455SOL     OW 8263   4.037   0.224   0.448
 2455SOL    HW1 8264   4.116   0.195   0.502
 2455SOL    HW2 8265   3.993   0.302   0.493
 2456SOL     OW 8266   6.697   2.612   6.906
 2456SOL    HW1 8267   6.719   2.589   6.812
 2456SOL    HW2 8268   6.746   2.551   6.968
 2457SOL     OW 8269   6.746   1.038   6.434
 2457SOL    HW1 8270   6.828   1.024   6.379
 2457SOL    HW2 8271   6.770   1.045   6.530
 2458SOL     OW 8272   1.640   6.583   4.115
 2458SOL    HW1 8273   1.581   6.509   4.147
 2458SOL    HW2 8274   1.593   6.670   4.125
 2459SOL     OW 8275   3.010   5.830   5.870
 2459SOL    HW1 8276   2.979   5.884   5.949
 2459SOL    HW2 8277   2.986   5.734   5.884
 2460SOL     OW 8278   1.178   1.242   1.237
 2460SOL    HW1 8279   1.155   1.279   1.147
 2460SOL    HW2 8280   1.098   1.198   1.277
 2461SOL     OW 8281   5.055   0.649   3.130
 2461SOL    HW1 8282   4.955   0.639   3.131
 2461SOL    HW2 8283   5.090   0.628   3.039
 2462SOL     OW 8284   2.220   5.431   6.976
 2462SOL    HW1 8285   2.197   5.415   6.880
 2462SOL    HW2 8286   2.319   5.424   6.989
 2463SOL     OW 8287   5.714   1.929   6.912
 2463SOL    HW1 8288   5.734   1.938   6.814
 2463SOL    HW2 8289   5.687   2.018   6.948
 2464SOL     OW 8290   1.974   4.153   2.518
 2464SOL    HW1 8291   1.922   4.237   2.529
 2464SOL    HW2 8292   2.061   4.160   2.568
 2465SOL     OW 8293   1.001   6.897   6.547
 2465SOL    HW1 8294   0.954   6.816   6.513
 2465SOL    HW2 8295   0.963   6.979   6.504
 2466SOL     OW 8296   2.616   1.617   3.164
 2466SOL    HW1 8297   2.679   1.647   3.236
 2466SOL    HW2 8298   2.553   1.549   3.201
 2467SOL     OW 8299   5.207   1.626   4.616
 2467SOL    HW1 8300   5.181   1.629   4.520
 2467SOL    HW2 8301   5.294   1.675   4.628
 2468SOL     OW 8302   4.743   6.786   1.630
 2468SOL    HW1 8303   4.805   6.733   1.572
 2468SOL    HW2 8304   4.681   6.724   1.677
 2469SOL     OW 8305   4.159   3.635   5.320
 2469SOL    HW1 8306   4.255   3.619   5.343
 2469SOL    HW2 8307   4.105   3.554   5.342
 2470SOL     OW 8308   4.619   4.112   6.132
 2470SOL    HW1 8309   4.626   4.132   6.034
 2470SOL    HW2 8310   4.618   4.013   6.147
 2471SOL     OW 8311   2.822   6.092   0.707
 2471SOL    HW1 8312   2.761   6.051   0.640
 2471SOL    HW2 8313   2.909   6.042   0.708
 2472SOL     OW 8314   4.573   2.253   3.260
 2472SOL    HW1 8315   4.489   2.306   3.271
 2472SOL    HW2 8316   4.588   2.233   3.163
 2473SOL     OW 8317   2.097   3.729   4.931
 2473SOL    HW1 8318   2.109   3.825   4.958
 2473SOL    HW2 8319   2.131   3.718   4.837
 2474SOL     OW 8320   0.160   6.100   1.430
 2474SOL    HW1 8321   0.228   6.111   1.357
 2474SOL    HW2 8322   0.204   6.060   1.510
 2475SOL     OW 8323   3.685   0.586   3.198
 2475SOL    HW1 8324   3.749   0.644   3.248
 2475SOL    HW2 8325   3.674   0.500   3.246
 2476SOL     OW 8326   6.749   1.236   2.534
 2476SOL    HW1 8327   6.780   1.151   2.578
 2476SOL    HW2 8328   6.650   1.245   2.544
 2477SOL     OW 8329   4.360   1.491   1.979
 2477SOL    HW1 8330   4.442   1.445   1.945
 2477SOL    HW2 8331   4.282   1.427   1.975
 2478SOL     OW 8332   6.302   0.948   1.670
 2478SOL    HW1 8333   6.226   0.893   1.636
 2478SOL    HW2 8334   6.303   0.946   1.770
 2479SOL     OW 8335   1.217   3.489   2.145
 2479SOL    HW1 8336   1.294   3.536   2.189
 2479SOL    HW2 8337   1.139   3.551   2.139
 2480SOL     OW 8338   4.573   4.048   0.803
 2480SOL    HW1 8339   4.638   3.982   0.842
 2480SOL    HW2 8340   4.604   4.073   0.711
 2481SOL     OW 8341   3.107   6.704   0.592
 2481SOL    HW1 8342   3.072   6.661   0.508
 2481SOL    HW2 8343   3.207   6.708   0.588
 2482SOL     OW 8344   5.465   3.643   5.949
 2482SOL    HW1 8345   5.395   3.667   6.016
 2482SOL    HW2 8346   5.552   3.684   5.975
 2483SOL     OW 8347   1.669   1.032   0.874
 2483SOL    HW1 8348   1.750   0.976   0.891
 2483SOL    HW2 8349   1.666   1.057   0.777
 2484SOL     OW 8350   3.434   0.648   0.236
 2484SOL    HW1 8351   3.489   0.646   0.152
 2484SOL    HW2 8352   3.395   0.740   0.248
 2485SOL     OW 8353   6.404   3.670   1.478
 2485SOL    HW1 8354   6.429   3.632   1.567
 2485SOL    HW2 8355   6.307   3.653   1.460
 2486SOL     OW 8356   2.027   4.863   4.380
 2486SOL    HW1 8357   1.948   4.811   4.348
 2486SOL    HW2 8358   2.000   4.921   4.457
 2487SOL     OW 8359   3.908   6.074   0.453
 2487SOL    HW1 8360   3.965   6.040   0.528
 2487SOL    HW2 8361   3.828   6.120   0.490
 2488SOL     OW 8362   1.813   4.662   2.433
 2488SOL    HW1 8363   1.853   4.720   2.504
 2488SOL    HW2 8364   1.737   4.710   2.390
 2489SOL     OW 8365   1.421   5.884   3.238
 2489SOL    HW1 8366   1.408   5.963   3.178
 2489SOL    HW2 8367   1.338   5.830   3.241
 2490SOL     OW 8368   6.699   4.743   1.647
 2490SOL    HW1 8369   6.784   4.749   1.595
 2490SOL    HW2 8370   6.719   4.725   1.743
 2491SOL     OW 8371   2.189   5.362   0.769
 2491SOL    HW1 8372   2.108   5.349   0.827
 2491SOL    HW2 8373   2.240   5.276   0.764
 2492SOL     OW 8374   4.420   2.476   0.862
 2492SOL    HW1 8375   4.481   2.405   0.895
 2492SOL    HW2 8376   4.428   2.484   0.763
 2493SOL     OW 8377   5.415   0.269   1.716
 2493SOL    HW1 8378   5.370   0.301   1.800
 2493SOL    HW2 8379   5.422   0.169   1.718
 2494SOL     OW 8380   5.561   4.167   2.656
 2494SOL    HW1 8381   5.565   4.120   2.744
 2494SOL    HW2 8382   5.600   4.108   2.585
 2495SOL     OW 8383   5.546   0.622   4.624
 2495SOL    HW1 8384   5.549   0.557   4.548
 2495SOL    HW2 8385   5.599   0.703   4.601
 2496SOL     OW 8386   6.658   3.606   6.144
 2496SOL    HW1 8387   6.629   3.518   6.182
 2496SOL    HW2 8388   6.700   3.591   6.055
 2497SOL     OW 8389   0.274   0.522   0.597
 2497SOL    HW1 8390   0.178   0.544   0.614
 2497SOL    HW2 8391   0.321   0.603   0.564
 2498SOL     OW 8392   2.518   1.708   4.213
 2498SOL    HW1 8393   2.512   1.751   4.303
 2498SOL    HW2 8394   2.606   1.660   4.205
 2499SOL     OW 8395   6.421   2.390   2.075
 2499SOL    HW1 8396   6.321   2.391   2.067
 2499SOL    HW2 8397   6.449   2.308   2.126
 2500SOL     OW 8398   4.335   3.092   0.058
 2500SOL    HW1 8399   4.286   3.124   0.140
 2500SOL    HW2 8400   4.304   3.144   6.999
 2501SOL     OW 8401   5.816   5.119   0.587
 2501SOL    HW1 8402   5.724   5.097   0.556
 2501SOL    HW2 8403   5.864   5.171   0.517
 2502SOL     OW 8404   1.259   5.617   3.498
 2502SOL    HW1 8405   1.206   5.576   3.423
 2502SOL    HW2 8406   1.346   5.650   3.462
 2503SOL     OW 8407   2.755   5.772   4.053
 2503SOL    HW1 8408   2.730   5.712   3.977
 2503SOL    HW2 8409   2.735   5.727   4.140
 2504SOL     OW 8410   4.008   5.611   4.544
 2504SOL    HW1 8411   3.930   5.645   4.595
 2504SOL    HW2 8412   3.979   5.581   4.453
 2505SOL     OW 8413   1.095   6.394   2.909
 2505SOL    HW1 8414   1.117   6.299   2.885
 2505SOL    HW2 8415   1.127   6.414   3.001
 2506SOL     OW 8416   6.457   4.006   4.904
 2506SOL    HW1 8417   6.453   4.105   4.896
 2506SOL    HW2 8418   6.385   3.975   4.966
 2507SOL     OW 8419   1.290   4.165   0.774
 2507SOL    HW1 8420   1.245   4.085   0.734
 2507SOL    HW2 8421   1.384   4.141   0.799
 2508SOL     OW 8422   2.579   1.396   2.430
 2508SOL    HW1 8423   2.651   1.436   2.486
 2508SOL    HW2 8424   2.577   1.442   2.341
 2509SOL     OW 8425   6.731   2.487   1.691
 2509SOL    HW1 8426   6.660   2.498   1.761
 2509SOL    HW2 8427   6.806   2.551   1.708
 2510SOL     OW 8428   3.009   4.418   1.401
 2510SOL    HW1 8429   2.979   4.511   1.381
 2510SOL    HW2 8430   3.043   4.414   1.495
 2511SOL     OW 8431   2.759   2.310   4.336
 2511SOL    HW1 8432   2.668   2.327   4.372
 2511SOL    HW2 8433   2.825   2.312   4.411
 2512SOL     OW 8434   5.370   4.390   5.224
 2512SOL    HW1 8435   5.457   4.422   5.186
 2512SOL    HW2 8436   5.314   4.469   5.248
 2513SOL     OW 8437   1.537   4.062   5.173
 2513SOL    HW1 8438   1.594   4.037   5.251
 2513SOL    HW2 8439   1.533   3.985   5.109
 2514SOL     OW 8440   6.220   3.612   4.664
 2514SOL    HW1 8441   6.209   3.656   4.753
 2514SOL    HW2 8442   6.131   3.578   4.633
 2515SOL     OW 8443   1.701   6.384   0.680
 2515SOL    HW1 8444   1.776   6.429   0.631
 2515SOL    HW2 8445   1.616   6.396   0.629
 2516SOL     OW 8446   6.313   0.985   2.627
 2516SOL    HW1 8447   6.270   0.939   2.550
 2516SOL    HW2 8448   6.286   1.081   2.629
 2517SOL     OW 8449   0.884   5.823   5.676
 2517SOL    HW1 8450   0.976   5.787   5.661
 2517SOL    HW2 8451   0.889   5.921   5.693
 2518SOL     OW 8452   1.131   4.597   0.129
 2518SOL    HW1 8453   1.124   4.514   0.074
 2518SOL    HW2 8454   1.225   4.631   0.126
 2519SOL     OW 8455   4.582   6.829   3.228
 2519SOL    HW1 8456   4.533   6.825   3.141
 2519SOL    HW2 8457   4.680   6.826   3.211
 2520SOL     OW 8458   2.364   2.281   0.239
 2520SOL    HW1 8459   2.308   2.311   0.316
 2520SOL    HW2 8460   2.405   2.361   0.195
 2521SOL     OW 8461   1.252   0.312   4.867
 2521SOL    HW1 8462   1.318   0.257   4.814
 2521SOL    HW2 8463   1.300   0.388   4.910
 2522SOL     OW 8464   0.244   3.756   5.188
 2522SOL    HW1 8465   0.240   3.679   5.124
 2522SOL    HW2 8466   0.183   3.738   5.266
 2523SOL     OW 8467   0.041   2.814   1.500
 2523SOL    HW1 8468   0.125   2.865   1.513
 2523SOL    HW2 8469   7.014   2.804   1.588
 2524SOL     OW 8470   1.322   6.284   4.895
 2524SOL    HW1 8471   1.345   6.381   4.888
 2524SOL    HW2 8472   1.284   6.253   4.808
 2525SOL     OW 8473   0.846   2.350   5.236
 2525SOL    HW1 8474   0.919   2.314   5.177
 2525SOL    HW2 8475   0.796   2.422   5.187
 2526SOL     OW 8476   1.735   3.852   5.778
 2526SOL    HW1 8477   1.696   3.920   5.839
 2526SOL    HW2 8478   1.810   3.893   5.726
 2527SOL     OW 8479   4.861   5.866   4.610
 2527SOL    HW1 8480   4.935   5.911   4.559
 2527SOL    HW2 8481   4.889   5.854   4.706
 2528SOL     OW 8482   5.687   5.236   1.343
 2528SOL    HW1 8483   5.680   5.292   1.260
 2528SOL    HW2 8484   5.691   5.139   1.318
 2529SOL     OW 8485   0.084   6.982   6.171
 2529SOL    HW1 8486   0.133   0.048   6.176
 2529SOL    HW2 8487   7.011   6.998   6.137
 2530SOL     OW 8488   2.647   6.978   5.584
 2530SOL    HW1 8489   2.604   0.030   5.639
 2530SOL    HW2 8490   2.612   6.889   5.613
 2531SOL     OW 8491   4.888   5.877   4.274
 2531SOL    HW1 8492   4.972   5.917   4.310
 2531SOL    HW2 8493   4.810   5.908   4.328
 2532SOL     OW 8494   0.997   0.058   1.150
 2532SOL    HW1 8495   0.989   0.123   1.225
 2532SOL    HW2 8496   0.999   0.107   1.063
 2533SOL     OW 8497   3.021   6.833   3.193
 2533SOL    HW1 8498   2.987   6.827   3.287
 2533SOL    HW2 8499   3.121   6.827   3.194
 2534SOL     OW 8500   3.513   0.424   3.584
 2534SOL    HW1 8501   3.571   0.360   3.632
 2534SOL    HW2 8502   3.463   0.481   3.650
 2535SOL     OW 8503   3.292   2.084   5.561
 2535SOL    HW1 8504   3.282   2.035   5.474
 2535SOL    HW2 8505   3.237   2.039   5.631
 2536SOL     OW 8506   0.644   2.434   4.579
 2536SOL    HW1 8507   0.669   2.393   4.491
 2536SOL    HW2 8508   0.699   2.517   4.593
 2537SOL     OW 8509   3.662   0.405   6.256
 2537SOL    HW1 8510   3.745   0.403   6.311
 2537SOL    HW2 8511   3.646   0.498   6.222
 2538SOL     OW 8512   0.897   4.896   5.184
 2538SOL    HW1 8513   0.946   4.967   5.235
 2538SOL    HW2 8514   0.844   4.840   5.248
 2539SOL     OW 8515   5.304   1.010   5.426
 2539SOL    HW1 8516   5.315   0.968   5.336
 2539SOL    HW2 8517   5.393   1.040   5.459
 2540SOL     OW 8518   3.657   0.950   2.666
 2540SOL    HW1 8519   3.607   1.016   2.723
 2540SOL    HW2 8520   3.628   0.961   2.571
 2541SOL     OW 8521   2.395   7.004   4.967
 2541SOL    HW1 8522   2.417   6.960   4.879
 2541SOL    HW2 8523   2.381   6.933   5.036
 2542SOL     OW 8524   4.632   0.998   5.830
 2542SOL    HW1 8525   4.533   0.984   5.833
 2542SOL    HW2 8526   4.655   1.082   5.880
 2543SOL     OW 8527   1.416   1.285   2.881
 2543SOL    HW1 8528   1.438   1.187   2.885
 2543SOL    HW2 8529   1.359   1.303   2.801
 2544SOL     OW 8530   0.225   6.006   1.097
 2544SOL    HW1 8531   0.224   5.927   1.159
 2544SOL    HW2 8532   0.220   5.973   1.002
 2545SOL     OW 8533   2.181   1.073   1.331
 2545SOL    HW1 8534   2.207   1.113   1.243
 2545SOL    HW2 8535   2.253   1.092   1.398
 2546SOL     OW 8536   6.917   1.388   1.192
 2546SOL    HW1 8537   6.908   1.447   1.111
 2546SOL    HW2 8538   6.965   1.304   1.167
 2547SOL     OW 8539   6.120   4.206   0.780
 2547SOL    HW1 8540   6.216   4.236   0.770
 2547SOL    HW2 8541   6.067   4.241   0.703
 2548SOL     OW 8542   2.470   6.481   5.545
 2548SOL    HW1 8543   2.471   6.450   5.450
 2548SOL    HW2 8544   2.521   6.417   5.602
 2549SOL     OW 8545   1.973   0.906   0.922
 2549SOL    HW1 8546   2.022   0.851   0.990
 2549SOL    HW2 8547   2.008   0.999   0.923
 2550SOL     OW 8548   7.004   0.406   6.020
 2550SOL    HW1 8549   0.035   0.456   5.950
 2550SOL    HW2 8550   6.995   0.310   5.992
 2551SOL     OW 8551   3.705   4.555   0.680
 2551SOL    HW1 8552   3.612   4.589   0.691
 2551SOL    HW2 8553   3.704   4.455   0.688
 2552SOL     OW 8554   2.142   6.062   5.728
 2552SOL    HW1 8555   2.088   6.020   5.655
 2552SOL    HW2 8556   2.081   6.113   5.790
 2553SOL     OW 8557   4.266   3.010   6.166
 2553SOL    HW1 8558   4.242   3.000   6.069
 2553SOL    HW2 8559   4.354   2.967   6.183
 2554SOL     OW 8560   2.021   6.112   0.535
 2554SOL    HW1 8561   2.031   6.192   0.593
 2554SOL    HW2 8562   1.925   6.085   0.531
 2555SOL     OW 8563   5.866   0.174   6.618
 2555SOL    HW1 8564   5.796   0.104   6.600
 2555SOL    HW2 8565   5.825   0.251   6.666
 2556SOL     OW 8566   4.590   5.669   0.214
 2556SOL    HW1 8567   4.626   5.701   0.126
 2556SOL    HW2 8568   4.662   5.673   0.283
 2557SOL     OW 8569   2.605   3.338   6.255
 2557SOL    HW1 8570   2.636   3.428   6.286
 2557SOL    HW2 8571   2.680   3.273   6.263
 2558SOL     OW 8572   4.585   2.446   5.846
 2558SOL    HW1 8573   4.648   2.486   5.914
 2558SOL    HW2 8574   4.504   2.504   5.837
 2559SOL     OW 8575   6.192   4.210   3.844
 2559SOL    HW1 8576   6.176   4.174   3.752
 2559SOL    HW2 8577   6.106   4.247   3.881
 2560SOL     OW 8578   5.646   3.091   4.100
 2560SOL    HW1 8579   5.593   3.024   4.153
 2560SOL    HW2 8580   5.653   3.062   4.005
 2561SOL     OW 8581   2.612   6.498   4.906
 2561SOL    HW1 8582   2.519   6.523   4.877
 2561SOL    HW2 8583   2.677   6.523   4.834
 2562SOL     OW 8584   1.149   5.620   2.259
 2562SOL    HW1 8585   1.060   5.632   2.214
 2562SOL    HW2 8586   1.138   5.629   2.358
 2563SOL     OW 8587   3.834   1.998   0.656
 2563SOL    HW1 8588   3.792   2.038   0.574
 2563SOL    HW2 8589   3.932   1.985   0.640
 2564SOL     OW 8590   1.935   6.225   5.815
 2564SOL    HW1 8591   1.923   6.322   5.835
 2564SOL    HW2 8592   1.854   6.174   5.845
 2565SOL     OW 8593   0.284   7.000   6.807
 2565SOL    HW1 8594   0.251   0.037   6.882
 2565SOL    HW2 8595   0.360   0.026   6.760
 2566SOL     OW 8596   2.208   0.007   1.180
 2566SOL    HW1 8597   2.208   0.026   1.278
 2566SOL    HW2 8598   2.303   7.012   1.150
 2567SOL     OW 8599   0.749   1.542   1.195
 2567SOL    HW1 8600   0.659   1.510   1.226
 2567SOL    HW2 8601   0.759   1.524   1.097
 2568SOL     OW 8602   3.181   6.404   0.099
 2568SOL    HW1 8603   3.164   6.427   0.003
 2568SOL    HW2 8604   3.247   6.468   0.137
 2569SOL     OW 8605   2.857   1.317   1.697
 2569SOL    HW1 8606   2.821   1.380   1.629
 2569SOL    HW2 8607   2.927   1.259   1.655
 2570SOL     OW 8608   5.749   7.017   6.169
 2570SOL    HW1 8609   5.688   6.977   6.237
 2570SOL    HW2 8610   5.823   0.047   6.216
 2571SOL     OW 8611   2.308   4.530   4.943
 2571SOL    HW1 8612   2.254   4.563   5.020
 2571SOL    HW2 8613   2.393   4.583   4.936
 2572SOL     OW 8614   2.458   5.544   0.178
 2572SOL    HW1 8615   2.550   5.507   0.170
 2572SOL    HW2 8616   2.461   5.635   0.220
 2573SOL     OW 8617   6.488   2.218   1.518
 2573SOL    HW1 8618   6.520   2.129   1.488
 2573SOL    HW2 8619   6.494   2.225   1.617
 2574SOL     OW 8620   6.132   4.066   6.827
 2574SOL    HW1 8621   6.224   4.078   6.863
 2574SOL    HW2 8622   6.137   4.042   6.730
 2575SOL     OW 8623   5.584   5.562   0.303
 2575SOL    HW1 8624   5.678   5.597   0.306
 2575SOL    HW2 8625   5.547   5.575   0.211
 2576SOL     OW 8626   3.414   0.079   4.174
 2576SOL    HW1 8627   3.499   0.115   4.212
 2576SOL    HW2 8628   3.351   0.059   4.249
 2577SOL     OW 8629   3.403   0.234   1.703
 2577SOL    HW1 8630   3.460   0.268   1.777
 2577SOL    HW2 8631   3.306   0.244   1.727
 2578SOL     OW 8632   4.686   1.588   3.802
 2578SOL    HW1 8633   4.757   1.521   3.825
 2578SOL    HW2 8634   4.696   1.614   3.706
 2579SOL     OW 8635   1.048   6.264   2.438
 2579SOL    HW1 8636   1.138   6.259   2.480
 2579SOL    HW2 8637   0.980   6.225   2.499
 2580SOL     OW 8638   2.648   2.819   6.373
 2580SOL    HW1 8639   2.685   2.911   6.365
 2580SOL    HW2 8640   2.590   2.799   6.295
 2581SOL     OW 8641   0.797   4.718   0.964
 2581SOL    HW1 8642   0.772   4.634   0.917
 2581SOL    HW2 8643   0.878   4.702   1.020
 2582SOL     OW 8644   0.816   4.990   2.126
 2582SOL    HW1 8645   0.796   4.917   2.060
 2582SOL    HW2 8646   0.860   5.066   2.079
 2583SOL     OW 8647   0.601   0.912   0.358
 2583SOL    HW1 8648   0.599   0.988   0.293
 2583SOL    HW2 8649   0.663   0.935   0.434
 2584SOL     OW 8650   4.219   5.853   0.305
 2584SOL    HW1 8651   4.244   5.922   0.372
 2584SOL    HW2 8652   4.268   5.768   0.324
 2585SOL     OW 8653   4.971   2.258   0.575
 2585SOL    HW1 8654   4.941   2.262   0.670
 2585SOL    HW2 8655   5.040   2.187   0.565
 2586SOL     OW 8656   3.579   1.387   3.788
 2586SOL    HW1 8657   3.565   1.378   3.689
 2586SOL    HW2 8658   3.598   1.483   3.810
 2587SOL     OW 8659   0.372   0.827   3.424
 2587SOL    HW1 8660   0.358   0.768   3.345
 2587SOL    HW2 8661   0.355   0.922   3.398
 2588SOL     OW 8662   4.437   0.762   6.413
 2588SOL    HW1 8663   4.385   0.678   6.399
 2588SOL    HW2 8664   4.445   0.812   6.327
 2589SOL     OW 8665   0.434   6.244   6.283
 2589SOL    HW1 8666   0.457   6.155   6.243
 2589SOL    HW2 8667   0.383   6.231   6.368
 2590SOL     OW 8668   3.853   5.886   0.861
 2590SOL    HW1 8669   3.849   5.942   0.944
 2590SOL    HW2 8670   3.946   5.853   0.847
 2591SOL     OW 8671   6.841   5.631   2.666
 2591SOL    HW1 8672   6.895   5.551   2.643
 2591SOL    HW2 8673   6.768   5.643   2.598
 2592SOL     OW 8674   3.527   5.168   0.474
 2592SOL    HW1 8675   3.477   5.228   0.536
 2592SOL    HW2 8676   3.625   5.185   0.482
 2593SOL     OW 8677   3.357   5.331   0.622
 2593SOL    HW1 8678   3.266   5.330   0.664
 2593SOL    HW2 8679   3.377   5.423   0.588
 2594SOL     OW 8680   1.248   5.305   6.361
 2594SOL    HW1 8681   1.247   5.257   6.273
 2594SOL    HW2 8682   1.190   5.256   6.426
 2595SOL     OW 8683   6.370   1.726   3.933
 2595SOL    HW1 8684   6.328   1.782   3.861
 2595SOL    HW2 8685   6.439   1.666   3.893
 2596SOL     OW 8686   3.043   1.484   1.924
 2596SOL    HW1 8687   2.958   1.438   1.947
 2596SOL    HW2 8688   3.060   1.558   1.990
 2597SOL     OW 8689   1.521   4.696   5.814
 2597SOL    HW1 8690   1.618   4.712   5.833
 2597SOL    HW2 8691   1.501   4.598   5.822
 2598SOL     OW 8692   6.796   1.338   2.899
 2598SOL    HW1 8693   6.759   1.330   2.992
 2598SOL    HW2 8694   6.753   1.416   2.853
 2599SOL     OW 8695   2.121   6.298   1.299
 2599SOL    HW1 8696   2.053   6.309   1.226
 2599SOL    HW2 8697   2.211   6.286   1.258
 2600SOL     OW 8698   5.461   3.105   4.824
 2600SOL    HW1 8699   5.387   3.166   4.851
 2600SOL    HW2 8700   5.502   3.137   4.739
 2601SOL     OW 8701   2.691   1.417   1.476
 2601SOL    HW1 8702   2.631   1.426   1.555
 2601SOL    HW2 8703   2.734   1.506   1.456
 2602SOL     OW 8704   1.397   4.242   4.511
 2602SOL    HW1 8705   1.374   4.149   4.480
 2602SOL    HW2 8706   1.384   4.306   4.435
 2603SOL     OW 8707   2.385   1.252   4.231
 2603SOL    HW1 8708   2.455   1.295   4.173
 2603SOL    HW2 8709   2.339   1.181   4.179
 2604SOL     OW 8710   4.498   1.812   2.615
 2604SOL    HW1 8711   4.425   1.854   2.669
 2604SOL    HW2 8712   4.460   1.741   2.556
 2605SOL     OW 8713   1.969   3.310   2.755
 2605SOL    HW1 8714   1.940   3.226   2.708
 2605SOL    HW2 8715   1.935   3.389   2.705
 2606SOL     OW 8716   5.549   4.360   2.182
 2606SOL    HW1 8717   5.641   4.328   2.160
 2606SOL    HW2 8718   5.507   4.402   2.102
 2607SOL     OW 8719   1.523   1.677   0.978
 2607SOL    HW1 8720   1.466   1.741   0.926
 2607SOL    HW2 8721   1.491   1.674   1.073
 2608SOL     OW 8722   4.779   5.335   1.157
 2608SOL    HW1 8723   4.741   5.244   1.137
 2608SOL    HW2 8724   4.724   5.380   1.227
 2609SOL     OW 8725   6.571   0.878   1.283
 2609SOL    HW1 8726   6.664   0.914   1.291
 2609SOL    HW2 8727   6.542   0.841   1.371
 2610SOL     OW 8728   1.180   4.407   4.889
 2610SOL    HW1 8729   1.120   4.471   4.936
 2610SOL    HW2 8730   1.179   4.319   4.937
 2611SOL     OW 8731   4.538   6.725   1.302
 2611SOL    HW1 8732   4.459   6.784   1.287
 2611SOL    HW2 8733   4.558   6.673   1.219
 2612SOL     OW 8734   6.369   0.195   5.920
 2612SOL    HW1 8735   6.452   0.242   5.947
 2612SOL    HW2 8736   6.388   0.137   5.840
 2613SOL     OW 8737   2.894   5.994   6.436
 2613SOL    HW1 8738   2.896   6.094   6.425
 2613SOL    HW2 8739   2.805   5.967   6.473
 2614SOL     OW 8740   6.652   0.876   5.661
 2614SOL    HW1 8741   6.602   0.903   5.743
 2614SOL    HW2 8742   6.673   0.958   5.607
 2615SOL     OW 8743   6.958   3.164   2.525
 2615SOL    HW1 8744   6.867   3.203   2.512
 2615SOL    HW2 8745   6.951   3.077   2.573
 2616SOL     OW 8746   3.224   2.904   5.902
 2616SOL    HW1 8747   3.138   2.868   5.938
 2616SOL    HW2 8748   3.295   2.834   5.911
 2617SOL     OW 8749   3.723   6.645   0.508
 2617SOL    HW1 8750   3.778   6.681   0.433
 2617SOL    HW2 8751   3.766   6.563   0.545
 2618SOL     OW 8752   6.940   0.418   3.957
 2618SOL    HW1 8753   6.902   0.382   3.873
 2618SOL    HW2 8754   6.871   0.417   4.029
 2619SOL     OW 8755   3.798   1.858   3.001
 2619SOL    HW1 8756   3.720   1.917   3.024
 2619SOL    HW2 8757   3.821   1.869   2.905
 2620SOL     OW 8758   6.539   6.939   3.676
 2620SOL    HW1 8759   6.505   6.989   3.755
 2620SOL    HW2 8760   6.466   6.881   3.639
 2621SOL     OW 8761   0.964   5.350   2.424
 2621SOL    HW1 8762   0.866   5.363   2.409
 2621SOL    HW2 8763   1.007   5.440   2.435
 2622SOL     OW 8764   1.732   3.598   5.282
 2622SOL    HW1 8765   1.798   3.555   5.220
 2622SOL    HW2 8766   1.639   3.580   5.249
 2623SOL     OW 8767   1.113   1.356   5.606
 2623SOL    HW1 8768   1.063   1.285   5.655
 2623SOL    HW2 8769   1.137   1.430   5.669
 2624SOL     OW 8770   7.004   0.929   5.602
 2624SOL    HW1 8771   6.949   0.910   5.683
 2624SOL    HW2 8772   6.947   0.970   5.532
 2625SOL     OW 8773   2.458   3.402   5.305
 2625SOL    HW1 8774   2.437   3.306   5.322
 2625SOL    HW2 8775   2.554   3.420   5.327
 2626SOL     OW 8776   0.534   0.546   5.942
 2626SOL    HW1 8777   0.468   0.507   6.006
 2626SOL    HW2 8778   0.553   0.480   5.869
 2627SOL     OW 8779   0.585   1.068   6.142
 2627SOL    HW1 8780   0.651   1.099   6.073
 2627SOL    HW2 8781   0.629   1.004   6.204
 2628SOL     OW 8782   2.051   4.554   5.923
 2628SOL    HW1 8783   2.144   4.539   5.957
 2628SOL    HW2 8784   2.048   4.534   5.825
 2629SOL     OW 8785   3.595   3.325   2.237
 2629SOL    HW1 8786   3.606   3.228   2.256
 2629SOL    HW2 8787   3.685   3.370   2.237
 2630SOL     OW 8788   3.178   1.847   2.730
 2630SOL    HW1 8789   3.200   1.845   2.632
 2630SOL    HW2 8790   3.084   1.876   2.743
 2631SOL     OW 8791   5.505   0.728   6.126
 2631SOL    HW1 8792   5.515   0.632   6.102
 2631SOL    HW2 8793   5.411   0.757   6.111
 2632SOL     OW 8794   5.093   3.153   6.408
 2632SOL    HW1 8795   5.148   3.087   6.458
 2632SOL    HW2 8796   5.140   3.242   6.408
 2633SOL     OW 8797   0.222   2.560   4.615
 2633SOL    HW1 8798   0.132   2.541   4.655
 2633SOL    HW2 8799   0.252   2.482   4.561
 2634SOL     OW 8800   0.697   4.695   3.592
 2634SOL    HW1 8801   0.746   4.770   3.636
 2634SOL    HW2 8802   0.601   4.697   3.619
 2635SOL     OW 8803   6.594   5.957   5.517
 2635SOL    HW1 8804   6.614   5.865   5.484
 2635SOL    HW2 8805   6.545   5.951   5.604
 2636SOL     OW 8806   3.867   0.456   4.809
 2636SOL    HW1 8807   3.785   0.479   4.757
 2636SOL    HW2 8808   3.878   0.520   4.885
 2637SOL     OW 8809   5.467   1.415   3.062
 2637SOL    HW1 8810   5.411   1.404   3.145
 2637SOL    HW2 8811   5.459   1.334   3.005
 2638SOL     OW 8812   6.851   0.096   3.849
 2638SOL    HW1 8813   6.809   0.059   3.932
 2638SOL    HW2 8814   6.876   0.021   3.788
 2639SOL     OW 8815   0.491   5.996   0.837
 2639SOL    HW1 8816   0.590   5.997   0.821
 2639SOL    HW2 8817   0.444   5.983   0.750
 2640SOL     OW 8818   0.434   6.076   5.542
 2640SOL    HW1 8819   0.479   6.049   5.627
 2640SOL    HW2 8820   0.352   6.021   5.529
 2641SOL     OW 8821   5.831   2.947   2.010
 2641SOL    HW1 8822   5.842   2.992   1.921
 2641SOL    HW2 8823   5.849   3.013   2.083
 2642SOL     OW 8824   5.336   0.134   3.687
 2642SOL    HW1 8825   5.266   0.169   3.625
 2642SOL    HW2 8826   5.377   0.051   3.649
 2643SOL     OW 8827   0.772   3.568   3.538
 2643SOL    HW1 8828   0.803   3.656   3.573
 2643SOL    HW2 8829   0.723   3.519   3.610
 2644SOL     OW 8830   5.010   6.245   5.398
 2644SOL    HW1 8831   4.915   6.248   5.370
 2644SOL    HW2 8832   5.058   6.326   5.365
 2645SOL     OW 8833   3.862   5.659   3.905
 2645SOL    HW1 8834   3.782   5.709   3.871
 2645SOL    HW2 8835   3.877   5.681   4.001
 2646SOL     OW 8836   5.875   1.147   6.902
 2646SOL    HW1 8837   5.914   1.061   6.870
 2646SOL    HW2 8838   5.949   1.213   6.918
 2647SOL     OW 8839   6.324   0.082   2.165
 2647SOL    HW1 8840   6.300   7.007   2.186
 2647SOL    HW2 8841   6.295   0.141   2.241
 2648SOL     OW 8842   0.701   6.924   3.403
 2648SOL    HW1 8843   0.782   6.945   3.458
 2648SOL    HW2 8844   0.722   6.934   3.306
 2649SOL     OW 8845   6.527   3.435   0.240
 2649SOL    HW1 8846   6.613   3.430   0.188
 2649SOL    HW2 8847   6.452   3.404   0.183
 2650SOL     OW 8848   0.919   4.668   3.915
 2650SOL    HW1 8849   0.990   4.599   3.932
 2650SOL    HW2 8850   0.838   4.647   3.970
 2651SOL     OW 8851   2.193   1.385   1.235
 2651SOL    HW1 8852   2.246   1.413   1.155
 2651SOL    HW2 8853   2.177   1.287   1.232
 2652SOL     OW 8854   4.127   3.519   5.048
 2652SOL    HW1 8855   4.182   3.601   5.064
 2652SOL    HW2 8856   4.060   3.509   5.122
 2653SOL     OW 8857   4.749   6.900   5.926
 2653SOL    HW1 8858   4.752   6.827   5.994
 2653SOL    HW2 8859   4.748   6.860   5.834
 2654SOL     OW 8860   4.575   0.347   2.388
 2654SOL    HW1 8861   4.598   0.444   2.400
 2654SOL    HW2 8862   4.641   0.291   2.439
 2655SOL     OW 8863   5.271   6.559   4.154
 2655SOL    HW1 8864   5.238   6.636   4.208
 2655SOL    HW2 8865   5.355   6.524   4.195
 2656SOL     OW 8866   3.639   5.183   4.582
 2656SOL    HW1 8867   3.700   5.105   4.598
 2656SOL    HW2 8868   3.587   5.167   4.498
 2657SOL     OW 8869   0.909   4.231   0.231
 2657SOL    HW1 8870   0.976   4.265   0.165
 2657SOL    HW2 8871   0.829   4.194   0.182
 2658SOL     OW 8872   5.183   4.652   0.888
 2658SOL    HW1 8873   5.154   4.585   0.957
 2658SOL    HW2 8874   5.180   4.610   0.798
 2659SOL     OW 8875   5.139   2.883   4.550
 2659SOL    HW1 8876   5.152   2.859   4.646
 2659SOL    HW2 8877   5.070   2.955   4.543
 2660SOL     OW 8878   1.776   6.839   1.848
 2660SOL    HW1 8879   1.874   6.848   1.831
 2660SOL    HW2 8880   1.740   6.762   1.795
 2661SOL     OW 8881   2.738   6.961   1.707
 2661SOL    HW1 8882   2.641   6.974   1.687
 2661SOL    HW2 8883   2.755   6.865   1.730
 2662SOL     OW 8884   4.351   6.344   5.516
 2662SOL    HW1 8885   4.408   6.365   5.436
 2662SOL    HW2 8886   4.409   6.335   5.597
 2663SOL     OW 8887   3.426   4.157   6.398
 2663SOL    HW1 8888   3.502   4.102   6.365
 2663SOL    HW2 8889   3.433   4.249   6.360
 2664SOL     OW 8890   4.659   3.369   5.340
 2664SOL    HW1 8891   4.687   3.435   5.269
 2664SOL    HW2 8892   4.574   3.400   5.382
 2665SOL     OW 8893   2.662   2.977   5.355
 2665SOL    HW1 8894   2.596   2.978   5.280
 2665SOL    HW2 8895   2.706   2.887   5.359
 2666SOL     OW 8896   6.811   5.094   1.528
 2666SOL    HW1 8897   6.754   5.018   1.499
 2666SOL    HW2 8898   6.753   5.170   1.558
 2667SOL     OW 8899   0.602   5.618   4.254
 2667SOL    HW1 8900   0.514   5.621   4.207
 2667SOL    HW2 8901   0.603   5.541   4.318
 2668SOL     OW 8902   0.283   3.518   5.089
 2668SOL    HW1 8903   0.215   3.459   5.132
 2668SOL    HW2 8904   0.318   3.472   5.006
 2669SOL     OW 8905   2.970   4.785   5.946
 2669SOL    HW1 8906   2.887   4.807   5.996
 2669SOL    HW2 8907   2.969   4.832   5.858
 2670SOL     OW 8908   5.293   3.549   5.735
 2670SOL    HW1 8909   5.270   3.626   5.675
 2670SOL    HW2 8910   5.362   3.579   5.802
 2671SOL     OW 8911   4.498   5.304   6.695
 2671SOL    HW1 8912   4.493   5.207   6.719
 2671SOL    HW2 8913   4.438   5.356   6.755
 2672SOL     OW 8914   2.205   5.099   0.527
 2672SOL    HW1 8915   2.148   5.022   0.499
 2672SOL    HW2 8916   2.156   5.184   0.512
 2673SOL     OW 8917   6.920   1.208   1.895
 2673SOL    HW1 8918   6.845   1.168   1.841
 2673SOL    HW2 8919   6.883   1.243   1.981
 2674SOL     OW 8920   1.505   4.958   3.937
 2674SOL    HW1 8921   1.568   4.914   3.873
 2674SOL    HW2 8922   1.473   4.891   4.004
 2675SOL     OW 8923   5.967   5.250   4.162
 2675SOL    HW1 8924   5.932   5.156   4.170
 2675SOL    HW2 8925   5.907   5.302   4.101
 2676SOL     OW 8926   3.890   2.643   1.343
 2676SOL    HW1 8927   3.801   2.612   1.309
 2676SOL    HW2 8928   3.902   2.740   1.320
 2677SOL     OW 8929   2.758   4.016   0.128
 2677SOL    HW1 8930   2.743   4.025   0.227
 2677SOL    HW2 8931   2.784   4.105   0.090
 2678SOL     OW 8932   0.086   2.392   1.533
 2678SOL    HW1 8933   0.082   2.485   1.497
 2678SOL    HW2 8934   0.000   2.345   1.512
 2679SOL     OW 8935   1.828   4.643   1.746
 2679SOL    HW1 8936   1.731   4.666   1.738
 2679SOL    HW2 8937   1.844   4.594   1.832
 2680SOL     OW 8938   1.268   1.619   0.821
 2680SOL    HW1 8939   1.288   1.545   0.884
 2680SOL    HW2 8940   1.188   1.670   0.854
 2681SOL     OW 8941   1.710   2.174   5.194
 2681SOL    HW1 8942   1.733   2.145   5.101
 2681SOL    HW2 8943   1.643   2.248   5.190
 2682SOL     OW 8944   4.701   4.221   3.418
 2682SOL    HW1 8945   4.766   4.283   3.373
 2682SOL    HW2 8946   4.671   4.152   3.352
 2683SOL     OW 8947   2.662   5.552   1.764
 2683SOL    HW1 8948   2.640   5.648   1.750
 2683SOL    HW2 8949   2.711   5.541   1.851
 2684SOL     OW 8950   4.671   6.273   1.581
 2684SOL    HW1 8951   4.585   6.324   1.575
 2684SOL    HW2 8952   4.657   6.181   1.543
 2685SOL     OW 8953   5.875   6.117   5.983
 2685SOL    HW1 8954   5.850   6.127   6.079
 2685SOL    HW2 8955   5.834   6.192   5.930
 2686SOL     OW 8956   2.078   1.184   5.793
 2686SOL    HW1 8957   2.039   1.254   5.734
 2686SOL    HW2 8958   2.094   1.223   5.884
 2687SOL     OW 8959   5.260   5.349   1.248
 2687SOL    HW1 8960   5.273   5.312   1.340
 2687SOL    HW2 8961   5.341   5.329   1.193
 2688SOL     OW 8962   3.117   3.676   0.594
 2688SOL    HW1 8963   3.068   3.595   0.559
 2688SOL    HW2 8964   3.066   3.758   0.570
 2689SOL     OW 8965   1.080   4.126   3.077
 2689SOL    HW1 8966   1.145   4.071   3.023
 2689SOL    HW2 8967   1.040   4.069   3.148
 2690SOL     OW 8968   3.761   3.220   5.023
 2690SOL    HW1 8969   3.852   3.241   4.986
 2690SOL    HW2 8970   3.748   3.270   5.109
 2691SOL     OW 8971   1.037   5.087   3.618
 2691SOL    HW1 8972   1.119   5.043   3.582
 2691SOL    HW2 8973   1.057   5.129   3.707
 2692SOL     OW 8974   2.677   5.933   2.912
 2692SOL    HW1 8975   2.768   5.901   2.938
 2692SOL    HW2 8976   2.673   6.033   2.918
 2693SOL     OW 8977   2.143   5.204   3.503
 2693SOL    HW1 8978   2.090   5.288   3.493
 2693SOL    HW2 8979   2.165   5.166   3.413
 2694SOL     OW 8980   4.119   6.388   2.936
 2694SOL    HW1 8981   4.181   6.322   2.979
 2694SOL    HW2 8982   4.164   6.430   2.857
 2695SOL     OW 8983   6.031   1.213   1.789
 2695SOL    HW1 8984   6.032   1.296   1.844
 2695SOL    HW2 8985   6.039   1.236   1.692
 2696SOL     OW 8986   3.565   3.084   5.648
 2696SOL    HW1 8987   3.476   3.043   5.632
 2696SOL    HW2 8988   3.557   3.184   5.644
 2697SOL     OW 8989   3.287   1.079   3.433
 2697SOL    HW1 8990   3.289   0.981   3.451
 2697SOL    HW2 8991   3.339   1.099   3.349
 2698SOL     OW 8992   2.187   4.755   0.755
 2698SOL    HW1 8993   2.246   4.836   0.756
 2698SOL    HW2 8994   2.147   4.742   0.847
 2699SOL     OW 8995   2.621   5.433   0.748
 2699SOL    HW1 8996   2.637   5.530   0.767
 2699SOL    HW2 8997   2.537   5.423   0.694
 2700SOL     OW 8998   2.948   3.050   0.138
 2700SOL    HW1 8999   2.993   2.995   0.208
 2700SOL    HW2 9000   3.016   3.111   0.096
 2701SOL     OW 9001   5.164   1.641   5.702
 2701SOL    HW1 9002   5.263   1.649   5.710
 2701SOL    HW2 9003   5.138   1.645   5.605
 2702SOL     OW 9004   0.233   2.760   3.199
 2702SOL    HW1 9005   0.217   2.819   3.278
 2702SOL    HW2 9006   0.156   2.697   3.189
 2703SOL     OW 9007   1.141   0.449   0.774
 2703SOL    HW1 9008   1.044   0.470   0.786
 2703SOL    HW2 9009   1.152   0.389   0.695
 2704SOL     OW 9010   6.599   5.684   1.895
 2704SOL    HW1 9011   6.537   5.606   1.902
 2704SOL    HW2 9012   6.551   5.761   1.853
 2705SOL     OW 9013   6.974   6.304   4.447
 2705SOL    HW1 9014   0.043   6.260   4.436
 2705SOL    HW2 9015   6.909   6.262   4.383
 2706SOL     OW 9016   6.671   4.950   2.700
 2706SOL    HW1 9017   6.729   5.016   2.653
 2706SOL    HW2 9018   6.652   4.982   2.793
 2707SOL     OW 9019   3.951   0.425   4.136
 2707SOL    HW1 9020   3.961   0.342   4.082
 2707SOL    HW2 9021   4.038   0.474   4.140
 2708SOL     OW 9022   0.285   2.710   1.139
 2708SOL    HW1 9023   0.272   2.791   1.197
 2708SOL    HW2 9024   0.226   2.718   1.058
 2709SOL     OW 9025   5.045   0.126   7.010
 2709SOL    HW1 9026   4.981   0.201   6.992
 2709SOL    HW2 9027   5.012   0.043   6.965
 2710SOL     OW 9028   1.132   3.612   4.266
 2710SOL    HW1 9029   1.166   3.550   4.195
 2710SOL    HW2 9030   1.042   3.580   4.297
 2711SOL     OW 9031   2.191   0.469   3.827
 2711SOL    HW1 9032   2.238   0.459   3.915
 2711SOL    HW2 9033   2.258   0.465   3.753
 2712SOL     OW 9034   2.769   4.141   1.584
 2712SOL    HW1 9035   2.737   4.234   1.603
 2712SOL    HW2 9036   2.692   4.077   1.593
 2713SOL     OW 9037   2.191   2.654   5.051
 2713SOL    HW1 9038   2.148   2.738   5.083
 2713SOL    HW2 9039   2.183   2.583   5.120
 2714SOL     OW 9040   3.844   2.725   0.135
 2714SOL    HW1 9041   3.900   2.719   0.218
 2714SOL    HW2 9042   3.793   2.640   0.124
 2715SOL     OW 9043   4.878   2.278   1.108
 2715SOL    HW1 9044   4.782   2.305   1.104
 2715SOL    HW2 9045   4.935   2.358   1.128
 2716SOL     OW 9046   5.635   3.187   2.904
 2716SOL    HW1 9047   5.730   3.215   2.894
 2716SOL    HW2 9048   5.576   3.267   2.897
 2717SOL     OW 9049   0.290   0.402   2.574
 2717SOL    HW1 9050   0.220   0.425   2.641
 2717SOL    HW2 9051   0.334   0.315   2.601
 2718SOL     OW 9052   1.626   1.439   4.878
 2718SOL    HW1 9053   1.535   1.445   4.837
 2718SOL    HW2 9054   1.618   1.400   4.970
 2719SOL     OW 9055   0.334   5.167   1.809
 2719SOL    HW1 9056   0.277   5.248   1.791
 2719SOL    HW2 9057   0.424   5.180   1.766
 2720SOL     OW 9058   2.006   5.965   1.845
 2720SOL    HW1 9059   2.041   5.950   1.937
 2720SOL    HW2 9060   1.934   5.900   1.825
 2721SOL     OW 9061   3.368   6.459   3.577
 2721SOL    HW1 9062   3.301   6.534   3.579
 2721SOL    HW2 9063   3.456   6.494   3.608
 2722SOL     OW 9064   6.395   5.320   0.269
 2722SOL    HW1 9065   6.447   5.405   0.271
 2722SOL    HW2 9066   6.437   5.256   0.205
 2723SOL     OW 9067   0.965   5.862   6.352
 2723SOL    HW1 9068   1.027   5.826   6.422
 2723SOL    HW2 9069   1.013   5.933   6.299
 2724SOL     OW 9070   2.184   5.853   0.047
 2724SOL    HW1 9071   2.129   5.800   7.003
 2724SOL    HW2 9072   2.131   5.873   0.129
 2725SOL     OW 9073   4.959   4.792   4.869
 2725SOL    HW1 9074   4.936   4.698   4.846
 2725SOL    HW2 9075   5.041   4.820   4.818
 2726SOL     OW 9076   6.878   1.762   1.152
 2726SOL    HW1 9077   6.852   1.764   1.055
 2726SOL    HW2 9078   6.967   1.807   1.163
 2727SOL     OW 9079   1.260   4.895   3.662
 2727SOL    HW1 9080   1.273   4.822   3.594
 2727SOL    HW2 9081   1.281   4.859   3.753
 2728SOL     OW 9082   4.675   6.437   5.670
 2728SOL    HW1 9083   4.668   6.370   5.745
 2728SOL    HW2 9084   4.756   6.493   5.683
 2729SOL     OW 9085   6.928   6.225   0.559
 2729SOL    HW1 9086   6.881   6.272   0.484
 2729SOL    HW2 9087   6.942   6.129   0.534
 2730SOL     OW 9088   2.069   5.541   1.473
 2730SOL    HW1 9089   2.105   5.501   1.557
 2730SOL    HW2 9090   2.084   5.477   1.397
 2731SOL     OW 9091   3.056   3.612   2.998
 2731SOL    HW1 9092   3.018   3.696   3.037
 2731SOL    HW2 9093   3.114   3.635   2.920
 2732SOL     OW 9094   5.262   2.619   1.981
 2732SOL    HW1 9095   5.259   2.679   2.061
 2732SOL    HW2 9096   5.189   2.550   1.988
 2733SOL     OW 9097   6.502   2.116   4.265
 2733SOL    HW1 9098   6.575   2.178   4.294
 2733SOL    HW2 9099   6.518   2.025   4.302
 2734SOL     OW 9100   3.506   5.529   0.866
 2734SOL    HW1 9101   3.582   5.591   0.846
 2734SOL    HW2 9102   3.446   5.522   0.787
 2735SOL     OW 9103   1.587   3.528   1.779
 2735SOL    HW1 9104   1.539   3.517   1.692
 2735SOL    HW2 9105   1.668   3.469   1.781
 2736SOL     OW 9106   5.415   6.239   4.940
 2736SOL    HW1 9107   5.429   6.270   5.034
 2736SOL    HW2 9108   5.467   6.298   4.878
 2737SOL     OW 9109   2.743   4.044   5.566
 2737SOL    HW1 9110   2.735   3.947   5.590
 2737SOL    HW2 9111   2.839   4.068   5.557
 2738SOL     OW 9112   4.721   6.141   1.815
 2738SOL    HW1 9113   4.724   6.223   1.758
 2738SOL    HW2 9114   4.802   6.085   1.797
 2739SOL     OW 9115   1.375   4.671   1.395
 2739SOL    HW1 9116   1.349   4.594   1.337
 2739SOL    HW2 9117   1.358   4.757   1.346
 2740SOL     OW 9118   6.810   4.286   2.028
 2740SOL    HW1 9119   6.861   4.244   1.953
 2740SOL    HW2 9120   6.873   4.303   2.105
 2741SOL     OW 9121   6.709   0.638   4.875
 2741SOL    HW1 9122   6.684   0.581   4.797
 2741SOL    HW2 9123   6.783   0.700   4.848
 2742SOL     OW 9124   2.317   5.374   0.342
 2742SOL    HW1 9125   2.371   5.440   0.289
 2742SOL    HW2 9126   2.299   5.294   0.286
 2743SOL     OW 9127   6.184   4.614   2.243
 2743SOL    HW1 9128   6.275   4.620   2.203
 2743SOL    HW2 9129   6.123   4.680   2.198
 2744SOL     OW 9130   4.360   2.191   0.744
 2744SOL    HW1 9131   4.313   2.278   0.759
 2744SOL    HW2 9132   4.333   2.153   0.655
 2745SOL     OW 9133   0.050   0.451   5.456
 2745SOL    HW1 9134   6.984   0.432   5.409
 2745SOL    HW2 9135   0.123   0.397   5.414
 2746SOL     OW 9136   1.510   2.336   4.743
 2746SOL    HW1 9137   1.440   2.394   4.782
 2746SOL    HW2 9138   1.473   2.245   4.726
 2747SOL     OW 9139   5.152   4.430   6.639
 2747SOL    HW1 9140   5.227   4.478   6.685
 2747SOL    HW2 9141   5.083   4.403   6.706
 2748SOL     OW 9142   4.980   1.462   2.146
 2748SOL    HW1 9143   5.033   1.543   2.174
 2748SOL    HW2 9144   4.909   1.490   2.082
 2749SOL     OW 9145   0.349   4.671   1.410
 2749SOL    HW1 9146   0.358   4.641   1.505
 2749SOL    HW2 9147   0.316   4.765   1.407
 2750SOL     OW 9148   1.167   4.096   1.386
 2750SOL    HW1 9149   1.085   4.119   1.438
 2750SOL    HW2 9150   1.141   4.058   1.298
 2751SOL     OW 9151   1.280   3.607   1.769
 2751SOL    HW1 9152   1.291   3.529   1.830
 2751SOL    HW2 9153   1.275   3.691   1.823
 2752SOL     OW 9154   3.894   5.054   5.350
 2752SOL    HW1 9155   3.990   5.057   5.379
 2752SOL    HW2 9156   3.835   5.070   5.429
 2753SOL     OW 9157   0.486   6.309   5.169
 2753SOL    HW1 9158   0.501   6.385   5.232
 2753SOL    HW2 9159   0.474   6.344   5.077
 2754SOL     OW 9160   0.676   0.724   1.663
 2754SOL    HW1 9161   0.669   0.625   1.675
 2754SOL    HW2 9162   0.585   0.761   1.645
 2755SOL     OW 9163   1.974   0.173   2.544
 2755SOL    HW1 9164   2.073   0.163   2.553
 2755SOL    HW2 9165   1.939   0.109   2.476
 2756SOL     OW 9166   5.924   5.555   6.974
 2756SOL    HW1 9167   5.943   5.470   6.925
 2756SOL    HW2 9168   5.836   5.591   6.945
 2757SOL     OW 9169   2.320   0.522   6.580
 2757SOL    HW1 9170   2.382   0.572   6.640
 2757SOL    HW2 9171   2.260   0.465   6.636
 2758SOL     OW 9172   3.813   6.464   3.963
 2758SOL    HW1 9173   3.731   6.410   3.943
 2758SOL    HW2 9174   3.882   6.406   4.007
 2759SOL     OW 9175   5.553   0.170   5.709
 2759SOL    HW1 9176   5.598   0.240   5.654
 2759SOL    HW2 9177   5.461   0.201   5.733
 2760SOL     OW 9178   0.356   5.996   2.064
 2760SOL    HW1 9179   0.273   5.971   2.015
 2760SOL    HW2 9180   0.340   5.988   2.163
 2761SOL     OW 9181   1.939   5.626   4.961
 2761SOL    HW1 9182   1.847   5.661   4.945
 2761SOL    HW2 9183   1.944   5.532   4.927
 2762SOL     OW 9184   1.214   1.523   4.939
 2762SOL    HW1 9185   1.220   1.451   5.008
 2762SOL    HW2 9186   1.160   1.599   4.975
 2763SOL     OW 9187   5.026   1.447   3.284
 2763SOL    HW1 9188   4.978   1.475   3.200
 2763SOL    HW2 9189   4.961   1.446   3.360
 2764SOL     OW 9190   5.697   1.019   1.143
 2764SOL    HW1 9191   5.742   1.031   1.055
 2764SOL    HW2 9192   5.700   0.923   1.170
 2765SOL     OW 9193   5.759   0.147   1.113
 2765SOL    HW1 9194   5.755   0.216   1.185
 2765SOL    HW2 9195   5.766   0.056   1.155
 2766SOL     OW 9196   5.244   2.704   0.867
 2766SOL    HW1 9197   5.151   2.677   0.841
 2766SOL    HW2 9198   5.305   2.625   0.857
 2767SOL     OW 9199   0.174   5.478   0.081
 2767SOL    HW1 9200   0.082   5.516   0.093
 2767SOL    HW2 9201   0.175   5.419   7.020
 2768SOL     OW 9202   4.468   0.782   1.084
 2768SOL    HW1 9203   4.397   0.849   1.064
 2768SOL    HW2 9204   4.508   0.802   1.174
 2769SOL     OW 9205   2.125   4.485   4.411
 2769SOL    HW1 9206   2.151   4.541   4.332
 2769SOL    HW2 9207   2.205   4.432   4.441
 2770SOL     OW 9208   5.052   6.205   6.019
 2770SOL    HW1 9209   4.987   6.251   6.078
 2770SOL    HW2 9210   5.014   6.119   5.987
 2771SOL     OW 9211   6.762   1.016   4.206
 2771SOL    HW1 9212   6.725   1.038   4.116
 2771SOL    HW2 9213   6.862   1.009   4.201
 2772SOL     OW 9214   4.162   1.397   0.809
 2772SOL    HW1 9215   4.206   1.311   0.784
 2772SOL    HW2 9216   4.063   1.388   0.801
 2773SOL     OW 9217   6.272   1.651   5.325
 2773SOL    HW1 9218   6.252   1.592   5.404
 2773SOL    HW2 9219   6.207   1.727   5.323
 2774SOL     OW 9220   5.480   3.409   2.859
 2774SOL    HW1 9221   5.388   3.443   2.878
 2774SOL    HW2 9222   5.548   3.473   2.894
 2775SOL     OW 9223   6.580   5.172   5.877
 2775SOL    HW1 9224   6.583   5.242   5.805
 2775SOL    HW2 9225   6.575   5.082   5.835
 2776SOL     OW 9226   4.333   5.020   5.669
 2776SOL    HW1 9227   4.317   5.071   5.585
 2776SOL    HW2 9228   4.391   4.941   5.650
 2777SOL     OW 9229   2.951   1.341   2.229
 2777SOL    HW1 9230   2.887   1.309   2.159
 2777SOL    HW2 9231   2.972   1.437   2.213
 2778SOL     OW 9232   1.608   6.838   5.476
 2778SOL    HW1 9233   1.661   6.918   5.505
 2778SOL    HW2 9234   1.520   6.868   5.441
 2779SOL     OW 9235   4.864   6.619   1.463
 2779SOL    HW1 9236   4.780   6.577   1.429
 2779SOL    HW2 9237   4.917   6.656   1.387
 2780SOL     OW 9238   6.383   6.415   6.886
 2780SOL    HW1 9239   6.469   6.417   6.938
 2780SOL    HW2 9240   6.377   6.496   6.829
 2781SOL     OW 9241   5.394   6.440   2.123
 2781SOL    HW1 9242   5.407   6.383   2.042
 2781SOL    HW2 9243   5.320   6.506   2.106
 2782SOL     OW 9244   4.830   2.043   6.606
 2782SOL    HW1 9245   4.797   1.954   6.639
 2782SOL    HW2 9246   4.757   2.088   6.555
 2783SOL     OW 9247   5.423   4.060   3.925
 2783SOL    HW1 9248   5.403   4.155   3.950
 2783SOL    HW2 9249   5.522   4.048   3.915
 2784SOL     OW 9250   3.255   1.631   2.434
 2784SOL    HW1 9251   3.242   1.729   2.449
 2784SOL    HW2 9252   3.352   1.608   2.443
 2785SOL     OW 9253   5.188   1.578   0.809
 2785SOL    HW1 9254   5.205   1.479   0.802
 2785SOL    HW2 9255   5.092   1.593   0.832
 2786SOL     OW 9256   4.798   0.260   2.192
 2786SOL    HW1 9257   4.814   0.249   2.290
 2786SOL    HW2 9258   4.805   0.171   2.147
 2787SOL     OW 9259   4.707   1.217   5.997
 2787SOL    HW1 9260   4.787   1.173   6.038
 2787SOL    HW2 9261   4.737   1.285   5.930
 2788SOL     OW 9262   2.340   5.448   6.198
 2788SOL    HW1 9263   2.364   5.514   6.127
 2788SOL    HW2 9264   2.243   5.426   6.191
 2789SOL     OW 9265   1.528   2.239   3.725
 2789SOL    HW1 9266   1.545   2.181   3.804
 2789SOL    HW2 9267   1.597   2.221   3.655
 2790SOL     OW 9268   3.438   5.544   2.370
 2790SOL    HW1 9269   3.449   5.491   2.286
 2790SOL    HW2 9270   3.469   5.489   2.448
 2791SOL     OW 9271   0.361   2.998   3.687
 2791SOL    HW1 9272   0.429   3.016   3.616
 2791SOL    HW2 9273   0.391   2.921   3.743
 2792SOL     OW 9274   1.918   6.757   3.931
 2792SOL    HW1 9275   1.960   6.804   3.852
 2792SOL    HW2 9276   1.881   6.669   3.901
 2793SOL     OW 9277   5.626   4.034   2.407
 2793SOL    HW1 9278   5.550   4.032   2.342
 2793SOL    HW2 9279   5.664   3.942   2.416
 2794SOL     OW 9280   0.096   2.578   6.544
 2794SOL    HW1 9281   0.123   2.674   6.538
 2794SOL    HW2 9282   0.008   2.566   6.497
 2795SOL     OW 9283   1.292   3.239   0.503
 2795SOL    HW1 9284   1.227   3.274   0.435
 2795SOL    HW2 9285   1.385   3.263   0.475
 2796SOL     OW 9286   6.887   6.302   3.295
 2796SOL    HW1 9287   6.948   6.337   3.366
 2796SOL    HW2 9288   6.931   6.314   3.205
 2797SOL     OW 9289   5.051   5.352   4.190
 2797SOL    HW1 9290   5.049   5.450   4.171
 2797SOL    HW2 9291   4.982   5.330   4.259
 2798SOL     OW 9292   0.145   5.381   1.799
 2798SOL    HW1 9293   0.051   5.373   1.833
 2798SOL    HW2 9294   0.202   5.424   1.869
 2799SOL     OW 9295   6.051   5.462   6.364
 2799SOL    HW1 9296   6.102   5.395   6.418
 2799SOL    HW2 9297   5.994   5.414   6.297
 2800SOL     OW 9298   4.910   6.401   0.226
 2800SOL    HW1 9299   4.876   6.468   0.292
 2800SOL    HW2 9300   4.890   6.433   0.133
 2801SOL     OW 9301   6.730   5.674   6.011
 2801SOL    HW1 9302   6.747   5.618   6.092
 2801SOL    HW2 9303   6.775   5.763   6.023
 2802SOL     OW 9304   5.074   1.122   5.234
 2802SOL    HW1 9305   5.013   1.174   5.294
 2802SOL    HW2 9306   5.077   1.027   5.264
 2803SOL     OW 9307   3.897   5.257   6.773
 2803SOL    HW1 9308   3.873   5.192   6.845
 2803SOL    HW2 9309   3.814   5.286   6.725
 2804SOL     OW 9310   0.351   5.214   5.168
 2804SOL    HW1 9311   0.251   5.208   5.162
 2804SOL    HW2 9312   0.385   5.136   5.220
 2805SOL     OW 9313   5.849   3.091   1.785
 2805SOL    HW1 9314   5.758   3.075   1.748
 2805SOL    HW2 9315   5.868   3.189   1.786
 2806SOL     OW 9316   6.781   4.576   6.147
 2806SOL    HW1 9317   6.819   4.652   6.200
 2806SOL    HW2 9318   6.722   4.521   6.206
 2807SOL     OW 9319   4.389   6.215   4.691
 2807SOL    HW1 9320   4.372   6.117   4.678
 2807SOL    HW2 9321   4.467   6.226   4.753
 2808SOL     OW 9322   6.009   4.743   1.912
 2808SOL    HW1 9323   6.070   4.675   1.872
 2808SOL    HW2 9324   5.953   4.784   1.840
 2809SOL     OW 9325   5.758   3.061   0.970
 2809SOL    HW1 9326   5.799   3.133   1.026
 2809SOL    HW2 9327   5.763   3.087   0.873
 2810SOL     OW 9328   3.709   4.896   3.732
 2810SOL    HW1 9329   3.790   4.868   3.681
 2810SOL    HW2 9330   3.695   4.836   3.810
 2811SOL     OW 9331   1.105   2.096   3.107
 2811SOL    HW1 9332   1.056   2.009   3.095
 2811SOL    HW2 9333   1.065   2.145   3.185
 2812SOL     OW 9334   5.135   3.785   6.876
 2812SOL    HW1 9335   5.172   3.692   6.880
 2812SOL    HW2 9336   5.092   3.800   6.787
 2813SOL     OW 9337   0.131   0.160   6.433
 2813SOL    HW1 9338   0.191   0.080   6.435
 2813SOL    HW2 9339   0.145   0.214   6.516
 2814SOL     OW 9340   3.923   3.819   5.350
 2814SOL    HW1 9341   3.995   3.759   5.316
 2814SOL    HW2 9342   3.894   3.881   5.277
 2815SOL     OW 9343   6.144   0.279   5.575
 2815SOL    HW1 9344   6.230   0.320   5.607
 2815SOL    HW2 9345   6.104   0.226   5.649
 2816SOL     OW 9346   6.539   5.597   3.487
 2816SOL    HW1 9347   6.527   5.696   3.487
 2816SOL    HW2 9348   6.475   5.555   3.423
 2817SOL     OW 9349   3.052   6.762   1.838
 2817SOL    HW1 9350   2.958   6.729   1.832
 2817SOL    HW2 9351   3.112   6.687   1.863
 2818SOL     OW 9352   0.846   0.571   0.812
 2818SOL    HW1 9353   0.870   0.603   0.903
 2818SOL    HW2 9354   0.772   0.504   0.818
 2819SOL     OW 9355   0.823   0.884   1.276
 2819SOL    HW1 9356   0.905   0.876   1.219
 2819SOL    HW2 9357   0.742   0.881   1.217
 2820SOL     OW 9358   0.810   2.695   2.975
 2820SOL    HW1 9359   0.744   2.732   3.040
 2820SOL    HW2 9360   0.761   2.647   2.901
 2821SOL     OW 9361   4.135   3.494   6.664
 2821SOL    HW1 9362   4.215   3.485   6.606
 2821SOL    HW2 9363   4.083   3.575   6.638
 2822SOL     OW 9364   3.750   1.897   0.181
 2822SOL    HW1 9365   3.804   1.848   0.250
 2822SOL    HW2 9366   3.655   1.902   0.212
 2823SOL     OW 9367   4.609   0.581   0.291
 2823SOL    HW1 9368   4.549   0.587   0.211
 2823SOL    HW2 9369   4.566   0.627   0.368
 2824SOL     OW 9370   2.183   1.316   3.538
 2824SOL    HW1 9371   2.268   1.263   3.532
 2824SOL    HW2 9372   2.123   1.274   3.605
 2825SOL     OW 9373   5.722   0.411   6.702
 2825SOL    HW1 9374   5.776   0.420   6.786
 2825SOL    HW2 9375   5.670   0.495   6.686
 2826SOL     OW 9376   4.930   1.128   6.404
 2826SOL    HW1 9377   4.863   1.070   6.450
 2826SOL    HW2 9378   5.004   1.149   6.468
 2827SOL     OW 9379   0.360   0.808   5.518
 2827SOL    HW1 9380   0.445   0.758   5.501
 2827SOL    HW2 9381   0.290   0.745   5.550
 2828SOL     OW 9382   2.081   0.833   0.458
 2828SOL    HW1 9383   2.061   0.918   0.506
 2828SOL    HW2 9384   2.145   0.850   0.383
 2829SOL     OW 9385   3.445   3.594   5.039
 2829SOL    HW1 9386   3.414   3.659   4.970
 2829SOL    HW2 9387   3.476   3.510   4.995
 2830SOL     OW 9388   1.573   2.864   5.804
 2830SOL    HW1 9389   1.520   2.781   5.785
 2830SOL    HW2 9390   1.612   2.858   5.896
 2831SOL     OW 9391   0.878   4.850   3.717
 2831SOL    HW1 9392   0.903   4.799   3.799
 2831SOL    HW2 9393   0.952   4.912   3.692
 2832SOL     OW 9394   1.173   2.969   2.156
 2832SOL    HW1 9395   1.174   3.065   2.181
 2832SOL    HW2 9396   1.155   2.913   2.237
 2833SOL     OW 9397   3.180   1.928   2.463
 2833SOL    HW1 9398   3.260   1.938   2.404
 2833SOL    HW2 9399   3.142   2.018   2.485
 2834SOL     OW 9400   3.976   5.511   6.083
 2834SOL    HW1 9401   4.025   5.494   6.169
 2834SOL    HW2 9402   4.041   5.544   6.014
 2835SOL     OW 9403   0.535   6.588   2.253
 2835SOL    HW1 9404   0.485   6.511   2.292
 2835SOL    HW2 9405   0.624   6.598   2.298
 2836SOL     OW 9406   6.571   0.076   2.339
 2836SOL    HW1 9407   6.514   0.084   2.257
 2836SOL    HW2 9408   6.618   7.008   2.339
 2837SOL     OW 9409   5.321   4.968   2.618
 2837SOL    HW1 9410   5.309   5.037   2.690
 2837SOL    HW2 9411   5.418   4.946   2.609
 2838SOL     OW 9412   2.780   3.841   0.948
 2838SOL    HW1 9413   2.769   3.818   1.044
 2838SOL    HW2 9414   2.705   3.802   0.895
 2839SOL     OW 9415   6.495   2.344   2.497
 2839SOL    HW1 9416   6.587   2.329   2.534
 2839SOL    HW2 9417   6.443   2.404   2.557
 2840SOL     OW 9418   1.272   0.216   3.029
 2840SOL    HW1 9419   1.365   0.182   3.040
 2840SOL    HW2 9420   1.228   0.169   2.953
 2841SOL     OW 9421   0.772   0.847   6.325
 2841SOL    HW1 9422   0.762   0.935   6.371
 2841SOL    HW2 9423   0.826   0.786   6.382
 2842SOL     OW 9424   0.563   4.235   4.079
 2842SOL    HW1 9425   0.514   4.308   4.031
 2842SOL    HW2 9426   0.544   4.241   4.177
 2843SOL     OW 9427   2.348   2.526   2.716
 2843SOL    HW1 9428   2.272   2.477   2.758
 2843SOL    HW2 9429   2.325   2.548   2.621
 2844SOL     OW 9430   6.983   5.104   0.595
 2844SOL    HW1 9431   0.044   5.129   0.541
 2844SOL    HW2 9432   7.003   5.113   0.692
 2845SOL     OW 9433   6.176   2.889   0.869
 2845SOL    HW1 9434   6.145   2.836   0.948
 2845SOL    HW2 9435   6.190   2.826   0.792
 2846SOL     OW 9436   3.885   1.279   0.289
 2846SOL    HW1 9437   3.888   1.375   0.260
 2846SOL    HW2 9438   3.971   1.255   0.334
 2847SOL     OW 9439   5.036   3.470   3.471
 2847SOL    HW1 9440   5.021   3.522   3.387
 2847SOL    HW2 9441   5.113   3.408   3.458
 2848SOL     OW 9442   1.841   2.516   5.156
 2848SOL    HW1 9443   1.908   2.482   5.221
 2848SOL    HW2 9444   1.787   2.589   5.199
 2849SOL     OW 9445   4.469   6.543   0.580
 2849SOL    HW1 9446   4.537   6.476   0.611
 2849SOL    HW2 9447   4.387   6.536   0.636
 2850SOL     OW 9448   1.544   0.085   2.412
 2850SOL    HW1 9449   1.622   0.135   2.373
 2850SOL    HW2 9450   1.495   0.144   2.476
 2851SOL     OW 9451   6.140   1.365   6.217
 2851SOL    HW1 9452   6.196   1.430   6.165
 2851SOL    HW2 9453   6.096   1.413   6.293
 2852SOL     OW 9454   5.929   4.251   6.796
 2852SOL    HW1 9455   5.869   4.206   6.730
 2852SOL    HW2 9456   6.007   4.192   6.815
 2853SOL     OW 9457   1.268   1.201   6.662
 2853SOL    HW1 9458   1.186   1.226   6.610
 2853SOL    HW2 9459   1.347   1.247   6.623
 2854SOL     OW 9460   4.158   1.279   4.809
 2854SOL    HW1 9461   4.096   1.304   4.884
 2854SOL    HW2 9462   4.225   1.213   4.842
 2855SOL     OW 9463   2.473   1.493   6.350
 2855SOL    HW1 9464   2.470   1.478   6.449
 2855SOL    HW2 9465   2.459   1.406   6.304
 2856SOL     OW 9466   0.867   2.893   5.346
 2856SOL    HW1 9467   0.941   2.940   5.298
 2856SOL    HW2 9468   0.869   2.796   5.325
 2857SOL     OW 9469   2.173   2.135   2.616
 2857SOL    HW1 9470   2.260   2.136   2.665
 2857SOL    HW2 9471   2.108   2.078   2.665
 2858SOL     OW 9472   4.793   4.285   2.162
 2858SOL    HW1 9473   4.707   4.301   2.114
 2858SOL    HW2 9474   4.838   4.204   2.123
 2859SOL     OW 9475   5.611   0.863   6.554
 2859SOL    HW1 9476   5.555   0.798   6.504
 2859SOL    HW2 9477   5.567   0.953   6.554
 2860SOL     OW 9478   3.249   1.251   1.517
 2860SOL    HW1 9479   3.156   1.213   1.522
 2860SOL    HW2 9480   3.262   1.314   1.593
 2861SOL     OW 9481   4.148   3.976   5.895
 2861SOL    HW1 9482   4.209   3.950   5.970
 2861SOL    HW2 9483   4.075   4.035   5.930
 2862SOL     OW 9484   6.194   1.776   2.452
 2862SOL    HW1 9485   6.199   1.781   2.353
 2862SOL    HW2 9486   6.194   1.869   2.490
 2863SOL     OW 9487   4.896   1.432   6.670
 2863SOL    HW1 9488   4.967   1.473   6.612
 2863SOL    HW2 9489   4.843   1.366   6.616
 2864SOL     OW 9490   4.403   1.745   1.913
 2864SOL    HW1 9491   4.393   1.654   1.953
 2864SOL    HW2 9492   4.337   1.808   1.955
 2865SOL     OW 9493   4.076   4.628   6.272
 2865SOL    HW1 9494   4.002   4.691   6.246
 2865SOL    HW2 9495   4.132   4.607   6.192
 2866SOL     OW 9496   6.621   5.548   6.839
 2866SOL    HW1 9497   6.655   5.466   6.886
 2866SOL    HW2 9498   6.521   5.550   6.844
 2867SOL     OW 9499   6.960   5.820   3.041
 2867SOL    HW1 9500   0.029   5.834   2.998
 2867SOL    HW2 9501   6.973   5.785   3.133
 2868SOL     OW 9502   0.820   1.646   5.405
 2868SOL    HW1 9503   0.852   1.724   5.459
 2868SOL    HW2 9504   0.758   1.591   5.460
 2869SOL     OW 9505   6.828   1.333   3.949
 2869SOL    HW1 9506   6.832   1.354   3.851
 2869SOL    HW2 9507   6.878   1.403   4.000
 2870SOL     OW 9508   0.521   1.773   4.887
 2870SOL    HW1 9509   0.503   1.732   4.976
 2870SOL    HW2 9510   0.443   1.828   4.859
 2871SOL     OW 9511   0.202   2.183   6.421
 2871SOL    HW1 9512   0.216   2.161   6.517
 2871SOL    HW2 9513   0.263   2.128   6.365
 2872SOL     OW 9514   2.411   2.203   2.784
 2872SOL    HW1 9515   2.413   2.302   2.794
 2872SOL    HW2 9516   2.503   2.167   2.796
 2873SOL     OW 9517   0.152   5.407   3.098
 2873SOL    HW1 9518   0.052   5.406   3.096
 2873SOL    HW2 9519   0.186   5.313   3.092
 2874SOL     OW 9520   4.335   6.358   3.194
 2874SOL    HW1 9521   4.396   6.386   3.268
 2874SOL    HW2 9522   4.295   6.439   3.151
 2875SOL     OW 9523   4.562   7.008   0.614
 2875SOL    HW1 9524   4.630   6.957   0.666
 2875SOL    HW2 9525   4.576   0.086   0.629
 2876SOL     OW 9526   1.627   0.464   2.043
 2876SOL    HW1 9527   1.593   0.378   2.004
 2876SOL    HW2 9528   1.551   0.511   2.089
 2877SOL     OW 9529   3.008   2.490   5.374
 2877SOL    HW1 9530   3.065   2.480   5.293
 2877SOL    HW2 9531   3.050   2.442   5.451
 2878SOL     OW 9532   3.594   5.054   5.227
 2878SOL    HW1 9533   3.571   4.958   5.245
 2878SOL    HW2 9534   3.682   5.075   5.269
 2879SOL     OW 9535   5.686   5.204   0.149
 2879SOL    HW1 9536   5.659   5.120   0.102
 2879SOL    HW2 9537   5.640   5.282   0.106
 2880SOL     OW 9538   7.017   0.888   1.699
 2880SOL    HW1 9539   0.024   0.868   1.793
 2880SOL    HW2 9540   0.042   0.824   1.637
 2881SOL     OW 9541   5.457   6.171   6.704
 2881SOL    HW1 9542   5.446   6.268   6.680
 2881SOL    HW2 9543   5.390   6.147   6.774
 2882SOL     OW 9544   0.640   5.117   2.304
 2882SOL    HW1 9545   0.678   5.052   2.238
 2882SOL    HW2 9546   0.584   5.067   2.371
 2883SOL     OW 9547   5.328   0.062   3.193
 2883SOL    HW1 9548   5.366   0.053   3.102
 2883SOL    HW2 9549   5.398   0.096   3.256
 2884SOL     OW 9550   1.160   0.049   2.356
 2884SOL    HW1 9551   1.073   0.093   2.380
 2884SOL    HW2 9552   1.147   6.971   2.351
 2885SOL     OW 9553   1.088   3.570   3.845
 2885SOL    HW1 9554   1.032   3.585   3.926
 2885SOL    HW2 9555   1.053   3.626   3.769
 2886SOL     OW 9556   1.637   4.018   5.980
 2886SOL    HW1 9557   1.556   4.031   6.038
 2886SOL    HW2 9558   1.715   3.991   6.037
 2887SOL     OW 9559   0.328   0.395   4.948
 2887SOL    HW1 9560   0.260   0.369   4.880
 2887SOL    HW2 9561   0.304   0.354   5.036
 2888SOL     OW 9562   0.514   4.154   0.190
 2888SOL    HW1 9563   0.551   4.150   0.283
 2888SOL    HW2 9564   0.453   4.076   0.175
 2889SOL     OW 9565   2.029   6.197   2.507
 2889SOL    HW1 9566   2.091   6.125   2.474
 2889SOL    HW2 9567   2.036   6.276   2.447
 2890SOL     OW 9568   2.171   5.920   0.671
 2890SOL    HW1 9569   2.099   5.977   0.630
 2890SOL    HW2 9570   2.130   5.836   0.707
 2891SOL     OW 9571   1.159   4.412   3.575
 2891SOL    HW1 9572   1.084   4.458   3.623
 2891SOL    HW2 9573   1.131   4.390   3.482
 2892SOL     OW 9574   5.771   2.937   6.964
 2892SOL    HW1 9575   5.696   2.890   7.009
 2892SOL    HW2 9576   5.858   2.911   7.007
 2893SOL     OW 9577   6.771   6.242   4.771
 2893SOL    HW1 9578   6.861   6.207   4.749
 2893SOL    HW2 9579   6.709   6.230   4.693
 2894SOL     OW 9580   1.126   3.237   2.226
 2894SOL    HW1 9581   1.178   3.322   2.212
 2894SOL    HW2 9582   1.029   3.258   2.236
 2895SOL     OW 9583   5.114   2.649   5.607
 2895SOL    HW1 9584   5.087   2.613   5.518
 2895SOL    HW2 9585   5.035   2.647   5.669
 2896SOL     OW 9586   4.794   5.622   6.177
 2896SOL    HW1 9587   4.759   5.642   6.086
 2896SOL    HW2 9588   4.726   5.570   6.228
 2897SOL     OW 9589   4.306   4.912   2.975
 2897SOL    HW1 9590   4.393   4.898   3.023
 2897SOL    HW2 9591   4.271   4.824   2.943
 2898SOL     OW 9592   4.743   4.912   4.684
 2898SOL    HW1 9593   4.814   4.857   4.727
 2898SOL    HW2 9594   4.698   4.859   4.613
 2899SOL     OW 9595   1.292   1.810   0.028
 2899SOL    HW1 9596   1.325   1.719   0.006
 2899SOL    HW2 9597   1.295   1.824   0.127
 2900SOL     OW 9598   2.195   3.612   5.961
 2900SOL    HW1 9599   2.249   3.680   6.012
 2900SOL    HW2 9600   2.102   3.645   5.950
 2901SOL     OW 9601   3.022   5.279   3.387
 2901SOL    HW1 9602   2.938   5.305   3.434
 2901SOL    HW2 9603   3.081   5.227   3.450
 2902SOL     OW 9604   5.226   6.805   2.811
 2902SOL    HW1 9605   5.309   6.789   2.864
 2902SOL    HW2 9606   5.196   6.720   2.769
 2903SOL     OW 9607   2.918   0.587   0.598
 2903SOL    HW1 9608   2.894   0.490   0.596
 2903SOL    HW2 9609   3.011   0.598   0.632
 2904SOL     OW 9610   2.158   3.930   4.573
 2904SOL    HW1 9611   2.197   3.838   4.587
 2904SOL    HW2 9612   2.191   3.990   4.646
 2905SOL     OW 9613   1.680   2.962   4.764
 2905SOL    HW1 9614   1.774   2.987   4.741
 2905SOL    HW2 9615   1.657   2.876   4.719
 2906SOL     OW 9616   4.074   5.586   1.624
 2906SOL    HW1 9617   4.064   5.668   1.568
 2906SOL    HW2 9618   4.017   5.513   1.586
 2907SOL     OW 9619   0.635   1.354   3.237
 2907SOL    HW1 9620   0.669   1.351   3.144
 2907SOL    HW2 9621   0.653   1.267   3.283
 2908SOL     OW 9622   4.859   6.120   3.674
 2908SOL    HW1 9623   4.889   6.211   3.644
 2908SOL    HW2 9624   4.782   6.130   3.737
 2909SOL     OW 9625   1.359   5.335   3.623
 2909SOL    HW1 9626   1.341   5.307   3.529
 2909SOL    HW2 9627   1.284   5.394   3.656
 2910SOL     OW 9628   4.786   0.156   4.426
 2910SOL    HW1 9629   4.777   0.113   4.336
 2910SOL    HW2 9630   4.827   0.247   4.415
 2911SOL     OW 9631   0.596   5.290   3.530
 2911SOL    HW1 9632   0.639   5.353   3.596
 2911SOL    HW2 9633   0.626   5.197   3.549
 2912SOL     OW 9634   4.520   0.624   7.017
 2912SOL    HW1 9635   4.478   0.537   6.991
 2912SOL    HW2 9636   4.449   0.688   0.027
 2913SOL     OW 9637   2.666   4.753   2.518
 2913SOL    HW1 9638   2.747   4.756   2.458
 2913SOL    HW2 9639   2.689   4.796   2.605
 2914SOL     OW 9640   6.585   6.159   6.739
 2914SOL    HW1 9641   6.680   6.180   6.762
 2914SOL    HW2 9642   6.583   6.081   6.677
 2915SOL     OW 9643   5.078   1.969   3.858
 2915SOL    HW1 9644   4.981   1.955   3.877
 2915SOL    HW2 9645   5.125   1.998   3.942
 2916SOL     OW 9646   1.289   6.356   0.177
 2916SOL    HW1 9647   1.315   6.316   0.265
 2916SOL    HW2 9648   1.369   6.396   0.133
 2917SOL     OW 9649   2.657   6.943   3.628
 2917SOL    HW1 9650   2.628   6.884   3.553
 2917SOL    HW2 9651   2.578   6.966   3.685
 2918SOL     OW 9652   6.430   5.129   4.991
 2918SOL    HW1 9653   6.503   5.092   4.933
 2918SOL    HW2 9654   6.344   5.081   4.972
 2919SOL     OW 9655   6.872   0.854   2.161
 2919SOL    HW1 9656   6.950   0.839   2.222
 2919SOL    HW2 9657   6.830   0.942   2.182
 2920SOL     OW 9658   2.588   1.667   1.744
 2920SOL    HW1 9659   2.647   1.726   1.688
 2920SOL    HW2 9660   2.638   1.638   1.826
 2921SOL     OW 9661   0.930   0.128   4.218
 2921SOL    HW1 9662   1.011   0.184   4.199
 2921SOL    HW2 9663   0.853   0.163   4.165
 2922SOL     OW 9664   5.156   1.001   0.536
 2922SOL    HW1 9665   5.118   0.916   0.573
 2922SOL    HW2 9666   5.250   0.986   0.506
 2923SOL     OW 9667   6.449   5.265   2.232
 2923SOL    HW1 9668   6.350   5.275   2.221
 2923SOL    HW2 9669   6.496   5.321   2.164
 2924SOL     OW 9670   6.706   2.317   5.623
 2924SOL    HW1 9671   6.791   2.371   5.626
 2924SOL    HW2 9672   6.635   2.369   5.575
 2925SOL     OW 9673   4.726   0.992   2.332
 2925SOL    HW1 9674   4.699   0.950   2.246
 2925SOL    HW2 9675   4.645   1.022   2.382
 2926SOL     OW 9676   7.019   1.972   4.086
 2926SOL    HW1 9677   6.932   1.952   4.040
 2926SOL    HW2 9678   0.072   1.917   4.044
 2927SOL     OW 9679   1.311   3.371   1.886
 2927SOL    HW1 9680   1.263   3.349   1.971
 2927SOL    HW2 9681   1.392   3.312   1.877
 2928SOL     OW 9682   0.027   1.575   6.290
 2928SOL    HW1 9683   0.117   1.605   6.258
 2928SOL    HW2 9684   0.017   1.598   6.386
 2929SOL     OW 9685   0.391   2.322   0.025
 2929SOL    HW1 9686   0.380   2.355   0.118
 2929SOL    HW2 9687   0.436   2.233   0.026
 2930SOL     OW 9688   4.352   0.661   4.747
 2930SOL    HW1 9689   4.397   0.664   4.658
 2930SOL    HW2 9690   4.275   0.725   4.748
 2931SOL     OW 9691   5.544   4.976   0.680
 2931SOL    HW1 9692   5.632   4.929   0.677
 2931SOL    HW2 9693   5.518   5.004   0.587
 2932SOL     OW 9694   0.745   5.684   1.453
 2932SOL    HW1 9695   0.669   5.749   1.458
 2932SOL    HW2 9696   0.806   5.699   1.530
 2933SOL     OW 9697   0.235   5.152   3.006
 2933SOL    HW1 9698   0.248   5.053   3.013
 2933SOL    HW2 9699   0.324   5.197   2.999
 2934SOL     OW 9700   4.585   1.141   0.257
 2934SOL    HW1 9701   4.505   1.118   0.202
 2934SOL    HW2 9702   4.665   1.092   0.222
 2935SOL     OW 9703   6.088   3.631   6.944
 2935SOL    HW1 9704   6.175   3.597   6.981
 2935SOL    HW2 9705   6.081   3.729   6.961
 2936SOL     OW 9706   4.153   6.691   0.921
 2936SOL    HW1 9707   4.137   6.739   1.007
 2936SOL    HW2 9708   4.080   6.713   0.856
 2937SOL     OW 9709   4.989   4.623   0.480
 2937SOL    HW1 9710   4.955   4.621   0.386
 2937SOL    HW2 9711   5.051   4.700   0.493
 2938SOL     OW 9712   4.662   4.748   6.413
 2938SOL    HW1 9713   4.617   4.702   6.337
 2938SOL    HW2 9714   4.734   4.807   6.378
 2939SOL     OW 9715   1.210   1.016   2.837
 2939SOL    HW1 9716   1.190   1.094   2.777
 2939SOL    HW2 9717   1.309   1.013   2.855
 2940SOL     OW 9718   5.643   5.387   6.386
 2940SOL    HW1 9719   5.659   5.408   6.289
 2940SOL    HW2 9720   5.570   5.319   6.394
 2941SOL     OW 9721   2.057   2.787   4.540
 2941SOL    HW1 9722   1.991   2.782   4.465
 2941SOL    HW2 9723   2.057   2.701   4.590
 2942SOL     OW 9724   2.908   2.745   0.500
 2942SOL    HW1 9725   2.842   2.805   0.455
 2942SOL    HW2 9726   2.870   2.653   0.505
 2943SOL     OW 9727   4.477   4.571   3.273
 2943SOL    HW1 9728   4.414   4.509   3.320
 2943SOL    HW2 9729   4.446   4.665   3.285
 2944SOL     OW 9730   3.055   5.849   4.541
 2944SOL    HW1 9731   3.079   5.899   4.624
 2944SOL    HW2 9732   3.034   5.914   4.467
 2945SOL     OW 9733   3.632   4.121   3.698
 2945SOL    HW1 9734   3.542   4.108   3.740
 2945SOL    HW2 9735   3.703   4.104   3.767
 2946SOL     OW 9736   1.052   4.959   6.221
 2946SOL    HW1 9737   1.003   4.988   6.139
 2946SOL    HW2 9738   1.147   4.991   6.216
 2947SOL     OW 9739   0.266   3.764   0.888
 2947SOL    HW1 9740   0.335   3.835   0.899
 2947SOL    HW2 9741   0.276   3.723   0.797
 2948SOL     OW 9742   0.953   4.413   5.860
 2948SOL    HW1 9743   1.037   4.370   5.829
 2948SOL    HW2 9744   0.893   4.345   5.902
 2949SOL     OW 9745   3.285   5.100   1.033
 2949SOL    HW1 9746   3.275   5.144   1.122
 2949SOL    HW2 9747   3.346   5.155   0.975
 2950SOL     OW 9748   5.168   4.262   4.253
 2950SOL    HW1 9749   5.087   4.262   4.312
 2950SOL    HW2 9750   5.197   4.168   4.237
 2951SOL     OW 9751   5.519   1.244   0.913
 2951SOL    HW1 9752   5.494   1.285   1.000
 2951SOL    HW2 9753   5.609   1.277   0.884
 2952SOL     OW 9754   0.871   5.133   5.404
 2952SOL    HW1 9755   0.773   5.126   5.388
 2952SOL    HW2 9756   0.913   5.187   5.331
 2953SOL     OW 9757   5.219   3.066   2.334
 2953SOL    HW1 9758   5.261   3.147   2.292
 2953SOL    HW2 9759   5.180   3.092   2.423
 2954SOL     OW 9760   0.418   5.527   1.929
 2954SOL    HW1 9761   0.443   5.457   1.995
 2954SOL    HW2 9762   0.500   5.571   1.894
 2955SOL     OW 9763   0.629   4.300   1.749
 2955SOL    HW1 9764   0.575   4.260   1.675
 2955SOL    HW2 9765   0.675   4.227   1.800
 2956SOL     OW 9766   5.588   6.561   3.421
 2956SOL    HW1 9767   5.605   6.600   3.512
 2956SOL    HW2 9768   5.675   6.546   3.375
 2957SOL     OW 9769   6.159   2.925   1.311
 2957SOL    HW1 9770   6.122   2.938   1.219
 2957SOL    HW2 9771   6.101   2.971   1.378
 2958SOL     OW 9772   2.203   4.953   4.028
 2958SOL    HW1 9773   2.109   4.922   4.017
 2958SOL    HW2 9774   2.205   5.053   4.021
 2959SOL     OW 9775   4.769   4.350   0.469
 2959SOL    HW1 9776   4.688   4.302   0.437
 2959SOL    HW2 9777   4.786   4.328   0.565
 2960SOL     OW 9778   2.934   0.695   6.884
 2960SOL    HW1 9779   2.928   0.678   6.785
 2960SOL    HW2 9780   2.944   0.608   6.932
 2961SOL     OW 9781   4.917   3.616   2.789
 2961SOL    HW1 9782   4.949   3.694   2.735
 2961SOL    HW2 9783   4.933   3.634   2.886
 2962SOL     OW 9784   4.712   0.386   3.206
 2962SOL    HW1 9785   4.683   0.453   3.275
 2962SOL    HW2 9786   4.643   0.314   3.199
 2963SOL     OW 9787   2.173   0.315   6.474
 2963SOL    HW1 9788   2.246   0.383   6.470
 2963SOL    HW2 9789   2.092   0.349   6.427
 2964SOL     OW 9790   0.779   0.682   3.073
 2964SOL    HW1 9791   0.794   0.743   3.150
 2964SOL    HW2 9792   0.863   0.631   3.053
 2965SOL     OW 9793   6.865   2.140   4.579
 2965SOL    HW1 9794   6.909   2.063   4.625
 2965SOL    HW2 9795   6.774   2.154   4.618
 2966SOL     OW 9796   5.514   6.098   4.035
 2966SOL    HW1 9797   5.526   6.024   3.970
 2966SOL    HW2 9798   5.603   6.123   4.073
 2967SOL     OW 9799   6.225   0.542   4.844
 2967SOL    HW1 9800   6.171   0.622   4.818
 2967SOL    HW2 9801   6.302   0.570   4.902
 2968SOL     OW 9802   1.034   3.005   6.479
 2968SOL    HW1 9803   1.119   2.987   6.429
 2968SOL    HW2 9804   0.965   3.039   6.415
 2969SOL     OW 9805   4.898   1.320   4.053
 2969SOL    HW1 9806   4.992   1.320   4.087
 2969SOL    HW2 9807   4.894   1.365   3.964
 2970SOL     OW 9808   1.609   4.839   6.215
 2970SOL    HW1 9809   1.562   4.868   6.299
 2970SOL    HW2 9810   1.554   4.771   6.168
 2971SOL     OW 9811   4.615   4.174   0.343
 2971SOL    HW1 9812   4.570   4.206   0.260
 2971SOL    HW2 9813   4.705   4.136   0.320
 2972SOL     OW 9814   6.356   4.751   6.621
 2972SOL    HW1 9815   6.397   4.713   6.539
 2972SOL    HW2 9816   6.257   4.761   6.608
 2973SOL     OW 9817   5.051   7.015   2.800
 2973SOL    HW1 9818   5.109   6.934   2.803
 2973SOL    HW2 9819   5.065   0.050   2.882
 2974SOL     OW 9820   0.876   4.620   2.893
 2974SOL    HW1 9821   0.805   4.552   2.876
 2974SOL    HW2 9822   0.957   4.598   2.839
 2975SOL     OW 9823   5.377   3.554   4.378
 2975SOL    HW1 9824   5.475   3.536   4.389
 2975SOL    HW2 9825   5.355   3.561   4.281
 2976SOL     OW 9826   4.178   2.140   3.320
 2976SOL    HW1 9827   4.199   2.220   3.264
 2976SOL    HW2 9828   4.224   2.059   3.282
 2977SOL     OW 9829   2.663   0.054   3.087
 2977SOL    HW1 9830   2.710   0.092   3.167
 2977SOL    HW2 9831   2.708   0.086   3.003
 2978SOL     OW 9832   4.840   4.520   0.270
 2978SOL    HW1 9833   4.815   4.470   0.353
 2978SOL    HW2 9834   4.773   4.501   0.198
 2979SOL     OW 9835   3.925   0.877   4.157
 2979SOL    HW1 9836   3.992   0.948   4.135
 2979SOL    HW2 9837   3.886   0.895   4.247
 2980SOL     OW 9838   1.367   5.899   4.315
 2980SOL    HW1 9839   1.351   5.925   4.220
 2980SOL    HW2 9840   1.303   5.827   4.341
 2981SOL     OW 9841   2.093   0.955   5.705
 2981SOL    HW1 9842   2.190   0.935   5.691
 2981SOL    HW2 9843   2.083   1.041   5.754
 2982SOL     OW 9844   4.058   5.102   2.931
 2982SOL    HW1 9845   4.125   5.072   2.999
 2982SOL    HW2 9846   4.101   5.102   2.840
 2983SOL     OW 9847   0.829   1.349   2.756
 2983SOL    HW1 9848   0.736   1.374   2.730
 2983SOL    HW2 9849   0.894   1.400   2.699
 2984SOL     OW 9850   5.662   5.736   1.317
 2984SOL    HW1 9851   5.588   5.671   1.333
 2984SOL    HW2 9852   5.701   5.720   1.226
 2985SOL     OW 9853   1.463   2.624   5.751
 2985SOL    HW1 9854   1.527   2.565   5.802
 2985SOL    HW2 9855   1.371   2.585   5.756
 2986SOL     OW 9856   3.161   3.990   4.810
 2986SOL    HW1 9857   3.099   3.948   4.877
 2986SOL    HW2 9858   3.201   4.073   4.849
 2987SOL     OW 9859   6.480   1.596   4.268
 2987SOL    HW1 9860   6.544   1.559   4.335
 2987SOL    HW2 9861   6.487   1.545   4.182
 2988SOL     OW 9862   1.077   6.091   2.877
 2988SOL    HW1 9863   1.090   6.001   2.835
 2988SOL    HW2 9864   1.000   6.086   2.941
 2989SOL     OW 9865   6.450   5.764   6.017
 2989SOL    HW1 9866   6.444   5.860   6.044
 2989SOL    HW2 9867   6.538   5.726   6.046
 2990SOL     OW 9868   3.746   1.994   4.586
 2990SOL    HW1 9869   3.764   1.902   4.619
 2990SOL    HW2 9870   3.688   2.043   4.652
 2991SOL     OW 9871   6.648   4.522   5.709
 2991SOL    HW1 9872   6.682   4.582   5.781
 2991SOL    HW2 9873   6.613   4.577   5.633
 2992SOL     OW 9874   2.845   5.862   4.886
 2992SOL    HW1 9875   2.775   5.839   4.819
 2992SOL    HW2 9876   2.912   5.924   4.844
 2993SOL     OW 9877   0.342   5.164   1.347
 2993SOL    HW1 9878   0.366   5.251   1.390
 2993SOL    HW2 9879   0.401   5.149   1.267
 2994SOL     OW 9880   4.300   6.557   6.899
 2994SOL    HW1 9881   4.302   6.496   6.978
 2994SOL    HW2 9882   4.386   6.608   6.894
 2995SOL     OW 9883   2.908   2.249   6.199
 2995SOL    HW1 9884   2.961   2.166   6.182
 2995SOL    HW2 9885   2.839   2.231   6.268
 2996SOL     OW 9886   1.573   0.775   3.384
 2996SOL    HW1 9887   1.583   0.866   3.342
 2996SOL    HW2 9888   1.480   0.764   3.418
 2997SOL     OW 9889   5.787   0.338   2.769
 2997SOL    HW1 9890   5.739   0.425   2.760
 2997SOL    HW2 9891   5.871   0.351   2.822
 2998SOL     OW 9892   4.287   7.002   4.486
 2998SOL    HW1 9893   4.341   6.970   4.564
 2998SOL    HW2 9894   4.232   6.926   4.451
 2999SOL     OW 9895   3.148   4.909   4.633
 2999SOL    HW1 9896   3.105   4.946   4.550
 2999SOL    HW2 9897   3.247   4.908   4.622
 3000SOL     OW 9898   2.570   3.462   6.751
 3000SOL    HW1 9899   2.598   3.512   6.668
 3000SOL    HW2 9900   2.614   3.372   6.752
 3001SOL     OW 9901   5.283   0.138   6.403
 3001SOL    HW1 9902   5.259   0.226   6.363
 3001SOL    HW2 9903   5.320   0.151   6.495
 3002SOL     OW 9904   3.706   1.115   0.083
 3002SOL    HW1 9905   3.735   1.086   7.013
 3002SOL    HW2 9906   3.782   1.163   0.128
 3003SOL     OW 9907   1.920   6.438   0.495
 3003SOL    HW1 9908   1.988   6.496   0.451
 3003SOL    HW2 9909   1.890   6.367   0.432
 3004SOL     OW 9910   1.302   4.709   2.486
 3004SOL    HW1 9911   1.338   4.755   2.405
 3004SOL    HW2 9912   1.287   4.776   2.559
 3005SOL     OW 9913   3.214   1.687   0.402
 3005SOL    HW1 9914   3.190   1.755   0.332
 3005SOL    HW2 9915   3.297   1.717   0.450
 3006SOL     OW 9916   4.930   1.631   5.473
 3006SOL    HW1 9917   4.985   1.634   5.389
 3006SOL    HW2 9918   4.930   1.722   5.516
 3007SOL     OW 9919   5.982   5.165   1.511
 3007SOL    HW1 9920   5.894   5.190   1.551
 3007SOL    HW2 9921   6.029   5.101   1.571
 3008SOL     OW 9922   3.882   1.916   6.029
 3008SOL    HW1 9923   3.974   1.949   6.009
 3008SOL    HW2 9924   3.843   1.969   6.104
 3009SOL     OW 9925   0.654   1.621   2.465
 3009SOL    HW1 9926   0.738   1.632   2.412
 3009SOL    HW2 9927   0.663   1.669   2.552
 3010SOL     OW 9928   3.718   5.067   3.448
 3010SOL    HW1 9929   3.753   5.158   3.470
 3010SOL    HW2 9930   3.625   5.057   3.483
 3011SOL     OW 9931   5.988   1.455   1.274
 3011SOL    HW1 9932   5.938   1.520   1.331
 3011SOL    HW2 9933   6.080   1.441   1.312
 3012SOL     OW 9934   1.441   3.743   5.988
 3012SOL    HW1 9935   1.470   3.820   5.932
 3012SOL    HW2 9936   1.519   3.683   6.006
 3013SOL     OW 9937   5.694   6.395   5.038
 3013SOL    HW1 9938   5.667   6.445   4.956
 3013SOL    HW2 9939   5.730   6.458   5.107
 3014SOL     OW 9940   4.450   2.391   4.609
 3014SOL    HW1 9941   4.516   2.466   4.604
 3014SOL    HW2 9942   4.477   2.318   4.546
 3015SOL     OW 9943   3.426   1.697   0.760
 3015SOL    HW1 9944   3.416   1.636   0.839
 3015SOL    HW2 9945   3.420   1.792   0.791
 3016SOL     OW 9946   2.279   6.109   3.631
 3016SOL    HW1 9947   2.264   6.180   3.699
 3016SOL    HW2 9948   2.367   6.124   3.586
 3017SOL     OW 9949   6.909   4.738   2.472
 3017SOL    HW1 9950   6.883   4.643   2.490
 3017SOL    HW2 9951   6.919   4.787   2.559
 3018SOL     OW 9952   3.392   6.063   5.867
 3018SOL    HW1 9953   3.445   5.979   5.877
 3018SOL    HW2 9954   3.332   6.055   5.787
 3019SOL     OW 9955   0.540   6.904   6.570
 3019SOL    HW1 9956   0.597   6.914   6.652
 3019SOL    HW2 9957   0.561   6.977   6.506
 3020SOL     OW 9958   4.243   3.028   1.482
 3020SOL    HW1 9959   4.307   3.056   1.554
 3020SOL    HW2 9960   4.225   2.930   1.490
 3021SOL     OW 9961   3.143   6.697   6.544
 3021SOL    HW1 9962   3.169   6.601   6.542
 3021SOL    HW2 9963   3.218   6.753   6.507
 3022SOL     OW 9964   3.414   5.715   4.175
 3022SOL    HW1 9965   3.452   5.625   4.192
 3022SOL    HW2 9966   3.484   5.774   4.135
 3023SOL     OW 9967   4.117   0.767   2.950
 3023SOL    HW1 9968   4.024   0.789   2.922
 3023SOL    HW2 9969   4.143   0.823   3.029
 3024SOL     OW 9970   4.094   6.831   5.025
 3024SOL    HW1 9971   4.154   6.909   5.041
 3024SOL    HW2 9972   4.068   6.789   5.112
 3025SOL     OW 9973   3.173   0.679   0.456
 3025SOL    HW1 9974   3.093   0.676   0.396
 3025SOL    HW2 9975   3.151   0.734   0.537
 3026SOL     OW 9976   1.498   0.293   0.475
 3026SOL    HW1 9977   1.595   0.271   0.471
 3026SOL    HW2 9978   1.445   0.208   0.483
 3027SOL     OW 9979   3.961   0.293   3.296
 3027SOL    HW1 9980   3.861   0.289   3.303
 3027SOL    HW2 9981   3.987   0.360   3.226
 3028SOL     OW 9982   1.236   4.116   5.348
 3028SOL    HW1 9983   1.219   4.017   5.346
 3028SOL    HW2 9984   1.325   4.135   5.307
 3029SOL     OW 9985   0.034   2.829   5.248
 3029SOL    HW1 9986   0.112   2.793   5.301
 3029SOL    HW2 9987   0.049   2.812   5.151
 3030SOL     OW 9988   0.474   3.424   6.538
 3030SOL    HW1 9989   0.532   3.499   6.569
 3030SOL    HW2 9990   0.506   3.391   6.449
 3031SOL     OW 9991   0.313   4.020   0.461
 3031SOL    HW1 9992   0.298   4.034   0.363
 3031SOL    HW2 9993   0.404   4.054   0.485
 3032SOL     OW 9994   3.655   0.064   1.235
 3032SOL    HW1 9995   3.702   0.070   1.147
 3032SOL    HW2 9996   3.713   0.015   1.300
 3033SOL     OW 9997   6.115   2.038   1.683
 3033SOL    HW1 9998   6.023   2.002   1.666
 3033SOL    HW2 9999   6.148   2.003   1.771
 3034SOL     OW10000   1.510   5.870   2.905
 3034SOL    HW110001   1.478   5.961   2.931
 3034SOL    HW210002   1.597   5.850   2.951
 3035SOL     OW10003   0.373   3.124   6.548
 3035SOL    HW110004   0.326   3.211   6.533
 3035SOL    HW210005   0.470   3.135   6.528
 3036SOL     OW10006   1.577   1.352   6.480
 3036SOL    HW110007   1.595   1.352   6.579
 3036SOL    HW210008   1.642   1.292   6.435
 3037SOL     OW10009   6.090   5.341   5.735
 3037SOL    HW110010   6.111   5.426   5.687
 3037SOL    HW210011   6.033   5.283   5.677
 3038SOL     OW10012   5.768   6.467   6.313
 3038SOL    HW110013   5.865   6.463   6.337
 3038SOL    HW210014   5.757   6.520   6.229
 3039SOL     OW10015   6.870   3.958   0.654
 3039SOL    HW110016   6.851   3.901   0.734
 3039SOL    HW210017   6.939   3.913   0.597
 3040SOL     OW10018   3.733   3.331   6.119
 3040SOL    HW110019   3.792   3.353   6.041
 3040SOL    HW210020   3.648   3.383   6.113
 3041SOL     OW10021   2.258   2.931   4.132
 3041SOL    HW110022   2.177   2.925   4.191
 3041SOL    HW210023   2.304   3.018   4.148
 3042SOL     OW10024   4.483   6.044   1.863
 3042SOL    HW110025   4.457   5.952   1.834
 3042SOL    HW210026   4.582   6.056   1.851
 3043SOL     OW10027   2.437   4.838   1.650
 3043SOL    HW110028   2.416   4.900   1.725
 3043SOL    HW210029   2.500   4.883   1.587
 3044SOL     OW10030   3.873   3.840   5.797
 3044SOL    HW110031   3.795   3.810   5.851
 3044SOL    HW210032   3.932   3.898   5.852
 3045SOL     OW10033   4.930   0.704   2.846
 3045SOL    HW110034   4.938   0.684   2.748
 3045SOL    HW210035   4.873   0.635   2.890
 3046SOL     OW10036   1.919   0.691   6.321
 3046SOL    HW110037   1.860   0.733   6.252
 3046SOL    HW210038   1.899   0.593   6.327
 3047SOL     OW10039   5.663   0.589   1.941
 3047SOL    HW110040   5.667   0.506   1.997
 3047SOL    HW210041   5.643   0.564   1.846
 3048SOL     OW10042   3.895   2.321   1.758
 3048SOL    HW110043   3.804   2.351   1.789
 3048SOL    HW210044   3.932   2.388   1.694
 3049SOL     OW10045   1.363   6.579   2.266
 3049SOL    HW110046   1.415   6.663   2.248
 3049SOL    HW210047   1.385   6.546   2.358
 3050SOL     OW10048   3.261   1.410   1.757
 3050SOL    HW110049   3.171   1.402   1.800
 3050SOL    HW210050   3.277   1.505   1.730
 3051SOL     OW10051   2.278   3.904   0.156
 3051SOL    HW110052   2.210   3.975   0.170
 3051SOL    HW210053   2.243   3.836   0.092
 3052SOL     OW10054   5.244   6.939   1.735
 3052SOL    HW110055   5.163   6.975   1.781
 3052SOL    HW210056   5.241   6.839   1.736
 3053SOL     OW10057   6.988   1.655   6.813
 3053SOL    HW110058   6.981   1.731   6.877
 3053SOL    HW210059   6.940   1.677   6.728
 3054SOL     OW10060   6.573   2.134   0.517
 3054SOL    HW110061   6.529   2.067   0.457
 3054SOL    HW210062   6.634   2.088   0.581
 3055SOL     OW10063   5.115   0.103   4.213
 3055SOL    HW110064   5.172   0.185   4.206
 3055SOL    HW210065   5.093   0.084   4.308
 3056SOL     OW10066   6.029   0.404   4.681
 3056SOL    HW110067   5.984   0.332   4.734
 3056SOL    HW210068   6.095   0.452   4.739
 3057SOL     OW10069   3.904   6.041   2.846
 3057SOL    HW110070   3.858   6.006   2.927
 3057SOL    HW210071   4.003   6.030   2.856
 3058SOL     OW10072   0.285   4.943   1.486
 3058SOL    HW110073   0.237   4.962   1.571
 3058SOL    HW210074   0.302   5.028   1.437
 3059SOL     OW10075   2.119   2.380   4.456
 3059SOL    HW110076   2.147   2.432   4.536
 3059SOL    HW210077   2.122   2.439   4.375
 3060SOL     OW10078   0.782   5.602   0.257
 3060SOL    HW110079   0.879   5.610   0.279
 3060SOL    HW210080   0.729   5.656   0.322
 3061SOL     OW10081   0.052   0.072   5.280
 3061SOL    HW110082   0.125   0.134   5.254
 3061SOL    HW210083   0.090   7.001   5.297
 3062SOL     OW10084   2.073   0.224   0.339
 3062SOL    HW110085   2.140   0.175   0.393
 3062SOL    HW210086   1.983   0.182   0.351
 3063SOL     OW10087   2.671   5.160   2.046
 3063SOL    HW110088   2.633   5.083   1.996
 3063SOL    HW210089   2.624   5.169   2.134
 3064SOL     OW10090   6.000   4.245   3.205
 3064SOL    HW110091   6.055   4.323   3.234
 3064SOL    HW210092   6.059   4.166   3.189
 3065SOL     OW10093   2.457   0.688   0.676
 3065SOL    HW110094   2.406   0.638   0.607
 3065SOL    HW210095   2.415   0.778   0.690
 3066SOL     OW10096   5.294   5.205   0.861
 3066SOL    HW110097   5.338   5.230   0.947
 3066SOL    HW210098   5.310   5.107   0.843
 3067SOL     OW10099   3.619   2.268   5.351
 3067SOL    HW110100   3.523   2.262   5.377
 3067SOL    HW210101   3.643   2.189   5.294
 3068SOL     OW10102   6.144   0.024   1.204
 3068SOL    HW110103   6.089   6.969   1.241
 3068SOL    HW210104   6.236   7.011   1.184
 3069SOL     OW10105   6.569   6.580   1.623
 3069SOL    HW110106   6.654   6.633   1.618
 3069SOL    HW210107   6.510   6.605   1.546
 3070SOL     OW10108   1.985   1.483   0.829
 3070SOL    HW110109   2.029   1.570   0.807
 3070SOL    HW210110   2.038   1.408   0.789
 3071SOL     OW10111   5.846   6.548   3.259
 3071SOL    HW110112   5.919   6.591   3.311
 3071SOL    HW210113   5.881   6.467   3.212
 3072SOL     OW10114   1.834   6.293   0.234
 3072SOL    HW110115   1.756   6.258   0.286
 3072SOL    HW210116   1.828   6.260   0.140
 3073SOL     OW10117   6.183   3.284   4.086
 3073SOL    HW110118   6.256   3.288   4.018
 3073SOL    HW210119   6.223   3.270   4.177
 3074SOL     OW10120   5.981   3.823   1.390
 3074SOL    HW110121   6.058   3.772   1.430
 3074SOL    HW210122   6.014   3.878   1.313
 3075SOL     OW10123   2.831   6.236   1.739
 3075SOL    HW110124   2.732   6.229   1.751
 3075SOL    HW210125   2.865   6.153   1.695
 3076SOL     OW10126   6.686   0.468   4.686
 3076SOL    HW110127   6.774   0.434   4.719
 3076SOL    HW210128   6.697   0.509   4.595
 3077SOL     OW10129   4.992   5.929   2.327
 3077SOL    HW110130   4.980   5.832   2.347
 3077SOL    HW210131   4.931   5.956   2.253
 3078SOL     OW10132   0.332   2.672   2.381
 3078SOL    HW110133   0.424   2.648   2.350
 3078SOL    HW210134   0.337   2.713   2.472
 3079SOL     OW10135   2.382   2.755   3.494
 3079SOL    HW110136   2.445   2.796   3.427
 3079SOL    HW210137   2.407   2.660   3.510
 3080SOL     OW10138   4.877   4.059   2.958
 3080SOL    HW110139   4.880   4.054   2.859
 3080SOL    HW210140   4.953   4.115   2.991
 3081SOL     OW10141   0.545   2.630   5.601
 3081SOL    HW110142   0.560   2.535   5.629
 3081SOL    HW210143   0.501   2.680   5.675
 3082SOL     OW10144   2.841   6.076   4.024
 3082SOL    HW110145   2.810   5.982   4.039
 3082SOL    HW210146   2.858   6.120   4.112
 3083SOL     OW10147   3.560   5.744   3.810
 3083SOL    HW110148   3.464   5.766   3.824
 3083SOL    HW210149   3.584   5.756   3.714
 3084SOL     OW10150   6.056   4.227   4.891
 3084SOL    HW110151   6.062   4.289   4.969
 3084SOL    HW210152   6.017   4.140   4.921
 3085SOL     OW10153   6.171   4.245   1.148
 3085SOL    HW110154   6.179   4.286   1.057
 3085SOL    HW210155   6.138   4.315   1.212
 3086SOL     OW10156   4.421   1.395   1.105
 3086SOL    HW110157   4.464   1.357   1.023
 3086SOL    HW210158   4.485   1.391   1.182
 3087SOL     OW10159   0.433   5.387   3.910
 3087SOL    HW110160   0.473   5.470   3.871
 3087SOL    HW210161   0.464   5.377   4.004
 3088SOL     OW10162   1.930   4.703   4.958
 3088SOL    HW110163   1.853   4.721   5.020
 3088SOL    HW210164   2.001   4.653   5.006
 3089SOL     OW10165   1.222   3.454   6.662
 3089SOL    HW110166   1.220   3.355   6.651
 3089SOL    HW210167   1.136   3.492   6.628
 3090SOL     OW10168   2.417   2.134   1.917
 3090SOL    HW110169   2.367   2.216   1.944
 3090SOL    HW210170   2.515   2.151   1.922
 3091SOL     OW10171   1.490   0.895   1.005
 3091SOL    HW110172   1.418   0.963   1.022
 3091SOL    HW210173   1.570   0.941   0.968
 3092SOL     OW10174   4.783   0.740   0.065
 3092SOL    HW110175   4.714   0.668   0.059
 3092SOL    HW210176   4.870   0.706   0.026
 3093SOL     OW10177   5.999   6.748   5.858
 3093SOL    HW110178   6.021   6.695   5.776
 3093SOL    HW210179   5.977   6.685   5.933
 3094SOL     OW10180   1.827   6.610   4.431
 3094SOL    HW110181   1.862   6.659   4.512
 3094SOL    HW210182   1.744   6.560   4.456
 3095SOL     OW10183   1.832   4.891   5.484
 3095SOL    HW110184   1.881   4.811   5.520
 3095SOL    HW210185   1.751   4.860   5.434
 3096SOL     OW10186   1.616   5.612   5.446
 3096SOL    HW110187   1.713   5.594   5.464
 3096SOL    HW210188   1.583   5.550   5.375
 3097SOL     OW10189   6.254   2.020   0.006
 3097SOL    HW110190   6.160   2.018   6.991
 3097SOL    HW210191   6.251   2.027   0.106
 3098SOL     OW10192   2.571   3.101   0.826
 3098SOL    HW110193   2.600   3.142   0.913
 3098SOL    HW210194   2.547   3.005   0.841
 3099SOL     OW10195   0.730   6.893   2.843
 3099SOL    HW110196   0.697   6.799   2.831
 3099SOL    HW210197   0.732   6.940   2.755
 3100SOL     OW10198   6.257   6.139   4.412
 3100SOL    HW110199   6.173   6.164   4.365
 3100SOL    HW210200   6.251   6.164   4.509
 3101SOL     OW10201   5.350   6.826   6.601
 3101SOL    HW110202   5.384   6.904   6.653
 3101SOL    HW210203   5.423   6.790   6.543
 3102SOL     OW10204   6.901   5.299   1.822
 3102SOL    HW110205   6.883   5.203   1.798
 3102SOL    HW210206   6.853   5.358   1.758
 3103SOL     OW10207   4.285   0.767   2.340
 3103SOL    HW110208   4.314   0.682   2.384
 3103SOL    HW210209   4.185   0.776   2.347
 3104SOL     OW10210   5.044   0.360   5.140
 3104SOL    HW110211   5.087   0.444   5.105
 3104SOL    HW210212   5.040   0.364   5.240
 3105SOL     OW10213   6.150   4.542   1.741
 3105SOL    HW110214   6.105   4.515   1.655
 3105SOL    HW210215   6.249   4.544   1.727
 3106SOL     OW10216   6.715   1.137   3.238
 3106SOL    HW110217   6.811   1.160   3.221
 3106SOL    HW210218   6.657   1.185   3.172
 3107SOL     OW10219   4.453   1.177   4.728
 3107SOL    HW110220   4.411   1.253   4.778
 3107SOL    HW210221   4.386   1.104   4.715
 3108SOL     OW10222   1.077   6.076   4.184
 3108SOL    HW110223   1.089   6.059   4.282
 3108SOL    HW210224   1.167   6.086   4.141
 3109SOL     OW10225   5.743   6.078   3.035
 3109SOL    HW110226   5.818   6.070   2.969
 3109SOL    HW210227   5.670   6.015   3.011
 3110SOL     OW10228   1.792   2.410   2.745
 3110SOL    HW110229   1.737   2.339   2.702
 3110SOL    HW210230   1.803   2.487   2.682
 3111SOL     OW10231   6.404   5.544   3.761
 3111SOL    HW110232   6.456   5.570   3.679
 3111SOL    HW210233   6.355   5.459   3.744
 3112SOL     OW10234   5.309   2.269   6.731
 3112SOL    HW110235   5.340   2.363   6.717
 3112SOL    HW210236   5.221   2.270   6.778
 3113SOL     OW10237   2.613   6.073   3.280
 3113SOL    HW110238   2.579   6.067   3.374
 3113SOL    HW210239   2.605   6.167   3.247
 3114SOL     OW10240   4.165   1.284   1.118
 3114SOL    HW110241   4.243   1.346   1.122
 3114SOL    HW210242   4.136   1.272   1.023
 3115SOL     OW10243   3.756   3.328   6.444
 3115SOL    HW110244   3.816   3.379   6.382
 3115SOL    HW210245   3.664   3.324   6.405
 3116SOL     OW10246   0.852   3.069   6.798
 3116SOL    HW110247   0.838   3.035   6.891
 3116SOL    HW210248   0.879   3.165   6.801
 3117SOL     OW10249   4.472   3.675   5.338
 3117SOL    HW110250   4.446   3.616   5.414
 3117SOL    HW210251   4.534   3.626   5.277
 3118SOL     OW10252   0.924   5.586   2.092
 3118SOL    HW110253   0.850   5.519   2.080
 3118SOL    HW210254   0.918   5.655   2.020
 3119SOL     OW10255   1.942   3.443   5.987
 3119SOL    HW110256   1.929   3.492   5.900
 3119SOL    HW210257   2.018   3.379   5.978
 3120SOL     OW10258   3.122   6.319   4.815
 3120SOL    HW110259   3.023   6.323   4.804
 3120SOL    HW210260   3.146   6.349   4.907
 3121SOL     OW10261   0.448   1.161   3.720
 3121SOL    HW110262   0.434   1.172   3.622
 3121SOL    HW210263   0.362   1.138   3.764
 3122SOL     OW10264   3.943   6.344   5.817
 3122SOL    HW110265   4.014   6.367   5.751
 3122SOL    HW210266   3.977   6.274   5.880
 3123SOL     OW10267   3.134   1.731   3.736
 3123SOL    HW110268   3.185   1.660   3.686
 3123SOL    HW210269   3.192   1.812   3.746
 3124SOL     OW10270   3.797   0.048   4.825
 3124SOL    HW110271   3.808   6.969   4.816
 3124SOL    HW210272   3.858   0.082   4.896
 3125SOL     OW10273   6.469   2.247   4.835
 3125SOL    HW110274   6.409   2.275   4.760
 3125SOL    HW210275   6.530   2.173   4.803
 3126SOL     OW10276   5.040   5.107   5.613
 3126SOL    HW110277   5.009   5.198   5.584
 3126SOL    HW210278   5.034   5.100   5.713
 3127SOL     OW10279   1.378   3.354   4.645
 3127SOL    HW110280   1.455   3.303   4.684
 3127SOL    HW210281   1.388   3.356   4.545
 3128SOL     OW10282   2.593   0.583   5.777
 3128SOL    HW110283   2.508   0.542   5.744
 3128SOL    HW210284   2.581   0.614   5.871
 3129SOL     OW10285   6.339   3.889   6.333
 3129SOL    HW110286   6.377   3.841   6.254
 3129SOL    HW210287   6.372   3.846   6.417
 3130SOL     OW10288   1.808   4.229   1.502
 3130SOL    HW110289   1.736   4.198   1.564
 3130SOL    HW210290   1.843   4.318   1.533
 3131SOL     OW10291   6.934   2.103   1.167
 3131SOL    HW110292   6.976   2.067   1.084
 3131SOL    HW210293   6.997   2.167   1.212
 3132SOL     OW10294   4.168   5.214   5.932
 3132SOL    HW110295   4.087   5.191   5.987
 3132SOL    HW210296   4.250   5.185   5.981
 3133SOL     OW10297   3.503   1.889   4.496
 3133SOL    HW110298   3.590   1.917   4.536
 3133SOL    HW210299   3.448   1.970   4.476
 3134SOL     OW10300   4.827   4.133   1.576
 3134SOL    HW110301   4.768   4.054   1.561
 3134SOL    HW210302   4.773   4.209   1.613
 3135SOL     OW10303   4.782   0.583   5.595
 3135SOL    HW110304   4.842   0.646   5.546
 3135SOL    HW210305   4.689   0.619   5.597
 3136SOL     OW10306   5.385   0.846   0.944
 3136SOL    HW110307   5.393   0.859   1.043
 3136SOL    HW210308   5.376   0.936   0.900
 3137SOL     OW10309   6.707   0.868   3.314
 3137SOL    HW110310   6.637   0.815   3.265
 3137SOL    HW210311   6.711   0.961   3.277
 3138SOL     OW10312   6.251   4.155   4.105
 3138SOL    HW110313   6.209   4.226   4.162
 3138SOL    HW210314   6.235   4.176   4.009
 3139SOL     OW10315   5.246   6.590   0.401
 3139SOL    HW110316   5.260   6.591   0.500
 3139SOL    HW210317   5.252   6.496   0.367
 3140SOL     OW10318   6.023   0.181   6.947
 3140SOL    HW110319   6.049   0.186   6.851
 3140SOL    HW210320   6.020   0.273   6.986
 3141SOL     OW10321   6.932   6.234   6.523
 3141SOL    HW110322   6.849   6.272   6.480
 3141SOL    HW210323   6.995   6.204   6.451
 3142SOL     OW10324   3.570   6.815   1.892
 3142SOL    HW110325   3.583   6.800   1.990
 3142SOL    HW210326   3.529   6.734   1.851
 3143SOL     OW10327   6.699   1.674   6.929
 3143SOL    HW110328   6.756   1.611   6.982
 3143SOL    HW210329   6.713   1.767   6.962
 3144SOL     OW10330   4.549   3.970   1.691
 3144SOL    HW110331   4.516   4.053   1.736
 3144SOL    HW210332   4.485   3.895   1.706
 3145SOL     OW10333   2.283   5.769   1.410
 3145SOL    HW110334   2.219   5.792   1.484
 3145SOL    HW210335   2.244   5.695   1.355
 3146SOL     OW10336   1.242   6.866   3.351
 3146SOL    HW110337   1.334   6.839   3.322
 3146SOL    HW210338   1.194   6.906   3.273
 3147SOL     OW10339   3.830   4.795   0.620
 3147SOL    HW110340   3.788   4.838   0.540
 3147SOL    HW210341   3.784   4.708   0.640
 3148SOL     OW10342   5.368   5.817   4.832
 3148SOL    HW110343   5.315   5.764   4.898
 3148SOL    HW210344   5.454   5.846   4.873
 3149SOL     OW10345   2.456   1.030   5.847
 3149SOL    HW110346   2.391   1.100   5.818
 3149SOL    HW210347   2.511   1.065   5.923
 3150SOL     OW10348   5.730   6.056   4.203
 3150SOL    HW110349   5.783   5.980   4.165
 3150SOL    HW210350   5.648   6.020   4.248
 3151SOL     OW10351   5.444   1.346   5.519
 3151SOL    HW110352   5.451   1.416   5.591
 3151SOL    HW210353   5.354   1.351   5.476
 3152SOL     OW10354   1.533   5.867   0.553
 3152SOL    HW110355   1.475   5.863   0.634
 3152SOL    HW210356   1.558   5.774   0.525
 3153SOL     OW10357   5.856   5.104   1.919
 3153SOL    HW110358   5.774   5.148   1.882
 3153SOL    HW210359   5.847   5.096   2.019
 3154SOL     OW10360   5.976   0.967   6.397
 3154SOL    HW110361   5.966   1.000   6.304
 3154SOL    HW210362   6.033   0.885   6.398
 3155SOL     OW10363   6.372   4.265   1.433
 3155SOL    HW110364   6.319   4.288   1.351
 3155SOL    HW210365   6.337   4.181   1.473
 3156SOL     OW10366   3.359   2.938   3.365
 3156SOL    HW110367   3.458   2.926   3.368
 3156SOL    HW210368   3.326   2.970   3.454
 3157SOL     OW10369   2.630   2.422   4.788
 3157SOL    HW110370   2.674   2.481   4.856
 3157SOL    HW210371   2.576   2.478   4.726
 3158SOL     OW10372   4.470   0.966   3.007
 3158SOL    HW110373   4.519   0.907   3.071
 3158SOL    HW210374   4.461   1.058   3.046
 3159SOL     OW10375   5.339   1.619   6.343
 3159SOL    HW110376   5.395   1.537   6.360
 3159SOL    HW210377   5.388   1.700   6.374
 3160SOL     OW10378   0.309   6.316   5.548
 3160SOL    HW110379   0.375   6.371   5.600
 3160SOL    HW210380   0.346   6.224   5.536
 3161SOL     OW10381   1.586   1.559   3.108
 3161SOL    HW110382   1.569   1.600   3.018
 3161SOL    HW210383   1.551   1.465   3.108
 3162SOL     OW10384   1.218   6.439   1.936
 3162SOL    HW110385   1.308   6.481   1.948
 3162SOL    HW210386   1.193   6.389   2.019
 3163SOL     OW10387   4.228   2.559   6.249
 3163SOL    HW110388   4.233   2.632   6.316
 3163SOL    HW210389   4.225   2.598   6.157
 3164SOL     OW10390   4.734   4.434   0.961
 3164SOL    HW110391   4.683   4.507   1.007
 3164SOL    HW210392   4.695   4.346   0.986
 3165SOL     OW10393   0.664   6.590   0.957
 3165SOL    HW110394   0.590   6.639   1.004
 3165SOL    HW210395   0.734   6.656   0.930
 3166SOL     OW10396   4.481   2.059   5.198
 3166SOL    HW110397   4.576   2.060   5.228
 3166SOL    HW210398   4.437   1.975   5.229
 3167SOL     OW10399   6.624   3.953   1.499
 3167SOL    HW110400   6.712   3.905   1.490
 3167SOL    HW210401   6.591   3.980   1.409
 3168SOL     OW10402   4.220   2.271   6.974
 3168SOL    HW110403   4.256   2.185   7.010
 3168SOL    HW210404   4.123   2.260   6.954
 3169SOL     OW10405   1.423   3.818   5.076
 3169SOL    HW110406   1.431   3.745   5.144
 3169SOL    HW210407   1.446   3.782   4.985
 3170SOL     OW10408   3.979   0.734   1.136
 3170SOL    HW110409   3.992   0.636   1.121
 3170SOL    HW210410   3.959   0.751   1.232
 3171SOL     OW10411   0.559   0.127   1.130
 3171SOL    HW110412   0.543   0.124   1.032
 3171SOL    HW210413   0.517   0.047   1.173
 3172SOL     OW10414   0.320   4.807   0.065
 3172SOL    HW110415   0.312   4.714   0.102
 3172SOL    HW210416   0.352   4.802   6.991
 3173SOL     OW10417   2.849   2.077   0.481
 3173SOL    HW110418   2.779   2.079   0.552
 3173SOL    HW210419   2.804   2.077   0.391
 3174SOL     OW10420   2.859   2.528   6.195
 3174SOL    HW110421   2.934   2.585   6.228
 3174SOL    HW210422   2.895   2.442   6.160
 3175SOL     OW10423   6.794   0.596   0.295
 3175SOL    HW110424   6.738   0.651   0.356
 3175SOL    HW210425   6.873   0.649   0.264
 3176SOL     OW10426   1.307   4.739   4.991
 3176SOL    HW110427   1.211   4.721   5.011
 3176SOL    HW210428   1.315   4.825   4.940
 3177SOL     OW10429   4.668   4.234   4.266
 3177SOL    HW110430   4.655   4.280   4.178
 3177SOL    HW210431   4.587   4.180   4.287
 3178SOL     OW10432   6.082   1.579   0.382
 3178SOL    HW110433   6.146   1.571   0.458
 3178SOL    HW210434   5.995   1.535   0.407
 3179SOL     OW10435   1.857   3.233   2.460
 3179SOL    HW110436   1.779   3.188   2.502
 3179SOL    HW210437   1.858   3.214   2.362
 3180SOL     OW10438   4.233   1.415   0.198
 3180SOL    HW110439   4.142   1.451   0.176
 3180SOL    HW210440   4.248   1.420   0.297
 3181SOL     OW10441   0.700   1.305   2.364
 3181SOL    HW110442   0.772   1.236   2.375
 3181SOL    HW210443   0.726   1.368   2.290
 3182SOL     OW10444   2.415   1.398   4.919
 3182SOL    HW110445   2.364   1.316   4.945
 3182SOL    HW210446   2.385   1.430   4.829
 3183SOL     OW10447   4.310   4.333   1.644
 3183SOL    HW110448   4.224   4.287   1.665
 3183SOL    HW210449   4.383   4.293   1.699
 3184SOL     OW10450   1.333   2.597   2.418
 3184SOL    HW110451   1.282   2.513   2.434
 3184SOL    HW210452   1.420   2.576   2.374
 3185SOL     OW10453   6.443   5.845   0.261
 3185SOL    HW110454   6.430   5.931   0.213
 3185SOL    HW210455   6.390   5.845   0.346
 3186SOL     OW10456   4.127   1.808   2.018
 3186SOL    HW110457   4.107   1.716   2.052
 3186SOL    HW210458   4.186   1.855   2.084
 3187SOL     OW10459   4.722   3.622   0.539
 3187SOL    HW110460   4.681   3.600   0.451
 3187SOL    HW210461   4.661   3.681   0.591
 3188SOL     OW10462   3.557   6.551   4.664
 3188SOL    HW110463   3.653   6.528   4.678
 3188SOL    HW210464   3.546   6.650   4.666
 3189SOL     OW10465   1.711   1.607   1.720
 3189SOL    HW110466   1.739   1.654   1.637
 3189SOL    HW210467   1.783   1.617   1.790
 3190SOL     OW10468   0.008   6.498   0.635
 3190SOL    HW110469   7.014   6.401   0.614
 3190SOL    HW210470   0.058   6.541   0.560
 3191SOL     OW10471   4.499   6.774   0.951
 3191SOL    HW110472   4.561   6.812   0.882
 3191SOL    HW210473   4.415   6.828   0.952
 3192SOL     OW10474   7.013   2.819   0.699
 3192SOL    HW110475   6.930   2.763   0.693
 3192SOL    HW210476   0.030   2.833   0.607
 3193SOL     OW10477   4.129   1.725   6.549
 3193SOL    HW110478   4.173   1.659   6.489
 3193SOL    HW210479   4.114   1.685   6.639
 3194SOL     OW10480   0.471   3.453   5.535
 3194SOL    HW110481   0.528   3.380   5.572
 3194SOL    HW210482   0.488   3.463   5.437
 3195SOL     OW10483   2.644   2.150   3.453
 3195SOL    HW110484   2.569   2.091   3.421
 3195SOL    HW210485   2.609   2.215   3.519
 3196SOL     OW10486   0.829   0.656   5.237
 3196SOL    HW110487   0.863   0.569   5.271
 3196SOL    HW210488   0.875   0.731   5.286
 3197SOL     OW10489   1.569   6.092   3.922
 3197SOL    HW110490   1.652   6.090   3.867
 3197SOL    HW210491   1.496   6.138   3.871
 3198SOL     OW10492   6.134   1.759   5.708
 3198SOL    HW110493   6.083   1.745   5.624
 3198SOL    HW210494   6.165   1.854   5.713
 3199SOL     OW10495   4.677   2.672   2.055
 3199SOL    HW110496   4.682   2.659   2.154
 3199SOL    HW210497   4.676   2.769   2.035
 3200SOL     OW10498   6.845   2.670   1.926
 3200SOL    HW110499   6.772   2.711   1.980
 3200SOL    HW210500   6.915   2.631   1.987
 3201SOL     OW10501   4.916   4.214   4.353
 3201SOL    HW110502   4.918   4.123   4.396
 3201SOL    HW210503   4.822   4.237   4.328
 3202SOL     OW10504   1.185   4.601   1.598
 3202SOL    HW110505   1.173   4.503   1.617
 3202SOL    HW210506   1.263   4.614   1.537
 3203SOL     OW10507   6.287   2.717   6.346
 3203SOL    HW110508   6.344   2.696   6.426
 3203SOL    HW210509   6.212   2.778   6.373
 3204SOL     OW10510   4.877   6.451   1.676
 3204SOL    HW110511   4.892   6.511   1.597
 3204SOL    HW210512   4.805   6.385   1.655
 3205SOL     OW10513   0.303   3.547   6.914
 3205SOL    HW110514   0.231   3.593   6.862
 3205SOL    HW210515   0.271   3.457   6.943
 3206SOL     OW10516   0.209   6.973   5.826
 3206SOL    HW110517   0.191   6.970   5.925
 3206SOL    HW210518   0.137   6.923   5.778
 3207SOL     OW10519   0.965   0.864   5.643
 3207SOL    HW110520   0.917   0.853   5.730
 3207SOL    HW210521   1.063   0.850   5.657
 3208SOL     OW10522   4.909   6.562   5.688
 3208SOL    HW110523   4.944   6.625   5.758
 3208SOL    HW210524   4.983   6.506   5.654
 3209SOL     OW10525   4.142   5.390   3.381
 3209SOL    HW110526   4.136   5.364   3.284
 3209SOL    HW210527   4.061   5.356   3.429
 3210SOL     OW10528   0.392   4.114   1.294
 3210SOL    HW110529   0.314   4.115   1.231
 3210SOL    HW210530   0.476   4.128   1.242
 3211SOL     OW10531   1.679   3.417   1.176
 3211SOL    HW110532   1.611   3.345   1.186
 3211SOL    HW210533   1.770   3.380   1.190
 3212SOL     OW10534   2.926   1.131   0.205
 3212SOL    HW110535   2.907   1.086   0.117
 3212SOL    HW210536   2.839   1.156   0.248
 3213SOL     OW10537   6.467   6.031   2.471
 3213SOL    HW110538   6.389   5.969   2.455
 3213SOL    HW210539   6.498   6.022   2.565
 3214SOL     OW10540   4.776   5.621   0.437
 3214SOL    HW110541   4.876   5.623   0.444
 3214SOL    HW210542   4.738   5.575   0.517
 3215SOL     OW10543   0.596   3.541   1.041
 3215SOL    HW110544   0.644   3.521   1.127
 3215SOL    HW210545   0.499   3.556   1.060
 3216SOL     OW10546   5.848   5.702   1.498
 3216SOL    HW110547   5.915   5.639   1.459
 3216SOL    HW210548   5.764   5.699   1.444
 3217SOL     OW10549   0.280   5.457   2.789
 3217SOL    HW110550   0.342   5.534   2.802
 3217SOL    HW210551   0.261   5.414   2.878
 3218SOL     OW10552   3.909   0.036   4.245
 3218SOL    HW110553   3.928   7.010   4.158
 3218SOL    HW210554   3.994   0.070   4.284
 3219SOL     OW10555   0.291   2.049   3.166
 3219SOL    HW110556   0.196   2.021   3.179
 3219SOL    HW210557   0.344   1.972   3.131
 3220SOL     OW10558   6.587   6.456   5.959
 3220SOL    HW110559   6.684   6.476   5.974
 3220SOL    HW210560   6.533   6.538   5.977
 3221SOL     OW10561   3.230   6.954   1.756
 3221SOL    HW110562   3.210   6.986   1.664
 3221SOL    HW210563   3.168   6.879   1.780
 3222SOL     OW10564   4.198   1.490   3.126
 3222SOL    HW110565   4.121   1.553   3.127
 3222SOL    HW210566   4.271   1.524   3.184
 3223SOL     OW10567   2.478   5.491   6.899
 3223SOL    HW110568   2.547   5.521   6.833
 3223SOL    HW210569   2.447   5.569   6.953
 3224SOL     OW10570   4.637   3.222   6.264
 3224SOL    HW110571   4.538   3.206   6.258
 3224SOL    HW210572   4.667   3.208   6.358
 3225SOL     OW10573   4.400   3.446   5.476
 3225SOL    HW110574   4.355   3.363   5.442
 3225SOL    HW210575   4.384   3.453   5.575
 3226SOL     OW10576   1.238   2.142   4.463
 3226SOL    HW110577   1.171   2.217   4.466
 3226SOL    HW210578   1.289   2.147   4.377
 3227SOL     OW10579   2.760   1.958   6.246
 3227SOL    HW110580   2.801   1.978   6.156
 3227SOL    HW210581   2.696   2.031   6.270
 3228SOL     OW10582   5.779   4.152   3.034
 3228SOL    HW110583   5.859   4.170   3.091
 3228SOL    HW210584   5.717   4.231   3.039
 3229SOL     OW10585   3.189   1.965   5.352
 3229SOL    HW110586   3.112   2.027   5.336
 3229SOL    HW210587   3.175   1.881   5.299
 3230SOL     OW10588   1.426   3.337   4.371
 3230SOL    HW110589   1.504   3.362   4.314
 3230SOL    HW210590   1.424   3.238   4.383
 3231SOL     OW10591   2.575   0.193   1.882
 3231SOL    HW110592   2.481   0.181   1.850
 3231SOL    HW210593   2.636   0.133   1.830
 3232SOL     OW10594   3.878   5.302   4.736
 3232SOL    HW110595   3.951   5.328   4.799
 3232SOL    HW210596   3.871   5.202   4.731
 3233SOL     OW10597   0.871   2.686   1.738
 3233SOL    HW110598   0.839   2.662   1.830
 3233SOL    HW210599   0.911   2.777   1.740
 3234SOL     OW10600   6.949   1.676   0.595
 3234SOL    HW110601   6.964   1.664   0.693
 3234SOL    HW210602   7.016   1.740   0.558
 3235SOL     OW10603   4.805   0.742   1.464
 3235SOL    HW110604   4.846   0.807   1.400
 3235SOL    HW210605   4.847   0.652   1.451
 3236SOL     OW10606   1.555   3.590   0.299
 3236SOL    HW110607   1.491   3.591   0.376
 3236SOL    HW210608   1.547   3.675   0.248
 3237SOL     OW10609   5.534   1.050   3.346
 3237SOL    HW110610   5.436   1.032   3.361
 3237SOL    HW210611   5.584   1.034   3.431
 3238SOL     OW10612   0.270   4.981   0.678
 3238SOL    HW110613   0.300   4.890   0.707
 3238SOL    HW210614   0.300   4.998   0.584
 3239SOL     OW10615   6.312   1.464   0.519
 3239SOL    HW110616   6.283   1.368   0.524
 3239SOL    HW210617   6.412   1.468   0.515
 3240SOL     OW10618   1.136   5.752   5.630
 3240SOL    HW110619   1.223   5.794   5.606
 3240SOL    HW210620   1.115   5.678   5.565
 3241SOL     OW10621   4.847   1.255   4.462
 3241SOL    HW110622   4.857   1.161   4.430
 3241SOL    HW210623   4.793   1.257   4.546
 3242SOL     OW10624   3.116   4.579   1.108
 3242SOL    HW110625   3.110   4.585   1.207
 3242SOL    HW210626   3.163   4.661   1.073
 3243SOL     OW10627   5.410   4.714   0.484
 3243SOL    HW110628   5.370   4.667   0.406
 3243SOL    HW210629   5.349   4.788   0.514
 3244SOL     OW10630   5.167   6.106   0.565
 3244SOL    HW110631   5.128   6.125   0.475
 3244SOL    HW210632   5.142   6.013   0.593
 3245SOL     OW10633   4.803   2.322   5.262
 3245SOL    HW110634   4.894   2.282   5.260
 3245SOL    HW210635   4.757   2.296   5.347
 3246SOL     OW10636   6.258   0.979   2.891
 3246SOL    HW110637   6.230   0.884   2.884
 3246SOL    HW210638   6.284   1.013   2.800
 3247SOL     OW10639   6.273   4.562   3.506
 3247SOL    HW110640   6.281   4.518   3.595
 3247SOL    HW210641   6.364   4.572   3.466
 3248SOL     OW10642   6.254   3.336   1.556
 3248SOL    HW110643   6.272   3.319   1.652
 3248SOL    HW210644   6.305   3.271   1.500
 3249SOL     OW10645   3.526   3.556   4.668
 3249SOL    HW110646   3.455   3.627   4.666
 3249SOL    HW210647   3.490   3.472   4.628
 3250SOL     OW10648   4.953   6.886   2.301
 3250SOL    HW110649   4.889   6.853   2.232
 3250SOL    HW210650   4.920   6.861   2.392
 3251SOL     OW10651   3.764   0.663   2.200
 3251SOL    HW110652   3.770   0.735   2.131
 3251SOL    HW210653   3.685   0.605   2.180
 3252SOL     OW10654   2.570   1.929   2.304
 3252SOL    HW110655   2.659   1.915   2.261
 3252SOL    HW210656   2.499   1.933   2.233
 3253SOL     OW10657   5.816   3.335   2.610
 3253SOL    HW110658   5.827   3.332   2.709
 3253SOL    HW210659   5.807   3.242   2.574
 3254SOL     OW10660   4.826   5.710   5.853
 3254SOL    HW110661   4.898   5.654   5.893
 3254SOL    HW210662   4.820   5.691   5.755
 3255SOL     OW10663   4.970   6.058   1.777
 3255SOL    HW110664   4.996   6.010   1.861
 3255SOL    HW210665   5.041   6.125   1.755
 3256SOL     OW10666   4.898   0.653   0.312
 3256SOL    HW110667   4.856   0.692   0.229
 3256SOL    HW210668   4.831   0.655   0.386
 3257SOL     OW10669   1.514   2.268   1.491
 3257SOL    HW110670   1.605   2.254   1.454
 3257SOL    HW210671   1.461   2.184   1.481
 3258SOL     OW10672   3.828   4.879   1.856
 3258SOL    HW110673   3.741   4.831   1.865
 3258SOL    HW210674   3.899   4.814   1.829
 3259SOL     OW10675   4.584   5.885   3.570
 3259SOL    HW110676   4.566   5.917   3.663
 3259SOL    HW210677   4.517   5.815   3.546
 3260SOL     OW10678   1.793   1.793   1.084
 3260SOL    HW110679   1.814   1.887   1.054
 3260SOL    HW210680   1.711   1.761   1.036
 3261SOL     OW10681   4.808   6.787   0.507
 3261SOL    HW110682   4.896   6.741   0.520
 3261SOL    HW210683   4.749   6.730   0.449
 3262SOL     OW10684   3.424   1.973   2.612
 3262SOL    HW110685   3.417   1.958   2.711
 3262SOL    HW210686   3.492   1.911   2.573
 3263SOL     OW10687   3.378   1.559   4.042
 3263SOL    HW110688   3.353   1.474   4.090
 3263SOL    HW210689   3.439   1.538   3.967
 3264SOL     OW10690   1.192   4.234   1.018
 3264SOL    HW110691   1.235   4.226   0.928
 3264SOL    HW210692   1.151   4.146   1.043
 3265SOL     OW10693   4.561   1.662   5.887
 3265SOL    HW110694   4.629   1.624   5.950
 3265SOL    HW210695   4.590   1.752   5.855
 3266SOL     OW10696   0.577   2.791   0.368
 3266SOL    HW110697   0.582   2.720   0.298
 3266SOL    HW210698   0.653   2.781   0.432
 3267SOL     OW10699   4.044   1.077   0.111
 3267SOL    HW110700   4.078   1.084   0.205
 3267SOL    HW210701   4.077   1.155   0.058
 3268SOL     OW10702   1.684   4.626   0.237
 3268SOL    HW110703   1.691   4.586   0.328
 3268SOL    HW210704   1.688   4.726   0.244
 3269SOL     OW10705   4.300   5.025   1.372
 3269SOL    HW110706   4.218   5.012   1.315
 3269SOL    HW210707   4.334   4.937   1.403
 3270SOL     OW10708   1.199   4.541   5.439
 3270SOL    HW110709   1.270   4.501   5.382
 3270SOL    HW210710   1.221   4.637   5.458
 3271SOL     OW10711   5.603   3.944   3.065
 3271SOL    HW110712   5.685   4.000   3.057
 3271SOL    HW210713   5.522   4.003   3.062
 3272SOL     OW10714   3.564   3.776   6.858
 3272SOL    HW110715   3.466   3.789   6.844
 3272SOL    HW210716   3.603   3.859   6.897
 3273SOL     OW10717   0.416   6.322   2.308
 3273SOL    HW110718   0.336   6.333   2.249
 3273SOL    HW210719   0.482   6.260   2.264
 3274SOL     OW10720   3.919   1.161   1.144
 3274SOL    HW110721   3.903   1.150   1.242
 3274SOL    HW210722   4.003   1.214   1.130
 3275SOL     OW10723   0.978   0.735   6.431
 3275SOL    HW110724   1.009   0.664   6.367
 3275SOL    HW210725   1.014   0.716   6.522
 3276SOL     OW10726   3.685   5.758   0.209
 3276SOL    HW110727   3.636   5.746   0.295
 3276SOL    HW210728   3.777   5.793   0.227
 3277SOL     OW10729   5.295   0.214   7.002
 3277SOL    HW110730   5.349   0.144   0.028
 3277SOL    HW210731   5.198   0.197   7.016
 3278SOL     OW10732   0.301   1.015   5.883
 3278SOL    HW110733   0.231   1.087   5.885
 3278SOL    HW210734   0.258   0.928   5.863
 3279SOL     OW10735   6.959   0.734   1.048
 3279SOL    HW110736   6.875   0.710   1.097
 3279SOL    HW210737   6.937   0.797   0.974
 3280SOL     OW10738   3.721   4.804   5.582
 3280SOL    HW110739   3.684   4.753   5.660
 3280SOL    HW210740   3.680   4.895   5.579
 3281SOL     OW10741   1.916   5.483   0.687
 3281SOL    HW110742   1.825   5.447   0.709
 3281SOL    HW210743   1.965   5.417   0.630
 3282SOL     OW10744   1.467   5.385   4.719
 3282SOL    HW110745   1.521   5.408   4.638
 3282SOL    HW210746   1.521   5.402   4.802
 3283SOL     OW10747   3.224   1.204   1.056
 3283SOL    HW110748   3.248   1.129   1.119
 3283SOL    HW210749   3.306   1.255   1.031
 3284SOL     OW10750   6.021   6.089   6.844
 3284SOL    HW110751   5.997   5.997   6.814
 3284SOL    HW210752   6.106   6.118   6.800
 3285SOL     OW10753   5.832   2.803   3.145
 3285SOL    HW110754   5.737   2.771   3.143
 3285SOL    HW210755   5.888   2.738   3.196
 3286SOL     OW10756   3.940   3.598   2.681
 3286SOL    HW110757   3.946   3.503   2.652
 3286SOL    HW210758   3.991   3.611   2.766
 3287SOL     OW10759   1.817   6.101   0.052
 3287SOL    HW110760   1.725   6.062   0.054
 3287SOL    HW210761   1.851   6.100   6.978
 3288SOL     OW10762   0.815   5.641   6.730
 3288SOL    HW110763   0.808   5.642   6.631
 3288SOL    HW210764   0.854   5.728   6.761
 3289SOL     OW10765   2.307   6.783   5.116
 3289SOL    HW110766   2.285   6.693   5.078
 3289SOL    HW210767   2.256   6.797   5.202
 3290SOL     OW10768   0.336   6.717   1.807
 3290SOL    HW110769   0.390   6.793   1.773
 3290SOL    HW210770   0.359   6.700   1.903
 3291SOL     OW10771   0.956   5.979   0.195
 3291SOL    HW110772   0.898   5.947   0.120
 3291SOL    HW210773   1.010   6.058   0.165
 3292SOL     OW10774   0.414   0.956   6.924
 3292SOL    HW110775   0.341   0.981   6.988
 3292SOL    HW210776   0.407   1.011   6.841
 3293SOL     OW10777   6.948   3.363   3.397
 3293SOL    HW110778   6.886   3.368   3.320
 3293SOL    HW210779   6.995   3.451   3.408
 3294SOL     OW10780   0.732   1.347   6.346
 3294SOL    HW110781   0.682   1.372   6.262
 3294SOL    HW210782   0.697   1.401   6.423
 3295SOL     OW10783   1.815   3.183   2.176
 3295SOL    HW110784   1.832   3.111   2.108
 3295SOL    HW210785   1.883   3.255   2.165
 3296SOL     OW10786   1.947   6.218   1.916
 3296SOL    HW110787   1.849   6.220   1.900
 3296SOL    HW210788   1.982   6.125   1.902
 3297SOL     OW10789   3.091   0.083   4.794
 3297SOL    HW110790   3.125   0.090   4.700
 3297SOL    HW210791   3.008   0.137   4.803
 3298SOL     OW10792   6.145   2.109   4.127
 3298SOL    HW110793   6.181   2.198   4.100
 3298SOL    HW210794   6.048   2.117   4.150
 3299SOL     OW10795   1.939   6.352   4.108
 3299SOL    HW110796   2.000   6.405   4.049
 3299SOL    HW210797   1.963   6.368   4.204
 3300SOL     OW10798   0.740   0.715   6.070
 3300SOL    HW110799   0.742   0.745   6.165
 3300SOL    HW210800   0.659   0.660   6.053
 3301SOL     OW10801   2.154   3.372   3.445
 3301SOL    HW110802   2.245   3.410   3.431
 3301SOL    HW210803   2.104   3.373   3.359
 3302SOL     OW10804   1.569   5.690   5.712
 3302SOL    HW110805   1.623   5.670   5.630
 3302SOL    HW210806   1.558   5.789   5.721
 3303SOL     OW10807   3.753   2.852   1.502
 3303SOL    HW110808   3.785   2.767   1.543
 3303SOL    HW210809   3.654   2.858   1.510
 3304SOL     OW10810   1.861   5.473   4.243
 3304SOL    HW110811   1.914   5.398   4.283
 3304SOL    HW210812   1.776   5.484   4.294
 3305SOL     OW10813   2.167   1.169   3.269
 3305SOL    HW110814   2.120   1.228   3.334
 3305SOL    HW210815   2.260   1.151   3.301
 3306SOL     OW10816   1.978   5.443   3.601
 3306SOL    HW110817   1.987   5.542   3.599
 3306SOL    HW210818   2.022   5.407   3.683
 3307SOL     OW10819   0.013   5.834   6.364
 3307SOL    HW110820   6.979   5.917   6.349
 3307SOL    HW210821   0.104   5.845   6.324
 3308SOL     OW10822   4.403   6.122   6.852
 3308SOL    HW110823   4.428   6.026   6.835
 3308SOL    HW210824   4.440   6.150   6.941
 3309SOL     OW10825   1.007   5.094   2.542
 3309SOL    HW110826   0.994   5.180   2.493
 3309SOL    HW210827   0.919   5.063   2.578
 3310SOL     OW10828   6.433   4.295   4.942
 3310SOL    HW110829   6.433   4.274   5.040
 3310SOL    HW210830   6.365   4.365   4.923
 3311SOL     OW10831   2.244   4.055   1.905
 3311SOL    HW110832   2.300   3.975   1.882
 3311SOL    HW210833   2.283   4.101   1.984
 3312SOL     OW10834   3.611   4.301   5.741
 3312SOL    HW110835   3.528   4.306   5.797
 3312SOL    HW210836   3.670   4.379   5.761
 3313SOL     OW10837   0.016   5.494   2.393
 3313SOL    HW110838   7.003   5.584   2.364
 3313SOL    HW210839   7.000   5.424   2.331
 3314SOL     OW10840   1.865   1.730   4.437
 3314SOL    HW110841   1.901   1.712   4.346
 3314SOL    HW210842   1.867   1.645   4.491
 3315SOL     OW10843   6.304   3.788   4.107
 3315SOL    HW110844   6.370   3.719   4.077
 3315SOL    HW210845   6.253   3.822   4.028
 3316SOL     OW10846   3.832   1.264   6.186
 3316SOL    HW110847   3.835   1.165   6.193
 3316SOL    HW210848   3.743   1.297   6.218
 3317SOL     OW10849   4.826   3.207   1.791
 3317SOL    HW110850   4.817   3.228   1.694
 3317SOL    HW210851   4.756   3.140   1.817
 3318SOL     OW10852   2.862   0.306   0.614
 3318SOL    HW110853   2.929   0.233   0.609
 3318SOL    HW210854   2.829   0.315   0.708
 3319SOL     OW10855   6.048   6.934   4.731
 3319SOL    HW110856   6.063   6.889   4.819
 3319SOL    HW210857   5.959   6.981   4.732
 3320SOL     OW10858   5.679   0.877   5.392
 3320SOL    HW110859   5.627   0.948   5.441
 3320SOL    HW210860   5.748   0.840   5.454
 3321SOL     OW10861   3.549   2.192   1.666
 3321SOL    HW110862   3.581   2.230   1.753
 3321SOL    HW210863   3.604   2.230   1.591
 3322SOL     OW10864   5.340   3.218   1.602
 3322SOL    HW110865   5.305   3.304   1.565
 3322SOL    HW210866   5.355   3.153   1.528
 3323SOL     OW10867   2.346   4.213   6.164
 3323SOL    HW110868   2.422   4.184   6.222
 3323SOL    HW210869   2.260   4.206   6.215
 3324SOL     OW10870   1.223   4.026   6.299
 3324SOL    HW110871   1.163   4.045   6.222
 3324SOL    HW210872   1.239   3.928   6.307
 3325SOL     OW10873   2.319   2.781   6.519
 3325SOL    HW110874   2.369   2.812   6.438
 3325SOL    HW210875   2.327   2.849   6.591
 3326SOL     OW10876   5.932   1.485   2.202
 3326SOL    HW110877   5.902   1.389   2.202
 3326SOL    HW210878   5.943   1.517   2.296
 3327SOL     OW10879   3.469   6.572   1.745
 3327SOL    HW110880   3.558   6.528   1.727
 3327SOL    HW210881   3.401   6.535   1.682
 3328SOL     OW10882   4.117   1.763   2.342
 3328SOL    HW110883   4.126   1.862   2.353
 3328SOL    HW210884   4.196   1.717   2.381
 3329SOL     OW10885   5.291   0.601   4.285
 3329SOL    HW110886   5.371   0.552   4.320
 3329SOL    HW210887   5.281   0.688   4.334
 3330SOL     OW10888   6.254   6.384   1.406
 3330SOL    HW110889   6.354   6.395   1.404
 3330SOL    HW210890   6.213   6.456   1.350
 3331SOL     OW10891   0.814   3.724   2.206
 3331SOL    HW110892   0.723   3.706   2.167
 3331SOL    HW210893   0.818   3.689   2.299
 3332SOL     OW10894   6.378   4.188   0.633
 3332SOL    HW110895   6.453   4.195   0.700
 3332SOL    HW210896   6.370   4.274   0.583
 3333SOL     OW10897   2.935   3.816   0.039
 3333SOL    HW110898   2.867   3.881   0.070
 3333SOL    HW210899   2.899   3.723   0.049
 3334SOL     OW10900   2.158   3.605   2.467
 3334SOL    HW110901   2.163   3.603   2.368
 3334SOL    HW210902   2.157   3.512   2.503
 3335SOL     OW10903   4.462   0.062   6.173
 3335SOL    HW110904   4.433   0.096   6.263
 3335SOL    HW210905   4.417   6.995   6.155
 3336SOL     OW10906   2.032   6.432   4.381
 3336SOL    HW110907   1.965   6.495   4.420
 3336SOL    HW210908   2.028   6.344   4.430
 3337SOL     OW10909   2.833   4.120   1.261
 3337SOL    HW110910   2.930   4.127   1.237
 3337SOL    HW210911   2.817   4.166   1.348
 3338SOL     OW10912   0.087   2.613   1.337
 3338SOL    HW110913   0.078   2.692   1.397
 3338SOL    HW210914   0.157   2.632   1.267
 3339SOL     OW10915   1.403   7.006   6.606
 3339SOL    HW110916   1.310   0.006   6.637
 3339SOL    HW210917   1.407   6.911   6.575
 3340SOL     OW10918   3.378   1.035   3.884
 3340SOL    HW110919   3.446   0.985   3.830
 3340SOL    HW210920   3.343   1.112   3.830
 3341SOL     OW10921   1.876   4.427   3.929
 3341SOL    HW110922   1.883   4.333   3.896
 3341SOL    HW210923   1.960   4.477   3.906
 3342SOL     OW10924   1.323   0.008   3.551
 3342SOL    HW110925   1.249   0.015   3.617
 3342SOL    HW210926   1.291   6.981   3.468
 3343SOL     OW10927   5.575   4.394   6.777
 3343SOL    HW110928   5.505   4.378   6.846
 3343SOL    HW210929   5.544   4.358   6.688
 3344SOL     OW10930   5.901   3.873   4.133
 3344SOL    HW110931   5.815   3.906   4.172
 3344SOL    HW210932   5.976   3.931   4.165
 3345SOL     OW10933   1.270   4.510   6.355
 3345SOL    HW110934   1.316   4.451   6.421
 3345SOL    HW210935   1.219   4.453   6.290
 3346SOL     OW10936   0.973   1.063   0.126
 3346SOL    HW110937   0.877   1.044   0.108
 3346SOL    HW210938   1.029   0.992   0.084
 3347SOL     OW10939   1.145   3.164   5.984
 3347SOL    HW110940   1.141   3.077   5.935
 3347SOL    HW210941   1.229   3.168   6.038
 3348SOL     OW10942   4.130   3.350   4.656
 3348SOL    HW110943   4.065   3.296   4.709
 3348SOL    HW210944   4.214   3.298   4.644
 3349SOL     OW10945   2.090   5.120   3.059
 3349SOL    HW110946   2.084   5.220   3.067
 3349SOL    HW210947   2.046   5.090   2.974
 3350SOL     OW10948   0.267   3.051   5.537
 3350SOL    HW110949   0.338   2.987   5.564
 3350SOL    HW210950   0.264   3.058   5.437
 3351SOL     OW10951   4.693   1.166   2.004
 3351SOL    HW110952   4.686   1.084   2.061
 3351SOL    HW210953   4.789   1.194   1.998
 3352SOL     OW10954   6.402   2.528   0.926
 3352SOL    HW110955   6.331   2.555   0.862
 3352SOL    HW210956   6.373   2.550   1.019
 3353SOL     OW10957   3.287   5.918   1.622
 3353SOL    HW110958   3.205   5.975   1.620
 3353SOL    HW210959   3.273   5.837   1.566
 3354SOL     OW10960   4.367   2.367   5.488
 3354SOL    HW110961   4.461   2.337   5.507
 3354SOL    HW210962   4.314   2.367   5.573
 3355SOL     OW10963   1.679   1.748   5.714
 3355SOL    HW110964   1.754   1.720   5.775
 3355SOL    HW210965   1.657   1.844   5.731
 3356SOL     OW10966   0.769   5.720   5.916
 3356SOL    HW110967   0.818   5.762   5.840
 3356SOL    HW210968   0.727   5.635   5.885
 3357SOL     OW10969   2.997   3.473   1.984
 3357SOL    HW110970   3.092   3.484   1.955
 3357SOL    HW210971   2.971   3.376   1.978
 3358SOL     OW10972   4.765   1.671   2.687
 3358SOL    HW110973   4.770   1.664   2.587
 3358SOL    HW210974   4.675   1.639   2.718
 3359SOL     OW10975   0.086   6.244   2.962
 3359SOL    HW110976   0.177   6.221   2.927
 3359SOL    HW210977   0.051   6.324   2.914
 3360SOL     OW10978   0.949   1.505   6.603
 3360SOL    HW110979   0.973   1.424   6.549
 3360SOL    HW210980   0.985   1.586   6.557
 3361SOL     OW10981   6.910   5.625   4.708
 3361SOL    HW110982   6.946   5.608   4.800
 3361SOL    HW210983   6.968   5.577   4.641
 3362SOL     OW10984   3.564   1.775   2.519
 3362SOL    HW110985   3.657   1.782   2.483
 3362SOL    HW210986   3.513   1.707   2.468
 3363SOL     OW10987   6.911   2.064   1.577
 3363SOL    HW110988   6.919   2.082   1.675
 3363SOL    HW210989   6.887   2.148   1.529
 3364SOL     OW10990   2.205   4.779   3.716
 3364SOL    HW110991   2.126   4.840   3.709
 3364SOL    HW210992   2.288   4.835   3.728
 3365SOL     OW10993   6.631   3.163   4.903
 3365SOL    HW110994   6.574   3.240   4.874
 3365SOL    HW210995   6.711   3.197   4.952
 3366SOL     OW10996   5.464   4.765   4.158
 3366SOL    HW110997   5.421   4.696   4.218
 3366SOL    HW210998   5.450   4.856   4.197
 3367SOL     OW10999   3.907   3.890   2.702
 3367SOL    HW111000   3.962   3.949   2.762
 3367SOL    HW211001   3.930   3.794   2.719
 3368SOL     OW11002   0.455   5.712   6.635
 3368SOL    HW111003   0.500   5.649   6.572
 3368SOL    HW211004   0.518   5.786   6.660
 3369SOL     OW11005   3.966   2.131   0.907
 3369SOL    HW111006   3.931   2.086   0.989
 3369SOL    HW211007   4.019   2.066   0.853
 3370SOL     OW11008   6.804   6.657   1.509
 3370SOL    HW111009   6.892   6.610   1.518
 3370SOL    HW211010   6.760   6.631   1.424
 3371SOL     OW11011   2.238   3.075   1.619
 3371SOL    HW111012   2.326   3.107   1.653
 3371SOL    HW211013   2.211   3.129   1.539
 3372SOL     OW11014   6.958   2.129   0.088
 3372SOL    HW111015   6.876   2.165   0.133
 3372SOL    HW211016   6.978   2.038   0.124
 3373SOL     OW11017   0.111   2.351   4.154
 3373SOL    HW111018   0.146   2.262   4.186
 3373SOL    HW211019   0.155   2.374   4.067
 3374SOL     OW11020   0.912   6.568   3.923
 3374SOL    HW111021   0.892   6.484   3.873
 3374SOL    HW211022   0.997   6.557   3.975
 3375SOL     OW11023   0.030   4.778   0.642
 3375SOL    HW111024   6.960   4.793   0.602
 3375SOL    HW211025   0.054   4.856   0.699
 3376SOL     OW11026   3.327   2.880   4.714
 3376SOL    HW111027   3.328   2.869   4.813
 3376SOL    HW211028   3.312   2.791   4.671
 3377SOL     OW11029   0.221   5.225   5.890
 3377SOL    HW111030   0.185   5.131   5.892
 3377SOL    HW211031   0.309   5.228   5.936
 3378SOL     OW11032   1.537   6.471   0.132
 3378SOL    HW111033   1.580   6.509   0.214
 3378SOL    HW211034   1.580   6.510   0.051
 3379SOL     OW11035   0.731   2.024   4.879
 3379SOL    HW111036   0.760   2.087   4.807
 3379SOL    HW211037   0.631   2.021   4.882
 3380SOL     OW11038   4.614   6.641   5.459
 3380SOL    HW111039   4.579   6.605   5.373
 3380SOL    HW211040   4.629   6.565   5.523
 3381SOL     OW11041   6.799   2.832   1.117
 3381SOL    HW111042   6.882   2.880   1.143
 3381SOL    HW211043   6.720   2.878   1.158
 3382SOL     OW11044   0.582   2.580   6.309
 3382SOL    HW111045   0.652   2.631   6.358
 3382SOL    HW211046   0.509   2.642   6.281
 3383SOL     OW11047   3.465   5.266   0.862
 3383SOL    HW111048   3.490   5.357   0.894
 3383SOL    HW211049   3.408   5.274   0.780
 3384SOL     OW11050   1.552   3.408   0.734
 3384SOL    HW111051   1.587   3.333   0.789
 3384SOL    HW211052   1.610   3.489   0.746
 3385SOL     OW11053   6.908   3.773   4.442
 3385SOL    HW111054   6.972   3.776   4.366
 3385SOL    HW211055   6.831   3.833   4.424
 3386SOL     OW11056   5.406   3.958   6.804
 3386SOL    HW111057   5.407   4.001   6.714
 3386SOL    HW211058   5.329   3.894   6.810
 3387SOL     OW11059   4.565   0.108   3.645
 3387SOL    HW111060   4.498   0.086   3.715
 3387SOL    HW211061   4.531   0.079   3.556
 3388SOL     OW11062   5.956   3.235   2.320
 3388SOL    HW111063   5.945   3.245   2.419
 3388SOL    HW211064   5.942   3.324   2.276
 3389SOL     OW11065   6.576   5.858   5.771
 3389SOL    HW111066   6.583   5.782   5.836
 3389SOL    HW211067   6.553   5.942   5.821
 3390SOL     OW11068   5.371   0.180   6.061
 3390SOL    HW111069   5.373   0.267   6.110
 3390SOL    HW211070   5.365   0.197   5.963
 3391SOL     OW11071   4.359   2.423   3.551
 3391SOL    HW111072   4.346   2.423   3.452
 3391SOL    HW211073   4.275   2.390   3.596
 3392SOL     OW11074   3.373   6.317   4.117
 3392SOL    HW111075   3.330   6.226   4.113
 3392SOL    HW211076   3.325   6.373   4.184
 3393SOL     OW11077   6.323   6.359   0.583
 3393SOL    HW111078   6.379   6.276   0.583
 3393SOL    HW211079   6.376   6.434   0.623
 3394SOL     OW11080   5.058   3.810   1.111
 3394SOL    HW111081   5.006   3.892   1.136
 3394SOL    HW211082   5.100   3.824   1.021
 3395SOL     OW11083   5.075   2.487   3.093
 3395SOL    HW111084   5.091   2.400   3.047
 3395SOL    HW211085   4.981   2.490   3.128
 3396SOL     OW11086   5.749   0.947   3.598
 3396SOL    HW111087   5.730   0.854   3.565
 3396SOL    HW211088   5.795   0.999   3.526
 3397SOL     OW11089   3.523   4.669   6.565
 3397SOL    HW111090   3.554   4.704   6.654
 3397SOL    HW211091   3.466   4.588   6.580
 3398SOL     OW11092   1.335   0.695   4.725
 3398SOL    HW111093   1.382   0.641   4.795
 3398SOL    HW211094   1.349   0.792   4.743
 3399SOL     OW11095   5.368   5.232   3.489
 3399SOL    HW111096   5.370   5.330   3.509
 3399SOL    HW211097   5.301   5.187   3.548
 3400SOL     OW11098   5.530   3.462   6.925
 3400SOL    HW111099   5.563   3.546   6.969
 3400SOL    HW211100   5.565   3.382   6.974
 3401SOL     OW11101   6.420   4.098   6.601
 3401SOL    HW111102   6.347   4.031   6.617
 3401SOL    HW211103   6.434   4.109   6.502
 3402SOL     OW11104   5.488   5.956   6.370
 3402SOL    HW111105   5.418   5.957   6.441
 3402SOL    HW211106   5.530   6.047   6.363
 3403SOL     OW11107   5.037   5.179   6.626
 3403SOL    HW111108   5.023   5.157   6.529
 3403SOL    HW211109   5.120   5.233   6.636
 3404SOL     OW11110   5.167   2.377   0.806
 3404SOL    HW111111   5.192   2.294   0.857
 3404SOL    HW211112   5.208   2.372   0.715
 3405SOL     OW11113   5.813   4.108   6.576
 3405SOL    HW111114   5.893   4.117   6.516
 3405SOL    HW211115   5.803   4.012   6.604
 3406SOL     OW11116   1.085   3.182   2.495
 3406SOL    HW111117   0.986   3.168   2.491
 3406SOL    HW211118   1.116   3.225   2.410
 3407SOL     OW11119   1.850   4.409   0.041
 3407SOL    HW111120   1.817   4.486   0.095
 3407SOL    HW211121   1.949   4.418   0.025
 3408SOL     OW11122   5.116   2.495   4.536
 3408SOL    HW111123   5.019   2.513   4.551
 3408SOL    HW211124   5.151   2.555   4.464
 3409SOL     OW11125   4.081   6.291   0.311
 3409SOL    HW111126   4.023   6.248   0.379
 3409SOL    HW211127   4.026   6.352   0.254
 3410SOL     OW11128   6.851   6.610   1.883
 3410SOL    HW111129   6.931   6.658   1.848
 3410SOL    HW211130   6.772   6.627   1.823
 3411SOL     OW11131   0.385   2.875   0.538
 3411SOL    HW111132   0.461   2.865   0.474
 3411SOL    HW211133   0.402   2.821   0.620
 3412SOL     OW11134   4.971   3.580   1.733
 3412SOL    HW111135   4.974   3.513   1.807
 3412SOL    HW211136   4.877   3.587   1.698
 3413SOL     OW11137   6.166   1.372   1.026
 3413SOL    HW111138   6.201   1.280   1.041
 3413SOL    HW211139   6.128   1.408   1.111
 3414SOL     OW11140   3.449   1.929   5.824
 3414SOL    HW111141   3.362   1.892   5.791
 3414SOL    HW211142   3.508   1.855   5.854
 3415SOL     OW11143   1.977   2.487   4.118
 3415SOL    HW111144   1.904   2.491   4.186
 3415SOL    HW211145   1.943   2.443   4.035
 3416SOL     OW11146   5.200   0.203   0.358
 3416SOL    HW111147   5.289   0.236   0.389
 3416SOL    HW211148   5.130   0.272   0.379
 3417SOL     OW11149   0.185   6.190   4.351
 3417SOL    HW111150   0.167   6.097   4.320
 3417SOL    HW211151   0.284   6.204   4.356
 3418SOL     OW11152   4.095   5.690   3.459
 3418SOL    HW111153   4.129   5.601   3.429
 3418SOL    HW211154   4.028   5.724   3.394
 3419SOL     OW11155   3.390   5.264   6.080
 3419SOL    HW111156   3.380   5.340   6.015
 3419SOL    HW211157   3.472   5.212   6.058
 3420SOL     OW11158   5.868   3.545   3.291
 3420SOL    HW111159   5.892   3.640   3.308
 3420SOL    HW211160   5.952   3.492   3.273
 3421SOL     OW11161   4.986   1.745   3.586
 3421SOL    HW111162   4.907   1.789   3.543
 3421SOL    HW211163   5.055   1.814   3.607
 3422SOL     OW11164   2.475   0.346   6.964
 3422SOL    HW111165   2.557   0.374   6.915
 3422SOL    HW211166   2.397   0.399   6.931
 3423SOL     OW11167   0.002   4.793   6.563
 3423SOL    HW111168   6.948   4.859   6.556
 3423SOL    HW211169   7.003   4.715   6.503
 3424SOL     OW11170   2.722   6.571   1.051
 3424SOL    HW111171   2.725   6.540   1.146
 3424SOL    HW211172   2.786   6.647   1.039
 3425SOL     OW11173   4.995   4.732   2.717
 3425SOL    HW111174   4.928   4.804   2.698
 3425SOL    HW211175   4.954   4.662   2.775
 3426SOL     OW11176   5.047   2.670   1.400
 3426SOL    HW111177   4.963   2.680   1.347
 3426SOL    HW211178   5.024   2.650   1.496
 3427SOL     OW11179   0.770   1.921   1.031
 3427SOL    HW111180   0.722   1.855   0.972
 3427SOL    HW211181   0.706   1.959   1.097
 3428SOL     OW11182   3.683   4.520   0.358
 3428SOL    HW111183   3.668   4.422   0.373
 3428SOL    HW211184   3.774   4.533   0.320
 3429SOL     OW11185   0.694   2.335   1.091
 3429SOL    HW111186   0.726   2.333   0.996
 3429SOL    HW211187   0.637   2.255   1.108
 3430SOL     OW11188   2.393   5.414   5.497
 3430SOL    HW111189   2.410   5.335   5.555
 3430SOL    HW211190   2.471   5.476   5.500
 3431SOL     OW11191   1.684   6.012   1.999
 3431SOL    HW111192   1.660   6.091   1.943
 3431SOL    HW211193   1.700   6.042   2.093
 3432SOL     OW11194   2.597   4.514   6.026
 3432SOL    HW111195   2.665   4.447   6.056
 3432SOL    HW211196   2.623   4.550   5.937
 3433SOL     OW11197   1.092   0.750   5.079
 3433SOL    HW111198   1.183   0.783   5.055
 3433SOL    HW211199   1.071   0.774   5.174
 3434SOL     OW11200   3.726   1.826   2.008
 3434SOL    HW111201   3.803   1.879   1.973
 3434SOL    HW211202   3.641   1.859   1.966
 3435SOL     OW11203   2.315   1.394   0.978
 3435SOL    HW111204   2.330   1.457   0.902
 3435SOL    HW211205   2.401   1.378   1.026
 3436SOL     OW11206   3.451   5.833   0.073
 3436SOL    HW111207   3.530   5.796   0.122
 3436SOL    HW211208   3.477   5.917   0.025
 3437SOL     OW11209   2.668   6.131   5.719
 3437SOL    HW111210   2.575   6.100   5.735
 3437SOL    HW211211   2.730   6.053   5.710
 3438SOL     OW11212   0.539   3.517   1.536
 3438SOL    HW111213   0.549   3.604   1.584
 3438SOL    HW211214   0.453   3.473   1.563
 3439SOL     OW11215   3.316   6.040   4.156
 3439SOL    HW111216   3.351   5.958   4.202
 3439SOL    HW211217   3.226   6.021   4.118
 3440SOL     OW11218   3.476   2.986   2.295
 3440SOL    HW111219   3.410   3.002   2.222
 3440SOL    HW211220   3.438   3.019   2.382
 3441SOL     OW11221   6.722   5.996   6.283
 3441SOL    HW111222   6.763   6.082   6.310
 3441SOL    HW211223   6.744   5.977   6.187
 3442SOL     OW11224   2.380   3.597   1.198
 3442SOL    HW111225   2.359   3.612   1.294
 3442SOL    HW211226   2.447   3.665   1.167
 3443SOL     OW11227   3.642   6.223   2.230
 3443SOL    HW111228   3.734   6.218   2.190
 3443SOL    HW211229   3.638   6.300   2.294
 3444SOL     OW11230   4.710   5.385   0.199
 3444SOL    HW111231   4.725   5.345   0.109
 3444SOL    HW211232   4.656   5.469   0.190
 3445SOL     OW11233   5.972   5.266   2.855
 3445SOL    HW111234   5.907   5.204   2.900
 3445SOL    HW211235   6.065   5.239   2.879
 3446SOL     OW11236   5.763   0.282   1.376
 3446SOL    HW111237   5.737   0.370   1.415
 3446SOL    HW211238   5.862   0.280   1.362
 3447SOL     OW11239   5.001   6.597   0.534
 3447SOL    HW111240   5.083   6.591   0.478
 3447SOL    HW211241   4.977   6.506   0.569
 3448SOL     OW11242   3.534   6.817   5.987
 3448SOL    HW111243   3.599   6.790   5.917
 3448SOL    HW211244   3.504   6.911   5.970
 3449SOL     OW11245   5.692   5.050   4.514
 3449SOL    HW111246   5.649   5.134   4.481
 3449SOL    HW211247   5.729   5.065   4.606
 3450SOL     OW11248   0.810   2.015   6.359
 3450SOL    HW111249   0.820   1.955   6.279
 3450SOL    HW211250   0.848   1.970   6.440
 3451SOL     OW11251   2.613   6.334   0.044
 3451SOL    HW111252   2.613   6.242   0.005
 3451SOL    HW211253   2.573   6.332   0.136
 3452SOL     OW11254   5.558   0.640   6.668
 3452SOL    HW111255   5.471   0.611   6.706
 3452SOL    HW211256   5.561   0.740   6.662
 3453SOL     OW11257   5.563   5.718   6.461
 3453SOL    HW111258   5.662   5.722   6.473
 3453SOL    HW211259   5.530   5.805   6.426
 3454SOL     OW11260   0.925   3.910   5.314
 3454SOL    HW111261   0.984   3.915   5.394
 3454SOL    HW211262   0.869   3.827   5.318
 3455SOL     OW11263   2.526   1.603   3.926
 3455SOL    HW111264   2.430   1.629   3.922
 3455SOL    HW211265   2.577   1.669   3.981
 3456SOL     OW11266   5.813   5.049   2.220
 3456SOL    HW111267   5.747   5.051   2.295
 3456SOL    HW211268   5.859   4.960   2.218
 3457SOL     OW11269   4.534   5.940   3.828
 3457SOL    HW111270   4.567   5.910   3.918
 3457SOL    HW211271   4.508   6.036   3.832
 3458SOL     OW11272   4.377   1.586   2.250
 3458SOL    HW111273   4.348   1.559   2.158
 3458SOL    HW211274   4.455   1.649   2.244
 3459SOL     OW11275   4.993   2.504   3.393
 3459SOL    HW111276   4.994   2.428   3.458
 3459SOL    HW211277   4.932   2.481   3.317
 3460SOL     OW11278   3.324   1.907   6.739
 3460SOL    HW111279   3.360   1.854   6.662
 3460SOL    HW211280   3.280   1.990   6.705
 3461SOL     OW11281   4.507   3.559   6.997
 3461SOL    HW111282   4.556   3.605   0.051
 3461SOL    HW211283   4.429   3.509   0.015
 3462SOL     OW11284   0.980   4.019   5.062
 3462SOL    HW111285   0.962   3.978   5.152
 3462SOL    HW211286   1.032   3.955   5.006
 3463SOL     OW11287   0.788   4.344   1.284
 3463SOL    HW111288   0.694   4.332   1.252
 3463SOL    HW211289   0.844   4.382   1.210
 3464SOL     OW11290   6.806   4.618   6.938
 3464SOL    HW111291   6.905   4.606   6.953
 3464SOL    HW211292   6.789   4.710   6.904
 3465SOL     OW11293   1.858   2.663   1.822
 3465SOL    HW111294   1.771   2.705   1.846
 3465SOL    HW211295   1.874   2.673   1.724
 3466SOL     OW11296   0.001   4.968   6.064
 3466SOL    HW111297   0.084   4.957   6.009
 3466SOL    HW211298   6.970   5.048   6.033
 3467SOL     OW11299   1.582   2.926   6.126
 3467SOL    HW111300   1.637   3.007   6.104
 3467SOL    HW211301   1.636   2.844   6.107
 3468SOL     OW11302   4.243   6.475   2.676
 3468SOL    HW111303   4.338   6.492   2.646
 3468SOL    HW211304   4.210   6.390   2.634
 3469SOL     OW11305   6.170   1.325   2.619
 3469SOL    HW111306   6.120   1.403   2.656
 3469SOL    HW211307   6.132   1.299   2.531
 3470SOL     OW11308   0.171   4.450   0.763
 3470SOL    HW111309   0.192   4.455   0.861
 3470SOL    HW211310   0.168   4.354   0.734
 3471SOL     OW11311   4.392   5.380   4.790
 3471SOL    HW111312   4.421   5.326   4.868
 3471SOL    HW211313   4.314   5.438   4.816
 3472SOL     OW11314   2.268   0.560   2.763
 3472SOL    HW111315   2.215   0.634   2.721
 3472SOL    HW211316   2.356   0.552   2.716
 3473SOL     OW11317   6.654   1.663   6.668
 3473SOL    HW111318   6.638   1.568   6.643
 3473SOL    HW211319   6.685   1.668   6.763
 3474SOL     OW11320   3.155   5.103   2.200
 3474SOL    HW111321   3.241   5.054   2.184
 3474SOL    HW211322   3.087   5.040   2.237
 3475SOL     OW11323   1.316   6.208   4.602
 3475SOL    HW111324   1.287   6.179   4.511
 3475SOL    HW211325   1.403   6.163   4.624
 3476SOL     OW11326   3.626   1.459   3.114
 3476SOL    HW111327   3.707   1.517   3.125
 3476SOL    HW211328   3.544   1.515   3.118
 3477SOL     OW11329   3.302   5.690   1.438
 3477SOL    HW111330   3.283   5.617   1.504
 3477SOL    HW211331   3.401   5.695   1.422
 3478SOL     OW11332   2.599   5.587   5.465
 3478SOL    HW111333   2.606   5.646   5.545
 3478SOL    HW211334   2.688   5.543   5.449
 3479SOL     OW11335   0.468   0.445   3.485
 3479SOL    HW111336   0.555   0.401   3.462
 3479SOL    HW211337   0.464   0.463   3.583
 3480SOL     OW11338   6.921   0.384   4.806
 3480SOL    HW111339   6.970   0.467   4.832
 3480SOL    HW211340   6.986   0.318   4.768
 3481SOL     OW11341   4.487   0.251   0.214
 3481SOL    HW111342   4.576   0.276   0.252
 3481SOL    HW211343   4.428   0.332   0.212
 3482SOL     OW11344   5.677   1.646   0.756
 3482SOL    HW111345   5.738   1.720   0.783
 3482SOL    HW211346   5.582   1.676   0.765
 3483SOL     OW11347   3.576   1.066   1.708
 3483SOL    HW111348   3.586   1.163   1.687
 3483SOL    HW211349   3.545   1.056   1.803
 3484SOL     OW11350   2.805   3.676   1.818
 3484SOL    HW111351   2.859   3.703   1.898
 3484SOL    HW211352   2.859   3.690   1.735
 3485SOL     OW11353   1.408   0.192   4.617
 3485SOL    HW111354   1.491   0.171   4.668
 3485SOL    HW211355   1.415   0.284   4.577
 3486SOL     OW11356   3.159   1.457   2.607
 3486SOL    HW111357   3.084   1.396   2.580
 3486SOL    HW211358   3.198   1.499   2.525
 3487SOL     OW11359   6.033   2.096   6.142
 3487SOL    HW111360   6.101   2.094   6.215
 3487SOL    HW211361   5.961   2.161   6.165
 3488SOL     OW11362   5.451   2.761   4.293
 3488SOL    HW111363   5.441   2.858   4.275
 3488SOL    HW211364   5.529   2.724   4.243
 3489SOL     OW11365   2.734   6.612   0.678
 3489SOL    HW111366   2.729   6.537   0.613
 3489SOL    HW211367   2.678   6.589   0.759
 3490SOL     OW11368   4.742   4.439   6.491
 3490SOL    HW111369   4.736   4.375   6.568
 3490SOL    HW211370   4.744   4.533   6.526
 3491SOL     OW11371   5.763   2.886   4.468
 3491SOL    HW111372   5.829   2.957   4.442
 3491SOL    HW211373   5.670   2.924   4.464
 3492SOL     OW11374   0.805   5.956   1.126
 3492SOL    HW111375   0.823   6.025   1.197
 3492SOL    HW211376   0.709   5.930   1.129
 3493SOL     OW11377   6.358   5.356   6.734
 3493SOL    HW111378   6.345   5.444   6.778
 3493SOL    HW211379   6.305   5.286   6.781
 3494SOL     OW11380   3.982   0.360   1.448
 3494SOL    HW111381   3.937   0.378   1.360
 3494SOL    HW211382   3.916   0.375   1.522
 3495SOL     OW11383   4.274   4.672   2.333
 3495SOL    HW111384   4.299   4.576   2.324
 3495SOL    HW211385   4.356   4.726   2.353
 3496SOL     OW11386   0.423   3.209   1.537
 3496SOL    HW111387   0.386   3.119   1.559
 3496SOL    HW211388   0.363   3.279   1.574
 3497SOL     OW11389   4.220   6.987   3.003
 3497SOL    HW111390   4.178   6.942   3.081
 3497SOL    HW211391   4.202   0.065   3.008
 3498SOL     OW11392   2.502   2.500   0.065
 3498SOL    HW111393   2.530   2.414   0.022
 3498SOL    HW211394   2.581   2.560   0.074
 3499SOL     OW11395   5.360   2.406   4.665
 3499SOL    HW111396   5.290   2.410   4.594
 3499SOL    HW211397   5.449   2.433   4.627
 3500SOL     OW11398   0.506   4.368   5.305
 3500SOL    HW111399   0.521   4.294   5.240
 3500SOL    HW211400   0.448   4.336   5.379
 3501SOL     OW11401   0.536   5.330   4.166
 3501SOL    HW111402   0.492   5.306   4.252
 3501SOL    HW211403   0.629   5.293   4.165
 3502SOL     OW11404   0.041   2.586   2.113
 3502SOL    HW111405   0.026   2.643   2.194
 3502SOL    HW211406   0.122   2.619   2.064
 3503SOL     OW11407   5.767   6.592   5.181
 3503SOL    HW111408   5.847   6.591   5.242
 3503SOL    HW211409   5.719   6.679   5.191
 3504SOL     OW11410   2.458   2.767   1.168
 3504SOL    HW111411   2.449   2.754   1.266
 3504SOL    HW211412   2.370   2.749   1.124
 3505SOL     OW11413   5.585   5.014   4.823
 3505SOL    HW111414   5.605   5.045   4.916
 3505SOL    HW211415   5.627   4.924   4.808
 3506SOL     OW11416   4.425   5.750   5.542
 3506SOL    HW111417   4.492   5.762   5.469
 3506SOL    HW211418   4.466   5.696   5.616
 3507SOL     OW11419   2.136   0.455   6.808
 3507SOL    HW111420   2.125   0.364   6.850
 3507SOL    HW211421   2.143   0.524   6.880
 3508SOL     OW11422   3.960   2.536   6.307
 3508SOL    HW111423   3.915   2.448   6.321
 3508SOL    HW211424   4.058   2.522   6.295
 3509SOL     OW11425   4.981   6.479   6.392
 3509SOL    HW111426   5.076   6.510   6.390
 3509SOL    HW211427   4.922   6.553   6.423
 3510SOL     OW11428   1.904   2.681   1.542
 3510SOL    HW111429   1.990   2.723   1.512
 3510SOL    HW211430   1.896   2.590   1.501
 3511SOL     OW11431   1.765   4.766   6.999
 3511SOL    HW111432   1.860   4.793   6.983
 3511SOL    HW211433   1.749   4.758   0.077
 3512SOL     OW11434   0.196   4.176   0.697
 3512SOL    HW111435   0.265   4.189   0.769
 3512SOL    HW211436   0.218   4.095   0.643
 3513SOL     OW11437   5.612   4.321   0.722
 3513SOL    HW111438   5.528   4.290   0.767
 3513SOL    HW211439   5.609   4.420   0.712
 3514SOL     OW11440   0.635   1.166   1.801
 3514SOL    HW111441   0.582   1.246   1.826
 3514SOL    HW211442   0.635   1.156   1.701
 3515SOL     OW11443   4.055   0.012   2.445
 3515SOL    HW111444   4.087   6.941   2.422
 3515SOL    HW211445   4.073   0.031   2.541
 3516SOL     OW11446   4.258   1.140   0.726
 3516SOL    HW111447   4.237   1.054   0.679
 3516SOL    HW211448   4.357   1.148   0.737
 3517SOL     OW11449   0.583   2.131   6.959
 3517SOL    HW111450   0.586   2.194   6.881
 3517SOL    HW211451   0.644   2.054   6.942
 3518SOL     OW11452   5.039   4.216   5.556
 3518SOL    HW111453   5.031   4.117   5.545
 3518SOL    HW211454   5.107   4.237   5.626
 3519SOL     OW11455   1.861   0.216   6.655
 3519SOL    HW111456   1.877   0.315   6.653
 3519SOL    HW211457   1.831   0.188   6.746
 3520SOL     OW11458   3.277   4.685   0.746
 3520SOL    HW111459   3.290   4.776   0.706
 3520SOL    HW211460   3.188   4.649   0.717
 3521SOL     OW11461   5.588   3.045   1.623
 3521SOL    HW111462   5.533   3.120   1.589
 3521SOL    HW211463   5.661   3.024   1.558
 3522SOL     OW11464   3.912   5.639   2.370
 3522SOL    HW111465   3.972   5.590   2.432
 3522SOL    HW211466   3.880   5.577   2.299
 3523SOL     OW11467   3.202   4.259   5.639
 3523SOL    HW111468   3.279   4.243   5.701
 3523SOL    HW211469   3.204   4.355   5.608
 3524SOL     OW11470   2.559   1.021   1.385
 3524SOL    HW111471   2.616   0.964   1.444
 3524SOL    HW211472   2.483   1.058   1.438
 3525SOL     OW11473   0.719   3.467   2.410
 3525SOL    HW111474   0.664   3.545   2.441
 3525SOL    HW211475   0.695   3.386   2.464
 3526SOL     OW11476   1.414   6.622   3.675
 3526SOL    HW111477   1.321   6.631   3.638
 3526SOL    HW211478   1.421   6.672   3.761
 3527SOL     OW11479   6.032   2.979   5.670
 3527SOL    HW111480   6.092   3.021   5.738
 3527SOL    HW211481   5.944   2.956   5.713
 3528SOL     OW11482   1.084   5.466   3.335
 3528SOL    HW111483   1.115   5.372   3.322
 3528SOL    HW211484   1.007   5.466   3.399
 3529SOL     OW11485   3.782   6.596   5.215
 3529SOL    HW111486   3.816   6.680   5.258
 3529SOL    HW211487   3.740   6.538   5.285
 3530SOL     OW11488   2.314   4.992   2.791
 3530SOL    HW111489   2.293   5.079   2.747
 3530SOL    HW211490   2.304   5.001   2.890
 3531SOL     OW11491   4.958   4.752   1.307
 3531SOL    HW111492   5.008   4.665   1.311
 3531SOL    HW211493   5.010   4.823   1.355
 3532SOL     OW11494   3.048   0.328   0.379
 3532SOL    HW111495   2.975   0.346   0.445
 3532SOL    HW211496   3.008   0.307   0.290
 3533SOL     OW11497   1.379   2.465   3.157
 3533SOL    HW111498   1.353   2.412   3.076
 3533SOL    HW211499   1.297   2.486   3.211
 3534SOL     OW11500   5.924   1.313   5.110
 3534SOL    HW111501   5.877   1.380   5.168
 3534SOL    HW211502   5.934   1.227   5.161
 3535SOL     OW11503   6.512   5.639   0.504
 3535SOL    HW111504   6.586   5.608   0.565
 3535SOL    HW211505   6.528   5.734   0.478
 3536SOL     OW11506   2.190   3.114   3.799
 3536SOL    HW111507   2.165   3.207   3.771
 3536SOL    HW211508   2.229   3.066   3.721
 3537SOL     OW11509   2.724   4.771   0.339
 3537SOL    HW111510   2.785   4.725   0.403
 3537SOL    HW211511   2.632   4.774   0.376
 3538SOL     OW11512   2.329   0.756   4.080
 3538SOL    HW111513   2.233   0.775   4.059
 3538SOL    HW211514   2.343   0.657   4.086
 3539SOL     OW11515   5.814   3.676   6.261
 3539SOL    HW111516   5.908   3.709   6.271
 3539SOL    HW211517   5.768   3.679   6.350
 3540SOL     OW11518   2.199   1.491   5.902
 3540SOL    HW111519   2.263   1.425   5.863
 3540SOL    HW211520   2.157   1.544   5.829
 3541SOL     OW11521   2.802   2.814   6.599
 3541SOL    HW111522   2.739   2.758   6.653
 3541SOL    HW211523   2.834   2.761   6.521
 3542SOL     OW11524   6.576   2.980   0.640
 3542SOL    HW111525   6.576   2.880   0.645
 3542SOL    HW211526   6.483   3.015   0.652
 3543SOL     OW11527   1.795   3.400   4.068
 3543SOL    HW111528   1.865   3.329   4.068
 3543SOL    HW211529   1.772   3.425   3.974
 3544SOL     OW11530   1.841   4.946   6.275
 3544SOL    HW111531   1.876   4.909   6.361
 3544SOL    HW211532   1.761   4.894   6.246
 3545SOL     OW11533   3.935   4.592   0.208
 3545SOL    HW111534   3.901   4.653   0.136
 3545SOL    HW211535   4.023   4.627   0.242
 3546SOL     OW11536   6.953   5.176   2.901
 3546SOL    HW111537   6.924   5.272   2.902
 3546SOL    HW211538   0.028   5.170   2.929
 3547SOL     OW11539   6.709   4.071   5.172
 3547SOL    HW111540   6.641   4.139   5.145
 3547SOL    HW211541   6.663   3.988   5.203
 3548SOL     OW11542   5.943   0.639   5.005
 3548SOL    HW111543   5.865   0.688   5.043
 3548SOL    HW211544   5.930   0.540   5.018
 3549SOL     OW11545   2.127   4.467   5.681
 3549SOL    HW111546   2.227   4.465   5.682
 3549SOL    HW211547   2.092   4.387   5.632
 3550SOL     OW11548   5.589   2.346   4.180
 3550SOL    HW111549   5.638   2.343   4.093
 3550SOL    HW211550   5.638   2.290   4.247
 3551SOL     OW11551   3.540   1.574   4.897
 3551SOL    HW111552   3.468   1.603   4.960
 3551SOL    HW211553   3.510   1.491   4.850
 3552SOL     OW11554   5.873   5.794   2.230
 3552SOL    HW111555   5.809   5.868   2.254
 3552SOL    HW211556   5.932   5.824   2.155
 3553SOL     OW11557   3.652   5.276   6.433
 3553SOL    HW111558   3.560   5.246   6.409
 3553SOL    HW211559   3.651   5.316   6.525
 3554SOL     OW11560   4.979   2.596   0.808
 3554SOL    HW111561   4.925   2.647   0.741
 3554SOL    HW211562   5.019   2.515   0.764
 3555SOL     OW11563   1.389   2.376   3.918
 3555SOL    HW111564   1.405   2.323   3.835
 3555SOL    HW211565   1.351   2.465   3.895
 3556SOL     OW11566   3.782   1.223   3.865
 3556SOL    HW111567   3.777   1.135   3.818
 3556SOL    HW211568   3.696   1.272   3.853
 3557SOL     OW11569   1.141   6.390   3.686
 3557SOL    HW111570   1.152   6.423   3.592
 3557SOL    HW211571   1.054   6.342   3.695
 3558SOL     OW11572   2.753   4.589   1.351
 3558SOL    HW111573   2.730   4.543   1.265
 3558SOL    HW211574   2.765   4.521   1.423
 3559SOL     OW11575   1.568   5.819   4.472
 3559SOL    HW111576   1.502   5.841   4.400
 3559SOL    HW211577   1.566   5.891   4.541
 3560SOL     OW11578   1.760   4.816   3.324
 3560SOL    HW111579   1.757   4.889   3.256
 3560SOL    HW211580   1.778   4.729   3.279
 3561SOL     OW11581   4.984   3.748   5.736
 3561SOL    HW111582   4.918   3.689   5.784
 3561SOL    HW211583   5.045   3.790   5.803
 3562SOL     OW11584   3.408   1.845   4.040
 3562SOL    HW111585   3.386   1.875   3.948
 3562SOL    HW211586   3.399   1.746   4.046
 3563SOL     OW11587   5.963   1.828   6.134
 3563SOL    HW111588   6.000   1.921   6.134
 3563SOL    HW211589   5.879   1.826   6.188
 3564SOL     OW11590   0.360   4.983   3.396
 3564SOL    HW111591   0.317   4.902   3.436
 3564SOL    HW211592   0.444   4.957   3.349
 3565SOL     OW11593   3.801   5.520   3.332
 3565SOL    HW111594   3.863   5.446   3.306
 3565SOL    HW211595   3.707   5.493   3.312
 3566SOL     OW11596   6.442   0.969   5.820
 3566SOL    HW111597   6.373   0.927   5.878
 3566SOL    HW211598   6.397   1.026   5.751
 3567SOL     OW11599   0.516   2.496   5.990
 3567SOL    HW111600   0.597   2.554   5.992
 3567SOL    HW211601   0.530   2.417   6.051
 3568SOL     OW11602   5.968   3.978   5.028
 3568SOL    HW111603   5.989   3.937   5.117
 3568SOL    HW211604   5.871   3.965   5.007
 3569SOL     OW11605   3.152   1.936   5.759
 3569SOL    HW111606   3.143   1.849   5.711
 3569SOL    HW211607   3.061   1.975   5.774
 3570SOL     OW11608   4.668   0.595   6.307
 3570SOL    HW111609   4.629   0.525   6.367
 3570SOL    HW211610   4.745   0.640   6.353
 3571SOL     OW11611   0.506   5.001   0.171
 3571SOL    HW111612   0.454   4.920   0.144
 3571SOL    HW211613   0.492   5.073   0.103
 3572SOL     OW11614   5.515   4.030   3.402
 3572SOL    HW111615   5.454   3.967   3.354
 3572SOL    HW211616   5.461   4.095   3.456
 3573SOL     OW11617   0.552   4.866   3.989
 3573SOL    HW111618   0.574   4.773   3.962
 3573SOL    HW211619   0.564   4.927   3.910
 3574SOL     OW11620   0.230   4.745   0.419
 3574SOL    HW111621   0.303   4.810   0.396
 3574SOL    HW211622   0.143   4.778   0.383
 3575SOL     OW11623   5.644   4.594   3.007
 3575SOL    HW111624   5.577   4.646   3.058
 3575SOL    HW211625   5.598   4.531   2.945
 3576SOL     OW11626   2.346   1.745   5.375
 3576SOL    HW111627   2.377   1.697   5.457
 3576SOL    HW211628   2.420   1.748   5.308
 3577SOL     OW11629   1.120   3.506   6.199
 3577SOL    HW111630   1.062   3.428   6.176
 3577SOL    HW211631   1.209   3.473   6.229
 3578SOL     OW11632   3.354   2.600   0.663
 3578SOL    HW111633   3.325   2.661   0.737
 3578SOL    HW211634   3.307   2.512   0.672
 3579SOL     OW11635   6.270   4.100   4.659
 3579SOL    HW111636   6.212   4.092   4.739
 3579SOL    HW211637   6.298   4.008   4.628
 3580SOL     OW11638   5.682   2.480   1.184
 3580SOL    HW111639   5.679   2.396   1.131
 3580SOL    HW211640   5.625   2.550   1.141
 3581SOL     OW11641   6.915   6.512   4.246
 3581SOL    HW111642   6.950   6.445   4.311
 3581SOL    HW211643   6.837   6.561   4.286
 3582SOL     OW11644   1.023   1.956   6.061
 3582SOL    HW111645   0.995   2.026   5.996
 3582SOL    HW211646   1.123   1.957   6.071
 3583SOL     OW11647   1.588   3.902   6.521
 3583SOL    HW111648   1.623   3.848   6.445
 3583SOL    HW211649   1.540   3.841   6.585
 3584SOL     OW11650   5.879   5.517   0.338
 3584SOL    HW111651   5.882   5.555   0.430
 3584SOL    HW211652   5.865   5.418   0.344
 3585SOL     OW11653   4.295   5.832   5.240
 3585SOL    HW111654   4.343   5.799   5.321
 3585SOL    HW211655   4.328   5.922   5.215
 3586SOL     OW11656   0.133   2.154   5.253
 3586SOL    HW111657   0.087   2.155   5.342
 3586SOL    HW211658   0.065   2.160   5.181
 3587SOL     OW11659   3.226   4.859   6.265
 3587SOL    HW111660   3.203   4.900   6.176
 3587SOL    HW211661   3.198   4.763   6.266
 3588SOL     OW11662   1.300   2.721   4.688
 3588SOL    HW111663   1.245   2.804   4.699
 3588SOL    HW211664   1.332   2.715   4.594
 3589SOL     OW11665   4.036   1.883   4.158
 3589SOL    HW111666   4.004   1.912   4.248
 3589SOL    HW211667   4.032   1.960   4.095
 3590SOL     OW11668   0.576   3.477   6.139
 3590SOL    HW111669   0.519   3.559   6.137
 3590SOL    HW211670   0.520   3.397   6.157
 3591SOL     OW11671   5.276   3.367   6.405
 3591SOL    HW111672   5.359   3.328   6.365
 3591SOL    HW211673   5.226   3.417   6.335
 3592SOL     OW11674   6.579   4.537   2.455
 3592SOL    HW111675   6.547   4.622   2.497
 3592SOL    HW211676   6.591   4.467   2.525
 3593SOL     OW11677   1.959   5.893   3.797
 3593SOL    HW111678   1.930   5.835   3.873
 3593SOL    HW211679   2.002   5.975   3.832
 3594SOL     OW11680   4.153   0.711   3.304
 3594SOL    HW111681   4.215   0.787   3.286
 3594SOL    HW211682   4.150   0.692   3.402
 3595SOL     OW11683   2.720   5.329   6.585
 3595SOL    HW111684   2.727   5.414   6.638
 3595SOL    HW211685   2.672   5.347   6.499
 3596SOL     OW11686   6.470   2.370   3.132
 3596SOL    HW111687   6.518   2.301   3.078
 3596SOL    HW211688   6.496   2.361   3.228
 3597SOL     OW11689   1.709   0.399   5.186
 3597SOL    HW111690   1.798   0.354   5.173
 3597SOL    HW211691   1.680   0.389   5.280
 3598SOL     OW11692   1.424   6.178   6.587
 3598SOL    HW111693   1.391   6.130   6.669
 3598SOL    HW211694   1.445   6.111   6.516
 3599SOL     OW11695   0.539   1.991   5.585
 3599SOL    HW111696   0.550   2.085   5.616
 3599SOL    HW211697   0.450   1.956   5.613
 3600SOL     OW11698   1.116   3.680   0.291
 3600SOL    HW111699   1.139   3.777   0.279
 3600SOL    HW211700   1.035   3.672   0.349
 3601SOL     OW11701   6.012   4.584   0.415
 3601SOL    HW111702   5.924   4.567   0.371
 3601SOL    HW211703   6.074   4.628   0.350
 3602SOL     OW11704   1.221   2.066   0.611
 3602SOL    HW111705   1.182   2.143   0.662
 3602SOL    HW211706   1.285   2.017   0.669
 3603SOL     OW11707   3.109   6.421   3.847
 3603SOL    HW111708   3.090   6.450   3.753
 3603SOL    HW211709   3.208   6.408   3.858
 3604SOL     OW11710   0.062   4.761   3.783
 3604SOL    HW111711   0.149   4.807   3.768
 3604SOL    HW211712   0.076   4.677   3.834
 3605SOL     OW11713   5.340   4.126   5.285
 3605SOL    HW111714   5.293   4.142   5.372
 3605SOL    HW211715   5.383   4.210   5.254
 3606SOL     OW11716   0.032   6.256   5.284
 3606SOL    HW111717   6.963   6.242   5.327
 3606SOL    HW211718   0.024   6.323   5.210
 3607SOL     OW11719   4.993   6.332   1.094
 3607SOL    HW111720   5.020   6.395   1.022
 3607SOL    HW211721   5.063   6.262   1.106
 3608SOL     OW11722   6.553   2.011   2.841
 3608SOL    HW111723   6.495   1.980   2.765
 3608SOL    HW211724   6.547   2.110   2.850
 3609SOL     OW11725   0.597   0.575   4.001
 3609SOL    HW111726   0.670   0.605   4.061
 3609SOL    HW211727   0.520   0.541   4.056
 3610SOL     OW11728   1.231   6.749   5.371
 3610SOL    HW111729   1.223   6.731   5.469
 3610SOL    HW211730   1.293   6.827   5.356
 3611SOL     OW11731   4.653   6.511   6.230
 3611SOL    HW111732   4.656   6.552   6.138
 3611SOL    HW211733   4.746   6.488   6.258
 3612SOL     OW11734   6.061   0.377   5.954
 3612SOL    HW111735   6.002   0.457   5.942
 3612SOL    HW211736   6.124   0.393   6.029
 3613SOL     OW11737   4.234   5.165   1.843
 3613SOL    HW111738   4.286   5.085   1.873
 3613SOL    HW211739   4.214   5.156   1.745
 3614SOL     OW11740   3.554   3.755   2.762
 3614SOL    HW111741   3.618   3.784   2.833
 3614SOL    HW211742   3.592   3.776   2.672
 3615SOL     OW11743   5.684   5.916   0.338
 3615SOL    HW111744   5.617   5.865   0.392
 3615SOL    HW211745   5.673   5.894   0.242
 3616SOL     OW11746   6.968   2.896   5.490
 3616SOL    HW111747   0.003   2.821   5.525
 3616SOL    HW211748   6.979   2.902   5.391
 3617SOL     OW11749   4.261   0.941   6.517
 3617SOL    HW111750   4.259   1.022   6.459
 3617SOL    HW211751   4.324   0.873   6.479
 3618SOL     OW11752   2.240   2.363   4.886
 3618SOL    HW111753   2.160   2.306   4.904
 3618SOL    HW211754   2.316   2.334   4.945
 3619SOL     OW11755   6.004   3.133   3.955
 3619SOL    HW111756   6.062   3.191   4.013
 3619SOL    HW211757   5.952   3.191   3.893
 3620SOL     OW11758   6.508   6.065   5.931
 3620SOL    HW111759   6.436   6.054   6.000
 3620SOL    HW211760   6.487   6.145   5.875
 3621SOL     OW11761   3.646   2.691   6.047
 3621SOL    HW111762   3.654   2.730   5.956
 3621SOL    HW211763   3.582   2.745   6.102
 3622SOL     OW11764   1.796   2.095   4.463
 3622SOL    HW111765   1.740   2.012   4.465
 3622SOL    HW211766   1.872   2.083   4.398
 3623SOL     OW11767   6.136   5.409   4.335
 3623SOL    HW111768   6.079   5.354   4.274
 3623SOL    HW211769   6.222   5.431   4.288
 3624SOL     OW11770   2.255   6.355   2.340
 3624SOL    HW111771   2.179   6.417   2.357
 3624SOL    HW211772   2.263   6.338   2.242
 3625SOL     OW11773   5.649   3.630   0.083
 3625SOL    HW111774   5.602   3.718   0.071
 3625SOL    HW211775   5.616   3.586   0.167
 3626SOL     OW11776   1.705   3.354   6.157
 3626SOL    HW111777   1.717   3.262   6.193
 3626SOL    HW211778   1.792   3.386   6.119
 3627SOL     OW11779   3.610   2.938   3.432
 3627SOL    HW111780   3.701   2.908   3.403
 3627SOL    HW211781   3.597   2.914   3.529
 3628SOL     OW11782   1.577   0.628   1.808
 3628SOL    HW111783   1.517   0.685   1.864
 3628SOL    HW211784   1.610   0.550   1.862
 3629SOL     OW11785   0.042   2.349   4.526
 3629SOL    HW111786   0.020   2.446   4.513
 3629SOL    HW211787   6.978   2.298   4.543
 3630SOL     OW11788   5.128   3.017   3.349
 3630SOL    HW111789   5.163   3.067   3.429
 3630SOL    HW211790   5.088   2.931   3.379
 3631SOL     OW11791   2.049   6.902   3.719
 3631SOL    HW111792   2.076   6.983   3.770
 3631SOL    HW211793   2.086   6.907   3.626
 3632SOL     OW11794   5.005   6.755   1.271
 3632SOL    HW111795   4.957   6.765   1.184
 3632SOL    HW211796   4.993   6.838   1.326
 3633SOL     OW11797   3.331   1.623   5.723
 3633SOL    HW111798   3.412   1.658   5.675
 3633SOL    HW211799   3.249   1.643   5.669
 3634SOL     OW11800   0.479   5.127   4.375
 3634SOL    HW111801   0.550   5.132   4.444
 3634SOL    HW211802   0.472   5.033   4.341
 3635SOL     OW11803   2.793   6.602   6.233
 3635SOL    HW111804   2.730   6.556   6.295
 3635SOL    HW211805   2.826   6.686   6.276
 3636SOL     OW11806   0.544   5.464   6.911
 3636SOL    HW111807   0.524   5.468   6.813
 3636SOL    HW211808   0.556   5.557   6.946
 3637SOL     OW11809   6.297   1.432   1.296
 3637SOL    HW111810   6.342   1.349   1.264
 3637SOL    HW211811   6.366   1.496   1.329
 3638SOL     OW11812   0.539   4.484   4.848
 3638SOL    HW111813   0.477   4.417   4.889
 3638SOL    HW211814   0.494   4.573   4.845
 3639SOL     OW11815   3.287   4.273   1.599
 3639SOL    HW111816   3.264   4.192   1.545
 3639SOL    HW211817   3.341   4.245   1.679
 3640SOL     OW11818   3.570   0.500   0.448
 3640SOL    HW111819   3.519   0.556   0.383
 3640SOL    HW211820   3.509   0.470   0.521
 3641SOL     OW11821   5.234   2.913   3.866
 3641SOL    HW111822   5.170   2.858   3.813
 3641SOL    HW211823   5.268   2.858   3.943
 3642SOL     OW11824   4.772   0.719   0.638
 3642SOL    HW111825   4.675   0.735   0.653
 3642SOL    HW211826   4.825   0.787   0.688
 3643SOL     OW11827   2.883   5.705   5.214
 3643SOL    HW111828   2.792   5.734   5.186
 3643SOL    HW211829   2.936   5.680   5.134
 3644SOL     OW11830   6.842   1.772   1.786
 3644SOL    HW111831   6.857   1.767   1.687
 3644SOL    HW211832   6.744   1.771   1.805
 3645SOL     OW11833   0.138   3.183   3.736
 3645SOL    HW111834   0.171   3.094   3.703
 3645SOL    HW211835   0.062   3.168   3.799
 3646SOL     OW11836   6.594   4.416   6.963
 3646SOL    HW111837   6.636   4.505   6.979
 3646SOL    HW211838   6.506   4.411   7.011
 3647SOL     OW11839   2.413   3.170   6.878
 3647SOL    HW111840   2.370   3.144   6.965
 3647SOL    HW211841   2.502   3.212   6.896
 3648SOL     OW11842   3.436   4.984   2.541
 3648SOL    HW111843   3.455   4.941   2.630
 3648SOL    HW211844   3.359   4.938   2.497
 3649SOL     OW11845   4.956   2.974   2.043
 3649SOL    HW111846   4.857   2.967   2.032
 3649SOL    HW211847   4.976   3.034   2.121
 3650SOL     OW11848   0.442   5.352   0.832
 3650SOL    HW111849   0.370   5.292   0.867
 3650SOL    HW211850   0.429   5.444   0.869
 3651SOL     OW11851   0.088   6.638   3.739
 3651SOL    HW111852   0.147   6.581   3.681
 3651SOL    HW211853   0.137   6.721   3.765
 3652SOL     OW11854   5.451   6.573   3.109
 3652SOL    HW111855   5.480   6.549   3.202
 3652SOL    HW211856   5.367   6.523   3.087
 3653SOL     OW11857   0.662   1.812   4.621
 3653SOL    HW111858   0.712   1.748   4.563
 3653SOL    HW211859   0.663   1.779   4.715
 3654SOL     OW11860   2.398   4.951   0.650
 3654SOL    HW111861   2.401   4.991   0.741
 3654SOL    HW211862   2.336   5.003   0.592
 3655SOL     OW11863   1.726   6.739   3.301
 3655SOL    HW111864   1.634   6.776   3.288
 3655SOL    HW211865   1.785   6.770   3.226
 3656SOL     OW11866   0.862   3.750   2.478
 3656SOL    HW111867   0.802   3.793   2.410
 3656SOL    HW211868   0.924   3.819   2.516
 3657SOL     OW11869   5.460   5.185   6.403
 3657SOL    HW111870   5.541   5.140   6.442
 3657SOL    HW211871   5.397   5.116   6.368
 3658SOL     OW11872   1.787   5.486   5.167
 3658SOL    HW111873   1.805   5.399   5.211
 3658SOL    HW211874   1.859   5.505   5.100
 3659SOL     OW11875   1.809   3.580   4.979
 3659SOL    HW111876   1.710   3.588   4.968
 3659SOL    HW211877   1.854   3.593   4.890
 3660SOL     OW11878   5.027   0.357   3.668
 3660SOL    HW111879   5.059   0.281   3.612
 3660SOL    HW211880   4.928   0.366   3.659
 3661SOL     OW11881   5.489   1.558   5.704
 3661SOL    HW111882   5.572   1.548   5.759
 3661SOL    HW211883   5.474   1.654   5.683
 3662SOL     OW11884   4.385   0.229   4.084
 3662SOL    HW111885   4.457   0.167   4.053
 3662SOL    HW211886   4.400   0.252   4.180
 3663SOL     OW11887   1.598   2.338   0.630
 3663SOL    HW111888   1.684   2.361   0.584
 3663SOL    HW211889   1.522   2.374   0.576
 3664SOL     OW11890   5.669   2.114   2.163
 3664SOL    HW111891   5.711   2.078   2.247
 3664SOL    HW211892   5.652   2.212   2.173
 3665SOL     OW11893   2.288   6.127   5.385
 3665SOL    HW111894   2.218   6.159   5.448
 3665SOL    HW211895   2.258   6.142   5.291
 3666SOL     OW11896   1.216   3.989   3.402
 3666SOL    HW111897   1.269   4.066   3.368
 3666SOL    HW211898   1.262   3.949   3.482
 3667SOL     OW11899   0.427   1.352   1.855
 3667SOL    HW111900   0.414   1.405   1.771
 3667SOL    HW211901   0.344   1.300   1.875
 3668SOL     OW11902   1.608   1.036   2.021
 3668SOL    HW111903   1.581   1.024   1.926
 3668SOL    HW211904   1.694   0.989   2.039
 3669SOL     OW11905   5.296   1.325   3.272
 3669SOL    HW111906   5.287   1.226   3.283
 3669SOL    HW211907   5.205   1.367   3.272
 3670SOL     OW11908   2.849   4.958   0.481
 3670SOL    HW111909   2.811   4.977   0.572
 3670SOL    HW211910   2.785   4.902   0.429
 3671SOL     OW11911   6.215   0.875   3.752
 3671SOL    HW111912   6.300   0.904   3.796
 3671SOL    HW211913   6.152   0.952   3.749
 3672SOL     OW11914   5.656   1.814   1.345
 3672SOL    HW111915   5.623   1.735   1.292
 3672SOL    HW211916   5.690   1.884   1.282
 3673SOL     OW11917   4.061   6.344   6.596
 3673SOL    HW111918   4.154   6.319   6.624
 3673SOL    HW211919   4.012   6.381   6.675
 3674SOL     OW11920   0.993   6.789   5.281
 3674SOL    HW111921   1.004   6.838   5.195
 3674SOL    HW211922   1.082   6.768   5.320
 3675SOL     OW11923   1.949   3.285   4.661
 3675SOL    HW111924   2.012   3.290   4.584
 3675SOL    HW211925   1.964   3.364   4.721
 3676SOL     OW11926   5.349   4.298   4.023
 3676SOL    HW111927   5.363   4.397   4.032
 3676SOL    HW211928   5.342   4.258   4.115
 3677SOL     OW11929   1.548   6.175   3.237
 3677SOL    HW111930   1.585   6.264   3.208
 3677SOL    HW211931   1.545   6.172   3.337
 3678SOL     OW11932   0.178   2.442   5.230
 3678SOL    HW111933   0.241   2.490   5.169
 3678SOL    HW211934   0.170   2.346   5.202
 3679SOL     OW11935   1.512   0.451   2.764
 3679SOL    HW111936   1.607   0.477   2.745
 3679SOL    HW211937   1.493   0.463   2.861
 3680SOL     OW11938   5.639   2.391   3.242
 3680SOL    HW111939   5.571   2.441   3.296
 3680SOL    HW211940   5.612   2.295   3.234
 3681SOL     OW11941   0.483   6.952   5.733
 3681SOL    HW111942   0.401   6.954   5.791
 3681SOL    HW211943   0.559   6.995   5.781
 3682SOL     OW11944   6.025   1.952   6.897
 3682SOL    HW111945   6.023   2.040   6.849
 3682SOL    HW211946   5.931   1.923   6.916
 3683SOL     OW11947   0.176   0.337   2.839
 3683SOL    HW111948   0.249   0.362   2.903
 3683SOL    HW211949   0.145   0.244   2.858
 3684SOL     OW11950   2.033   4.755   6.987
 3684SOL    HW111951   2.100   4.718   0.030
 3684SOL    HW211952   2.029   4.698   6.905
 3685SOL     OW11953   6.747   6.322   6.328
 3685SOL    HW111954   6.648   6.334   6.323
 3685SOL    HW211955   6.792   6.401   6.288
 3686SOL     OW11956   5.752   6.408   3.612
 3686SOL    HW111957   5.710   6.495   3.639
 3686SOL    HW211958   5.683   6.336   3.614
 3687SOL     OW11959   3.899   5.657   5.157
 3687SOL    HW111960   3.921   5.675   5.061
 3687SOL    HW211961   3.958   5.712   5.216
 3688SOL     OW11962   6.492   3.725   6.534
 3688SOL    HW111963   6.429   3.740   6.610
 3688SOL    HW211964   6.581   3.763   6.556
 3689SOL     OW11965   2.308   0.222   6.235
 3689SOL    HW111966   2.238   0.229   6.306
 3689SOL    HW211967   2.380   0.288   6.252
 3690SOL     OW11968   5.055   5.946   0.315
 3690SOL    HW111969   5.072   6.044   0.303
 3690SOL    HW211970   5.043   5.903   0.226
 3691SOL     OW11971   2.903   3.088   6.493
 3691SOL    HW111972   2.852   3.086   6.407
 3691SOL    HW211973   2.903   2.997   6.534
 3692SOL     OW11974   0.232   5.828   5.130
 3692SOL    HW111975   0.176   5.808   5.209
 3692SOL    HW211976   0.309   5.887   5.157
 3693SOL     OW11977   2.181   3.037   2.817
 3693SOL    HW111978   2.226   2.949   2.832
 3693SOL    HW211979   2.248   3.102   2.781
 3694SOL     OW11980   1.290   5.699   2.937
 3694SOL    HW111981   1.374   5.754   2.941
 3694SOL    HW211982   1.218   5.752   2.892
 3695SOL     OW11983   6.679   3.024   1.674
 3695SOL    HW111984   6.701   3.072   1.589
 3695SOL    HW211985   6.582   2.998   1.673
 3696SOL     OW11986   3.710   5.450   5.140
 3696SOL    HW111987   3.653   5.438   5.222
 3696SOL    HW211988   3.769   5.530   5.152
 3697SOL     OW11989   0.367   6.840   3.041
 3697SOL    HW111990   0.267   6.843   3.036
 3697SOL    HW211991   0.406   6.913   2.984
 3698SOL     OW11992   2.259   0.836   4.788
 3698SOL    HW111993   2.355   0.828   4.762
 3698SOL    HW211994   2.207   0.761   4.746
 3699SOL     OW11995   0.792   2.327   3.707
 3699SOL    HW111996   0.855   2.315   3.784
 3699SOL    HW211997   0.830   2.394   3.643
 3700SOL     OW11998   0.245   6.835   4.955
 3700SOL    HW111999   0.150   6.863   4.956
 3700SOL    HW212000   0.304   6.915   4.948
 3701SOL     OW12001   1.396   0.317   4.019
 3701SOL    HW112002   1.421   0.412   4.037
 3701SOL    HW212003   1.472   0.271   3.973
 3702SOL     OW12004   5.297   6.606   2.467
 3702SOL    HW112005   5.239   6.571   2.394
 3702SOL    HW212006   5.322   6.700   2.447
 3703SOL     OW12007   5.277   1.196   5.888
 3703SOL    HW112008   5.233   1.260   5.825
 3703SOL    HW212009   5.376   1.194   5.869
 3704SOL     OW12010   3.421   1.682   1.458
 3704SOL    HW112011   3.377   1.771   1.470
 3704SOL    HW212012   3.351   1.611   1.453
 3705SOL     OW12013   4.735   5.552   3.770
 3705SOL    HW112014   4.746   5.548   3.869
 3705SOL    HW212015   4.800   5.619   3.732
 3706SOL     OW12016   1.146   3.184   6.675
 3706SOL    HW112017   1.154   3.114   6.603
 3706SOL    HW212018   1.214   3.166   6.746
 3707SOL     OW12019   5.168   4.056   5.088
 3707SOL    HW112020   5.237   4.062   5.160
 3707SOL    HW212021   5.130   4.147   5.070
 3708SOL     OW12022   0.084   0.764   6.129
 3708SOL    HW112023   0.124   0.768   6.038
 3708SOL    HW212024   7.005   0.756   6.122
 3709SOL     OW12025   3.363   0.712   0.783
 3709SOL    HW112026   3.299   0.636   0.774
 3709SOL    HW212027   3.312   0.796   0.802
 3710SOL     OW12028   6.522   5.422   6.069
 3710SOL    HW112029   6.505   5.482   5.990
 3710SOL    HW212030   6.578   5.345   6.040
 3711SOL     OW12031   0.503   0.218   3.677
 3711SOL    HW112032   0.419   0.268   3.698
 3711SOL    HW212033   0.482   0.122   3.660
 3712SOL     OW12034   0.304   6.033   0.186
 3712SOL    HW112035   0.318   6.076   0.096
 3712SOL    HW212036   0.280   5.937   0.173
 3713SOL     OW12037   1.506   6.146   5.046
 3713SOL    HW112038   1.462   6.057   5.054
 3713SOL    HW212039   1.459   6.200   4.976
 3714SOL     OW12040   5.251   5.736   5.817
 3714SOL    HW112041   5.189   5.762   5.891
 3714SOL    HW212042   5.341   5.717   5.854
 3715SOL     OW12043   6.510   3.876   2.633
 3715SOL    HW112044   6.481   3.927   2.552
 3715SOL    HW212045   6.439   3.883   2.704
 3716SOL     OW12046   6.332   0.277   4.935
 3716SOL    HW112047   6.319   0.193   4.883
 3716SOL    HW212048   6.313   0.356   4.876
 3717SOL     OW12049   6.123   6.188   6.423
 3717SOL    HW112050   6.103   6.235   6.509
 3717SOL    HW212051   6.153   6.095   6.442
 3718SOL     OW12052   1.548   0.675   0.279
 3718SOL    HW112053   1.541   0.579   0.251
 3718SOL    HW212054   1.645   0.700   0.288
 3719SOL     OW12055   5.231   4.899   1.179
 3719SOL    HW112056   5.298   4.875   1.249
 3719SOL    HW212057   5.202   4.815   1.132
 3720SOL     OW12058   6.132   2.647   6.637
 3720SOL    HW112059   6.149   2.697   6.722
 3720SOL    HW212060   6.211   2.588   6.617
 3721SOL     OW12061   5.848   4.515   2.090
 3721SOL    HW112062   5.905   4.581   2.040
 3721SOL    HW212063   5.775   4.564   2.137
 3722SOL     OW12064   6.625   6.091   0.816
 3722SOL    HW112065   6.632   6.034   0.733
 3722SOL    HW212066   6.583   6.178   0.793
 3723SOL     OW12067   6.465   5.912   1.809
 3723SOL    HW112068   6.380   5.938   1.854
 3723SOL    HW212069   6.527   5.990   1.808
 3724SOL     OW12070   1.975   4.373   5.138
 3724SOL    HW112071   2.065   4.334   5.155
 3724SOL    HW212072   1.910   4.301   5.114
 3725SOL     OW12073   6.190   5.091   1.018
 3725SOL    HW112074   6.118   5.148   1.057
 3725SOL    HW212075   6.215   5.020   1.083
 3726SOL     OW12076   5.695   4.228   0.478
 3726SOL    HW112077   5.657   4.247   0.568
 3726SOL    HW212078   5.784   4.183   0.487
 3727SOL     OW12079   6.724   2.159   5.044
 3727SOL    HW112080   6.684   2.090   5.105
 3727SOL    HW212081   6.660   2.236   5.035
 3728SOL     OW12082   1.206   4.041   6.801
 3728SOL    HW112083   1.257   4.077   6.879
 3728SOL    HW212084   1.261   4.053   6.718
 3729SOL     OW12085   1.199   2.540   3.350
 3729SOL    HW112086   1.250   2.566   3.432
 3729SOL    HW212087   1.171   2.622   3.300
 3730SOL     OW12088   2.647   5.054   5.910
 3730SOL    HW112089   2.628   5.150   5.888
 3730SOL    HW212090   2.600   5.030   5.995
 3731SOL     OW12091   6.192   0.581   0.662
 3731SOL    HW112092   6.152   0.587   0.571
 3731SOL    HW212093   6.283   0.539   0.656
 3732SOL     OW12094   2.916   1.735   6.353
 3732SOL    HW112095   2.912   1.829   6.320
 3732SOL    HW212096   3.011   1.704   6.355
 3733SOL     OW12097   1.321   3.966   2.181
 3733SOL    HW112098   1.311   3.942   2.085
 3733SOL    HW212099   1.327   4.065   2.191
 3734SOL     OW12100   5.116   1.350   1.855
 3734SOL    HW112101   5.075   1.441   1.844
 3734SOL    HW212102   5.069   1.285   1.794
 3735SOL     OW12103   2.117   0.734   3.659
 3735SOL    HW112104   2.211   0.754   3.632
 3735SOL    HW212105   2.112   0.725   3.758
 3736SOL     OW12106   6.880   2.356   0.439
 3736SOL    HW112107   6.908   2.443   0.399
 3736SOL    HW212108   6.890   2.361   0.538
 3737SOL     OW12109   4.940   0.489   3.420
 3737SOL    HW112110   5.019   0.435   3.449
 3737SOL    HW212111   4.856   0.442   3.446
 3738SOL     OW12112   6.759   6.205   2.289
 3738SOL    HW112113   6.781   6.262   2.210
 3738SOL    HW212114   6.702   6.258   2.352
 3739SOL     OW12115   2.727   4.437   1.628
 3739SOL    HW112116   2.813   4.452   1.677
 3739SOL    HW212117   2.650   4.462   1.687
 3740SOL     OW12118   5.944   0.624   0.452
 3740SOL    HW112119   5.884   0.566   0.509
 3740SOL    HW212120   5.894   0.706   0.425
 3741SOL     OW12121   5.491   3.511   0.916
 3741SOL    HW112122   5.427   3.435   0.911
 3741SOL    HW212123   5.481   3.558   1.003
 3742SOL     OW12124   2.202   1.709   6.523
 3742SOL    HW112125   2.126   1.756   6.477
 3742SOL    HW212126   2.268   1.679   6.455
 3743SOL     OW12127   5.438   3.093   1.360
 3743SOL    HW112128   5.393   3.034   1.292
 3743SOL    HW212129   5.527   3.121   1.325
 3744SOL     OW12130   0.888   5.760   3.020
 3744SOL    HW112131   0.935   5.672   3.020
 3744SOL    HW212132   0.946   5.828   2.974
 3745SOL     OW12133   3.699   5.030   1.621
 3745SOL    HW112134   3.766   5.059   1.553
 3745SOL    HW212135   3.669   4.936   1.601
 3746SOL     OW12136   5.652   0.829   3.180
 3746SOL    HW112137   5.604   0.775   3.112
 3746SOL    HW212138   5.585   0.881   3.234
 3747SOL     OW12139   2.742   6.825   5.349
 3747SOL    HW112140   2.670   6.758   5.331
 3747SOL    HW212141   2.728   6.865   5.440
 3748SOL     OW12142   5.969   0.821   1.299
 3748SOL    HW112143   5.872   0.803   1.313
 3748SOL    HW212144   5.980   0.899   1.238
 3749SOL     OW12145   1.632   5.764   4.100
 3749SOL    HW112146   1.541   5.776   4.139
 3749SOL    HW212147   1.627   5.703   4.021
 3750SOL     OW12148   1.098   3.965   0.636
 3750SOL    HW112149   1.013   3.943   0.587
 3750SOL    HW212150   1.101   3.914   0.722
 3751SOL     OW12151   0.062   3.605   1.566
 3751SOL    HW112152   6.988   3.638   1.558
 3751SOL    HW212153   0.123   3.668   1.519
 3752SOL     OW12154   5.115   0.769   6.831
 3752SOL    HW112155   5.203   0.789   6.873
 3752SOL    HW212156   5.078   0.853   6.789
 3753SOL     OW12157   6.767   0.206   5.432
 3753SOL    HW112158   6.693   0.215   5.498
 3753SOL    HW212159   6.828   0.132   5.460
 3754SOL     OW12160   2.350   0.881   1.199
 3754SOL    HW112161   2.335   0.826   1.280
 3754SOL    HW212162   2.439   0.927   1.205
 3755SOL     OW12163   4.883   4.912   5.105
 3755SOL    HW112164   4.870   4.850   5.182
 3755SOL    HW212165   4.924   4.862   5.029
 3756SOL     OW12166   3.149   4.947   6.024
 3756SOL    HW112167   3.107   5.030   5.988
 3756SOL    HW212168   3.084   4.871   6.014
 3757SOL     OW12169   6.189   4.940   1.379
 3757SOL    HW112170   6.279   4.974   1.406
 3757SOL    HW212171   6.137   5.013   1.337
 3758SOL     OW12172   2.360   1.443   4.638
 3758SOL    HW112173   2.279   1.425   4.582
 3758SOL    HW212174   2.440   1.449   4.580
 3759SOL     OW12175   4.301   0.164   5.832
 3759SOL    HW112176   4.303   0.167   5.732
 3759SOL    HW212177   4.336   0.250   5.868
 3760SOL     OW12178   1.157   1.184   4.127
 3760SOL    HW112179   1.117   1.174   4.036
 3760SOL    HW212180   1.105   1.130   4.193
 3761SOL     OW12181   0.545   1.083   4.957
 3761SOL    HW112182   0.451   1.047   4.949
 3761SOL    HW212183   0.597   1.026   5.020
 3762SOL     OW12184   1.758   4.723   0.777
 3762SOL    HW112185   1.698   4.644   0.761
 3762SOL    HW212186   1.818   4.704   0.855
 3763SOL     OW12187   0.655   3.497   6.999
 3763SOL    HW112188   0.615   3.445   6.923
 3763SOL    HW212189   0.612   3.587   7.004
 3764SOL     OW12190   1.468   6.858   2.258
 3764SOL    HW112191   1.493   6.949   2.291
 3764SOL    HW212192   1.370   6.844   2.272
 3765SOL     OW12193   5.301   1.574   1.131
 3765SOL    HW112194   5.212   1.612   1.157
 3765SOL    HW212195   5.324   1.499   1.193
 3766SOL     OW12196   1.609   1.869   4.446
 3766SOL    HW112197   1.691   1.814   4.436
 3766SOL    HW212198   1.592   1.920   4.361
 3767SOL     OW12199   2.931   4.010   6.876
 3767SOL    HW112200   2.963   3.935   6.933
 3767SOL    HW212201   3.008   4.071   6.856
 3768SOL     OW12202   0.512   6.790   4.576
 3768SOL    HW112203   0.453   6.730   4.523
 3768SOL    HW212204   0.500   6.885   4.546
 3769SOL     OW12205   5.896   5.092   4.921
 3769SOL    HW112206   5.965   5.073   4.990
 3769SOL    HW212207   5.888   5.014   4.859
 3770SOL     OW12208   1.277   0.651   6.423
 3770SOL    HW112209   1.259   0.641   6.325
 3770SOL    HW212210   1.224   0.583   6.474
 3771SOL     OW12211   5.164   3.922   0.561
 3771SOL    HW112212   5.088   3.875   0.606
 3771SOL    HW212213   5.131   4.008   0.520
 3772SOL     OW12214   0.315   0.568   0.192
 3772SOL    HW112215   0.363   0.528   0.270
 3772SOL    HW212216   0.377   0.572   0.113
 3773SOL     OW12217   5.803   3.377   5.790
 3773SOL    HW112218   5.816   3.334   5.879
 3773SOL    HW212219   5.705   3.378   5.768
 3774SOL     OW12220   6.071   5.727   1.665
 3774SOL    HW112221   6.002   5.741   1.594
 3774SOL    HW212222   6.139   5.801   1.661
 3775SOL     OW12223   4.581   5.541   2.599
 3775SOL    HW112224   4.638   5.620   2.579
 3775SOL    HW212225   4.490   5.571   2.629
 3776SOL     OW12226   4.036   1.980   6.503
 3776SOL    HW112227   4.026   2.047   6.576
 3776SOL    HW212228   4.083   1.899   6.537
 3777SOL     OW12229   3.645   4.865   3.130
 3777SOL    HW112230   3.711   4.845   3.202
 3777SOL    HW212231   3.553   4.864   3.167
 3778SOL     OW12232   2.755   4.998   2.679
 3778SOL    HW112233   2.804   5.006   2.592
 3778SOL    HW212234   2.683   5.066   2.683
 3779SOL     OW12235   0.921   5.053   0.917
 3779SOL    HW112236   0.956   5.140   0.883
 3779SOL    HW212237   0.846   5.069   0.981
 3780SOL     OW12238   6.125   4.745   4.710
 3780SOL    HW112239   6.035   4.716   4.677
 3780SOL    HW212240   6.195   4.724   4.641
 3781SOL     OW12241   0.272   6.532   3.563
 3781SOL    HW112242   0.306   6.472   3.490
 3781SOL    HW212243   0.349   6.563   3.618
 3782SOL     OW12244   2.512   0.603   3.114
 3782SOL    HW112245   2.604   0.642   3.115
 3782SOL    HW212246   2.445   0.678   3.110
 3783SOL     OW12247   5.700   5.350   4.010
 3783SOL    HW112248   5.689   5.256   4.043
 3783SOL    HW212249   5.719   5.349   3.912
 3784SOL     OW12250   5.517   3.004   2.609
 3784SOL    HW112251   5.533   2.989   2.511
 3784SOL    HW212252   5.590   2.961   2.661
 3785SOL     OW12253   1.614   3.478   5.789
 3785SOL    HW112254   1.639   3.530   5.871
 3785SOL    HW212255   1.660   3.518   5.709
 3786SOL     OW12256   2.265   4.383   3.405
 3786SOL    HW112257   2.289   4.390   3.502
 3786SOL    HW212258   2.218   4.466   3.376
 3787SOL     OW12259   6.092   1.245   2.368
 3787SOL    HW112260   6.048   1.169   2.416
 3787SOL    HW212261   6.086   1.230   2.269
 3788SOL     OW12262   0.346   4.320   4.970
 3788SOL    HW112263   0.261   4.290   4.925
 3788SOL    HW212264   0.395   4.241   5.005
 3789SOL     OW12265   0.611   4.111   4.749
 3789SOL    HW112266   0.652   4.138   4.836
 3789SOL    HW212267   0.655   4.028   4.716
 3790SOL     OW12268   1.152   4.698   5.885
 3790SOL    HW112269   1.084   4.736   5.822
 3790SOL    HW212270   1.202   4.624   5.841
 3791SOL     OW12271   4.915   1.505   6.259
 3791SOL    HW112272   4.945   1.584   6.205
 3791SOL    HW212273   4.983   1.485   6.329
 3792SOL     OW12274   1.322   1.925   3.144
 3792SOL    HW112275   1.381   1.924   3.063
 3792SOL    HW212276   1.241   1.982   3.126
 3793SOL     OW12277   4.368   0.104   2.586
 3793SOL    HW112278   4.359   0.095   2.487
 3793SOL    HW212279   4.291   0.061   2.631
 3794SOL     OW12280   2.428   2.620   1.413
 3794SOL    HW112281   2.363   2.674   1.468
 3794SOL    HW212282   2.515   2.613   1.463
 3795SOL     OW12283   4.698   5.997   1.213
 3795SOL    HW112284   4.695   6.000   1.313
 3795SOL    HW212285   4.787   5.962   1.183
 3796SOL     OW12286   4.118   1.753   2.806
 3796SOL    HW112287   4.160   1.677   2.757
 3796SOL    HW212288   4.161   1.761   2.896
 3797SOL     OW12289   0.781   3.088   2.691
 3797SOL    HW112290   0.777   3.149   2.612
 3797SOL    HW212291   0.845   3.013   2.671
 3798SOL     OW12292   2.367   5.581   2.980
 3798SOL    HW112293   2.378   5.616   3.073
 3798SOL    HW212294   2.451   5.533   2.953
 3799SOL     OW12295   6.264   2.871   3.634
 3799SOL    HW112296   6.239   2.775   3.624
 3799SOL    HW212297   6.348   2.877   3.689
 3800SOL     OW12298   5.222   1.903   3.641
 3800SOL    HW112299   5.319   1.896   3.662
 3800SOL    HW212300   5.171   1.923   3.725
 3801SOL     OW12301   6.137   6.655   1.595
 3801SOL    HW112302   6.093   6.578   1.549
 3801SOL    HW212303   6.070   6.727   1.613
 3802SOL     OW12304   1.558   2.002   1.674
 3802SOL    HW112305   1.531   2.060   1.596
 3802SOL    HW212306   1.523   1.910   1.660
 3803SOL     OW12307   4.138   3.428   2.377
 3803SOL    HW112308   4.122   3.332   2.356
 3803SOL    HW212309   4.196   3.468   2.306
 3804SOL     OW12310   4.424   1.248   3.069
 3804SOL    HW112311   4.350   1.256   3.135
 3804SOL    HW212312   4.392   1.279   2.979
 3805SOL     OW12313   1.852   3.061   1.545
 3805SOL    HW112314   1.831   3.159   1.546
 3805SOL    HW212315   1.834   3.023   1.636
 3806SOL     OW12316   4.008   3.683   6.213
 3806SOL    HW112317   4.063   3.668   6.131
 3806SOL    HW212318   3.947   3.761   6.200
 3807SOL     OW12319   1.938   5.290   2.577
 3807SOL    HW112320   1.919   5.352   2.653
 3807SOL    HW212321   1.921   5.337   2.491
 3808SOL     OW12322   4.106   0.662   0.324
 3808SOL    HW112323   4.061   0.579   0.357
 3808SOL    HW212324   4.041   0.738   0.324
 3809SOL     OW12325   5.423   2.246   2.092
 3809SOL    HW112326   5.434   2.148   2.104
 3809SOL    HW212327   5.397   2.266   1.997
 3810SOL     OW12328   5.577   2.678   3.181
 3810SOL    HW112329   5.517   2.667   3.260
 3810SOL    HW212330   5.523   2.672   3.097
 3811SOL     OW12331   6.787   5.810   4.860
 3811SOL    HW112332   6.822   5.762   4.779
 3811SOL    HW212333   6.863   5.850   4.910
 3812SOL     OW12334   4.702   5.071   5.680
 3812SOL    HW112335   4.784   5.054   5.735
 3812SOL    HW212336   4.649   4.986   5.673
 3813SOL     OW12337   4.728   3.304   0.270
 3813SOL    HW112338   4.818   3.336   0.238
 3813SOL    HW212339   4.733   3.207   0.292
 3814SOL     OW12340   6.176   6.951   5.637
 3814SOL    HW112341   6.249   7.011   5.670
 3814SOL    HW212342   6.126   6.913   5.715
 3815SOL     OW12343   3.619   1.824   0.968
 3815SOL    HW112344   3.596   1.784   1.057
 3815SOL    HW212345   3.546   1.886   0.940
 3816SOL     OW12346   1.149   5.579   6.351
 3816SOL    HW112347   1.200   5.494   6.361
 3816SOL    HW212348   1.108   5.603   6.439
 3817SOL     OW12349   5.157   3.749   2.036
 3817SOL    HW112350   5.134   3.844   2.058
 3817SOL    HW212351   5.075   3.692   2.041
 3818SOL     OW12352   6.664   0.864   0.186
 3818SOL    HW112353   6.616   0.950   0.171
 3818SOL    HW212354   6.657   0.838   0.282
 3819SOL     OW12355   5.893   5.497   2.263
 3819SOL    HW112356   5.943   5.583   2.274
 3819SOL    HW212357   5.843   5.499   2.176
 3820SOL     OW12358   5.529   0.314   4.132
 3820SOL    HW112359   5.434   0.303   4.102
 3820SOL    HW212360   5.589   0.262   4.071
 3821SOL     OW12361   2.131   0.848   1.480
 3821SOL    HW112362   2.130   0.916   1.407
 3821SOL    HW212363   2.183   0.768   1.451
 3822SOL     OW12364   2.498   6.836   0.550
 3822SOL    HW112365   2.524   6.856   0.644
 3822SOL    HW212366   2.405   6.870   0.534
 3823SOL     OW12367   2.640   3.709   6.091
 3823SOL    HW112368   2.670   3.801   6.115
 3823SOL    HW212369   2.636   3.700   5.991
 3824SOL     OW12370   0.462   3.447   0.285
 3824SOL    HW112371   0.405   3.521   0.252
 3824SOL    HW212372   0.405   3.372   0.317
 3825SOL     OW12373   0.231   5.457   0.623
 3825SOL    HW112374   0.301   5.390   0.598
 3825SOL    HW212375   0.215   5.518   0.545
 3826SOL     OW12376   0.851   3.815   0.647
 3826SOL    HW112377   0.753   3.803   0.663
 3826SOL    HW212378   0.880   3.755   0.573
 3827SOL     OW12379   1.695   1.241   1.806
 3827SOL    HW112380   1.761   1.176   1.770
 3827SOL    HW212381   1.742   1.320   1.844
 3828SOL     OW12382   3.618   3.588   3.415
 3828SOL    HW112383   3.624   3.687   3.424
 3828SOL    HW212384   3.710   3.549   3.406
 3829SOL     OW12385   1.244   5.009   2.089
 3829SOL    HW112386   1.184   4.974   2.161
 3829SOL    HW212387   1.190   5.026   2.006
 3830SOL     OW12388   0.848   0.176   5.341
 3830SOL    HW112389   0.860   0.275   5.349
 3830SOL    HW212390   0.848   0.150   5.245
 3831SOL     OW12391   4.540   2.154   2.700
 3831SOL    HW112392   4.495   2.090   2.762
 3831SOL    HW212393   4.637   2.130   2.692
 3832SOL     OW12394   0.288   0.706   3.216
 3832SOL    HW112395   0.198   0.733   3.183
 3832SOL    HW212396   0.339   0.664   3.141
 3833SOL     OW12397   0.131   5.983   6.623
 3833SOL    HW112398   0.215   6.038   6.622
 3833SOL    HW212399   0.100   5.966   6.530
 3834SOL     OW12400   4.152   4.110   1.381
 3834SOL    HW112401   4.068   4.120   1.434
 3834SOL    HW212402   4.225   4.074   1.440
 3835SOL     OW12403   3.750   6.091   4.526
 3835SOL    HW112404   3.685   6.163   4.501
 3835SOL    HW212405   3.827   6.131   4.575
 3836SOL     OW12406   0.325   4.557   5.773
 3836SOL    HW112407   0.374   4.622   5.714
 3836SOL    HW212408   0.367   4.467   5.765
 3837SOL     OW12409   4.415   4.041   6.343
 3837SOL    HW112410   4.469   3.989   6.409
 3837SOL    HW212411   4.436   4.138   6.352
 3838SOL     OW12412   0.720   3.327   4.454
 3838SOL    HW112413   0.657   3.252   4.437
 3838SOL    HW212414   0.814   3.293   4.456
 3839SOL     OW12415   5.691   1.574   2.957
 3839SOL    HW112416   5.716   1.648   3.019
 3839SOL    HW212417   5.644   1.502   3.007
 3840SOL     OW12418   2.550   1.332   6.890
 3840SOL    HW112419   2.518   1.272   6.963
 3840SOL    HW212420   2.647   1.350   6.902
 3841SOL     OW12421   0.076   3.757   4.912
 3841SOL    HW112422   0.010   3.763   4.987
 3841SOL    HW212423   0.030   3.720   4.831
 3842SOL     OW12424   2.173   2.679   1.839
 3842SOL    HW112425   2.086   2.636   1.866
 3842SOL    HW212426   2.211   2.728   1.917
 3843SOL     OW12427   5.840   4.876   2.796
 3843SOL    HW112428   5.874   4.909   2.708
 3843SOL    HW212429   5.850   4.777   2.800
 3844SOL     OW12430   1.233   2.488   5.107
 3844SOL    HW112431   1.252   2.585   5.125
 3844SOL    HW212432   1.238   2.436   5.192
 3845SOL     OW12433   3.404   3.882   5.195
 3845SOL    HW112434   3.350   3.799   5.207
 3845SOL    HW212435   3.363   3.956   5.248
 3846SOL     OW12436   6.888   5.275   3.426
 3846SOL    HW112437   6.974   5.327   3.420
 3846SOL    HW212438   6.902   5.195   3.484
 3847SOL     OW12439   5.413   2.329   3.860
 3847SOL    HW112440   5.404   2.239   3.818
 3847SOL    HW212441   5.343   2.390   3.822
 3848SOL     OW12442   4.644   5.341   2.424
 3848SOL    HW112443   4.550   5.314   2.405
 3848SOL    HW212444   4.645   5.419   2.486
 3849SOL     OW12445   0.831   1.231   5.963
 3849SOL    HW112446   0.894   1.203   6.035
 3849SOL    HW212447   0.750   1.273   6.005
 3850SOL     OW12448   2.766   3.440   1.653
 3850SOL    HW112449   2.803   3.490   1.731
 3850SOL    HW212450   2.666   3.448   1.652
 3851SOL     OW12451   0.870   4.679   2.419
 3851SOL    HW112452   0.837   4.766   2.384
 3851SOL    HW212453   0.959   4.659   2.379
 3852SOL     OW12454   4.047   6.329   4.068
 3852SOL    HW112455   4.040   6.258   3.998
 3852SOL    HW212456   4.029   6.288   4.158
 3853SOL     OW12457   0.951   4.522   3.680
 3853SOL    HW112458   0.903   4.554   3.598
 3853SOL    HW212459   0.935   4.586   3.755
 3854SOL     OW12460   1.771   2.872   3.030
 3854SOL    HW112461   1.786   2.776   3.009
 3854SOL    HW212462   1.860   2.918   3.038
 3855SOL     OW12463   5.651   6.508   6.763
 3855SOL    HW112464   5.742   6.469   6.775
 3855SOL    HW212465   5.618   6.489   6.670
 3856SOL     OW12466   6.854   0.729   6.317
 3856SOL    HW112467   6.948   0.730   6.353
 3856SOL    HW212468   6.844   0.652   6.254
 3857SOL     OW12469   0.078   6.625   6.961
 3857SOL    HW112470   0.106   6.691   0.010
 3857SOL    HW212471   6.998   6.622   6.957
 3858SOL     OW12472   2.339   0.817   5.721
 3858SOL    HW112473   2.384   0.891   5.770
 3858SOL    HW212474   2.316   0.743   5.784
 3859SOL     OW12475   6.010   1.020   2.507
 3859SOL    HW112476   6.013   1.051   2.602
 3859SOL    HW212477   5.917   1.029   2.472
 3860SOL     OW12478   2.798   0.811   5.343
 3860SOL    HW112479   2.723   0.864   5.384
 3860SOL    HW212480   2.853   0.770   5.415
 3861SOL     OW12481   4.420   4.848   3.301
 3861SOL    HW112482   4.372   4.934   3.282
 3861SOL    HW212483   4.453   4.848   3.395
 3862SOL     OW12484   0.610   0.258   4.927
 3862SOL    HW112485   0.636   0.354   4.919
 3862SOL    HW212486   0.555   0.245   5.009
 3863SOL     OW12487   5.688   2.580   6.920
 3863SOL    HW112488   5.664   2.563   6.825
 3863SOL    HW212489   5.787   2.589   6.929
 3864SOL     OW12490   2.547   0.358   5.556
 3864SOL    HW112491   2.638   0.359   5.515
 3864SOL    HW212492   2.504   0.448   5.546
 3865SOL     OW12493   2.781   0.487   0.169
 3865SOL    HW112494   2.757   0.406   0.223
 3865SOL    HW212495   2.861   0.531   0.210
 3866SOL     OW12496   3.195   0.364   1.068
 3866SOL    HW112497   3.147   0.286   1.027
 3866SOL    HW212498   3.192   0.442   1.006
 3867SOL     OW12499   1.220   4.984   4.007
 3867SOL    HW112500   1.236   4.885   4.003
 3867SOL    HW212501   1.284   5.031   3.946
 3868SOL     OW12502   2.953   0.166   0.157
 3868SOL    HW112503   2.947   0.096   0.227
 3868SOL    HW212504   2.863   0.180   0.116
 3869SOL     OW12505   5.494   3.771   5.090
 3869SOL    HW112506   5.454   3.845   5.037
 3869SOL    HW212507   5.423   3.726   5.145
 3870SOL     OW12508   5.820   6.135   0.031
 3870SOL    HW112509   5.875   6.181   0.101
 3870SOL    HW212510   5.880   6.107   6.975
 3871SOL     OW12511   3.401   0.540   3.315
 3871SOL    HW112512   3.403   0.512   3.411
 3871SOL    HW212513   3.384   0.639   3.310
 3872SOL     OW12514   3.825   2.984   3.924
 3872SOL    HW112515   3.766   2.932   3.985
 3872SOL    HW212516   3.882   3.047   3.978
 3873SOL     OW12517   6.202   2.633   0.780
 3873SOL    HW112518   6.236   2.638   0.686
 3873SOL    HW212519   6.102   2.632   0.779
 3874SOL     OW12520   4.295   5.985   0.084
 3874SOL    HW112521   4.228   5.980   0.010
 3874SOL    HW212522   4.259   5.939   0.165
 3875SOL     OW12523   1.997   2.940   2.053
 3875SOL    HW112524   1.966   2.846   2.065
 3875SOL    HW212525   2.066   2.962   2.122
 3876SOL     OW12526   4.125   5.362   0.861
 3876SOL    HW112527   4.146   5.423   0.785
 3876SOL    HW212528   4.038   5.388   0.902
 3877SOL     OW12529   5.996   3.409   0.670
 3877SOL    HW112530   5.921   3.446   0.614
 3877SOL    HW212531   5.979   3.433   0.766
 3878SOL     OW12532   3.628   6.821   4.432
 3878SOL    HW112533   3.612   6.892   4.500
 3878SOL    HW212534   3.718   6.779   4.447
 3879SOL     OW12535   5.251   5.251   1.565
 3879SOL    HW112536   5.244   5.253   1.664
 3879SOL    HW212537   5.166   5.216   1.526
 3880SOL     OW12538   5.905   4.885   3.830
 3880SOL    HW112539   5.983   4.947   3.837
 3880SOL    HW212540   5.889   4.842   3.919
 3881SOL     OW12541   1.108   3.738   1.592
 3881SOL    HW112542   1.160   3.776   1.516
 3881SOL    HW212543   1.169   3.690   1.655
 3882SOL     OW12544   1.419   1.521   5.477
 3882SOL    HW112545   1.387   1.428   5.458
 3882SOL    HW212546   1.502   1.539   5.425
 3883SOL     OW12547   3.787   0.888   3.498
 3883SOL    HW112548   3.831   0.851   3.416
 3883SOL    HW212549   3.846   0.957   3.540
 3884SOL     OW12550   0.125   5.381   3.373
 3884SOL    HW112551   0.191   5.311   3.399
 3884SOL    HW212552   0.123   5.390   3.274
 3885SOL     OW12553   6.636   0.288   2.702
 3885SOL    HW112554   6.637   0.386   2.723
 3885SOL    HW212555   6.730   0.255   2.692
 3886SOL     OW12556   6.063   6.167   5.158
 3886SOL    HW112557   6.104   6.076   5.170
 3886SOL    HW212558   6.039   6.180   5.062
 3887SOL     OW12559   0.435   0.415   6.171
 3887SOL    HW112560   0.529   0.397   6.201
 3887SOL    HW212561   0.377   0.337   6.195
 3888SOL     OW12562   6.394   0.383   5.327
 3888SOL    HW112563   6.320   0.444   5.298
 3888SOL    HW212564   6.411   0.316   5.255
 3889SOL     OW12565   6.540   3.260   5.876
 3889SOL    HW112566   6.573   3.187   5.936
 3889SOL    HW212567   6.614   3.289   5.815
 3890SOL     OW12568   5.489   5.698   2.872
 3890SOL    HW112569   5.559   5.672   2.939
 3890SOL    HW212570   5.496   5.796   2.853
 3891SOL     OW12571   5.771   4.283   4.919
 3891SOL    HW112572   5.800   4.365   4.870
 3891SOL    HW212573   5.772   4.205   4.856
 3892SOL     OW12574   0.145   1.811   1.160
 3892SOL    HW112575   0.205   1.855   1.093
 3892SOL    HW212576   0.192   1.803   1.247
 3893SOL     OW12577   4.591   4.664   1.110
 3893SOL    HW112578   4.503   4.617   1.119
 3893SOL    HW212579   4.603   4.727   1.187
 3894SOL     OW12580   3.381   2.299   0.920
 3894SOL    HW112581   3.403   2.216   0.868
 3894SOL    HW212582   3.313   2.352   0.869
 3895SOL     OW12583   1.399   0.719   5.938
 3895SOL    HW112584   1.431   0.797   5.991
 3895SOL    HW212585   1.457   0.640   5.955
 3896SOL     OW12586   0.133   0.788   5.863
 3896SOL    HW112587   0.161   0.694   5.845
 3896SOL    HW212588   0.035   0.798   5.847
 3897SOL     OW12589   3.880   5.912   2.340
 3897SOL    HW112590   3.790   5.950   2.317
 3897SOL    HW212591   3.869   5.819   2.376
 3898SOL     OW12592   3.458   3.471   4.276
 3898SOL    HW112593   3.533   3.537   4.272
 3898SOL    HW212594   3.440   3.447   4.371
 3899SOL     OW12595   5.701   0.734   4.203
 3899SOL    HW112596   5.648   0.705   4.123
 3899SOL    HW212597   5.642   0.782   4.267
 3900SOL     OW12598   5.620   2.787   3.699
 3900SOL    HW112599   5.576   2.738   3.775
 3900SOL    HW212600   5.704   2.740   3.673
 3901SOL     OW12601   3.128   6.817   5.553
 3901SOL    HW112602   3.073   6.845   5.632
 3901SOL    HW212603   3.079   6.749   5.500
 3902SOL     OW12604   5.947   3.861   2.238
 3902SOL    HW112605   5.928   3.841   2.334
 3902SOL    HW212606   6.014   3.934   2.231
 3903SOL     OW12607   4.440   5.374   0.395
 3903SOL    HW112608   4.537   5.386   0.374
 3903SOL    HW212609   4.411   5.281   0.369
 3904SOL     OW12610   1.793   6.747   4.877
 3904SOL    HW112611   1.714   6.729   4.936
 3904SOL    HW212612   1.863   6.798   4.928
 3905SOL     OW12613   6.389   0.101   5.671
 3905SOL    HW112614   6.453   0.029   5.643
 3905SOL    HW212615   6.433   0.190   5.658
 3906SOL     OW12616   3.918   5.291   5.190
 3906SOL    HW112617   3.823   5.307   5.163
 3906SOL    HW212618   3.926   5.199   5.229
 3907SOL     OW12619   6.503   6.643   5.427
 3907SOL    HW112620   6.592   6.688   5.416
 3907SOL    HW212621   6.431   6.704   5.393
 3908SOL     OW12622   0.908   0.584   0.243
 3908SOL    HW112623   0.946   0.661   0.191
 3908SOL    HW212624   0.971   0.560   0.317
 3909SOL     OW12625   0.632   5.538   5.414
 3909SOL    HW112626   0.711   5.592   5.385
 3909SOL    HW212627   0.559   5.599   5.445
 3910SOL     OW12628   3.793   3.960   2.121
 3910SOL    HW112629   3.873   3.936   2.176
 3910SOL    HW212630   3.725   3.887   2.129
 3911SOL     OW12631   3.863   1.035   6.899
 3911SOL    HW112632   3.927   1.009   6.826
 3911SOL    HW212633   3.902   1.012   6.988
 3912SOL     OW12634   2.912   0.690   6.615
 3912SOL    HW112635   2.956   0.602   6.594
 3912SOL    HW212636   2.866   0.724   6.533
 3913SOL     OW12637   2.065   5.788   6.460
 3913SOL    HW112638   2.021   5.757   6.376
 3913SOL    HW212639   2.076   5.887   6.457
 3914SOL     OW12640   3.773   0.852   0.678
 3914SOL    HW112641   3.829   0.934   0.689
 3914SOL    HW212642   3.778   0.821   0.583
 3915SOL     OW12643   4.242   6.349   1.771
 3915SOL    HW112644   4.230   6.264   1.719
 3915SOL    HW212645   4.269   6.422   1.708
 3916SOL     OW12646   1.493   6.386   2.939
 3916SOL    HW112647   1.510   6.412   3.034
 3916SOL    HW212648   1.551   6.308   2.914
 3917SOL     OW12649   1.106   4.952   6.893
 3917SOL    HW112650   1.029   5.015   6.904
 3917SOL    HW212651   1.099   4.879   6.961
 3918SOL     OW12652   4.711   6.792   2.185
 3918SOL    HW112653   4.759   6.783   2.098
 3918SOL    HW212654   4.678   6.702   2.214
 3919SOL     OW12655   3.323   6.396   6.191
 3919SOL    HW112656   3.324   6.370   6.095
 3919SOL    HW212657   3.231   6.426   6.217
 3920SOL     OW12658   2.623   2.200   6.598
 3920SOL    HW112659   2.722   2.205   6.582
 3920SOL    HW212660   2.605   2.144   6.678
 3921SOL     OW12661   0.129   3.048   0.745
 3921SOL    HW112662   0.173   3.048   0.834
 3921SOL    HW212663   0.082   2.962   0.731
 3922SOL     OW12664   5.919   4.821   1.280
 3922SOL    HW112665   6.009   4.862   1.297
 3922SOL    HW212666   5.854   4.892   1.255
 3923SOL     OW12667   6.054   1.688   6.911
 3923SOL    HW112668   6.084   1.655   7.000
 3923SOL    HW212669   6.065   1.787   6.907
 3924SOL     OW12670   0.571   5.380   3.192
 3924SOL    HW112671   0.541   5.475   3.202
 3924SOL    HW212672   0.632   5.372   3.113
 3925SOL     OW12673   3.970   4.396   0.884
 3925SOL    HW112674   3.876   4.393   0.850
 3925SOL    HW212675   3.969   4.394   0.984
 3926SOL     OW12676   6.655   6.194   2.946
 3926SOL    HW112677   6.705   6.280   2.955
 3926SOL    HW212678   6.699   6.137   2.877
 3927SOL     OW12679   6.762   3.882   4.107
 3927SOL    HW112680   6.774   3.932   4.021
 3927SOL    HW212681   6.801   3.935   4.182
 3928SOL     OW12682   3.210   5.202   4.410
 3928SOL    HW112683   3.217   5.290   4.364
 3928SOL    HW212684   3.127   5.155   4.381
 3929SOL     OW12685   0.168   2.439   6.322
 3929SOL    HW112686   0.139   2.488   6.404
 3929SOL    HW212687   0.186   2.343   6.346
 3930SOL     OW12688   1.629   2.109   3.928
 3930SOL    HW112689   1.717   2.080   3.889
 3930SOL    HW212690   1.642   2.131   4.025
 3931SOL     OW12691   2.412   1.409   2.891
 3931SOL    HW112692   2.325   1.439   2.929
 3931SOL    HW212693   2.395   1.344   2.817
 3932SOL     OW12694   1.736   4.453   3.501
 3932SOL    HW112695   1.730   4.527   3.567
 3932SOL    HW212696   1.757   4.367   3.549
 3933SOL     OW12697   2.218   6.748   6.494
 3933SOL    HW112698   2.276   6.724   6.572
 3933SOL    HW212699   2.274   6.788   6.421
 3934SOL     OW12700   0.478   1.466   1.200
 3934SOL    HW112701   0.443   1.470   1.107
 3934SOL    HW212702   0.410   1.424   1.260
 3935SOL     OW12703   1.952   0.292   5.153
 3935SOL    HW112704   1.970   0.311   5.250
 3935SOL    HW212705   1.982   0.199   5.132
 3936SOL     OW12706   0.043   5.647   5.559
 3936SOL    HW112707   0.084   5.584   5.625
 3936SOL    HW212708   6.974   5.677   5.593
 3937SOL     OW12709   0.700   0.209   2.204
 3937SOL    HW112710   0.790   0.211   2.247
 3937SOL    HW212711   0.629   0.195   2.273
 3938SOL     OW12712   6.729   2.908   4.179
 3938SOL    HW112713   6.768   2.927   4.089
 3938SOL    HW212714   6.739   2.988   4.237
 3939SOL     OW12715   3.127   1.405   3.137
 3939SOL    HW112716   3.198   1.474   3.119
 3939SOL    HW212717   3.153   1.319   3.093
 3940SOL     OW12718   4.167   4.920   2.239
 3940SOL    HW112719   4.071   4.907   2.215
 3940SOL    HW212720   4.213   4.831   2.244
 3941SOL     OW12721   6.044   1.164   5.506
 3941SOL    HW112722   6.114   1.102   5.543
 3941SOL    HW212723   5.975   1.181   5.576
 3942SOL     OW12724   0.788   6.656   5.456
 3942SOL    HW112725   0.796   6.596   5.377
 3942SOL    HW212726   0.838   6.741   5.439
 3943SOL     OW12727   0.773   3.406   2.919
 3943SOL    HW112728   0.868   3.380   2.937
 3943SOL    HW212729   0.712   3.341   2.964
 3944SOL     OW12730   5.599   3.986   5.265
 3944SOL    HW112731   5.514   4.017   5.307
 3944SOL    HW212732   5.580   3.909   5.203
 3945SOL     OW12733   0.929   2.580   2.266
 3945SOL    HW112734   0.990   2.644   2.311
 3945SOL    HW212735   0.925   2.495   2.318
 3946SOL     OW12736   6.370   4.687   5.937
 3946SOL    HW112737   6.469   4.674   5.930
 3946SOL    HW212738   6.337   4.729   5.852
 3947SOL     OW12739   6.099   5.637   2.007
 3947SOL    HW112740   6.151   5.722   2.017
 3947SOL    HW212741   6.119   5.577   2.084
 3948SOL     OW12742   0.771   4.859   0.716
 3948SOL    HW112743   0.760   4.959   0.712
 3948SOL    HW212744   0.790   4.832   0.810
 3949SOL     OW12745   5.477   0.311   2.853
 3949SOL    HW112746   5.519   0.221   2.843
 3949SOL    HW212747   5.495   0.366   2.771
 3950SOL     OW12748   3.219   4.040   1.487
 3950SOL    HW112749   3.154   4.012   1.558
 3950SOL    HW212750   3.211   3.979   1.408
 3951SOL     OW12751   6.779   7.015   6.567
 3951SOL    HW112752   6.793   0.036   6.657
 3951SOL    HW212753   6.811   6.920   6.568
 3952SOL     OW12754   6.427   4.019   4.284
 3952SOL    HW112755   6.380   3.939   4.246
 3952SOL    HW212756   6.417   4.096   4.222
 3953SOL     OW12757   3.379   4.151   0.575
 3953SOL    HW112758   3.318   4.120   0.647
 3953SOL    HW212759   3.339   4.230   0.528
 3954SOL     OW12760   5.693   5.496   5.552
 3954SOL    HW112761   5.625   5.434   5.590
 3954SOL    HW212762   5.751   5.531   5.626
 3955SOL     OW12763   4.530   6.676   6.875
 3955SOL    HW112764   4.581   6.670   6.789
 3955SOL    HW212765   4.573   6.745   6.934
 3956SOL     OW12766   0.911   2.122   3.409
 3956SOL    HW112767   0.959   2.070   3.479
 3956SOL    HW212768   0.818   2.141   3.439
 3957SOL     OW12769   4.491   7.012   3.423
 3957SOL    HW112770   4.536   6.956   3.353
 3957SOL    HW212771   4.408   6.966   3.453
 3958SOL     OW12772   5.518   0.465   6.290
 3958SOL    HW112773   5.565   0.483   6.204
 3958SOL    HW212774   5.560   0.387   6.336
 3959SOL     OW12775   3.701   6.458   0.881
 3959SOL    HW112776   3.673   6.554   0.878
 3959SOL    HW212777   3.713   6.424   0.788
 3960SOL     OW12778   5.285   2.167   6.024
 3960SOL    HW112779   5.383   2.149   6.027
 3960SOL    HW212780   5.241   2.098   5.966
 3961SOL     OW12781   5.544   2.695   1.950
 3961SOL    HW112782   5.604   2.690   2.030
 3961SOL    HW212783   5.449   2.703   1.981
 3962SOL     OW12784   1.898   5.398   6.877
 3962SOL    HW112785   1.886   5.299   6.873
 3962SOL    HW212786   1.927   5.425   6.969
 3963SOL     OW12787   4.520   4.390   3.496
 3963SOL    HW112788   4.591   4.460   3.500
 3963SOL    HW212789   4.560   4.304   3.464
 3964SOL     OW12790   4.329   4.917   4.611
 3964SOL    HW112791   4.320   5.005   4.565
 3964SOL    HW212792   4.355   4.931   4.707
 3965SOL     OW12793   3.984   3.422   6.311
 3965SOL    HW112794   4.018   3.363   6.238
 3965SOL    HW212795   4.002   3.518   6.289
 3966SOL     OW12796   6.524   5.555   0.239
 3966SOL    HW112797   6.532   5.598   0.329
 3966SOL    HW212798   6.438   5.582   0.196
 3967SOL     OW12799   1.446   4.205   2.785
 3967SOL    HW112800   1.393   4.232   2.866
 3967SOL    HW212801   1.487   4.115   2.802
 3968SOL     OW12802   0.126   0.277   0.827
 3968SOL    HW112803   0.098   0.371   0.847
 3968SOL    HW212804   0.092   0.251   0.736
 3969SOL     OW12805   1.084   3.771   2.726
 3969SOL    HW112806   1.115   3.781   2.821
 3969SOL    HW212807   1.034   3.686   2.716
 3970SOL     OW12808   4.771   5.220   4.143
 3970SOL    HW112809   4.763   5.302   4.087
 3970SOL    HW212810   4.738   5.141   4.090
 3971SOL     OW12811   2.326   4.469   2.362
 3971SOL    HW112812   2.273   4.448   2.444
 3971SOL    HW212813   2.271   4.449   2.281
 3972SOL     OW12814   1.550   5.200   0.942
 3972SOL    HW112815   1.534   5.253   1.025
 3972SOL    HW212816   1.593   5.113   0.965
 3973SOL     OW12817   1.964   4.283   5.523
 3973SOL    HW112818   1.929   4.267   5.615
 3973SOL    HW212819   1.888   4.279   5.458
 3974SOL     OW12820   1.615   7.016   5.106
 3974SOL    HW112821   1.561   6.949   5.054
 3974SOL    HW212822   1.712   6.991   5.100
 3975SOL     OW12823   5.149   0.755   6.518
 3975SOL    HW112824   5.238   0.738   6.477
 3975SOL    HW212825   5.124   0.679   6.578
 3976SOL     OW12826   1.488   5.353   1.555
 3976SOL    HW112827   1.575   5.399   1.573
 3976SOL    HW212828   1.492   5.260   1.591
 3977SOL     OW12829   3.110   4.280   5.287
 3977SOL    HW112830   3.081   4.353   5.225
 3977SOL    HW212831   3.038   4.262   5.354
 3978SOL     OW12832   5.507   0.156   4.744
 3978SOL    HW112833   5.559   0.240   4.732
 3978SOL    HW212834   5.416   0.168   4.704
 3979SOL     OW12835   2.491   5.920   1.513
 3979SOL    HW112836   2.515   5.967   1.428
 3979SOL    HW212837   2.431   5.843   1.493
 3980SOL     OW12838   0.052   4.593   6.979
 3980SOL    HW112839   0.125   4.594   6.911
 3980SOL    HW212840   0.091   4.579   0.050
 3981SOL     OW12841   1.890   1.656   5.872
 3981SOL    HW112842   1.979   1.673   5.830
 3981SOL    HW212843   1.884   1.704   5.959
 3982SOL     OW12844   1.732   1.037   4.537
 3982SOL    HW112845   1.697   1.129   4.555
 3982SOL    HW212846   1.808   1.042   4.472
 3983SOL     OW12847   4.068   5.550   4.210
 3983SOL    HW112848   4.168   5.546   4.214
 3983SOL    HW212849   4.030   5.459   4.222
 3984SOL     OW12850   1.483   0.832   2.710
 3984SOL    HW112851   1.478   0.919   2.759
 3984SOL    HW212852   1.423   0.765   2.754
 3985SOL     OW12853   3.117   4.522   6.545
 3985SOL    HW112854   3.216   4.526   6.528
 3985SOL    HW212855   3.101   4.491   6.639
 3986SOL     OW12856   6.800   2.295   2.615
 3986SOL    HW112857   6.848   2.271   2.531
 3986SOL    HW212858   6.761   2.386   2.606
 3987SOL     OW12859   2.450   5.846   4.332
 3987SOL    HW112860   2.534   5.880   4.374
 3987SOL    HW212861   2.371   5.890   4.373
 3988SOL     OW12862   3.130   2.853   6.598
 3988SOL    HW112863   3.229   2.862   6.590
 3988SOL    HW212864   3.102   2.763   6.565
 3989SOL     OW12865   6.076   1.286   0.312
 3989SOL    HW112866   6.023   1.334   0.382
 3989SOL    HW212867   6.151   1.345   0.280
 3990SOL     OW12868   5.890   2.072   3.509
 3990SOL    HW112869   5.857   2.142   3.572
 3990SOL    HW212870   5.812   2.026   3.467
 3991SOL     OW12871   6.030   1.730   2.102
 3991SOL    HW112872   6.123   1.725   2.139
 3991SOL    HW212873   5.981   1.645   2.123
 3992SOL     OW12874   3.671   2.542   6.620
 3992SOL    HW112875   3.760   2.576   6.590
 3992SOL    HW212876   3.621   2.504   6.542
 3993SOL     OW12877   0.474   2.469   3.332
 3993SOL    HW112878   0.570   2.450   3.353
 3993SOL    HW212879   0.420   2.386   3.343
 3994SOL     OW12880   0.728   2.659   5.991
 3994SOL    HW112881   0.752   2.681   5.897
 3994SOL    HW212882   0.794   2.701   6.054
 3995SOL     OW12883   2.160   3.782   3.853
 3995SOL    HW112884   2.179   3.726   3.772
 3995SOL    HW212885   2.110   3.727   3.920
 3996SOL     OW12886   0.522   1.148   4.387
 3996SOL    HW112887   0.533   1.111   4.294
 3996SOL    HW212888   0.511   1.073   4.452
 3997SOL     OW12889   4.657   2.708   2.700
 3997SOL    HW112890   4.719   2.659   2.638
 3997SOL    HW212891   4.681   2.805   2.701
 3998SOL     OW12892   4.713   1.111   2.618
 3998SOL    HW112893   4.617   1.098   2.643
 3998SOL    HW212894   4.737   1.046   2.546
 3999SOL     OW12895   5.435   3.364   3.763
 3999SOL    HW112896   5.404   3.273   3.734
 3999SOL    HW212897   5.511   3.393   3.705
 4000SOL     OW12898   3.365   5.038   2.864
 4000SOL    HW112899   3.458   5.003   2.876
 4000SOL    HW212900   3.368   5.138   2.853
 4001SOL     OW12901   1.642   1.763   3.963
 4001SOL    HW112902   1.602   1.817   3.888
 4001SOL    HW212903   1.615   1.667   3.952
 4002SOL     OW12904   2.589   2.929   0.184
 4002SOL    HW112905   2.640   2.923   0.099
 4002SOL    HW212906   2.550   3.021   0.193
 4003SOL     OW12907   2.603   6.608   5.286
 4003SOL    HW112908   2.632   6.528   5.233
 4003SOL    HW212909   2.519   6.586   5.336
 4004SOL     OW12910   6.613   2.095   3.498
 4004SOL    HW112911   6.526   2.048   3.480
 4004SOL    HW212912   6.612   2.131   3.591
 4005SOL     OW12913   5.480   5.268   1.095
 4005SOL    HW112914   5.506   5.171   1.086
 4005SOL    HW212915   5.558   5.325   1.070
 4006SOL     OW12916   4.061   5.193   2.262
 4006SOL    HW112917   4.027   5.219   2.352
 4006SOL    HW212918   4.105   5.103   2.268
 4007SOL     OW12919   0.656   3.142   1.432
 4007SOL    HW112920   0.566   3.150   1.476
 4007SOL    HW212921   0.713   3.221   1.456
 4008SOL     OW12922   3.344   2.119   4.100
 4008SOL    HW112923   3.436   2.159   4.100
 4008SOL    HW212924   3.351   2.022   4.078
 4009SOL     OW12925   5.292   2.693   0.282
 4009SOL    HW112926   5.304   2.644   0.196
 4009SOL    HW212927   5.245   2.634   0.348
 4010SOL     OW12928   1.813   3.689   1.109
 4010SOL    HW112929   1.737   3.632   1.078
 4010SOL    HW212930   1.836   3.666   1.204
 4011SOL     OW12931   1.190   0.837   1.578
 4011SOL    HW112932   1.231   0.851   1.488
 4011SOL    HW212933   1.191   0.740   1.600
 4012SOL     OW12934   4.435   4.981   1.876
 4012SOL    HW112935   4.529   5.013   1.868
 4012SOL    HW212936   4.433   4.882   1.888
 4013SOL     OW12937   2.641   0.587   1.357
 4013SOL    HW112938   2.607   0.494   1.345
 4013SOL    HW212939   2.646   0.632   1.267
 4014SOL     OW12940   4.554   6.256   2.883
 4014SOL    HW112941   4.507   6.189   2.942
 4014SOL    HW212942   4.582   6.335   2.938
 4015SOL     OW12943   4.585   5.761   6.456
 4015SOL    HW112944   4.619   5.669   6.475
 4015SOL    HW212945   4.663   5.824   6.449
 4016SOL     OW12946   1.768   5.939   6.690
 4016SOL    HW112947   1.695   5.883   6.650
 4016SOL    HW212948   1.793   5.902   6.780
 4017SOL     OW12949   0.003   6.690   6.586
 4017SOL    HW112950   0.006   6.754   6.662
 4017SOL    HW212951   6.928   6.677   6.557
 4018SOL     OW12952   5.640   6.628   1.946
 4018SOL    HW112953   5.592   6.545   1.920
 4018SOL    HW212954   5.579   6.689   1.997
 4019SOL     OW12955   5.796   3.824   2.480
 4019SOL    HW112956   5.765   3.842   2.574
 4019SOL    HW212957   5.821   3.728   2.471
 4020SOL     OW12958   6.006   2.286   5.403
 4020SOL    HW112959   5.985   2.309   5.498
 4020SOL    HW212960   5.959   2.350   5.342
 4021SOL     OW12961   3.085   3.288   5.416
 4021SOL    HW112962   3.021   3.229   5.365
 4021SOL    HW212963   3.178   3.255   5.403
 4022SOL     OW12964   4.163   0.474   6.895
 4022SOL    HW112965   4.106   0.418   6.954
 4022SOL    HW212966   4.106   0.533   6.838
 4023SOL     OW12967   6.662   1.656   4.579
 4023SOL    HW112968   6.682   1.559   4.564
 4023SOL    HW212969   6.710   1.711   4.511
 4024SOL     OW12970   2.669   5.170   4.378
 4024SOL    HW112971   2.655   5.100   4.308
 4024SOL    HW212972   2.721   5.131   4.454
 4025SOL     OW12973   1.055   6.373   4.492
 4025SOL    HW112974   1.114   6.431   4.436
 4025SOL    HW212975   1.089   6.279   4.490
 4026SOL     OW12976   6.292   6.219   4.042
 4026SOL    HW112977   6.308   6.257   4.133
 4026SOL    HW212978   6.234   6.282   3.990
 4027SOL     OW12979   3.114   3.764   2.083
 4027SOL    HW112980   3.097   3.858   2.113
 4027SOL    HW212981   3.091   3.701   2.158
 4028SOL     OW12982   2.004   2.384   3.368
 4028SOL    HW112983   2.063   2.409   3.445
 4028SOL    HW212984   1.919   2.435   3.373
 4029SOL     OW12985   2.734   4.245   6.190
 4029SOL    HW112986   2.643   4.221   6.223
 4029SOL    HW212987   2.774   4.315   6.249
 4030SOL     OW12988   1.555   1.765   6.767
 4030SOL    HW112989   1.520   1.683   6.812
 4030SOL    HW212990   1.560   1.840   6.832
 4031SOL     OW12991   4.726   6.102   3.250
 4031SOL    HW112992   4.654   6.156   3.294
 4031SOL    HW212993   4.777   6.051   3.320
 4032SOL     OW12994   6.271   0.180   3.163
 4032SOL    HW112995   6.371   0.176   3.160
 4032SOL    HW212996   6.238   0.246   3.096
 4033SOL     OW12997   2.930   3.250   2.760
 4033SOL    HW112998   2.835   3.234   2.731
 4033SOL    HW212999   2.931   3.275   2.857
 4034SOL     OW13000   6.392   1.642   5.065
 4034SOL    HW113001   6.418   1.715   5.001
 4034SOL    HW213002   6.326   1.678   5.131
 4035SOL     OW13003   0.423   2.668   0.754
 4035SOL    HW113004   0.472   2.694   0.837
 4035SOL    HW213005   0.325   2.673   0.770
 4036SOL     OW13006   4.918   6.888   2.577
 4036SOL    HW113007   4.830   6.855   2.609
 4036SOL    HW213008   4.964   6.938   2.650
 4037SOL     OW13009   1.863   2.423   0.261
 4037SOL    HW113010   1.809   2.506   0.248
 4037SOL    HW213011   1.870   2.374   0.173
 4038SOL     OW13012   4.636   4.516   1.921
 4038SOL    HW113013   4.720   4.535   1.972
 4038SOL    HW213014   4.603   4.425   1.943
 4039SOL     OW13015   4.628   4.792   1.635
 4039SOL    HW113016   4.533   4.768   1.655
 4039SOL    HW213017   4.650   4.880   1.677
 4040SOL     OW13018   3.412   0.086   6.097
 4040SOL    HW113019   3.338   0.058   6.158
 4040SOL    HW213020   3.374   0.112   6.008
 4041SOL     OW13021   2.475   5.698   1.153
 4041SOL    HW113022   2.525   5.687   1.238
 4041SOL    HW213023   2.536   5.733   1.082
 4042SOL     OW13024   6.429   5.043   2.959
 4042SOL    HW113025   6.397   5.091   2.877
 4042SOL    HW213026   6.528   5.056   2.968
 4043SOL     OW13027   5.267   2.440   4.079
 4043SOL    HW113028   5.285   2.377   4.154
 4043SOL    HW213029   5.312   2.407   3.996
 4044SOL     OW13030   5.090   0.435   4.196
 4044SOL    HW113031   5.159   0.498   4.231
 4044SOL    HW213032   5.116   0.404   4.104
 4045SOL     OW13033   3.179   4.579   6.180
 4045SOL    HW113034   3.082   4.561   6.189
 4045SOL    HW213035   3.204   4.584   6.083
 4046SOL     OW13036   0.830   1.316   3.785
 4046SOL    HW113037   0.782   1.403   3.790
 4046SOL    HW213038   0.842   1.289   3.689
 4047SOL     OW13039   2.489   2.834   0.874
 4047SOL    HW113040   2.428   2.806   0.800
 4047SOL    HW213041   2.440   2.830   0.961
 4048SOL     OW13042   5.252   1.510   2.058
 4048SOL    HW113043   5.165   1.489   2.013
 4048SOL    HW213044   5.235   1.563   2.141
 4049SOL     OW13045   6.421   6.094   0.136
 4049SOL    HW113046   6.399   6.103   0.038
 4049SOL    HW213047   6.389   6.176   0.184
 4050SOL     OW13048   2.434   6.558   0.627
 4050SOL    HW113049   2.470   6.649   0.608
 4050SOL    HW213050   2.403   6.553   0.722
 4051SOL     OW13051   3.633   3.080   0.198
 4051SOL    HW113052   3.575   3.034   0.265
 4051SOL    HW213053   3.581   3.149   0.149
 4052SOL     OW13054   0.267   0.621   1.755
 4052SOL    HW113055   0.341   0.688   1.750
 4052SOL    HW213056   0.194   0.656   1.813
 4053SOL     OW13057   3.235   5.278   3.849
 4053SOL    HW113058   3.227   5.254   3.946
 4053SOL    HW213059   3.161   5.339   3.823
 4054SOL     OW13060   1.076   2.922   1.478
 4054SOL    HW113061   1.172   2.941   1.456
 4054SOL    HW213062   1.045   2.844   1.425
 4055SOL     OW13063   3.798   3.418   5.638
 4055SOL    HW113064   3.707   3.403   5.599
 4055SOL    HW213065   3.856   3.464   5.570
 4056SOL     OW13066   4.479   2.894   0.338
 4056SOL    HW113067   4.437   2.854   0.419
 4056SOL    HW213068   4.450   2.842   0.257
 4057SOL     OW13069   5.326   2.428   0.595
 4057SOL    HW113070   5.371   2.440   0.684
 4057SOL    HW213071   5.324   2.516   0.547
 4058SOL     OW13072   1.429   1.271   4.506
 4058SOL    HW113073   1.361   1.320   4.560
 4058SOL    HW213074   1.400   1.177   4.492
 4059SOL     OW13075   1.544   2.433   3.401
 4059SOL    HW113076   1.632   2.467   3.369
 4059SOL    HW213077   1.480   2.429   3.324
 4060SOL     OW13078   4.559   5.447   5.544
 4060SOL    HW113079   4.496   5.398   5.605
 4060SOL    HW213080   4.512   5.471   5.459
 4061SOL     OW13081   3.388   4.930   1.885
 4061SOL    HW113082   3.406   5.013   1.832
 4061SOL    HW213083   3.473   4.881   1.902
 4062SOL     OW13084   3.223   1.162   3.047
 4062SOL    HW113085   3.240   1.191   2.952
 4062SOL    HW213086   3.310   1.134   3.089
 4063SOL     OW13087   5.181   0.221   5.387
 4063SOL    HW113088   5.250   0.167   5.437
 4063SOL    HW213089   5.100   0.231   5.444
 4064SOL     OW13090   1.622   6.516   3.514
 4064SOL    HW113091   1.700   6.579   3.509
 4064SOL    HW213092   1.545   6.561   3.558
 4065SOL     OW13093   1.192   6.642   0.131
 4065SOL    HW113094   1.098   6.658   0.160
 4065SOL    HW213095   1.222   6.552   0.164
 4066SOL     OW13096   4.875   5.330   2.941
 4066SOL    HW113097   4.961   5.359   2.983
 4066SOL    HW213098   4.892   5.297   2.848
 4067SOL     OW13099   6.302   3.361   2.388
 4067SOL    HW113100   6.237   3.437   2.377
 4067SOL    HW213101   6.335   3.333   2.298
 4068SOL     OW13102   3.796   0.403   4.386
 4068SOL    HW113103   3.841   0.423   4.299
 4068SOL    HW213104   3.851   0.338   4.437
 4069SOL     OW13105   3.989   3.884   6.452
 4069SOL    HW113106   4.017   3.898   6.357
 4069SOL    HW213107   3.988   3.973   6.499
 4070SOL     OW13108   1.006   3.325   2.998
 4070SOL    HW113109   0.981   3.303   3.092
 4070SOL    HW213110   1.020   3.240   2.947
 4071SOL     OW13111   1.395   0.755   5.043
 4071SOL    HW113112   1.466   0.814   5.082
 4071SOL    HW213113   1.436   0.668   5.014
 4072SOL     OW13114   0.462   6.137   4.355
 4072SOL    HW113115   0.546   6.189   4.366
 4072SOL    HW213116   0.480   6.041   4.374
 4073SOL     OW13117   2.097   5.392   5.840
 4073SOL    HW113118   2.122   5.443   5.757
 4073SOL    HW213119   2.106   5.294   5.822
 4074SOL     OW13120   1.145   2.282   2.079
 4074SOL    HW113121   1.184   2.203   2.127
 4074SOL    HW213122   1.073   2.251   2.017
 4075SOL     OW13123   4.372   2.262   2.500
 4075SOL    HW113124   4.412   2.353   2.509
 4075SOL    HW213125   4.410   2.202   2.571
 4076SOL     OW13126   2.221   3.294   6.028
 4076SOL    HW113127   2.318   3.274   6.011
 4076SOL    HW213128   2.198   3.384   5.991
 4077SOL     OW13129   3.146   6.533   6.856
 4077SOL    HW113130   3.202   6.523   6.773
 4077SOL    HW213131   3.051   6.551   6.830
 4078SOL     OW13132   6.756   5.512   1.723
 4078SOL    HW113133   6.685   5.543   1.786
 4078SOL    HW213134   6.808   5.591   1.690
 4079SOL     OW13135   0.728   1.519   3.485
 4079SOL    HW113136   0.683   1.463   3.415
 4079SOL    HW213137   0.810   1.561   3.447
 4080SOL     OW13138   2.864   3.436   0.923
 4080SOL    HW113139   2.790   3.424   0.858
 4080SOL    HW213140   2.913   3.350   0.935
 4081SOL     OW13141   1.437   1.511   4.087
 4081SOL    HW113142   1.510   1.462   4.136
 4081SOL    HW213143   1.406   1.588   4.143
 4082SOL     OW13144   1.399   1.938   0.863
 4082SOL    HW113145   1.341   1.972   0.937
 4082SOL    HW213146   1.486   1.987   0.864
 4083SOL     OW13147   5.941   4.150   3.453
 4083SOL    HW113148   5.939   4.211   3.374
 4083SOL    HW213149   5.874   4.076   3.440
 4084SOL     OW13150   4.992   2.771   3.130
 4084SOL    HW113151   5.070   2.829   3.106
 4084SOL    HW213152   5.025   2.687   3.173
 4085SOL     OW13153   2.870   5.341   0.571
 4085SOL    HW113154   2.776   5.368   0.554
 4085SOL    HW213155   2.909   5.299   0.489
 4086SOL     OW13156   6.824   4.965   0.992
 4086SOL    HW113157   6.774   4.978   0.906
 4086SOL    HW213158   6.923   4.967   0.973
 4087SOL     OW13159   2.358   1.125   3.054
 4087SOL    HW113160   2.355   1.103   2.956
 4087SOL    HW213161   2.359   1.225   3.065
 4088SOL     OW13162   6.702   1.470   6.029
 4088SOL    HW113163   6.707   1.540   5.959
 4088SOL    HW213164   6.656   1.389   5.993
 4089SOL     OW13165   6.403   5.472   4.852
 4089SOL    HW113166   6.439   5.423   4.931
 4089SOL    HW213167   6.476   5.483   4.784
 4090SOL     OW13168   2.092   5.523   5.615
 4090SOL    HW113169   2.027   5.478   5.555
 4090SOL    HW213170   2.142   5.593   5.564
 4091SOL     OW13171   0.471   5.975   6.927
 4091SOL    HW113172   0.427   5.886   6.936
 4091SOL    HW213173   0.407   6.041   6.888
 4092SOL     OW13174   6.014   2.528   3.830
 4092SOL    HW113175   5.942   2.568   3.773
 4092SOL    HW213176   5.986   2.530   3.926
 4093SOL     OW13177   5.377   6.543   1.178
 4093SOL    HW113178   5.306   6.566   1.112
 4093SOL    HW213179   5.451   6.609   1.173
 4094SOL     OW13180   1.043   5.159   6.493
 4094SOL    HW113181   0.984   5.108   6.431
 4094SOL    HW213182   0.992   5.185   6.574
 4095SOL     OW13183   0.653   3.628   0.335
 4095SOL    HW113184   0.607   3.542   0.313
 4095SOL    HW213185   0.626   3.659   0.427
 4096SOL     OW13186   3.202   0.724   6.249
 4096SOL    HW113187   3.214   0.704   6.152
 4096SOL    HW213188   3.265   0.668   6.303
 4097SOL     OW13189   5.237   4.997   5.893
 4097SOL    HW113190   5.208   4.930   5.824
 4097SOL    HW213191   5.290   4.951   5.964
 4098SOL     OW13192   0.895   3.540   1.044
 4098SOL    HW113193   0.924   3.507   0.954
 4098SOL    HW213194   0.975   3.571   1.096
 4099SOL     OW13195   3.288   4.797   1.002
 4099SOL    HW113196   3.287   4.753   0.913
 4099SOL    HW213197   3.307   4.895   0.992
 4100SOL     OW13198   1.068   6.976   4.352
 4100SOL    HW113199   1.060   6.891   4.299
 4100SOL    HW213200   1.014   0.027   4.309
 4101SOL     OW13201   0.765   1.352   6.975
 4101SOL    HW113202   0.774   1.254   6.994
 4101SOL    HW213203   0.793   1.403   0.036
 4102SOL     OW13204   1.764   0.581   0.739
 4102SOL    HW113205   1.853   0.589   0.693
 4102SOL    HW213206   1.694   0.628   0.686
 4103SOL     OW13207   0.163   6.935   2.055
 4103SOL    HW113208   0.238   6.963   1.995
 4103SOL    HW213209   0.089   6.897   2.000
 4104SOL     OW13210   0.067   5.119   3.661
 4104SOL    HW113211   0.124   5.045   3.697
 4104SOL    HW213212   0.120   5.176   3.599
 4105SOL     OW13213   5.965   0.639   2.368
 4105SOL    HW113214   6.020   0.604   2.292
 4105SOL    HW213215   5.948   0.565   2.433
 4106SOL     OW13216   0.844   2.714   3.404
 4106SOL    HW113217   0.816   2.618   3.397
 4106SOL    HW213218   0.915   2.733   3.336
 4107SOL     OW13219   0.879   6.111   0.675
 4107SOL    HW113220   0.960   6.086   0.729
 4107SOL    HW213221   0.822   6.173   0.729
 4108SOL     OW13222   6.412   4.788   4.840
 4108SOL    HW113223   6.387   4.822   4.750
 4108SOL    HW213224   6.332   4.749   4.885
 4109SOL     OW13225   5.729   0.013   4.706
 4109SOL    HW113226   5.799   0.085   4.708
 4109SOL    HW213227   5.639   0.054   4.692
 4110SOL     OW13228   3.797   3.088   6.276
 4110SOL    HW113229   3.794   3.185   6.254
 4110SOL    HW213230   3.804   3.035   6.191
 4111SOL     OW13231   6.039   4.850   6.297
 4111SOL    HW113232   5.994   4.854   6.207
 4111SOL    HW213233   6.137   4.840   6.284
 4112SOL     OW13234   4.733   6.360   4.166
 4112SOL    HW113235   4.828   6.343   4.142
 4112SOL    HW213236   4.718   6.335   4.262
 4113SOL     OW13237   4.823   5.982   5.129
 4113SOL    HW113238   4.893   5.994   5.199
 4113SOL    HW213239   4.763   6.062   5.128
 4114SOL     OW13240   6.359   1.579   3.129
 4114SOL    HW113241   6.312   1.492   3.144
 4114SOL    HW213242   6.366   1.597   3.031
 4115SOL     OW13243   3.026   5.167   2.914
 4115SOL    HW113244   3.035   5.069   2.897
 4115SOL    HW213245   3.082   5.193   2.993
 4116SOL     OW13246   4.462   2.026   3.342
 4116SOL    HW113247   4.522   1.963   3.292
 4116SOL    HW213248   4.479   2.120   3.312
 4117SOL     OW13249   0.798   3.104   2.972
 4117SOL    HW113250   0.786   3.108   2.873
 4117SOL    HW213251   0.712   3.129   3.017
 4118SOL     OW13252   5.384   6.564   0.080
 4118SOL    HW113253   5.370   6.574   7.001
 4118SOL    HW213254   5.431   6.645   0.115
 4119SOL     OW13255   3.314   1.530   3.605
 4119SOL    HW113256   3.412   1.524   3.587
 4119SOL    HW213257   3.268   1.567   3.524
 4120SOL     OW13258   3.076   1.228   5.912
 4120SOL    HW113259   3.119   1.159   5.969
 4120SOL    HW213260   2.977   1.212   5.908
 4121SOL     OW13261   6.476   0.412   3.808
 4121SOL    HW113262   6.467   0.497   3.859
 4121SOL    HW213263   6.386   0.380   3.779
 4122SOL     OW13264   1.752   6.216   4.750
 4122SOL    HW113265   1.798   6.201   4.837
 4122SOL    HW213266   1.820   6.224   4.676
 4123SOL     OW13267   4.219   4.841   5.123
 4123SOL    HW113268   4.264   4.896   5.052
 4123SOL    HW213269   4.122   4.831   5.101
 4124SOL     OW13270   6.731   6.943   0.606
 4124SOL    HW113271   6.652   6.932   0.666
 4124SOL    HW213272   6.797   6.870   0.624
 4125SOL     OW13273   4.179   2.260   3.048
 4125SOL    HW113274   4.089   2.246   3.006
 4125SOL    HW213275   4.250   2.248   2.979
 4126SOL     OW13276   1.788   3.561   3.246
 4126SOL    HW113277   1.737   3.570   3.331
 4126SOL    HW213278   1.727   3.576   3.168
 4127SOL     OW13279   5.293   3.190   5.337
 4127SOL    HW113280   5.282   3.263   5.405
 4127SOL    HW213281   5.271   3.102   5.379
 4128SOL     OW13282   0.545   3.758   1.631
 4128SOL    HW113283   0.474   3.777   1.562
 4128SOL    HW213284   0.524   3.809   1.715
 4129SOL     OW13285   3.205   1.077   0.016
 4129SOL    HW113286   3.238   1.166   7.008
 4129SOL    HW213287   3.133   1.046   6.973
 4130SOL     OW13288   6.167   2.082   0.258
 4130SOL    HW113289   6.101   2.008   0.274
 4130SOL    HW213290   6.141   2.161   0.313
 4131SOL     OW13291   0.187   1.537   3.048
 4131SOL    HW113292   0.166   1.634   3.040
 4131SOL    HW213293   0.249   1.523   3.126
 4132SOL     OW13294   5.235   3.615   4.157
 4132SOL    HW113295   5.228   3.621   4.058
 4132SOL    HW213296   5.148   3.583   4.195
 4133SOL     OW13297   3.758   6.078   1.391
 4133SOL    HW113298   3.679   6.062   1.332
 4133SOL    HW213299   3.774   5.999   1.449
 4134SOL     OW13300   1.955   3.801   0.891
 4134SOL    HW113301   2.052   3.804   0.915
 4134SOL    HW213302   1.904   3.755   0.964
 4135SOL     OW13303   0.331   2.887   1.532
 4135SOL    HW113304   0.310   2.853   1.623
 4135SOL    HW213305   0.430   2.886   1.518
 4136SOL     OW13306   1.502   3.986   3.197
 4136SOL    HW113307   1.568   3.940   3.256
 4136SOL    HW213308   1.476   4.073   3.238
 4137SOL     OW13309   1.751   3.592   0.769
 4137SOL    HW113310   1.782   3.634   0.684
 4137SOL    HW213311   1.825   3.536   0.807
 4138SOL     OW13312   3.815   5.279   2.837
 4138SOL    HW113313   3.827   5.208   2.906
 4138SOL    HW213314   3.812   5.237   2.746
 4139SOL     OW13315   1.655   1.271   4.644
 4139SOL    HW113316   1.578   1.310   4.593
 4139SOL    HW213317   1.658   1.311   4.735
 4140SOL     OW13318   3.564   1.202   4.648
 4140SOL    HW113319   3.501   1.253   4.589
 4140SOL    HW213320   3.557   1.236   4.742
 4141SOL     OW13321   5.405   6.873   1.226
 4141SOL    HW113322   5.494   6.831   1.210
 4141SOL    HW213323   5.370   6.913   1.141
 4142SOL     OW13324   6.433   4.135   1.130
 4142SOL    HW113325   6.399   4.073   1.200
 4142SOL    HW213326   6.358   4.164   1.071
 4143SOL     OW13327   6.016   2.944   0.350
 4143SOL    HW113328   6.022   3.039   0.381
 4143SOL    HW213329   5.958   2.892   0.414
 4144SOL     OW13330   4.956   1.880   0.143
 4144SOL    HW113331   4.940   1.784   0.167
 4144SOL    HW213332   4.993   1.886   0.051
 4145SOL     OW13333   0.830   6.201   1.262
 4145SOL    HW113334   0.914   6.233   1.218
 4145SOL    HW213335   0.754   6.259   1.234
 4146SOL     OW13336   6.630   0.584   3.579
 4146SOL    HW113337   6.537   0.611   3.601
 4146SOL    HW213338   6.650   0.609   3.484
 4147SOL     OW13339   4.197   4.672   5.871
 4147SOL    HW113340   4.207   4.626   5.960
 4147SOL    HW213341   4.253   4.626   5.803
 4148SOL     OW13342   2.491   7.007   5.334
 4148SOL    HW113343   2.540   7.009   5.421
 4148SOL    HW213344   2.556   0.000   5.259
 4149SOL     OW13345   0.380   4.605   1.144
 4149SOL    HW113346   0.333   4.682   1.101
 4149SOL    HW213347   0.411   4.631   1.236
 4150SOL     OW13348   0.590   0.556   5.122
 4150SOL    HW113349   0.667   0.598   5.169
 4150SOL    HW213350   0.569   0.468   5.165
 4151SOL     OW13351   2.968   5.931   6.113
 4151SOL    HW113352   3.039   6.001   6.103
 4151SOL    HW213353   2.987   5.877   6.196
 4152SOL     OW13354   4.111   5.754   0.786
 4152SOL    HW113355   4.135   5.689   0.714
 4152SOL    HW213356   4.140   5.717   0.875
 4153SOL     OW13357   5.856   5.521   1.719
 4153SOL    HW113358   5.769   5.471   1.717
 4153SOL    HW213359   5.851   5.597   1.654
 4154SOL     OW13360   6.722   5.795   4.327
 4154SOL    HW113361   6.744   5.703   4.295
 4154SOL    HW213362   6.652   5.790   4.398
 4155SOL     OW13363   0.187   0.770   1.160
 4155SOL    HW113364   0.137   0.823   1.229
 4155SOL    HW213365   0.130   0.757   1.079
 4156SOL     OW13366   5.829   5.128   5.378
 4156SOL    HW113367   5.869   5.127   5.470
 4156SOL    HW213368   5.773   5.209   5.367
 4157SOL     OW13369   5.192   6.161   3.703
 4157SOL    HW113370   5.146   6.097   3.643
 4157SOL    HW213371   5.241   6.229   3.648
 4158SOL     OW13372   0.525   2.991   2.443
 4158SOL    HW113373   0.519   3.070   2.504
 4158SOL    HW213374   0.476   2.914   2.483
 4159SOL     OW13375   1.627   3.189   3.148
 4159SOL    HW113376   1.558   3.157   3.213
 4159SOL    HW213377   1.718   3.160   3.178
 4160SOL     OW13378   5.485   0.019   0.052
 4160SOL    HW113379   5.448   6.946   0.055
 4160SOL    HW213380   5.571   0.022   0.104
 4161SOL     OW13381   1.382   2.293   1.151
 4161SOL    HW113382   1.324   2.347   1.090
 4161SOL    HW213383   1.388   2.338   1.239
 4162SOL     OW13384   6.067   5.993   0.889
 4162SOL    HW113385   6.160   5.972   0.858
 4162SOL    HW213386   6.002   5.971   0.817
 4163SOL     OW13387   5.460   0.717   3.510
 4163SOL    HW113388   5.556   0.702   3.534
 4163SOL    HW213389   5.404   0.644   3.550
 4164SOL     OW13390   1.415   6.967   4.805
 4164SOL    HW113391   1.486   6.906   4.769
 4164SOL    HW213392   1.340   6.973   4.739
 4165SOL     OW13393   4.181   0.749   5.193
 4165SOL    HW113394   4.272   0.720   5.165
 4165SOL    HW213395   4.114   0.678   5.171
 4166SOL     OW13396   5.267   1.175   1.078
 4166SOL    HW113397   5.203   1.108   1.116
 4166SOL    HW213398   5.310   1.137   0.996
 4167SOL     OW13399   2.956   4.123   6.618
 4167SOL    HW113400   2.940   4.091   6.712
 4167SOL    HW213401   3.051   4.155   6.610
 4168SOL     OW13402   0.331   4.213   0.953
 4168SOL    HW113403   0.256   4.201   1.017
 4168SOL    HW213404   0.401   4.272   0.993
 4169SOL     OW13405   6.313   5.217   4.687
 4169SOL    HW113406   6.230   5.247   4.639
 4169SOL    HW213407   6.343   5.290   4.749
 4170SOL     OW13408   5.027   3.366   5.695
 4170SOL    HW113409   4.933   3.388   5.670
 4170SOL    HW213410   5.075   3.449   5.722
 4171SOL     OW13411   6.340   5.506   0.698
 4171SOL    HW113412   6.396   5.426   0.717
 4171SOL    HW213413   6.381   5.560   0.625
 4172SOL     OW13414   1.870   1.851   6.753
 4172SOL    HW113415   1.830   1.778   6.697
 4172SOL    HW213416   1.807   1.874   6.827
 4173SOL     OW13417   5.244   4.026   4.616
 4173SOL    HW113418   5.277   4.112   4.655
 4173SOL    HW213419   5.227   3.960   4.689
 4174SOL     OW13420   4.776   1.527   2.456
 4174SOL    HW113421   4.853   1.471   2.487
 4174SOL    HW213422   4.691   1.495   2.499
 4175SOL     OW13423   1.930   4.895   3.971
 4175SOL    HW113424   1.884   4.965   3.917
 4175SOL    HW213425   1.864   4.850   4.031
 4176SOL     OW13426   3.982   6.689   1.613
 4176SOL    HW113427   4.023   6.753   1.549
 4176SOL    HW213428   3.919   6.738   1.674
 4177SOL     OW13429   5.700   4.730   5.613
 4177SOL    HW113430   5.656   4.715   5.524
 4177SOL    HW213431   5.796   4.702   5.607
 4178SOL     OW13432   4.256   6.814   4.030
 4178SOL    HW113433   4.239   6.716   4.038
 4178SOL    HW213434   4.354   6.830   4.014
 4179SOL     OW13435   5.410   3.759   3.100
 4179SOL    HW113436   5.437   3.666   3.126
 4179SOL    HW213437   5.490   3.810   3.068
 4180SOL     OW13438   4.491   2.866   0.729
 4180SOL    HW113439   4.437   2.806   0.671
 4180SOL    HW213440   4.520   2.946   0.677
 4181SOL     OW13441   4.047   0.954   6.717
 4181SOL    HW113442   4.134   0.943   6.669
 4181SOL    HW213443   3.972   0.959   6.650
 4182SOL     OW13444   0.008   5.765   3.305
 4182SOL    HW113445   0.097   5.728   3.332
 4182SOL    HW213446   6.969   5.773   3.385
 4183SOL     OW13447   2.348   1.721   6.846
 4183SOL    HW113448   2.333   1.625   6.822
 4183SOL    HW213449   2.263   1.772   6.835
 4184SOL     OW13450   3.097   6.477   2.720
 4184SOL    HW113451   3.137   6.388   2.744
 4184SOL    HW213452   3.104   6.538   2.799
 4185SOL     OW13453   1.150   4.492   2.711
 4185SOL    HW113454   1.213   4.499   2.634
 4185SOL    HW213455   1.191   4.433   2.781
 4186SOL     OW13456   2.585   5.165   6.308
 4186SOL    HW113457   2.617   5.103   6.380
 4186SOL    HW213458   2.551   5.112   6.231
 4187SOL     OW13459   3.527   3.354   5.590
 4187SOL    HW113460   3.529   3.403   5.677
 4187SOL    HW213461   3.463   3.399   5.527
 4188SOL     OW13462   4.947   0.762   5.081
 4188SOL    HW113463   4.975   0.673   5.046
 4188SOL    HW213464   4.857   0.785   5.045
 4189SOL     OW13465   2.863   5.043   4.535
 4189SOL    HW113466   2.854   5.050   4.634
 4189SOL    HW213467   2.862   4.947   4.508
 4190SOL     OW13468   0.825   0.860   0.880
 4190SOL    HW113469   0.841   0.766   0.850
 4190SOL    HW213470   0.770   0.908   0.812
 4191SOL     OW13471   4.657   4.657   3.541
 4191SOL    HW113472   4.719   4.671   3.464
 4191SOL    HW213473   4.705   4.610   3.615
 4192SOL     OW13474   0.646   1.903   3.393
 4192SOL    HW113475   0.727   1.907   3.335
 4192SOL    HW213476   0.625   1.994   3.427
 4193SOL     OW13477   6.803   0.500   0.774
 4193SOL    HW113478   6.771   0.407   0.794
 4193SOL    HW213479   6.903   0.501   0.770
 4194SOL     OW13480   4.999   0.283   4.702
 4194SOL    HW113481   5.083   0.334   4.722
 4194SOL    HW213482   4.963   0.312   4.613
 4195SOL     OW13483   3.993   6.223   0.953
 4195SOL    HW113484   4.075   6.229   0.896
 4195SOL    HW213485   3.984   6.307   1.007
 4196SOL     OW13486   6.125   2.672   2.779
 4196SOL    HW113487   6.062   2.612   2.827
 4196SOL    HW213488   6.097   2.681   2.683
 4197SOL     OW13489   5.110   5.818   6.041
 4197SOL    HW113490   5.039   5.880   6.008
 4197SOL    HW213491   5.159   5.860   6.117
 4198SOL     OW13492   6.437   1.999   0.330
 4198SOL    HW113493   6.349   2.037   0.301
 4198SOL    HW213494   6.423   1.909   0.371
 4199SOL     OW13495   1.915   2.203   5.979
 4199SOL    HW113496   1.860   2.227   5.899
 4199SOL    HW213497   1.922   2.282   6.040
 4200SOL     OW13498   2.989   0.318   6.317
 4200SOL    HW113499   2.916   0.352   6.258
 4200SOL    HW213500   3.030   0.236   6.275
 4201SOL     OW13501   6.201   6.535   3.561
 4201SOL    HW113502   6.257   6.458   3.589
 4201SOL    HW213503   6.253   6.620   3.572
 4202SOL     OW13504   3.771   5.547   5.878
 4202SOL    HW113505   3.692   5.585   5.925
 4202SOL    HW213506   3.848   5.542   5.941
 4203SOL     OW13507   3.632   4.025   6.951
 4203SOL    HW113508   3.653   4.103   7.010
 4203SOL    HW213509   3.620   4.057   6.857
 4204SOL     OW13510   4.067   3.641   3.624
 4204SOL    HW113511   4.110   3.562   3.578
 4204SOL    HW213512   4.037   3.707   3.555
 4205SOL     OW13513   4.300   6.141   3.653
 4205SOL    HW113514   4.318   6.239   3.643
 4205SOL    HW213515   4.286   6.119   3.749
 4206SOL     OW13516   6.445   0.677   5.490
 4206SOL    HW113517   6.476   0.594   5.443
 4206SOL    HW213518   6.482   0.677   5.583
 4207SOL     OW13519   1.959   1.747   1.617
 4207SOL    HW113520   2.041   1.795   1.649
 4207SOL    HW213521   1.892   1.814   1.585
 4208SOL     OW13522   0.004   3.726   5.342
 4208SOL    HW113523   6.999   3.761   5.252
 4208SOL    HW213524   0.000   3.800   5.409
 4209SOL     OW13525   0.021   0.292   3.609
 4209SOL    HW113526   0.019   0.208   3.556
 4209SOL    HW213527   6.961   0.295   3.670
 4210SOL     OW13528   4.151   3.338   2.034
 4210SOL    HW113529   4.127   3.432   2.061
 4210SOL    HW213530   4.152   3.331   1.935
 4211SOL     OW13531   4.155   0.047   6.352
 4211SOL    HW113532   4.167   6.995   6.421
 4211SOL    HW213533   4.116   0.006   6.269
 4212SOL     OW13534   6.421   1.691   2.594
 4212SOL    HW113535   6.347   1.701   2.527
 4212SOL    HW213536   6.501   1.743   2.564
 4213SOL     OW13537   2.335   0.438   1.810
 4213SOL    HW113538   2.272   0.414   1.736
 4213SOL    HW213539   2.283   0.468   1.890
 4214SOL     OW13540   0.940   5.222   5.148
 4214SOL    HW113541   0.855   5.171   5.131
 4214SOL    HW213542   0.930   5.315   5.112
 4215SOL     OW13543   4.737   0.286   5.926
 4215SOL    HW113544   4.769   0.375   5.895
 4215SOL    HW213545   4.752   0.278   6.025
 4216SOL     OW13546   1.489   1.032   2.891
 4216SOL    HW113547   1.572   1.063   2.846
 4216SOL    HW213548   1.511   0.958   2.955
 4217SOL     OW13549   1.366   0.621   2.124
 4217SOL    HW113550   1.294   0.677   2.165
 4217SOL    HW213551   1.369   0.636   2.026
 4218SOL     OW13552   4.172   1.066   2.004
 4218SOL    HW113553   4.247   1.081   1.939
 4218SOL    HW213554   4.090   1.037   1.954
 4219SOL     OW13555   3.784   5.973   3.839
 4219SOL    HW113556   3.782   6.018   3.928
 4219SOL    HW213557   3.706   5.912   3.830
 4220SOL     OW13558   6.490   3.595   3.367
 4220SOL    HW113559   6.417   3.585   3.435
 4220SOL    HW213560   6.526   3.505   3.343
 4221SOL     OW13561   5.965   5.294   6.152
 4221SOL    HW113562   5.999   5.319   6.061
 4221SOL    HW213563   5.921   5.204   6.147
 4222SOL     OW13564   0.108   1.820   2.002
 4222SOL    HW113565   0.101   1.722   2.022
 4222SOL    HW213566   0.204   1.848   2.007
 4223SOL     OW13567   3.390   3.087   6.704
 4223SOL    HW113568   3.415   3.181   6.680
 4223SOL    HW213569   3.468   3.042   6.747
 4224SOL     OW13570   4.619   4.421   4.038
 4224SOL    HW113571   4.695   4.484   4.055
 4224SOL    HW213572   4.563   4.456   3.963
 4225SOL     OW13573   2.945   2.137   5.768
 4225SOL    HW113574   2.920   2.130   5.671
 4225SOL    HW213575   3.031   2.188   5.776
 4226SOL     OW13576   1.514   0.552   2.365
 4226SOL    HW113577   1.474   0.576   2.276
 4226SOL    HW213578   1.613   0.567   2.363
 4227SOL     OW13579   3.841   5.008   1.373
 4227SOL    HW113580   3.744   4.999   1.351
 4227SOL    HW213581   3.872   4.925   1.420
 4228SOL     OW13582   0.936   4.959   4.922
 4228SOL    HW113583   0.997   5.036   4.939
 4228SOL    HW213584   0.914   4.914   5.008
 4229SOL     OW13585   5.248   6.322   5.884
 4229SOL    HW113586   5.208   6.363   5.802
 4229SOL    HW213587   5.176   6.280   5.939
 4230SOL     OW13588   0.814   6.114   2.515
 4230SOL    HW113589   0.873   6.036   2.495
 4230SOL    HW213590   0.721   6.094   2.485
 4231SOL     OW13591   5.916   0.031   5.554
 4231SOL    HW113592   5.987   6.995   5.511
 4231SOL    HW213593   5.956   0.082   5.630
 4232SOL     OW13594   0.082   4.713   3.262
 4232SOL    HW113595   0.027   4.776   3.317
 4232SOL    HW213596   0.113   4.759   3.179
 4233SOL     OW13597   7.000   0.157   5.948
 4233SOL    HW113598   0.026   0.159   5.859
 4233SOL    HW213599   6.942   0.075   5.954
 4234SOL     OW13600   2.400   6.528   4.742
 4234SOL    HW113601   2.305   6.498   4.752
 4234SOL    HW213602   2.445   6.471   4.673
 4235SOL     OW13603   5.413   4.042   5.738
 4235SOL    HW113604   5.426   3.982   5.659
 4235SOL    HW213605   5.494   4.038   5.797
 4236SOL     OW13606   6.767   3.649   2.293
 4236SOL    HW113607   6.811   3.560   2.302
 4236SOL    HW213608   6.823   3.719   2.338
 4237SOL     OW13609   5.425   6.028   2.964
 4237SOL    HW113610   5.325   6.031   2.957
 4237SOL    HW213611   5.450   5.987   3.052
 4238SOL     OW13612   2.802   5.966   2.549
 4238SOL    HW113613   2.709   5.995   2.569
 4238SOL    HW213614   2.860   6.046   2.535
 4239SOL     OW13615   6.174   2.014   2.559
 4239SOL    HW113616   6.135   2.090   2.506
 4239SOL    HW213617   6.258   2.045   2.603
 4240SOL     OW13618   2.515   5.741   0.350
 4240SOL    HW113619   2.557   5.823   0.312
 4240SOL    HW213620   2.430   5.766   0.397
 4241SOL     OW13621   6.091   0.980   0.361
 4241SOL    HW113622   6.106   1.078   0.352
 4241SOL    HW213623   6.004   0.963   0.407
 4242SOL     OW13624   3.104   1.619   4.050
 4242SOL    HW113625   3.096   1.665   3.961
 4242SOL    HW213626   3.196   1.582   4.060
 4243SOL     OW13627   6.223   2.803   3.275
 4243SOL    HW113628   6.322   2.805   3.293
 4243SOL    HW213629   6.187   2.896   3.283
 4244SOL     OW13630   4.421   4.355   1.402
 4244SOL    HW113631   4.341   4.380   1.349
 4244SOL    HW213632   4.393   4.331   1.495
 4245SOL     OW13633   6.979   1.369   6.855
 4245SOL    HW113634   6.958   1.323   6.769
 4245SOL    HW213635   6.969   1.468   6.842
 4246SOL     OW13636   6.956   4.187   3.693
 4246SOL    HW113637   6.949   4.256   3.765
 4246SOL    HW213638   0.032   4.175   3.667
 4247SOL     OW13639   3.032   5.640   3.411
 4247SOL    HW113640   2.939   5.674   3.427
 4247SOL    HW213641   3.033   5.541   3.417
 4248SOL     OW13642   3.226   1.587   2.829
 4248SOL    HW113643   3.221   1.685   2.811
 4248SOL    HW213644   3.203   1.537   2.745
 4249SOL     OW13645   5.694   2.405   2.964
 4249SOL    HW113646   5.660   2.431   3.055
 4249SOL    HW213647   5.722   2.309   2.965
 4250SOL     OW13648   6.369   4.496   3.011
 4250SOL    HW113649   6.435   4.484   3.086
 4250SOL    HW213650   6.403   4.567   2.949
 4251SOL     OW13651   5.320   4.663   2.043
 4251SOL    HW113652   5.277   4.733   1.986
 4251SOL    HW213653   5.379   4.605   1.987
 4252SOL     OW13654   5.224   6.583   6.424
 4252SOL    HW113655   5.222   6.637   6.339
 4252SOL    HW213656   5.235   6.644   6.502
 4253SOL     OW13657   3.525   6.806   1.093
 4253SOL    HW113658   3.528   6.898   1.053
 4253SOL    HW213659   3.430   6.780   1.110
 4254SOL     OW13660   0.822   3.418   1.916
 4254SOL    HW113661   0.754   3.486   1.886
 4254SOL    HW213662   0.816   3.337   1.858
 4255SOL     OW13663   0.354   4.331   3.916
 4255SOL    HW113664   0.263   4.296   3.939
 4255SOL    HW213665   0.376   4.306   3.822
 4256SOL     OW13666   2.432   6.711   0.321
 4256SOL    HW113667   2.403   6.616   0.306
 4256SOL    HW213668   2.453   6.725   0.417
 4257SOL     OW13669   2.632   0.556   4.509
 4257SOL    HW113670   2.672   0.527   4.422
 4257SOL    HW213671   2.696   0.617   4.556
 4258SOL     OW13672   4.566   6.170   1.070
 4258SOL    HW113673   4.600   6.087   1.115
 4258SOL    HW213674   4.640   6.211   1.016
 4259SOL     OW13675   2.681   0.707   1.093
 4259SOL    HW113676   2.693   0.670   1.001
 4259SOL    HW213677   2.643   0.799   1.087
 4260SOL     OW13678   5.415   0.213   1.254
 4260SOL    HW113679   5.330   0.246   1.213
 4260SOL    HW213680   5.402   0.120   1.289
 4261SOL     OW13681   1.750   0.159   2.713
 4261SOL    HW113682   1.781   0.198   2.627
 4261SOL    HW213683   1.829   0.128   2.766
 4262SOL     OW13684   0.647   4.894   6.181
 4262SOL    HW113685   0.580   4.968   6.189
 4262SOL    HW213686   0.662   4.853   6.271
 4263SOL     OW13687   3.232   6.461   3.015
 4263SOL    HW113688   3.228   6.481   3.113
 4263SOL    HW213689   3.328   6.457   2.986
 4264SOL     OW13690   0.060   2.285   3.037
 4264SOL    HW113691   0.017   2.251   3.121
 4264SOL    HW213692   0.098   2.208   2.986
 4265SOL     OW13693   5.018   1.629   1.195
 4265SOL    HW113694   4.993   1.594   1.285
 4265SOL    HW213695   5.005   1.558   1.126
 4266SOL     OW13696   1.951   5.733   0.549
 4266SOL    HW113697   1.949   5.657   0.613
 4266SOL    HW213698   1.860   5.773   0.541
 4267SOL     OW13699   1.978   2.907   4.210
 4267SOL    HW113700   1.931   2.962   4.141
 4267SOL    HW213701   1.912   2.854   4.263
 4268SOL     OW13702   1.562   6.049   0.118
 4268SOL    HW113703   1.525   6.132   0.076
 4268SOL    HW213704   1.581   6.066   0.215
 4269SOL     OW13705   3.042   0.347   2.099
 4269SOL    HW113706   3.022   0.389   2.187
 4269SOL    HW213707   2.963   0.295   2.068
 4270SOL     OW13708   4.119   3.590   3.198
 4270SOL    HW113709   4.036   3.607   3.252
 4270SOL    HW213710   4.199   3.598   3.257
 4271SOL     OW13711   6.375   1.284   6.806
 4271SOL    HW113712   6.307   1.223   6.765
 4271SOL    HW213713   6.338   1.377   6.811
 4272SOL     OW13714   6.403   2.921   4.584
 4272SOL    HW113715   6.462   2.982   4.638
 4272SOL    HW213716   6.448   2.899   4.498
 4273SOL     OW13717   4.714   6.507   4.626
 4273SOL    HW113718   4.737   6.509   4.529
 4273SOL    HW213719   4.710   6.600   4.661
 4274SOL     OW13720   0.563   6.235   1.660
 4274SOL    HW113721   0.539   6.241   1.757
 4274SOL    HW213722   0.581   6.326   1.624
 4275SOL     OW13723   0.066   1.703   4.254
 4275SOL    HW113724   0.079   1.642   4.332
 4275SOL    HW213725   0.154   1.742   4.227
 4276SOL     OW13726   1.634   4.997   3.527
 4276SOL    HW113727   1.641   4.947   3.441
 4276SOL    HW213728   1.627   4.932   3.603
 4277SOL     OW13729   6.378   4.577   3.953
 4277SOL    HW113730   6.336   4.526   3.878
 4277SOL    HW213731   6.471   4.603   3.927
 4278SOL     OW13732   6.988   0.000   4.367
 4278SOL    HW113733   0.016   6.986   4.448
 4278SOL    HW213734   0.031   0.055   4.312
 4279SOL     OW13735   2.997   0.377   3.934
 4279SOL    HW113736   2.962   0.467   3.908
 4279SOL    HW213737   3.016   0.323   3.852
 4280SOL     OW13738   4.372   0.493   5.518
 4280SOL    HW113739   4.393   0.591   5.516
 4280SOL    HW213740   4.447   0.444   5.561
 4281SOL     OW13741   0.461   4.747   3.682
 4281SOL    HW113742   0.411   4.727   3.598
 4281SOL    HW213743   0.413   4.706   3.760
 4282SOL     OW13744   3.089   4.157   5.889
 4282SOL    HW113745   3.033   4.075   5.894
 4282SOL    HW213746   3.114   4.175   5.794
 4283SOL     OW13747   1.161   0.955   3.119
 4283SOL    HW113748   1.158   0.984   3.023
 4283SOL    HW213749   1.103   1.015   3.174
 4284SOL     OW13750   3.949   4.812   1.539
 4284SOL    HW113751   3.862   4.779   1.576
 4284SOL    HW213752   3.994   4.739   1.489
 4285SOL     OW13753   1.123   0.612   5.800
 4285SOL    HW113754   1.129   0.665   5.885
 4285SOL    HW213755   1.039   0.558   5.800
 4286SOL     OW13756   4.792   6.791   6.189
 4286SOL    HW113757   4.695   6.818   6.194
 4286SOL    HW213758   4.849   6.866   6.224
 4287SOL     OW13759   5.561   2.547   6.333
 4287SOL    HW113760   5.541   2.614   6.261
 4287SOL    HW213761   5.475   2.509   6.367
 4288SOL     OW13762   0.000   5.903   3.966
 4288SOL    HW113763   7.002   5.812   4.003
 4288SOL    HW213764   0.011   5.897   3.867
 4289SOL     OW13765   6.734   2.916   6.877
 4289SOL    HW113766   6.700   2.824   6.862
 4289SOL    HW213767   6.834   2.916   6.873
 4290SOL     OW13768   1.158   6.635   2.774
 4290SOL    HW113769   1.154   6.571   2.851
 4290SOL    HW213770   1.112   6.720   2.798
 4291SOL     OW13771   4.446   3.201   1.224
 4291SOL    HW113772   4.377   3.246   1.168
 4291SOL    HW213773   4.468   3.112   1.185
 4292SOL     OW13774   5.831   3.137   0.179
 4292SOL    HW113775   5.758   3.116   0.115
 4292SOL    HW213776   5.879   3.053   0.205
 4293SOL     OW13777   2.617   3.639   0.263
 4293SOL    HW113778   2.529   3.597   0.241
 4293SOL    HW213779   2.674   3.640   0.181
 4294SOL     OW13780   1.833   2.638   6.888
 4294SOL    HW113781   1.828   2.726   6.839
 4294SOL    HW213782   1.897   2.646   6.964
 4295SOL     OW13783   4.365   5.947   4.629
 4295SOL    HW113784   4.462   5.950   4.653
 4295SOL    HW213785   4.354   5.900   4.542
 4296SOL     OW13786   3.333   0.062   0.338
 4296SOL    HW113787   3.303   0.048   0.432
 4296SOL    HW213788   3.271   0.126   0.293
 4297SOL     OW13789   4.744   0.975   6.569
 4297SOL    HW113790   4.717   0.883   6.596
 4297SOL    HW213791   4.662   1.029   6.549
 4298SOL     OW13792   3.967   5.100   0.277
 4298SOL    HW113793   3.957   5.132   0.371
 4298SOL    HW213794   3.978   5.178   0.215
 4299SOL     OW13795   0.651   3.204   6.380
 4299SOL    HW113796   0.733   3.231   6.330
 4299SOL    HW213797   0.645   3.104   6.382
 4300SOL     OW13798   3.707   6.799   0.037
 4300SOL    HW113799   3.748   6.728   0.094
 4300SOL    HW213800   3.712   6.772   6.961
 4301SOL     OW13801   4.220   1.695   1.418
 4301SOL    HW113802   4.189   1.600   1.407
 4301SOL    HW213803   4.142   1.756   1.415
 4302SOL     OW13804   1.255   6.733   6.482
 4302SOL    HW113805   1.257   6.674   6.563
 4302SOL    HW213806   1.166   6.780   6.478
 4303SOL     OW13807   0.319   4.712   4.147
 4303SOL    HW113808   0.271   4.686   4.231
 4303SOL    HW213809   0.381   4.788   4.167
 4304SOL     OW13810   2.962   3.859   3.135
 4304SOL    HW113811   3.042   3.905   3.173
 4304SOL    HW213812   2.880   3.913   3.155
 4305SOL     OW13813   6.490   0.220   5.149
 4305SOL    HW113814   6.434   0.246   5.070
 4305SOL    HW213815   6.587   0.231   5.126
 4306SOL     OW13816   5.542   4.196   6.109
 4306SOL    HW113817   5.472   4.266   6.098
 4306SOL    HW213818   5.577   4.170   6.019
 4307SOL     OW13819   4.470   4.198   5.758
 4307SOL    HW113820   4.438   4.111   5.722
 4307SOL    HW213821   4.570   4.198   5.761
 4308SOL     OW13822   6.374   4.870   0.420
 4308SOL    HW113823   6.460   4.889   0.374
 4308SOL    HW213824   6.391   4.859   0.518
 4309SOL     OW13825   1.431   1.187   0.406
 4309SOL    HW113826   1.335   1.193   0.379
 4309SOL    HW213827   1.459   1.091   0.406
 4310SOL     OW13828   1.538   2.550   2.160
 4310SOL    HW113829   1.523   2.647   2.142
 4310SOL    HW213830   1.621   2.538   2.215
 4311SOL     OW13831   1.898   5.703   2.987
 4311SOL    HW113832   1.808   5.691   3.028
 4311SOL    HW213833   1.966   5.725   3.057
 4312SOL     OW13834   2.065   5.121   1.110
 4312SOL    HW113835   2.045   5.190   1.041
 4312SOL    HW213836   2.000   5.045   1.102
 4313SOL     OW13837   4.632   1.557   1.686
 4313SOL    HW113838   4.668   1.615   1.758
 4313SOL    HW213839   4.552   1.601   1.644
 4314SOL     OW13840   6.125   1.411   4.092
 4314SOL    HW113841   6.072   1.360   4.159
 4314SOL    HW213842   6.129   1.507   4.118
 4315SOL     OW13843   2.430   6.550   2.419
 4315SOL    HW113844   2.414   6.576   2.514
 4315SOL    HW213845   2.366   6.479   2.392
 4316SOL     OW13846   5.315   0.526   2.185
 4316SOL    HW113847   5.258   0.444   2.194
 4316SOL    HW213848   5.291   0.591   2.257
 4317SOL     OW13849   4.867   2.454   4.620
 4317SOL    HW113850   4.792   2.520   4.620
 4317SOL    HW213851   4.850   2.385   4.550
 4318SOL     OW13852   0.901   3.689   4.825
 4318SOL    HW113853   0.875   3.597   4.853
 4318SOL    HW213854   0.993   3.710   4.857
 4319SOL     OW13855   1.944   2.280   1.086
 4319SOL    HW113856   2.009   2.246   1.154
 4319SOL    HW213857   1.989   2.284   0.996
 4320SOL     OW13858   6.087   5.453   0.759
 4320SOL    HW113859   6.058   5.448   0.663
 4320SOL    HW213860   6.177   5.495   0.764
 4321SOL     OW13861   6.814   6.739   5.112
 4321SOL    HW113862   6.734   6.798   5.103
 4321SOL    HW213863   6.832   6.693   5.025
 4322SOL     OW13864   6.316   2.360   6.284
 4322SOL    HW113865   6.389   2.379   6.219
 4322SOL    HW213866   6.234   2.412   6.259
 4323SOL     OW13867   4.456   3.859   1.240
 4323SOL    HW113868   4.459   3.936   1.303
 4323SOL    HW213869   4.530   3.795   1.261
 4324SOL     OW13870   5.452   4.756   6.925
 4324SOL    HW113871   5.370   4.813   6.921
 4324SOL    HW213872   5.427   4.664   6.954
 4325SOL     OW13873   2.317   1.119   1.544
 4325SOL    HW113874   2.275   1.056   1.610
 4325SOL    HW213875   2.315   1.212   1.581
 4326SOL     OW13876   4.808   4.702   4.439
 4326SOL    HW113877   4.760   4.705   4.351
 4326SOL    HW213878   4.741   4.703   4.514
 4327SOL     OW13879   5.812   6.258   1.759
 4327SOL    HW113880   5.792   6.214   1.847
 4327SOL    HW213881   5.727   6.270   1.708
 4328SOL     OW13882   4.654   3.871   5.441
 4328SOL    HW113883   4.577   3.816   5.409
 4328SOL    HW213884   4.737   3.845   5.391
 4329SOL     OW13885   4.304   1.418   6.040
 4329SOL    HW113886   4.215   1.377   6.058
 4329SOL    HW213887   4.295   1.518   6.041
 4330SOL     OW13888   2.684   6.459   4.303
 4330SOL    HW113889   2.620   6.500   4.239
 4330SOL    HW213890   2.747   6.529   4.336
 4331SOL     OW13891   5.640   1.625   1.772
 4331SOL    HW113892   5.692   1.589   1.695
 4331SOL    HW213893   5.543   1.631   1.747
 4332SOL     OW13894   5.491   3.642   2.303
 4332SOL    HW113895   5.531   3.575   2.366
 4332SOL    HW213896   5.437   3.595   2.234
 4333SOL     OW13897   3.580   0.621   4.720
 4333SOL    HW113898   3.543   0.693   4.778
 4333SOL    HW213899   3.505   0.563   4.687
 4334SOL     OW13900   2.008   2.287   2.229
 4334SOL    HW113901   2.085   2.260   2.286
 4334SOL    HW213902   1.964   2.206   2.190
 4335SOL     OW13903   3.455   3.502   2.536
 4335SOL    HW113904   3.389   3.577   2.526
 4335SOL    HW213905   3.525   3.510   2.465
 4336SOL     OW13906   2.878   6.464   6.626
 4336SOL    HW113907   2.861   6.399   6.700
 4336SOL    HW213908   2.898   6.554   6.664
 4337SOL     OW13909   0.380   4.865   0.996
 4337SOL    HW113910   0.464   4.890   1.043
 4337SOL    HW213911   0.301   4.901   1.047
 4338SOL     OW13912   5.334   6.247   5.236
 4338SOL    HW113913   5.317   6.262   5.333
 4338SOL    HW213914   5.432   6.239   5.220
 4339SOL     OW13915   5.467   3.583   5.357
 4339SOL    HW113916   5.558   3.544   5.342
 4339SOL    HW213917   5.400   3.531   5.304
 4340SOL     OW13918   6.599   2.979   1.223
 4340SOL    HW113919   6.650   3.024   1.297
 4340SOL    HW213920   6.535   2.913   1.263
 4341SOL     OW13921   0.058   6.046   2.250
 4341SOL    HW113922   6.998   6.066   2.307
 4341SOL    HW213923   0.117   5.981   2.297
 4342SOL     OW13924   5.927   3.997   3.759
 4342SOL    HW113925   6.008   4.009   3.701
 4342SOL    HW213926   5.911   3.900   3.776
 4343SOL     OW13927   2.452   5.784   5.359
 4343SOL    HW113928   2.504   5.703   5.387
 4343SOL    HW213929   2.463   5.799   5.261
 4344SOL     OW13930   0.795   4.757   2.001
 4344SOL    HW113931   0.888   4.730   2.028
 4344SOL    HW213932   0.736   4.676   2.002
 4345SOL     OW13933   3.138   3.608   4.900
 4345SOL    HW113934   3.176   3.522   4.934
 4345SOL    HW213935   3.208   3.657   4.847
 4346SOL     OW13936   1.582   3.097   2.318
 4346SOL    HW113937   1.523   3.175   2.300
 4346SOL    HW213938   1.666   3.106   2.264
 4347SOL     OW13939   6.982   6.426   3.545
 4347SOL    HW113940   6.900   6.470   3.582
 4347SOL    HW213941   0.022   6.400   3.620
 4348SOL     OW13942   0.176   4.467   3.334
 4348SOL    HW113943   0.136   4.551   3.296
 4348SOL    HW213944   0.105   4.398   3.346
 4349SOL     OW13945   6.960   1.846   2.643
 4349SOL    HW113946   6.922   1.920   2.698
 4349SOL    HW213947   6.960   1.761   2.696
 4350SOL     OW13948   3.805   1.690   4.197
 4350SOL    HW113949   3.729   1.754   4.210
 4350SOL    HW213950   3.888   1.742   4.173
 4351SOL     OW13951   1.543   4.926   0.397
 4351SOL    HW113952   1.556   5.002   0.460
 4351SOL    HW213953   1.630   4.902   0.355
 4352SOL     OW13954   7.003   3.710   2.027
 4352SOL    HW113955   0.011   3.614   2.032
 4352SOL    HW213956   6.921   3.718   1.970
 4353SOL     OW13957   3.832   3.119   6.604
 4353SOL    HW113958   3.880   3.046   6.556
 4353SOL    HW213959   3.792   3.182   6.537
 4354SOL     OW13960   2.240   6.920   5.381
 4354SOL    HW113961   2.224   6.887   5.475
 4354SOL    HW213962   2.335   6.950   5.372
 4355SOL     OW13963   2.028   0.401   2.741
 4355SOL    HW113964   2.112   0.452   2.728
 4355SOL    HW213965   2.008   0.348   2.659
 4356SOL     OW13966   4.770   3.981   1.328
 4356SOL    HW113967   4.817   3.916   1.387
 4356SOL    HW213968   4.836   4.047   1.291
 4357SOL     OW13969   6.968   1.136   1.148
 4357SOL    HW113970   0.028   1.087   1.182
 4357SOL    HW213971   6.906   1.072   1.102
 4358SOL     OW13972   0.184   6.849   0.094
 4358SOL    HW113973   0.275   6.891   0.101
 4358SOL    HW213974   0.129   6.875   0.174
 4359SOL     OW13975   1.912   1.492   6.233
 4359SOL    HW113976   1.921   1.591   6.221
 4359SOL    HW213977   1.895   1.472   6.330
 4360SOL     OW13978   1.467   2.686   2.966
 4360SOL    HW113979   1.459   2.629   3.048
 4360SOL    HW213980   1.390   2.749   2.962
 4361SOL     OW13981   2.175   3.233   1.398
 4361SOL    HW113982   2.183   3.147   1.347
 4361SOL    HW213983   2.105   3.290   1.354
 4362SOL     OW13984   5.889   5.727   3.257
 4362SOL    HW113985   5.880   5.711   3.355
 4362SOL    HW213986   5.981   5.702   3.227
 4363SOL     OW13987   5.283   2.567   1.229
 4363SOL    HW113988   5.371   2.587   1.271
 4363SOL    HW213989   5.209   2.607   1.283
 4364SOL     OW13990   3.160   3.335   4.642
 4364SOL    HW113991   3.219   3.303   4.716
 4364SOL    HW213992   3.068   3.353   4.679
 4365SOL     OW13993   2.206   1.206   1.909
 4365SOL    HW113994   2.189   1.200   2.007
 4365SOL    HW213995   2.298   1.172   1.889
 4366SOL     OW13996   6.125   0.109   0.299
 4366SOL    HW113997   6.041   0.164   0.296
 4366SOL    HW213998   6.120   0.037   0.230
 4367SOL     OW13999   1.806   4.120   4.278
 4367SOL    HW114000   1.822   4.098   4.374
 4367SOL    HW214001   1.891   4.153   4.236
 4368SOL     OW14002   4.008   3.878   0.966
 4368SOL    HW114003   4.061   3.888   1.051
 4368SOL    HW214004   4.062   3.910   0.889
 4369SOL     OW14005   4.427   5.119   2.753
 4369SOL    HW114006   4.485   5.198   2.775
 4369SOL    HW214007   4.401   5.072   2.838
 4370SOL     OW14008   4.471   5.066   2.203
 4370SOL    HW114009   4.384   5.017   2.205
 4370SOL    HW214010   4.458   5.159   2.237
 4371SOL     OW14011   0.979   1.801   1.758
 4371SOL    HW114012   1.047   1.854   1.809
 4371SOL    HW214013   0.954   1.850   1.675
 4372SOL     OW14014   3.459   1.326   2.609
 4372SOL    HW114015   3.384   1.261   2.616
 4372SOL    HW214016   3.533   1.299   2.669
 4373SOL     OW14017   6.287   2.280   6.779
 4373SOL    HW114018   6.293   2.311   6.874
 4373SOL    HW214019   6.379   2.276   6.740
 4374SOL     OW14020   1.113   2.377   1.086
 4374SOL    HW114021   1.110   2.289   1.037
 4374SOL    HW214022   1.057   2.444   1.037
 4375SOL     OW14023   4.350   0.340   3.482
 4375SOL    HW114024   4.256   0.335   3.516
 4375SOL    HW214025   4.413   0.323   3.557
 4376SOL     OW14026   0.422   6.895   1.266
 4376SOL    HW114027   0.401   6.843   1.184
 4376SOL    HW214028   0.509   6.863   1.305
 4377SOL     OW14029   5.635   4.612   0.673
 4377SOL    HW114030   5.538   4.636   0.670
 4377SOL    HW214031   5.679   4.639   0.588
 4378SOL     OW14032   2.083   2.604   2.928
 4378SOL    HW114033   2.088   2.521   2.873
 4378SOL    HW214034   2.098   2.581   3.024
 4379SOL     OW14035   1.916   1.540   2.991
 4379SOL    HW114036   1.888   1.506   3.080
 4379SOL    HW214037   1.913   1.466   2.924
 4380SOL     OW14038   0.924   6.803   2.512
 4380SOL    HW114039   1.004   6.795   2.570
 4380SOL    HW214040   0.886   6.711   2.495
 4381SOL     OW14041   1.342   5.083   5.749
 4381SOL    HW114042   1.349   4.993   5.706
 4381SOL    HW214043   1.433   5.117   5.771
 4382SOL     OW14044   6.538   3.393   5.255
 4382SOL    HW114045   6.543   3.316   5.319
 4382SOL    HW214046   6.630   3.428   5.238
 4383SOL     OW14047   0.562   3.243   5.862
 4383SOL    HW114048   0.553   3.207   5.954
 4383SOL    HW214049   0.560   3.343   5.865
 4384SOL     OW14050   5.535   1.399   4.908
 4384SOL    HW114051   5.627   1.363   4.898
 4384SOL    HW214052   5.539   1.499   4.916
 4385SOL     OW14053   5.674   2.540   4.697
 4385SOL    HW114054   5.604   2.584   4.639
 4385SOL    HW214055   5.756   2.522   4.642
 4386SOL     OW14056   2.023   3.138   6.120
 4386SOL    HW114057   2.066   3.057   6.161
 4386SOL    HW214058   2.092   3.192   6.073
 4387SOL     OW14059   6.810   1.534   0.942
 4387SOL    HW114060   6.751   1.612   0.923
 4387SOL    HW214061   6.755   1.458   0.977
 4388SOL     OW14062   4.772   2.588   6.449
 4388SOL    HW114063   4.851   2.619   6.396
 4388SOL    HW214064   4.787   2.495   6.481
 4389SOL     OW14065   6.619   3.181   0.456
 4389SOL    HW114066   6.546   3.183   0.389
 4389SOL    HW214067   6.601   3.110   0.524
 4390SOL     OW14068   3.806   0.407   1.646
 4390SOL    HW114069   3.837   0.478   1.710
 4390SOL    HW214070   3.722   0.437   1.602
 4391SOL     OW14071   2.744   5.558   0.037
 4391SOL    HW114072   2.760   5.476   0.092
 4391SOL    HW214073   2.829   5.586   7.014
 4392SOL     OW14074   6.458   3.501   4.539
 4392SOL    HW114075   6.469   3.543   4.448
 4392SOL    HW214076   6.381   3.543   4.586
 4393SOL     OW14077   5.737   0.682   2.802
 4393SOL    HW114078   5.815   0.684   2.865
 4393SOL    HW214079   5.721   0.774   2.766
 4394SOL     OW14080   6.630   5.571   2.466
 4394SOL    HW114081   6.620   5.472   2.453
 4394SOL    HW214082   6.607   5.618   2.380
 4395SOL     OW14083   1.765   6.547   2.404
 4395SOL    HW114084   1.749   6.643   2.423
 4395SOL    HW214085   1.681   6.495   2.422
 4396SOL     OW14086   2.611   1.983   3.808
 4396SOL    HW114087   2.548   1.925   3.757
 4396SOL    HW214088   2.670   1.927   3.866
 4397SOL     OW14089   0.604   2.106   4.622
 4397SOL    HW114090   0.681   2.166   4.647
 4397SOL    HW214091   0.631   2.010   4.635
 4398SOL     OW14092   0.683   3.722   5.981
 4398SOL    HW114093   0.767   3.678   6.012
 4398SOL    HW214094   0.611   3.652   5.973
 4399SOL     OW14095   2.277   0.236   2.203
 4399SOL    HW114096   2.261   0.229   2.105
 4399SOL    HW214097   2.231   0.161   2.250
 4400SOL     OW14098   3.205   6.312   5.349
 4400SOL    HW114099   3.211   6.344   5.444
 4400SOL    HW214100   3.109   6.299   5.324
 4401SOL     OW14101   3.189   6.809   6.070
 4401SOL    HW114102   3.115   6.807   6.137
 4401SOL    HW214103   3.238   6.721   6.072
 4402SOL     OW14104   2.252   0.484   2.281
 4402SOL    HW114105   2.259   0.385   2.265
 4402SOL    HW214106   2.330   0.529   2.237
 4403SOL     OW14107   1.325   0.442   1.401
 4403SOL    HW114108   1.396   0.437   1.471
 4403SOL    HW214109   1.235   0.444   1.444
 4404SOL     OW14110   1.289   5.230   5.525
 4404SOL    HW114111   1.296   5.165   5.600
 4404SOL    HW214112   1.322   5.319   5.555
 4405SOL     OW14113   1.548   3.928   1.373
 4405SOL    HW114114   1.487   4.003   1.350
 4405SOL    HW214115   1.597   3.898   1.292
 4406SOL     OW14116   0.297   3.229   1.175
 4406SOL    HW114117   0.383   3.281   1.173
 4406SOL    HW214118   0.223   3.288   1.205
 4407SOL     OW14119   6.154   5.185   0.699
 4407SOL    HW114120   6.214   5.249   0.651
 4407SOL    HW214121   6.177   5.186   0.797
 4408SOL     OW14122   2.984   0.598   0.984
 4408SOL    HW114123   2.956   0.694   0.984
 4408SOL    HW214124   2.933   0.549   1.055
 4409SOL     OW14125   4.919   1.204   2.196
 4409SOL    HW114126   4.842   1.185   2.255
 4409SOL    HW214127   4.930   1.303   2.186
 4410SOL     OW14128   1.578   5.275   7.014
 4410SOL    HW114129   1.571   5.240   6.920
 4410SOL    HW214130   1.589   5.374   7.011
 4411SOL     OW14131   4.075   3.798   4.938
 4411SOL    HW114132   4.164   3.774   4.901
 4411SOL    HW214133   4.003   3.750   4.888
 4412SOL     OW14134   4.797   6.071   4.045
 4412SOL    HW114135   4.875   6.131   4.026
 4412SOL    HW214136   4.807   6.031   4.136
 4413SOL     OW14137   5.603   5.290   4.561
 4413SOL    HW114138   5.505   5.278   4.571
 4413SOL    HW214139   5.624   5.387   4.549
 4414SOL     OW14140   3.311   5.276   1.215
 4414SOL    HW114141   3.318   5.264   1.314
 4414SOL    HW214142   3.363   5.358   1.188
 4415SOL     OW14143   4.402   2.721   0.962
 4415SOL    HW114144   4.386   2.626   0.934
 4415SOL    HW214145   4.443   2.771   0.886
 4416SOL     OW14146   3.810   1.226   4.439
 4416SOL    HW114147   3.803   1.140   4.388
 4416SOL    HW214148   3.732   1.234   4.501
 4417SOL     OW14149   5.386   4.609   3.647
 4417SOL    HW114150   5.441   4.585   3.567
 4417SOL    HW214151   5.424   4.691   3.690
 4418SOL     OW14152   6.373   2.111   2.177
 4418SOL    HW114153   6.429   2.075   2.251
 4418SOL    HW214154   6.405   2.075   2.090
 4419SOL     OW14155   5.563   6.796   6.417
 4419SOL    HW114156   5.541   6.870   6.354
 4419SOL    HW214157   5.555   6.708   6.370
 4420SOL     OW14158   4.645   1.038   1.752
 4420SOL    HW114159   4.625   1.101   1.827
 4420SOL    HW214160   4.571   1.043   1.684
 4421SOL     OW14161   2.347   1.195   5.127
 4421SOL    HW114162   2.254   1.158   5.128
 4421SOL    HW214163   2.413   1.120   5.127
 4422SOL     OW14164   1.987   4.102   6.856
 4422SOL    HW114165   2.000   4.067   6.949
 4422SOL    HW214166   1.933   4.037   6.803
 4423SOL     OW14167   6.885   3.544   5.506
 4423SOL    HW114168   6.958   3.586   5.452
 4423SOL    HW214169   6.925   3.479   5.571
 4424SOL     OW14170   5.422   1.331   3.705
 4424SOL    HW114171   5.363   1.353   3.783
 4424SOL    HW214172   5.429   1.232   3.695
 4425SOL     OW14173   2.880   4.267   0.295
 4425SOL    HW114174   2.957   4.314   0.337
 4425SOL    HW214175   2.882   4.281   0.196
 4426SOL     OW14176   0.339   1.337   4.051
 4426SOL    HW114177   0.406   1.349   3.978
 4426SOL    HW214178   0.357   1.402   4.125
 4427SOL     OW14179   0.006   6.438   2.767
 4427SOL    HW114180   6.960   6.365   2.753
 4427SOL    HW214181   0.088   6.419   2.713
 4428SOL     OW14182   3.090   0.850   3.759
 4428SOL    HW114183   3.188   0.837   3.744
 4428SOL    HW214184   3.047   0.877   3.673
 4429SOL     OW14185   3.104   6.797   2.564
 4429SOL    HW114186   3.006   6.795   2.544
 4429SOL    HW214187   3.148   6.717   2.524
 4430SOL     OW14188   4.963   3.995   4.480
 4430SOL    HW114189   4.935   3.900   4.469
 4430SOL    HW214190   5.055   3.999   4.520
 4431SOL     OW14191   2.947   1.302   2.535
 4431SOL    HW114192   2.983   1.209   2.546
 4431SOL    HW214193   2.952   1.328   2.438
 4432SOL     OW14194   2.793   3.448   5.864
 4432SOL    HW114195   2.738   3.531   5.874
 4432SOL    HW214196   2.744   3.383   5.805
 4433SOL     OW14197   5.058   2.102   4.219
 4433SOL    HW114198   5.085   2.135   4.309
 4433SOL    HW214199   5.138   2.099   4.159
 4434SOL     OW14200   5.625   1.133   3.082
 4434SOL    HW114201   5.622   1.106   3.178
 4434SOL    HW214202   5.536   1.116   3.039
 4435SOL     OW14203   5.126   2.858   1.216
 4435SOL    HW114204   5.102   2.792   1.145
 4435SOL    HW214205   5.118   2.815   1.306
 4436SOL     OW14206   4.235   1.165   1.359
 4436SOL    HW114207   4.211   1.232   1.288
 4436SOL    HW214208   4.190   1.078   1.339
 4437SOL     OW14209   0.118   2.472   2.821
 4437SOL    HW114210   0.074   2.389   2.857
 4437SOL    HW214211   0.217   2.467   2.836
 4438SOL     OW14212   5.056   6.917   6.545
 4438SOL    HW114213   5.151   6.906   6.515
 4438SOL    HW214214   5.019   7.002   6.509
 4439SOL     OW14215   0.129   4.275   1.690
 4439SOL    HW114216   0.185   4.334   1.632
 4439SOL    HW214217   0.117   4.186   1.644
 4440SOL     OW14218   2.858   4.611   0.528
 4440SOL    HW114219   2.783   4.549   0.548
 4440SOL    HW214220   2.914   4.624   0.610
 4441SOL     OW14221   0.370   1.939   2.253
 4441SOL    HW114222   0.285   1.970   2.295
 4441SOL    HW214223   0.373   1.971   2.158
 4442SOL     OW14224   2.067   5.515   4.467
 4442SOL    HW114225   2.124   5.530   4.548
 4442SOL    HW214226   1.972   5.506   4.495
 4443SOL     OW14227   1.434   3.628   6.628
 4443SOL    HW114228   1.358   3.571   6.660
 4443SOL    HW214229   1.478   3.584   6.550
 4444SOL     OW14230   3.511   4.179   4.989
 4444SOL    HW114231   3.511   4.081   5.009
 4444SOL    HW214232   3.472   4.195   4.898
 4445SOL     OW14233   1.460   6.324   6.923
 4445SOL    HW114234   1.487   6.350   7.016
 4445SOL    HW214235   1.527   6.361   6.858
 4446SOL     OW14236   5.179   1.146   1.491
 4446SOL    HW114237   5.095   1.169   1.540
 4446SOL    HW214238   5.256   1.146   1.554
 4447SOL     OW14239   5.225   4.694   5.905
 4447SOL    HW114240   5.219   4.596   5.886
 4447SOL    HW214241   5.233   4.744   5.819
 4448SOL     OW14242   2.553   3.998   1.436
 4448SOL    HW114243   2.567   4.090   1.401
 4448SOL    HW214244   2.492   4.000   1.515
 4449SOL     OW14245   4.964   0.813   6.057
 4449SOL    HW114246   4.867   0.801   6.034
 4449SOL    HW214247   5.012   0.853   5.979
 4450SOL     OW14248   3.752   2.978   5.836
 4450SOL    HW114249   3.821   3.048   5.821
 4450SOL    HW214250   3.686   2.981   5.761
 4451SOL     OW14251   5.805   4.579   3.245
 4451SOL    HW114252   5.802   4.667   3.198
 4451SOL    HW214253   5.755   4.511   3.191
 4452SOL     OW14254   5.221   6.135   4.277
 4452SOL    HW114255   5.247   6.173   4.366
 4452SOL    HW214256   5.232   6.204   4.206
 4453SOL     OW14257   1.197   3.304   1.604
 4453SOL    HW114258   1.216   3.335   1.697
 4453SOL    HW214259   1.228   3.209   1.593
 4454SOL     OW14260   1.500   1.985   6.919
 4454SOL    HW114261   1.424   1.958   6.979
 4454SOL    HW214262   1.583   1.996   6.973
 4455SOL     OW14263   4.913   6.593   6.045
 4455SOL    HW114264   4.854   6.650   6.101
 4455SOL    HW214265   4.894   6.496   6.062
 4456SOL     OW14266   2.937   5.889   1.987
 4456SOL    HW114267   2.923   5.875   1.889
 4456SOL    HW214268   3.034   5.873   2.009
 4457SOL     OW14269   4.166   1.299   2.830
 4457SOL    HW114270   4.141   1.216   2.781
 4457SOL    HW214271   4.085   1.338   2.872
 4458SOL     OW14272   1.547   2.826   0.582
 4458SOL    HW114273   1.600   2.797   0.662
 4458SOL    HW214274   1.610   2.843   0.506
 4459SOL     OW14275   3.781   1.494   4.489
 4459SOL    HW114276   3.694   1.468   4.446
 4459SOL    HW214277   3.850   1.424   4.470
 4460SOL     OW14278   1.866   2.639   6.299
 4460SOL    HW114279   1.912   2.661   6.213
 4460SOL    HW214280   1.911   2.688   6.374
 4461SOL     OW14281   1.791   0.342   0.491
 4461SOL    HW114282   1.805   0.381   0.582
 4461SOL    HW214283   1.834   0.402   0.423
 4462SOL     OW14284   5.797   5.446   2.004
 4462SOL    HW114285   5.896   5.438   1.997
 4462SOL    HW214286   5.759   5.357   2.031
 4463SOL     OW14287   4.766   1.128   0.617
 4463SOL    HW114288   4.830   1.107   0.543
 4463SOL    HW214289   4.710   1.047   0.636
 4464SOL     OW14290   0.479   5.288   0.137
 4464SOL    HW114291   0.546   5.267   0.208
 4464SOL    HW214292   0.523   5.340   0.064
 4465SOL     OW14293   3.664   5.618   1.577
 4465SOL    HW114294   3.717   5.703   1.575
 4465SOL    HW214295   3.663   5.582   1.670
 4466SOL     OW14296   1.087   1.983   3.548
 4466SOL    HW114297   1.153   1.908   3.536
 4466SOL    HW214298   1.114   2.038   3.626
 4467SOL     OW14299   2.020   5.772   2.555
 4467SOL    HW114300   1.969   5.687   2.554
 4467SOL    HW214301   2.060   5.786   2.646
 4468SOL     OW14302   1.801   3.871   0.458
 4468SOL    HW114303   1.813   3.888   0.361
 4468SOL    HW214304   1.835   3.949   0.511
 4469SOL     OW14305   3.291   0.247   2.154
 4469SOL    HW114306   3.340   0.256   2.067
 4469SOL    HW214307   3.201   0.291   2.146
 4470SOL     OW14308   0.420   2.529   1.948
 4470SOL    HW114309   0.513   2.494   1.963
 4470SOL    HW214310   0.354   2.465   1.987
 4471SOL     OW14311   0.561   2.120   6.269
 4471SOL    HW114312   0.657   2.109   6.293
 4471SOL    HW214313   0.530   2.211   6.295
 4472SOL     OW14314   0.868   3.353   2.178
 4472SOL    HW114315   0.813   3.415   2.234
 4472SOL    HW214316   0.848   3.370   2.081
 4473SOL     OW14317   5.996   2.755   4.445
 4473SOL    HW114318   5.902   2.788   4.455
 4473SOL    HW214319   6.039   2.799   4.367
 4474SOL     OW14320   2.003   0.431   2.420
 4474SOL    HW114321   2.096   0.458   2.396
 4474SOL    HW214322   2.003   0.336   2.451
 4475SOL     OW14323   1.300   4.230   2.112
 4475SOL    HW114324   1.234   4.230   2.036
 4475SOL    HW214325   1.270   4.295   2.182
 4476SOL     OW14326   5.166   0.316   2.851
 4476SOL    HW114327   5.128   0.253   2.920
 4476SOL    HW214328   5.266   0.314   2.856
 4477SOL     OW14329   1.986   7.007   5.356
 4477SOL    HW114330   2.080   6.973   5.354
 4477SOL    HW214331   1.972   0.043   5.437
 4478SOL     OW14332   3.475   6.586   3.237
 4478SOL    HW114333   3.450   6.657   3.302
 4478SOL    HW214334   3.424   6.502   3.258
 4479SOL     OW14335   0.509   2.053   0.678
 4479SOL    HW114336   0.450   2.047   0.758
 4479SOL    HW214337   0.495   2.140   0.631
 4480SOL     OW14338   0.736   4.280   5.470
 4480SOL    HW114339   0.658   4.341   5.456
 4480SOL    HW214340   0.821   4.334   5.472
 4481SOL     OW14341   3.828   5.731   4.727
 4481SOL    HW114342   3.755   5.688   4.779
 4481SOL    HW214343   3.852   5.819   4.767
 4482SOL     OW14344   1.740   2.909   5.189
 4482SOL    HW114345   1.826   2.893   5.141
 4482SOL    HW214346   1.759   2.917   5.287
 4483SOL     OW14347   6.180   2.613   2.304
 4483SOL    HW114348   6.135   2.694   2.265
 4483SOL    HW214349   6.165   2.535   2.244
 4484SOL     OW14350   3.079   2.114   6.817
 4484SOL    HW114351   3.162   2.164   6.841
 4484SOL    HW214352   3.061   2.044   6.886
 4485SOL     OW14353   5.283   2.044   4.064
 4485SOL    HW114354   5.329   1.959   4.036
 4485SOL    HW214355   5.340   2.093   4.130
 4486SOL     OW14356   5.696   5.336   5.314
 4486SOL    HW114357   5.711   5.418   5.369
 4486SOL    HW214358   5.690   5.361   5.218
 4487SOL     OW14359   2.843   2.958   6.076
 4487SOL    HW114360   2.752   2.916   6.073
 4487SOL    HW214361   2.904   2.911   6.013
 4488SOL     OW14362   0.515   3.509   5.839
 4488SOL    HW114363   0.544   3.497   5.744
 4488SOL    HW214364   0.418   3.532   5.841
 4489SOL     OW14365   5.061   5.772   5.242
 4489SOL    HW114366   5.066   5.834   5.164
 4489SOL    HW214367   5.022   5.821   5.320
 4490SOL     OW14368   5.775   2.460   2.038
 4490SOL    HW114369   5.784   2.559   2.050
 4490SOL    HW214370   5.707   2.442   1.966
 4491SOL     OW14371   6.765   3.012   3.483
 4491SOL    HW114372   6.714   3.014   3.397
 4491SOL    HW214373   6.859   3.043   3.466
 4492SOL     OW14374   5.984   4.843   2.178
 4492SOL    HW114375   6.071   4.893   2.181
 4492SOL    HW214376   5.963   4.820   2.083
 4493SOL     OW14377   4.972   5.322   4.883
 4493SOL    HW114378   4.982   5.360   4.792
 4493SOL    HW214379   4.912   5.242   4.880
 4494SOL     OW14380   0.505   0.781   6.443
 4494SOL    HW114381   0.450   0.735   6.373
 4494SOL    HW214382   0.509   0.879   6.422
 4495SOL     OW14383   4.220   6.780   4.317
 4495SOL    HW114384   4.228   6.825   4.228
 4495SOL    HW214385   4.311   6.753   4.349
 4496SOL     OW14386   5.621   6.444   1.319
 4496SOL    HW114387   5.694   6.377   1.307
 4496SOL    HW214388   5.576   6.461   1.231
 4497SOL     OW14389   4.947   2.220   6.405
 4497SOL    HW114390   5.023   2.196   6.344
 4497SOL    HW214391   4.902   2.136   6.436
 4498SOL     OW14392   0.329   3.207   0.316
 4498SOL    HW114393   0.240   3.203   0.361
 4498SOL    HW214394   0.389   3.137   0.354
 4499SOL     OW14395   5.879   3.767   3.884
 4499SOL    HW114396   5.825   3.684   3.895
 4499SOL    HW214397   5.886   3.815   3.971
 4500SOL     OW14398   3.081   3.223   4.383
 4500SOL    HW114399   3.123   3.275   4.458
 4500SOL    HW214400   3.107   3.127   4.390
 4501SOL     OW14401   6.823   3.559   2.737
 4501SOL    HW114402   6.808   3.653   2.707
 4501SOL    HW214403   6.902   3.521   2.689
 4502SOL     OW14404   0.515   3.025   6.896
 4502SOL    HW114405   0.518   3.123   6.915
 4502SOL    HW214406   0.492   2.976   6.980
 4503SOL     OW14407   3.822   6.891   2.104
 4503SOL    HW114408   3.801   6.929   2.195
 4503SOL    HW214409   3.852   6.796   2.114
 4504SOL     OW14410   6.778   0.929   4.530
 4504SOL    HW114411   6.746   0.892   4.443
 4504SOL    HW214412   6.700   0.956   4.586
 4505SOL     OW14413   6.303   5.172   1.945
 4505SOL    HW114414   6.305   5.204   1.850
 4505SOL    HW214415   6.392   5.188   1.987
 4506SOL     OW14416   4.806   3.023   3.672
 4506SOL    HW114417   4.790   2.929   3.700
 4506SOL    HW214418   4.809   3.082   3.753
 4507SOL     OW14419   6.089   4.574   3.033
 4507SOL    HW114420   6.050   4.516   3.105
 4507SOL    HW214421   6.187   4.556   3.025
 4508SOL     OW14422   1.942   5.531   0.105
 4508SOL    HW114423   1.886   5.464   0.154
 4508SOL    HW214424   1.888   5.614   0.091
 4509SOL     OW14425   4.510   2.507   2.530
 4509SOL    HW114426   4.522   2.578   2.461
 4509SOL    HW214427   4.512   2.548   2.621
 4510SOL     OW14428   4.166   1.649   3.874
 4510SOL    HW114429   4.246   1.658   3.934
 4510SOL    HW214430   4.144   1.738   3.834
 4511SOL     OW14431   5.683   3.723   6.494
 4511SOL    HW114432   5.644   3.634   6.519
 4511SOL    HW214433   5.717   3.768   6.576
 4512SOL     OW14434   2.659   1.228   5.519
 4512SOL    HW114435   2.670   1.302   5.586
 4512SOL    HW214436   2.562   1.205   5.510
 4513SOL     OW14437   0.636   5.076   6.550
 4513SOL    HW114438   0.592   5.133   6.481
 4513SOL    HW214439   0.719   5.036   6.512
 4514SOL     OW14440   3.840   2.481   5.861
 4514SOL    HW114441   3.862   2.544   5.936
 4514SOL    HW214442   3.830   2.388   5.897
 4515SOL     OW14443   6.650   1.936   5.247
 4515SOL    HW114444   6.744   1.950   5.277
 4515SOL    HW214445   6.623   1.841   5.264
 4516SOL     OW14446   2.196   6.819   0.496
 4516SOL    HW114447   2.147   6.771   0.422
 4516SOL    HW214448   2.154   6.795   0.584
 4517SOL     OW14449   4.432   0.415   6.879
 4517SOL    HW114450   4.336   0.434   6.897
 4517SOL    HW214451   4.441   0.339   6.815
 4518SOL     OW14452   0.010   6.794   2.338
 4518SOL    HW114453   6.968   6.854   2.288
 4518SOL    HW214454   0.094   6.783   2.286
 4519SOL     OW14455   6.690   0.099   1.319
 4519SOL    HW114456   6.740   0.017   1.347
 4519SOL    HW214457   6.669   0.154   1.400
 4520SOL     OW14458   4.694   6.283   5.435
 4520SOL    HW114459   4.644   6.321   5.358
 4520SOL    HW214460   4.710   6.354   5.503
 4521SOL     OW14461   6.024   1.864   5.034
 4521SOL    HW114462   5.986   1.931   4.971
 4521SOL    HW214463   6.116   1.892   5.062
 4522SOL     OW14464   5.596   5.213   3.662
 4522SOL    HW114465   5.538   5.157   3.602
 4522SOL    HW214466   5.690   5.179   3.658
 4523SOL     OW14467   0.837   4.559   0.125
 4523SOL    HW114468   0.924   4.607   0.141
 4523SOL    HW214469   0.852   4.461   0.134
 4524SOL     OW14470   6.425   2.970   1.671
 4524SOL    HW114471   6.356   3.030   1.711
 4524SOL    HW214472   6.384   2.881   1.649
 4525SOL     OW14473   4.907   2.312   5.648
 4525SOL    HW114474   4.975   2.275   5.585
 4525SOL    HW214475   4.919   2.411   5.656
 4526SOL     OW14476   6.681   0.476   6.569
 4526SOL    HW114477   6.615   0.412   6.608
 4526SOL    HW214478   6.634   0.563   6.549
 4527SOL     OW14479   6.272   1.167   3.550
 4527SOL    HW114480   6.365   1.139   3.524
 4527SOL    HW214481   6.247   1.250   3.500
 4528SOL     OW14482   4.146   0.167   6.778
 4528SOL    HW114483   4.098   0.094   6.827
 4528SOL    HW214484   4.160   0.244   6.840
 4529SOL     OW14485   2.027   0.400   4.845
 4529SOL    HW114486   2.123   0.421   4.863
 4529SOL    HW214487   1.986   0.357   4.926
 4530SOL     OW14488   1.578   5.204   4.033
 4530SOL    HW114489   1.544   5.119   3.994
 4530SOL    HW214490   1.596   5.270   3.960
 4531SOL     OW14491   0.497   2.957   4.816
 4531SOL    HW114492   0.430   3.019   4.776
 4531SOL    HW214493   0.528   2.892   4.747
 4532SOL     OW14494   6.697   1.073   2.226
 4532SOL    HW114495   6.654   1.021   2.299
 4532SOL    HW214496   6.656   1.164   2.221
 4533SOL     OW14497   1.362   1.777   2.002
 4533SOL    HW114498   1.398   1.701   1.949
 4533SOL    HW214499   1.430   1.807   2.069
 4534SOL     OW14500   5.054   4.271   4.937
 4534SOL    HW114501   5.079   4.302   4.845
 4534SOL    HW214502   4.973   4.213   4.931
 4535SOL     OW14503   3.529   0.423   2.618
 4535SOL    HW114504   3.587   0.504   2.620
 4535SOL    HW214505   3.580   0.345   2.655
 4536SOL     OW14506   4.405   1.623   4.323
 4536SOL    HW114507   4.405   1.600   4.420
 4536SOL    HW214508   4.323   1.586   4.279
 4537SOL     OW14509   4.054   3.518   0.488
 4537SOL    HW114510   4.019   3.506   0.581
 4537SOL    HW214511   4.033   3.610   0.456
 4538SOL     OW14512   1.809   0.559   2.806
 4538SOL    HW114513   1.891   0.506   2.781
 4538SOL    HW214514   1.808   0.644   2.754
 4539SOL     OW14515   3.361   5.851   4.994
 4539SOL    HW114516   3.291   5.921   5.003
 4539SOL    HW214517   3.350   5.804   4.907
 4540SOL     OW14518   2.285   2.290   6.684
 4540SOL    HW114519   2.234   2.210   6.653
 4540SOL    HW214520   2.280   2.362   6.614
 4541SOL     OW14521   6.120   1.998   6.591
 4541SOL    HW114522   6.174   2.069   6.546
 4541SOL    HW214523   6.149   1.908   6.556
 4542SOL     OW14524   0.304   1.813   1.393
 4542SOL    HW114525   0.290   1.911   1.378
 4542SOL    HW214526   0.260   1.786   1.479
 4543SOL     OW14527   4.390   2.446   1.208
 4543SOL    HW114528   4.381   2.534   1.254
 4543SOL    HW214529   4.299   2.406   1.192
 4544SOL     OW14530   3.783   5.842   6.775
 4544SOL    HW114531   3.831   5.778   6.716
 4544SOL    HW214532   3.839   5.923   6.790
 4545SOL     OW14533   5.402   3.102   3.701
 4545SOL    HW114534   5.476   3.064   3.757
 4545SOL    HW214535   5.322   3.042   3.707
 4546SOL     OW14536   1.965   1.031   4.407
 4546SOL    HW114537   1.937   0.950   4.354
 4546SOL    HW214538   2.064   1.027   4.423
 4547SOL     OW14539   6.307   2.163   0.731
 4547SOL    HW114540   6.318   2.082   0.674
 4547SOL    HW214541   6.270   2.136   0.820
 4548SOL     OW14542   1.360   3.051   4.136
 4548SOL    HW114543   1.340   2.992   4.214
 4548SOL    HW214544   1.283   3.113   4.121
 4549SOL     OW14545   6.059   4.088   2.243
 4549SOL    HW114546   6.099   4.170   2.285
 4549SOL    HW214547   5.980   4.115   2.188
 4550SOL     OW14548   1.194   5.707   3.217
 4550SOL    HW114549   1.150   5.641   3.278
 4550SOL    HW214550   1.220   5.661   3.132
 4551SOL     OW14551   0.250   3.526   4.630
 4551SOL    HW114552   0.331   3.554   4.682
 4551SOL    HW214553   0.170   3.573   4.667
 4552SOL     OW14554   6.277   2.097   0.993
 4552SOL    HW114555   6.370   2.119   0.964
 4552SOL    HW214556   6.262   2.129   1.086
 4553SOL     OW14557   4.326   4.343   6.698
 4553SOL    HW114558   4.243   4.338   6.753
 4553SOL    HW214559   4.301   4.351   6.602
 4554SOL     OW14560   6.310   6.996   1.471
 4554SOL    HW114561   6.225   6.965   1.513
 4554SOL    HW214562   6.385   6.982   1.535
 4555SOL     OW14563   2.316   1.821   4.946
 4555SOL    HW114564   2.299   1.826   5.044
 4555SOL    HW214565   2.291   1.908   4.903
 4556SOL     OW14566   5.417   3.006   4.564
 4556SOL    HW114567   5.431   3.105   4.573
 4556SOL    HW214568   5.318   2.987   4.564
 4557SOL     OW14569   4.811   5.607   5.299
 4557SOL    HW114570   4.833   5.532   5.236
 4557SOL    HW214571   4.892   5.663   5.314
 4558SOL     OW14572   6.828   4.152   4.949
 4558SOL    HW114573   6.821   4.250   4.966
 4558SOL    HW214574   6.764   4.103   5.008
 4559SOL     OW14575   0.547   3.711   2.136
 4559SOL    HW114576   0.554   3.615   2.108
 4559SOL    HW214577   0.451   3.739   2.132
 4560SOL     OW14578   5.177   4.560   1.398
 4560SOL    HW114579   5.141   4.497   1.468
 4560SOL    HW214580   5.269   4.531   1.372
 4561SOL     OW14581   2.684   2.064   3.145
 4561SOL    HW114582   2.753   2.045   3.075
 4561SOL    HW214583   2.709   2.148   3.194
 4562SOL     OW14584   2.395   6.648   6.061
 4562SOL    HW114585   2.347   6.654   6.148
 4562SOL    HW214586   2.430   6.555   6.049
 4563SOL     OW14587   0.515   2.785   0.977
 4563SOL    HW114588   0.532   2.882   0.993
 4563SOL    HW214589   0.497   2.739   1.064
 4564SOL     OW14590   0.098   5.894   1.988
 4564SOL    HW114591   0.072   5.952   2.066
 4564SOL    HW214592   0.051   5.806   1.995
 4565SOL     OW14593   0.554   0.460   4.616
 4565SOL    HW114594   0.613   0.456   4.536
 4565SOL    HW214595   0.610   0.451   4.699
 4566SOL     OW14596   6.970   2.794   0.400
 4566SOL    HW114597   6.889   2.853   0.393
 4566SOL    HW214598   0.031   2.846   0.373
 4567SOL     OW14599   6.568   1.230   5.992
 4567SOL    HW114600   6.593   1.213   6.088
 4567SOL    HW214601   6.552   1.143   5.946
 4568SOL     OW14602   1.790   3.084   5.984
 4568SOL    HW114603   1.793   3.124   5.892
 4568SOL    HW214604   1.880   3.095   6.027
 4569SOL     OW14605   1.768   1.186   3.125
 4569SOL    HW114606   1.814   1.141   3.048
 4569SOL    HW214607   1.812   1.274   3.143
 4570SOL     OW14608   0.062   6.856   2.601
 4570SOL    HW114609   0.052   6.822   2.508
 4570SOL    HW214610   7.006   6.823   2.657
 4571SOL     OW14611   4.646   3.956   6.524
 4571SOL    HW114612   4.609   3.867   6.552
 4571SOL    HW214613   4.613   4.027   6.586
 4572SOL     OW14614   1.888   0.535   6.713
 4572SOL    HW114615   1.891   0.624   6.669
 4572SOL    HW214616   1.974   0.519   6.762
 4573SOL     OW14617   6.285   0.665   7.012
 4573SOL    HW114618   6.315   0.605   0.065
 4573SOL    HW214619   6.216   0.729   0.026
 4574SOL     OW14620   5.631   4.320   0.227
 4574SOL    HW114621   5.663   4.339   0.319
 4574SOL    HW214622   5.531   4.320   0.226
 4575SOL     OW14623   5.500   0.954   5.812
 4575SOL    HW114624   5.428   0.885   5.823
 4575SOL    HW214625   5.494   1.020   5.888
 4576SOL     OW14626   3.253   6.051   5.642
 4576SOL    HW114627   3.227   5.978   5.578
 4576SOL    HW214628   3.177   6.114   5.653
 4577SOL     OW14629   0.731   2.283   4.351
 4577SOL    HW114630   0.676   2.267   4.269
 4577SOL    HW214631   0.795   2.207   4.363
 4578SOL     OW14632   0.939   2.628   5.308
 4578SOL    HW114633   0.961   2.532   5.326
 4578SOL    HW214634   0.885   2.635   5.224
 4579SOL     OW14635   4.089   0.371   3.565
 4579SOL    HW114636   4.021   0.404   3.631
 4579SOL    HW214637   4.042   0.325   3.490
 4580SOL     OW14638   5.436   4.592   1.120
 4580SOL    HW114639   5.492   4.622   1.043
 4580SOL    HW214640   5.469   4.503   1.152
 4581SOL     OW14641   2.106   5.930   2.111
 4581SOL    HW114642   2.164   6.002   2.150
 4581SOL    HW214643   2.030   5.911   2.173
 4582SOL     OW14644   4.256   1.025   4.903
 4582SOL    HW114645   4.185   0.970   4.946
 4582SOL    HW214646   4.323   1.053   4.971
 4583SOL     OW14647   2.614   2.035   6.805
 4583SOL    HW114648   2.609   1.949   6.756
 4583SOL    HW214649   2.695   2.036   6.863
 4584SOL     OW14650   0.589   4.834   5.541
 4584SOL    HW114651   0.586   4.870   5.635
 4584SOL    HW214652   0.523   4.759   5.533
 4585SOL     OW14653   2.040   5.526   3.239
 4585SOL    HW114654   2.063   5.622   3.221
 4585SOL    HW214655   2.120   5.480   3.278
 4586SOL     OW14656   3.914   4.460   1.139
 4586SOL    HW114657   3.887   4.554   1.159
 4586SOL    HW214658   3.839   4.398   1.164
 4587SOL     OW14659   3.268   4.120   3.636
 4587SOL    HW114660   3.316   4.131   3.723
 4587SOL    HW214661   3.192   4.057   3.648
 4588SOL     OW14662   2.244   3.556   5.233
 4588SOL    HW114663   2.265   3.653   5.217
 4588SOL    HW214664   2.325   3.509   5.266
 4589SOL     OW14665   6.456   0.708   2.062
 4589SOL    HW114666   6.549   0.684   2.089
 4589SOL    HW214667   6.418   0.636   2.004
 4590SOL     OW14668   4.699   5.084   1.300
 4590SOL    HW114669   4.690   4.989   1.272
 4590SOL    HW214670   4.749   5.089   1.386
 4591SOL     OW14671   1.708   0.599   4.746
 4591SOL    HW114672   1.754   0.541   4.679
 4591SOL    HW214673   1.709   0.694   4.713
 4592SOL     OW14674   2.652   1.546   3.436
 4592SOL    HW114675   2.649   1.606   3.516
 4592SOL    HW214676   2.706   1.465   3.457
 4593SOL     OW14677   5.478   5.783   2.138
 4593SOL    HW114678   5.406   5.846   2.111
 4593SOL    HW214679   5.530   5.754   2.057
 4594SOL     OW14680   2.450   1.122   3.305
 4594SOL    HW114681   2.523   1.189   3.314
 4594SOL    HW214682   2.426   1.112   3.208
 4595SOL     OW14683   4.538   3.092   5.338
 4595SOL    HW114684   4.592   3.177   5.339
 4595SOL    HW214685   4.573   3.031   5.267
 4596SOL     OW14686   6.519   0.521   2.491
 4596SOL    HW114687   6.474   0.571   2.416
 4596SOL    HW214688   6.512   0.423   2.474
 4597SOL     OW14689   4.229   5.061   0.077
 4597SOL    HW114690   4.168   5.141   0.085
 4597SOL    HW214691   4.207   5.012   7.013
 4598SOL     OW14692   1.743   6.023   0.562
 4598SOL    HW114693   1.737   6.074   0.648
 4598SOL    HW214694   1.669   5.956   0.558
 4599SOL     OW14695   1.755   5.072   0.076
 4599SOL    HW114696   1.799   5.052   7.009
 4599SOL    HW214697   1.682   5.138   0.062
 4600SOL     OW14698   0.838   5.748   5.403
 4600SOL    HW114699   0.847   5.829   5.344
 4600SOL    HW214700   0.846   5.777   5.499
 4601SOL     OW14701   1.666   1.379   5.213
 4601SOL    HW114702   1.719   1.383   5.298
 4601SOL    HW214703   1.618   1.465   5.199
 4602SOL     OW14704   3.452   6.386   0.480
 4602SOL    HW114705   3.431   6.472   0.526
 4602SOL    HW214706   3.506   6.328   0.540
 4603SOL     OW14707   3.905   6.831   1.235
 4603SOL    HW114708   3.918   6.883   1.150
 4603SOL    HW214709   3.885   6.735   1.213
 4604SOL     OW14710   4.058   6.973   6.916
 4604SOL    HW114711   4.138   6.942   6.865
 4604SOL    HW214712   4.086   7.001   7.008
 4605SOL     OW14713   1.505   6.359   2.431
 4605SOL    HW114714   1.491   6.392   2.524
 4605SOL    HW214715   1.545   6.268   2.433
 4606SOL     OW14716   0.608   6.594   1.995
 4606SOL    HW114717   0.644   6.505   1.968
 4606SOL    HW214718   0.570   6.588   2.088
 4607SOL     OW14719   2.269   2.873   2.503
 4607SOL    HW114720   2.315   2.785   2.516
 4607SOL    HW214721   2.201   2.886   2.576
 4608SOL     OW14722   0.539   5.833   3.499
 4608SOL    HW114723   0.551   5.828   3.598
 4608SOL    HW214724   0.514   5.743   3.464
 4609SOL     OW14725   4.810   4.859   7.007
 4609SOL    HW114726   4.790   4.892   6.915
 4609SOL    HW214727   4.727   4.821   0.028
 4610SOL     OW14728   4.829   1.862   0.517
 4610SOL    HW114729   4.731   1.876   0.502
 4610SOL    HW214730   4.843   1.814   0.603
 4611SOL     OW14731   1.279   6.437   6.121
 4611SOL    HW114732   1.291   6.534   6.099
 4611SOL    HW214733   1.323   6.416   6.208
 4612SOL     OW14734   1.749   6.551   0.905
 4612SOL    HW114735   1.683   6.575   0.977
 4612SOL    HW214736   1.710   6.482   0.845
 4613SOL     OW14737   1.688   5.511   1.922
 4613SOL    HW114738   1.739   5.549   1.999
 4613SOL    HW214739   1.607   5.567   1.905
 4614SOL     OW14740   6.084   3.541   2.851
 4614SOL    HW114741   6.040   3.630   2.862
 4614SOL    HW214742   6.107   3.505   2.941
 4615SOL     OW14743   1.738   1.028   6.990
 4615SOL    HW114744   1.802   1.093   0.009
 4615SOL    HW214745   1.775   0.935   6.998
 4616SOL     OW14746   6.462   1.376   4.631
 4616SOL    HW114747   6.494   1.330   4.714
 4616SOL    HW214748   6.506   1.335   4.551
 4617SOL     OW14749   1.128   2.576   2.053
 4617SOL    HW114750   1.120   2.485   2.013
 4617SOL    HW214751   1.075   2.581   2.137
 4618SOL     OW14752   2.365   3.140   5.337
 4618SOL    HW114753   2.289   3.085   5.371
 4618SOL    HW214754   2.422   3.084   5.277
 4619SOL     OW14755   3.230   6.422   3.317
 4619SOL    HW114756   3.287   6.406   3.398
 4619SOL    HW214757   3.137   6.443   3.346
 4620SOL     OW14758   2.420   5.008   0.971
 4620SOL    HW114759   2.339   4.974   1.018
 4620SOL    HW214760   2.499   4.952   0.997
 4621SOL     OW14761   4.976   0.619   2.566
 4621SOL    HW114762   4.982   0.715   2.541
 4621SOL    HW214763   5.037   0.565   2.507
 4622SOL     OW14764   3.420   4.559   0.466
 4622SOL    HW114765   3.513   4.595   0.463
 4622SOL    HW214766   3.410   4.500   0.546
 4623SOL     OW14767   5.264   6.029   1.591
 4623SOL    HW114768   5.240   6.120   1.625
 4623SOL    HW214769   5.353   6.002   1.626
 4624SOL     OW14770   3.491   0.330   2.987
 4624SOL    HW114771   3.556   0.257   3.009
 4624SOL    HW214772   3.536   0.397   2.928
 4625SOL     OW14773   1.779   4.642   1.309
 4625SOL    HW114774   1.716   4.674   1.380
 4625SOL    HW214775   1.873   4.643   1.344
 4626SOL     OW14776   5.179   4.304   2.266
 4626SOL    HW114777   5.226   4.273   2.183
 4626SOL    HW214778   5.144   4.396   2.252
 4627SOL     OW14779   1.773   4.750   5.181
 4627SOL    HW114780   1.806   4.675   5.238
 4627SOL    HW214781   1.674   4.742   5.170
 4628SOL     OW14782   4.651   4.281   4.734
 4628SOL    HW114783   4.659   4.356   4.801
 4628SOL    HW214784   4.557   4.276   4.701
 4629SOL     OW14785   3.008   5.298   5.297
 4629SOL    HW114786   2.935   5.297   5.229
 4629SOL    HW214787   3.052   5.208   5.299
 4630SOL     OW14788   2.587   6.197   1.909
 4630SOL    HW114789   2.583   6.189   2.009
 4630SOL    HW214790   2.512   6.143   1.869
 4631SOL     OW14791   1.067   6.008   3.256
 4631SOL    HW114792   1.116   6.055   3.329
 4631SOL    HW214793   1.118   5.926   3.229
 4632SOL     OW14794   2.704   4.627   2.925
 4632SOL    HW114795   2.751   4.599   3.008
 4632SOL    HW214796   2.704   4.727   2.919
 4633SOL     OW14797   6.072   0.749   4.780
 4633SOL    HW114798   6.010   0.728   4.856
 4633SOL    HW214799   6.122   0.833   4.800
 4634SOL     OW14800   2.525   3.769   5.324
 4634SOL    HW114801   2.618   3.806   5.320
 4634SOL    HW214802   2.468   3.818   5.259
 4635SOL     OW14803   4.889   3.704   2.010
 4635SOL    HW114804   4.862   3.609   1.991
 4635SOL    HW214805   4.870   3.760   1.930
 4636SOL     OW14806   2.233   4.426   0.079
 4636SOL    HW114807   2.328   4.397   0.072
 4636SOL    HW214808   2.209   4.441   0.175
 4637SOL     OW14809   0.843   6.877   0.578
 4637SOL    HW114810   0.887   6.890   0.489
 4637SOL    HW214811   0.823   6.966   0.618
 4638SOL     OW14812   4.318   4.297   0.283
 4638SOL    HW114813   4.337   4.341   0.371
 4638SOL    HW214814   4.322   4.198   0.293
 4639SOL     OW14815   3.465   3.422   6.082
 4639SOL    HW114816   3.378   3.457   6.117
 4639SOL    HW214817   3.469   3.435   5.983
 4640SOL     OW14818   4.888   4.038   4.119
 4640SOL    HW114819   4.860   4.041   4.215
 4640SOL    HW214820   4.928   4.125   4.092
 4641SOL     OW14821   2.433   0.468   4.986
 4641SOL    HW114822   2.402   0.417   4.905
 4641SOL    HW214823   2.392   0.428   5.068
 4642SOL     OW14824   1.186   6.655   3.512
 4642SOL    HW114825   1.198   6.710   3.430
 4642SOL    HW214826   1.130   6.706   3.578
 4643SOL     OW14827   6.879   2.312   0.754
 4643SOL    HW114828   6.949   2.318   0.825
 4643SOL    HW214829   6.794   2.352   0.788
 4644SOL     OW14830   0.507   5.907   5.212
 4644SOL    HW114831   0.548   5.993   5.182
 4644SOL    HW214832   0.530   5.834   5.148
 4645SOL     OW14833   0.714   0.219   4.070
 4645SOL    HW114834   0.704   0.318   4.066
 4645SOL    HW214835   0.718   0.182   3.977
 4646SOL     OW14836   2.301   5.401   3.338
 4646SOL    HW114837   2.307   5.305   3.311
 4646SOL    HW214838   2.390   5.444   3.325
 4647SOL     OW14839   1.973   0.232   2.951
 4647SOL    HW114840   1.987   0.286   2.868
 4647SOL    HW214841   2.014   0.280   3.029
 4648SOL     OW14842   3.283   0.352   3.155
 4648SOL    HW114843   3.359   0.334   3.093
 4648SOL    HW214844   3.304   0.431   3.213
 4649SOL     OW14845   5.185   1.281   6.668
 4649SOL    HW114846   5.154   1.198   6.620
 4649SOL    HW214847   5.230   1.255   6.754
 4650SOL     OW14848   4.991   5.676   2.355
 4650SOL    HW114849   5.052   5.639   2.425
 4650SOL    HW214850   4.994   5.617   2.274
 4651SOL     OW14851   6.376   3.772   6.809
 4651SOL    HW114852   6.374   3.864   6.848
 4651SOL    HW214853   6.432   3.713   6.866
 4652SOL     OW14854   5.503   6.652   4.465
 4652SOL    HW114855   5.491   6.722   4.394
 4652SOL    HW214856   5.547   6.693   4.545
 4653SOL     OW14857   5.195   5.624   0.840
 4653SOL    HW114858   5.159   5.652   0.928
 4653SOL    HW214859   5.163   5.532   0.818
 4654SOL     OW14860   0.770   6.171   6.768
 4654SOL    HW114861   0.722   6.256   6.747
 4654SOL    HW214862   0.859   6.192   6.807
 4655SOL     OW14863   5.990   3.542   0.920
 4655SOL    HW114864   5.955   3.606   0.852
 4655SOL    HW214865   6.073   3.578   0.961
 4656SOL     OW14866   1.079   0.671   2.168
 4656SOL    HW114867   0.990   0.660   2.124
 4656SOL    HW214868   1.108   0.584   2.209
 4657SOL     OW14869   4.464   5.731   1.453
 4657SOL    HW114870   4.426   5.689   1.535
 4657SOL    HW214871   4.405   5.807   1.424
 4658SOL     OW14872   3.341   0.206   3.936
 4658SOL    HW114873   3.330   0.159   4.023
 4658SOL    HW214874   3.363   0.140   3.865
 4659SOL     OW14875   3.088   3.774   5.465
 4659SOL    HW114876   3.156   3.726   5.410
 4659SOL    HW214877   3.041   3.842   5.408
 4660SOL     OW14878   0.614   5.464   5.156
 4660SOL    HW114879   0.601   5.461   5.255
 4660SOL    HW214880   0.681   5.394   5.129
 4661SOL     OW14881   3.265   4.225   6.087
 4661SOL    HW114882   3.311   4.138   6.104
 4661SOL    HW214883   3.182   4.210   6.033
 4662SOL     OW14884   3.166   0.056   5.464
 4662SOL    HW114885   3.161   6.991   5.517
 4662SOL    HW214886   3.187   0.034   5.369
 4663SOL     OW14887   0.156   1.536   1.102
 4663SOL    HW114888   0.148   1.474   1.180
 4663SOL    HW214889   0.122   1.627   1.129
 4664SOL     OW14890   1.532   1.297   0.946
 4664SOL    HW114891   1.571   1.387   0.926
 4664SOL    HW214892   1.582   1.227   0.895
 4665SOL     OW14893   3.972   6.102   6.264
 4665SOL    HW114894   3.922   6.070   6.184
 4665SOL    HW214895   3.931   6.187   6.297
 4666SOL     OW14896   2.525   2.451   6.718
 4666SOL    HW114897   2.533   2.373   6.656
 4666SOL    HW214898   2.474   2.423   6.800
 4667SOL     OW14899   6.575   4.005   2.041
 4667SOL    HW114900   6.583   4.013   1.942
 4667SOL    HW214901   6.493   3.951   2.063
 4668SOL     OW14902   4.817   2.152   3.351
 4668SOL    HW114903   4.873   2.205   3.415
 4668SOL    HW214904   4.745   2.210   3.313
 4669SOL     OW14905   5.405   6.248   0.624
 4669SOL    HW114906   5.342   6.178   0.589
 4669SOL    HW214907   5.397   6.253   0.723
 4670SOL     OW14908   1.709   2.710   5.995
 4670SOL    HW114909   1.674   2.616   5.991
 4670SOL    HW214910   1.809   2.709   5.983
 4671SOL     OW14911   0.561   3.325   6.824
 4671SOL    HW114912   0.629   3.329   6.752
 4671SOL    HW214913   0.469   3.321   6.783
 4672SOL     OW14914   2.713   5.173   5.470
 4672SOL    HW114915   2.743   5.080   5.491
 4672SOL    HW214916   2.691   5.180   5.373
 4673SOL     OW14917   4.621   0.347   1.874
 4673SOL    HW114918   4.537   0.302   1.846
 4673SOL    HW214919   4.648   0.313   1.964
 4674SOL     OW14920   4.526   1.154   6.520
 4674SOL    HW114921   4.548   1.184   6.427
 4674SOL    HW214922   4.432   1.179   6.542
 4675SOL     OW14923   1.933   1.424   6.498
 4675SOL    HW114924   1.961   1.479   6.577
 4675SOL    HW214925   1.932   1.327   6.523
 4676SOL     OW14926   6.071   6.410   3.969
 4676SOL    HW114927   6.057   6.421   3.871
 4676SOL    HW214928   5.995   6.451   4.019
 4677SOL     OW14929   2.499   1.425   6.642
 4677SOL    HW114930   2.536   1.419   6.735
 4677SOL    HW214931   2.558   1.374   6.579
 4678SOL     OW14932   2.132   4.527   2.885
 4678SOL    HW114933   2.127   4.614   2.933
 4678SOL    HW214934   2.205   4.471   2.925
 4679SOL     OW14935   3.320   1.319   6.975
 4679SOL    HW114936   3.269   1.402   6.956
 4679SOL    HW214937   3.366   1.328   0.043
 4680SOL     OW14938   2.411   1.612   0.808
 4680SOL    HW114939   2.507   1.634   0.826
 4680SOL    HW214940   2.355   1.642   0.885
 4681SOL     OW14941   5.589   6.219   6.073
 4681SOL    HW114942   5.650   6.291   6.040
 4681SOL    HW214943   5.600   6.209   6.172
 4682SOL     OW14944   4.083   4.901   5.817
 4682SOL    HW114945   4.137   4.823   5.848
 4682SOL    HW214946   4.139   4.984   5.819
 4683SOL     OW14947   4.640   4.652   2.938
 4683SOL    HW114948   4.607   4.729   2.993
 4683SOL    HW214949   4.693   4.590   2.996
 4684SOL     OW14950   6.859   1.958   5.467
 4684SOL    HW114951   6.813   1.987   5.551
 4684SOL    HW214952   6.881   1.860   5.473
 4685SOL     OW14953   0.699   6.155   5.078
 4685SOL    HW114954   0.779   6.212   5.058
 4685SOL    HW214955   0.622   6.213   5.103
 4686SOL     OW14956   5.052   5.466   0.581
 4686SOL    HW114957   5.054   5.543   0.517
 4686SOL    HW214958   5.143   5.424   0.584
 4687SOL     OW14959   6.416   4.219   5.208
 4687SOL    HW114960   6.343   4.185   5.267
 4687SOL    HW214961   6.459   4.298   5.250
 4688SOL     OW14962   6.173   3.869   5.623
 4688SOL    HW114963   6.233   3.844   5.547
 4688SOL    HW214964   6.217   3.845   5.709
 4689SOL     OW14965   5.997   0.430   0.080
 4689SOL    HW114966   5.943   0.407   0.161
 4689SOL    HW214967   6.058   0.507   0.101
 4690SOL     OW14968   1.303   0.410   0.038
 4690SOL    HW114969   1.345   0.348   6.992
 4690SOL    HW214970   1.259   0.486   7.010
 4691SOL     OW14971   2.796   4.703   2.226
 4691SOL    HW114972   2.841   4.670   2.142
 4691SOL    HW214973   2.726   4.638   2.253
 4692SOL     OW14974   6.212   5.489   2.215
 4692SOL    HW114975   6.148   5.424   2.256
 4692SOL    HW214976   6.235   5.559   2.283
 4693SOL     OW14977   0.854   0.851   3.273
 4693SOL    HW114978   0.912   0.930   3.296
 4693SOL    HW214979   0.856   0.786   3.349
 4694SOL     OW14980   2.652   0.252   0.285
 4694SOL    HW114981   2.666   0.185   0.212
 4694SOL    HW214982   2.561   0.239   0.326
 4695SOL     OW14983   2.478   3.489   1.631
 4695SOL    HW114984   2.426   3.462   1.712
 4695SOL    HW214985   2.422   3.549   1.574
 4696SOL     OW14986   0.096   3.928   6.314
 4696SOL    HW114987   0.192   3.906   6.333
 4696SOL    HW214988   0.091   4.015   6.265
 4697SOL     OW14989   2.322   3.248   0.768
 4697SOL    HW114990   2.314   3.256   0.868
 4697SOL    HW214991   2.394   3.183   0.746
 4698SOL     OW14992   4.602   5.796   2.860
 4698SOL    HW114993   4.527   5.848   2.819
 4698SOL    HW214994   4.565   5.720   2.913
 4699SOL     OW14995   1.755   6.623   1.633
 4699SOL    HW114996   1.671   6.600   1.585
 4699SOL    HW214997   1.814   6.543   1.638
 4700SOL     OW14998   6.518   1.601   2.246
 4700SOL    HW114999   6.554   1.661   2.318
 4700SOL    HW215000   6.463   1.529   2.287
 4701SOL     OW15001   2.277   2.220   0.527
 4701SOL    HW115002   2.177   2.214   0.524
 4701SOL    HW215003   2.315   2.130   0.549
 4702SOL     OW15004   5.912   4.994   6.904
 4702SOL    HW115005   5.834   4.935   6.882
 4702SOL    HW215006   5.925   5.061   6.830
 4703SOL     OW15007   1.179   2.233   1.541
 4703SOL    HW115008   1.139   2.271   1.458
 4703SOL    HW215009   1.154   2.290   1.619
 4704SOL     OW15010   1.158   7.008   6.741
 4704SOL    HW115011   1.087   6.970   6.682
 4704SOL    HW215012   1.190   6.938   6.805
 4705SOL     OW15013   3.397   3.532   2.878
 4705SOL    HW115014   3.470   3.542   2.811
 4705SOL    HW215015   3.308   3.541   2.832
 4706SOL     OW15016   3.920   6.350   6.376
 4706SOL    HW115017   3.967   6.338   6.464
 4706SOL    HW215018   3.822   6.344   6.390
 4707SOL     OW15019   2.703   5.777   0.982
 4707SOL    HW115020   2.748   5.689   0.999
 4707SOL    HW215021   2.681   5.786   0.885
 4708SOL     OW15022   1.134   2.345   6.632
 4708SOL    HW115023   1.089   2.433   6.647
 4708SOL    HW215024   1.229   2.361   6.606
 4709SOL     OW15025   4.532   6.069   6.075
 4709SOL    HW115026   4.534   5.972   6.051
 4709SOL    HW215027   4.449   6.089   6.127
 4710SOL     OW15028   3.930   1.039   5.366
 4710SOL    HW115029   4.005   1.028   5.300
 4710SOL    HW215030   3.896   1.133   5.364
 4711SOL     OW15031   6.062   1.007   1.989
 4711SOL    HW115032   6.030   1.077   1.927
 4711SOL    HW215033   6.154   0.978   1.962
 4712SOL     OW15034   3.108   4.346   0.122
 4712SOL    HW115035   3.149   4.419   0.067
 4712SOL    HW215036   3.177   4.310   0.185
 4713SOL     OW15037   3.628   3.146   1.199
 4713SOL    HW115038   3.644   3.121   1.104
 4713SOL    HW215039   3.540   3.195   1.206
 4714SOL     OW15040   1.346   2.632   6.964
 4714SOL    HW115041   1.285   2.707   6.938
 4714SOL    HW215042   1.429   2.637   6.909
 4715SOL     OW15043   6.866   3.122   1.820
 4715SOL    HW115044   6.791   3.081   1.768
 4715SOL    HW215045   6.896   3.058   1.891
 4716SOL     OW15046   4.681   6.031   6.557
 4716SOL    HW115047   4.700   6.033   6.459
 4716SOL    HW215048   4.633   6.115   6.584
 4717SOL     OW15049   0.455   6.446   3.340
 4717SOL    HW115050   0.435   6.538   3.305
 4717SOL    HW215051   0.381   6.384   3.312
 4718SOL     OW15052   5.802   2.763   0.446
 4718SOL    HW115053   5.761   2.679   0.482
 4718SOL    HW215054   5.732   2.834   0.438
 4719SOL     OW15055   5.601   3.073   2.349
 4719SOL    HW115056   5.608   2.979   2.315
 4719SOL    HW215057   5.519   3.116   2.311
 4720SOL     OW15058   2.013   5.928   5.547
 4720SOL    HW115059   1.970   5.855   5.600
 4720SOL    HW215060   2.064   5.888   5.471
 4721SOL     OW15061   6.385   2.662   1.577
 4721SOL    HW115062   6.289   2.634   1.579
 4721SOL    HW215063   6.424   2.654   1.668
 4722SOL     OW15064   0.723   6.009   6.403
 4722SOL    HW115065   0.799   5.945   6.395
 4722SOL    HW215066   0.665   6.002   6.322
 4723SOL     OW15067   1.918   4.251   6.109
 4723SOL    HW115068   1.874   4.341   6.111
 4723SOL    HW215069   1.973   4.239   6.192
 4724SOL     OW15070   5.015   5.798   2.899
 4724SOL    HW115071   4.957   5.825   2.821
 4724SOL    HW215072   4.957   5.772   2.976
 4725SOL     OW15073   6.169   6.372   2.587
 4725SOL    HW115074   6.268   6.387   2.581
 4725SOL    HW215075   6.151   6.278   2.613
 4726SOL     OW15076   1.298   2.653   6.531
 4726SOL    HW115077   1.307   2.618   6.437
 4726SOL    HW215078   1.320   2.580   6.596
 4727SOL     OW15079   1.242   6.174   0.456
 4727SOL    HW115080   1.144   6.161   0.470
 4727SOL    HW215081   1.282   6.091   0.418
 4728SOL     OW15082   5.200   0.594   1.198
 4728SOL    HW115083   5.113   0.545   1.209
 4728SOL    HW215084   5.276   0.530   1.200
 4729SOL     OW15085   2.511   1.406   1.679
 4729SOL    HW115086   2.412   1.399   1.680
 4729SOL    HW215087   2.540   1.485   1.732
 4730SOL     OW15088   3.504   5.889   4.548
 4730SOL    HW115089   3.579   5.934   4.500
 4730SOL    HW215090   3.430   5.870   4.484
 4731SOL     OW15091   4.291   6.848   6.126
 4731SOL    HW115092   4.333   6.857   6.035
 4731SOL    HW215093   4.216   6.782   6.122
 4732SOL     OW15094   0.553   3.793   5.496
 4732SOL    HW115095   0.629   3.753   5.548
 4732SOL    HW215096   0.466   3.766   5.538
 4733SOL     OW15097   1.719   4.554   3.743
 4733SOL    HW115098   1.628   4.517   3.759
 4733SOL    HW215099   1.782   4.519   3.812
 4734SOL     OW15100   5.128   2.442   6.994
 4734SOL    HW115101   5.201   2.459   0.040
 4734SOL    HW215102   5.100   2.529   6.952
 4735SOL     OW15103   0.164   5.785   4.626
 4735SOL    HW115104   0.124   5.742   4.546
 4735SOL    HW215105   0.115   5.870   4.646
 4736SOL     OW15106   6.958   2.275   6.473
 4736SOL    HW115107   0.016   2.233   6.426
 4736SOL    HW215108   6.976   2.279   6.571
 4737SOL     OW15109   2.082   4.769   1.805
 4737SOL    HW115110   1.988   4.735   1.796
 4737SOL    HW215111   2.101   4.788   1.901
 4738SOL     OW15112   6.961   6.820   3.276
 4738SOL    HW115113   0.004   6.793   3.349
 4738SOL    HW215114   6.867   6.817   3.310
 4739SOL     OW15115   4.392   6.721   3.427
 4739SOL    HW115116   4.315   6.680   3.377
 4739SOL    HW215117   4.466   6.742   3.363
 4740SOL     OW15118   1.037   1.751   0.909
 4740SOL    HW115119   1.002   1.813   0.839
 4740SOL    HW215120   1.044   1.799   0.996
 4741SOL     OW15121   3.482   2.897   1.524
 4741SOL    HW115122   3.436   2.836   1.588
 4741SOL    HW215123   3.424   2.911   1.443
 4742SOL     OW15124   3.033   6.240   5.667
 4742SOL    HW115125   3.008   6.244   5.764
 4742SOL    HW215126   2.965   6.186   5.618
 4743SOL     OW15127   1.763   3.915   3.001
 4743SOL    HW115128   1.831   3.841   2.997
 4743SOL    HW215129   1.690   3.889   3.064
 4744SOL     OW15130   2.407   4.586   0.730
 4744SOL    HW115131   2.407   4.515   0.658
 4744SOL    HW215132   2.318   4.630   0.733
 4745SOL     OW15133   3.068   3.484   5.915
 4745SOL    HW115134   2.974   3.486   5.881
 4745SOL    HW215135   3.120   3.413   5.868
 4746SOL     OW15136   5.198   5.940   3.225
 4746SOL    HW115137   5.297   5.923   3.230
 4746SOL    HW215138   5.179   6.004   3.151
 4747SOL     OW15139   1.816   4.491   6.732
 4747SOL    HW115140   1.750   4.563   6.710
 4747SOL    HW215141   1.782   4.438   6.811
 4748SOL     OW15142   2.597   5.389   1.401
 4748SOL    HW115143   2.662   5.398   1.477
 4748SOL    HW215144   2.576   5.479   1.364
 4749SOL     OW15145   2.528   6.383   6.041
 4749SOL    HW115146   2.469   6.340   5.972
 4749SOL    HW215147   2.622   6.387   6.006
 4750SOL     OW15148   6.754   4.107   4.691
 4750SOL    HW115149   6.792   4.100   4.784
 4750SOL    HW215150   6.695   4.187   4.685
 4751SOL     OW15151   4.165   1.867   3.085
 4751SOL    HW115152   4.209   1.826   3.165
 4751SOL    HW215153   4.076   1.904   3.111
 4752SOL     OW15154   4.379   1.282   0.004
 4752SOL    HW115155   4.313   1.326   0.064
 4752SOL    HW215156   4.405   1.193   0.042
 4753SOL     OW15157   0.163   0.227   4.684
 4753SOL    HW115158   0.200   0.147   4.638
 4753SOL    HW215159   0.207   0.310   4.647
 4754SOL     OW15160   5.461   4.027   4.953
 4754SOL    HW115161   5.468   4.080   4.868
 4754SOL    HW215162   5.421   4.085   5.024
 4755SOL     OW15163   2.383   1.012   0.486
 4755SOL    HW115164   2.482   1.003   0.495
 4755SOL    HW215165   2.351   0.952   0.413
 4756SOL     OW15166   5.496   3.390   6.031
 4756SOL    HW115167   5.519   3.483   6.001
 4756SOL    HW215168   5.412   3.360   5.985
 4757SOL     OW15169   2.393   2.063   1.365
 4757SOL    HW115170   2.396   2.125   1.287
 4757SOL    HW215171   2.401   2.115   1.450
 4758SOL     OW15172   1.493   6.872   3.257
 4758SOL    HW115173   1.555   6.943   3.293
 4758SOL    HW215174   1.484   6.883   3.159
 4759SOL     OW15175   0.203   5.091   6.252
 4759SOL    HW115176   0.154   5.007   6.230
 4759SOL    HW215177   0.167   5.166   6.197
 4760SOL     OW15178   2.018   2.160   0.584
 4760SOL    HW115179   2.029   2.107   0.668
 4760SOL    HW215180   1.984   2.101   0.511
 4761SOL     OW15181   0.973   6.231   0.452
 4761SOL    HW115182   1.008   6.316   0.493
 4761SOL    HW215183   0.923   6.179   0.521
 4762SOL     OW15184   1.121   5.463   1.670
 4762SOL    HW115185   1.146   5.462   1.573
 4762SOL    HW215186   1.176   5.395   1.719
 4763SOL     OW15187   5.811   0.423   2.470
 4763SOL    HW115188   5.722   0.459   2.442
 4763SOL    HW215189   5.806   0.323   2.475
 4764SOL     OW15190   4.657   4.150   5.388
 4764SOL    HW115191   4.659   4.062   5.436
 4764SOL    HW215192   4.562   4.175   5.369
 4765SOL     OW15193   3.683   0.493   5.578
 4765SOL    HW115194   3.693   0.553   5.498
 4765SOL    HW215195   3.731   0.407   5.562
 4766SOL     OW15196   5.944   5.336   3.641
 4766SOL    HW115197   6.021   5.351   3.579
 4766SOL    HW215198   5.916   5.240   3.638
 4767SOL     OW15199   3.096   5.245   4.942
 4767SOL    HW115200   3.155   5.209   5.015
 4767SOL    HW215201   3.150   5.259   4.860
 4768SOL     OW15202   4.477   1.935   6.549
 4768SOL    HW115203   4.433   1.898   6.468
 4768SOL    HW215204   4.430   2.018   6.578
 4769SOL     OW15205   5.113   6.217   0.286
 4769SOL    HW115206   5.033   6.275   0.273
 4769SOL    HW215207   5.194   6.275   0.296
 4770SOL     OW15208   6.961   1.704   4.907
 4770SOL    HW115209   6.945   1.698   5.006
 4770SOL    HW215210   0.027   1.658   4.885
 4771SOL     OW15211   3.210   6.062   6.094
 4771SOL    HW115212   3.263   6.084   6.175
 4771SOL    HW215213   3.269   6.068   6.013
 4772SOL     OW15214   3.623   4.759   0.245
 4772SOL    HW115215   3.661   4.668   0.263
 4772SOL    HW215216   3.526   4.761   0.271
 4773SOL     OW15217   6.865   5.142   5.659
 4773SOL    HW115218   6.943   5.090   5.623
 4773SOL    HW215219   6.858   5.229   5.611
 4774SOL     OW15220   1.666   3.935   1.054
 4774SOL    HW115221   1.721   4.013   1.025
 4774SOL    HW215222   1.720   3.851   1.046
 4775SOL     OW15223   4.943   6.312   3.479
 4775SOL    HW115224   4.928   6.263   3.393
 4775SOL    HW215225   5.041   6.323   3.495
 4776SOL     OW15226   0.783   0.067   5.101
 4776SOL    HW115227   0.846   7.010   5.108
 4776SOL    HW215228   0.771   0.092   5.005
 4777SOL     OW15229   1.630   4.937   1.018
 4777SOL    HW115230   1.558   4.890   0.967
 4777SOL    HW215231   1.605   4.941   1.115
 4778SOL     OW15232   6.673   3.248   4.153
 4778SOL    HW115233   6.724   3.333   4.137
 4778SOL    HW215234   6.616   3.228   4.074
 4779SOL     OW15235   5.261   0.551   2.732
 4779SOL    HW115236   5.229   0.494   2.808
 4779SOL    HW215237   5.361   0.548   2.727
 4780SOL     OW15238   6.436   2.610   6.998
 4780SOL    HW115239   6.516   2.630   6.942
 4780SOL    HW215240   6.419   2.511   6.999
 4781SOL     OW15241   2.379   4.930   2.495
 4781SOL    HW115242   2.346   4.862   2.561
 4781SOL    HW215243   2.465   4.898   2.455
 4782SOL     OW15244   6.156   5.229   6.920
 4782SOL    HW115245   6.063   5.207   6.891
 4782SOL    HW215246   6.153   5.298   6.993
 4783SOL     OW15247   5.086   3.383   0.116
 4783SOL    HW115248   5.040   3.298   0.090
 4783SOL    HW215249   5.071   3.452   0.045
 4784SOL     OW15250   6.275   2.200   6.490
 4784SOL    HW115251   6.300   2.274   6.428
 4784SOL    HW215252   6.315   2.217   6.580
 4785SOL     OW15253   0.446   5.822   3.101
 4785SOL    HW115254   0.539   5.824   3.137
 4785SOL    HW215255   0.415   5.916   3.085
 4786SOL     OW15256   2.400   0.204   0.362
 4786SOL    HW115257   2.351   0.291   0.359
 4786SOL    HW215258   2.349   0.140   0.419
 4787SOL     OW15259   3.913   1.345   3.008
 4787SOL    HW115260   3.946   1.423   3.061
 4787SOL    HW215261   3.860   1.378   2.930
 4788SOL     OW15262   6.825   6.657   7.017
 4788SOL    HW115263   6.812   6.629   0.091
 4788SOL    HW215264   6.852   6.754   7.014
 4789SOL     OW15265   5.549   1.572   2.043
 4789SOL    HW115266   5.570   1.623   1.960
 4789SOL    HW215267   5.451   1.552   2.046
 4790SOL     OW15268   5.758   1.574   5.759
 4790SOL    HW115269   5.821   1.518   5.813
 4790SOL    HW215270   5.757   1.667   5.794
 4791SOL     OW15271   0.283   2.960   1.270
 4791SOL    HW115272   0.278   2.944   1.368
 4791SOL    HW215273   0.281   3.058   1.251
 4792SOL     OW15274   2.568   4.563   4.031
 4792SOL    HW115275   2.523   4.652   4.025
 4792SOL    HW215276   2.513   4.495   3.982
 4793SOL     OW15277   1.706   2.393   5.509
 4793SOL    HW115278   1.727   2.428   5.418
 4793SOL    HW215279   1.608   2.406   5.528
 4794SOL     OW15280   4.845   6.997   4.813
 4794SOL    HW115281   4.878   0.043   4.880
 4794SOL    HW215282   4.788   0.023   4.745
 4795SOL     OW15283   6.391   2.377   4.188
 4795SOL    HW115284   6.391   2.288   4.234
 4795SOL    HW215285   6.320   2.435   4.228
 4796SOL     OW15286   4.094   1.020   5.150
 4796SOL    HW115287   4.120   0.924   5.152
 4796SOL    HW215288   4.027   1.036   5.078
 4797SOL     OW15289   0.388   6.631   4.783
 4797SOL    HW115290   0.331   6.691   4.839
 4797SOL    HW215291   0.439   6.685   4.717
 4798SOL     OW15292   0.405   4.304   5.810
 4798SOL    HW115293   0.344   4.245   5.758
 4798SOL    HW215294   0.497   4.265   5.812
 4799SOL     OW15295   4.366   1.755   0.610
 4799SOL    HW115296   4.290   1.734   0.547
 4799SOL    HW215297   4.353   1.706   0.696
 4800SOL     OW15298   2.336   3.009   6.684
 4800SOL    HW115299   2.336   3.069   6.764
 4800SOL    HW215300   2.277   3.047   6.614
 4801SOL     OW15301   2.888   2.180   6.662
 4801SOL    HW115302   2.975   2.175   6.711
 4801SOL    HW215303   2.873   2.093   6.614
 4802SOL     OW15304   0.364   6.508   1.610
 4802SOL    HW115305   0.304   6.443   1.655
 4802SOL    HW215306   0.372   6.591   1.665
 4803SOL     OW15307   0.391   4.477   0.604
 4803SOL    HW115308   0.448   4.536   0.547
 4803SOL    HW215309   0.438   4.459   0.690
 4804SOL     OW15310   6.711   6.513   1.297
 4804SOL    HW115311   6.620   6.479   1.277
 4804SOL    HW215312   6.779   6.453   1.255
 4805SOL     OW15313   6.184   0.721   2.802
 4805SOL    HW115314   6.187   0.753   2.707
 4805SOL    HW215315   6.217   0.627   2.807
 4806SOL     OW15316   1.405   4.130   2.494
 4806SOL    HW115317   1.378   4.050   2.440
 4806SOL    HW215318   1.360   4.126   2.583
 4807SOL     OW15319   0.418   4.732   6.819
 4807SOL    HW115320   0.496   4.705   6.875
 4807SOL    HW215321   0.450   4.785   6.741
 4808SOL     OW15322   4.363   5.617   0.327
 4808SOL    HW115323   4.380   5.531   0.375
 4808SOL    HW215324   4.450   5.659   0.301
 4809SOL     OW15325   3.400   4.440   0.699
 4809SOL    HW115326   3.363   4.531   0.715
 4809SOL    HW215327   3.378   4.381   0.776
 4810SOL     OW15328   1.311   3.990   2.945
 4810SOL    HW115329   1.239   3.922   2.959
 4810SOL    HW215330   1.381   3.980   3.016
 4811SOL     OW15331   3.715   3.816   2.534
 4811SOL    HW115332   3.700   3.893   2.471
 4811SOL    HW215333   3.799   3.830   2.585
 4812SOL     OW15334   0.883   6.801   2.212
 4812SOL    HW115335   0.884   6.848   2.300
 4812SOL    HW215336   0.871   6.868   2.139
 4813SOL     OW15337   5.816   1.274   6.175
 4813SOL    HW115338   5.846   1.269   6.271
 4813SOL    HW215339   5.770   1.361   6.159
 4814SOL     OW15340   0.014   2.957   1.225
 4814SOL    HW115341   7.003   2.958   1.320
 4814SOL    HW215342   0.112   2.936   1.222
 4815SOL     OW15343   5.468   4.243   3.012
 4815SOL    HW115344   5.408   4.173   2.974
 4815SOL    HW215345   5.478   4.318   2.947
 4816SOL     OW15346   2.745   5.094   1.106
 4816SOL    HW115347   2.766   5.156   1.030
 4816SOL    HW215348   2.745   5.000   1.072
 4817SOL     OW15349   2.470   1.305   0.480
 4817SOL    HW115350   2.501   1.306   0.575
 4817SOL    HW215351   2.414   1.224   0.464
 4818SOL     OW15352   0.437   0.529   4.221
 4818SOL    HW115353   0.371   0.458   4.245
 4818SOL    HW215354   0.413   0.615   4.266
 4819SOL     OW15355   2.418   2.355   1.313
 4819SOL    HW115356   2.458   2.405   1.389
 4819SOL    HW215357   2.352   2.413   1.265
 4820SOL     OW15358   6.464   1.666   0.768
 4820SOL    HW115359   6.518   1.597   0.721
 4820SOL    HW215360   6.369   1.636   0.773
 4821SOL     OW15361   0.410   7.009   1.920
 4821SOL    HW115362   0.503   6.974   1.918
 4821SOL    HW215363   0.380   0.010   1.827
 4822SOL     OW15364   1.856   3.137   4.044
 4822SOL    HW115365   1.758   3.118   4.040
 4822SOL    HW215366   1.903   3.085   3.972
 4823SOL     OW15367   1.057   0.705   3.973
 4823SOL    HW115368   1.053   0.629   3.909
 4823SOL    HW215369   1.128   0.688   4.042
 4824SOL     OW15370   5.431   1.843   4.003
 4824SOL    HW115371   5.459   1.812   4.094
 4824SOL    HW215372   5.469   1.781   3.934
 4825SOL     OW15373   2.005   2.229   4.967
 4825SOL    HW115374   1.934   2.178   4.918
 4825SOL    HW215375   1.966   2.312   5.006
 4826SOL     OW15376   0.297   0.650   6.270
 4826SOL    HW115377   0.337   0.566   6.233
 4826SOL    HW215378   0.245   0.697   6.198
 4827SOL     OW15379   5.644   2.392   1.808
 4827SOL    HW115380   5.700   2.345   1.740
 4827SOL    HW215381   5.561   2.339   1.825
 4828SOL     OW15382   5.557   2.695   0.994
 4828SOL    HW115383   5.475   2.717   1.046
 4828SOL    HW215384   5.602   2.780   0.966
 4829SOL     OW15385   3.715   6.436   6.925
 4829SOL    HW115386   3.650   6.479   6.987
 4829SOL    HW215387   3.667   6.400   6.846
 4830SOL     OW15388   4.339   6.439   3.628
 4830SOL    HW115389   4.412   6.459   3.562
 4830SOL    HW215390   4.275   6.516   3.632
 4831SOL     OW15391   0.191   4.981   6.662
 4831SOL    HW115392   0.124   4.926   6.612
 4831SOL    HW215393   0.180   4.968   6.760
 4832SOL     OW15394   2.959   2.512   5.870
 4832SOL    HW115395   2.906   2.520   5.786
 4832SOL    HW215396   2.983   2.416   5.886
 4833SOL     OW15397   4.999   2.019   3.183
 4833SOL    HW115398   5.063   2.083   3.142
 4833SOL    HW215399   4.934   2.070   3.241
 4834SOL     OW15400   3.908   6.936   0.998
 4834SOL    HW115401   3.868   0.007   0.995
 4834SOL    HW215402   3.866   6.879   0.927
 4835SOL     OW15403   0.452   1.763   6.433
 4835SOL    HW115404   0.504   1.801   6.510
 4835SOL    HW215405   0.355   1.783   6.446
 4836SOL     OW15406   4.941   2.971   4.113
 4836SOL    HW115407   4.875   2.941   4.183
 4836SOL    HW215408   4.893   2.983   4.026
 4837SOL     OW15409   5.332   4.203   2.056
 4837SOL    HW115410   5.371   4.170   1.970
 4837SOL    HW215411   5.405   4.221   2.122
 4838SOL     OW15412   1.024   4.738   1.457
 4838SOL    HW115413   0.925   4.726   1.460
 4838SOL    HW215414   1.066   4.687   1.531
 4839SOL     OW15415   1.301   2.947   6.453
 4839SOL    HW115416   1.325   2.851   6.469
 4839SOL    HW215417   1.373   3.006   6.490
 4840SOL     OW15418   0.610   5.519   5.808
 4840SOL    HW115419   0.550   5.466   5.748
 4840SOL    HW215420   0.702   5.480   5.805
 4841SOL     OW15421   3.175   6.227   1.892
 4841SOL    HW115422   3.117   6.154   1.931
 4841SOL    HW215423   3.270   6.210   1.916
 4842SOL     OW15424   3.319   4.907   2.210
 4842SOL    HW115425   3.268   4.874   2.289
 4842SOL    HW215426   3.304   4.844   2.133
 4843SOL     OW15427   6.190   3.427   0.182
 4843SOL    HW115428   6.251   3.378   0.119
 4843SOL    HW215429   6.096   3.424   0.148
 4844SOL     OW15430   6.409   3.918   5.460
 4844SOL    HW115431   6.449   3.838   5.416
 4844SOL    HW215432   6.481   3.978   5.493
 4845SOL     OW15433   5.444   5.568   5.015
 4845SOL    HW115434   5.453   5.520   5.102
 4845SOL    HW215435   5.351   5.605   5.007
 4846SOL     OW15436   6.488   2.772   3.402
 4846SOL    HW115437   6.505   2.747   3.497
 4846SOL    HW215438   6.552   2.724   3.343
 4847SOL     OW15439   2.671   0.997   6.077
 4847SOL    HW115440   2.687   0.904   6.109
 4847SOL    HW215441   2.756   1.050   6.083
 4848SOL     OW15442   1.532   0.694   3.782
 4848SOL    HW115443   1.615   0.690   3.727
 4848SOL    HW215444   1.472   0.766   3.747
 4849SOL     OW15445   1.536   6.671   6.822
 4849SOL    HW115446   1.600   6.711   6.757
 4849SOL    HW215447   1.540   6.721   6.909
 4850SOL     OW15448   4.182   1.536   2.678
 4850SOL    HW115449   4.260   1.524   2.616
 4850SOL    HW215450   4.171   1.454   2.734
 4851SOL     OW15451   4.078   5.874   5.909
 4851SOL    HW115452   3.989   5.827   5.907
 4851SOL    HW215453   4.139   5.832   5.842
 4852SOL     OW15454   1.061   0.218   5.034
 4852SOL    HW115455   1.123   0.275   4.980
 4852SOL    HW215456   0.985   0.188   4.976
 4853SOL     OW15457   2.983   0.919   3.446
 4853SOL    HW115458   2.918   0.880   3.380
 4853SOL    HW215459   3.027   1.000   3.405
 4854SOL     OW15460   4.603   6.917   1.919
 4854SOL    HW115461   4.628   6.968   2.001
 4854SOL    HW215462   4.601   6.979   1.840
 4855SOL     OW15463   6.475   3.288   2.123
 4855SOL    HW115464   6.429   3.224   2.062
 4855SOL    HW215465   6.530   3.237   2.189
 4856SOL     OW15466   1.714   3.765   2.457
 4856SOL    HW115467   1.617   3.762   2.432
 4856SOL    HW215468   1.759   3.681   2.426
 4857SOL     OW15469   1.705   2.187   4.892
 4857SOL    HW115470   1.686   2.098   4.852
 4857SOL    HW215471   1.639   2.254   4.859
 4858SOL     OW15472   1.082   0.827   4.373
 4858SOL    HW115473   1.122   0.784   4.292
 4858SOL    HW215474   1.106   0.775   4.455
 4859SOL     OW15475   1.011   0.543   4.410
 4859SOL    HW115476   1.051   0.537   4.502
 4859SOL    HW215477   0.991   0.639   4.389
 4860SOL     OW15478   3.620   4.350   1.433
 4860SOL    HW115479   3.637   4.445   1.407
 4860SOL    HW215480   3.638   4.337   1.530
 4861SOL     OW15481   5.217   4.869   6.879
 4861SOL    HW115482   5.230   4.884   6.781
 4861SOL    HW215483   5.133   4.816   6.894
 4862SOL     OW15484   2.462   4.907   4.508
 4862SOL    HW115485   2.391   4.853   4.553
 4862SOL    HW215486   2.433   4.929   4.415
 4863SOL     OW15487   5.929   3.590   1.623
 4863SOL    HW115488   5.971   3.667   1.670
 4863SOL    HW215489   5.829   3.600   1.624
 4864SOL     OW15490   3.893   1.183   3.400
 4864SOL    HW115491   3.962   1.148   3.463
 4864SOL    HW215492   3.932   1.194   3.309
 4865SOL     OW15493   2.261   0.362   5.170
 4865SOL    HW115494   2.278   0.323   5.261
 4865SOL    HW215495   2.195   0.304   5.121
 4866SOL     OW15496   6.266   2.157   1.282
 4866SOL    HW115497   6.320   2.175   1.365
 4866SOL    HW215498   6.184   2.213   1.283
 4867SOL     OW15499   3.659   5.542   2.093
 4867SOL    HW115500   3.651   5.632   2.136
 4867SOL    HW215501   3.724   5.486   2.145
 4868SOL     OW15502   6.514   5.483   2.706
 4868SOL    HW115503   6.601   5.516   2.670
 4868SOL    HW215504   6.443   5.491   2.636
 4869SOL     OW15505   1.609   1.790   1.423
 4869SOL    HW115506   1.539   1.781   1.493
 4869SOL    HW215507   1.576   1.748   1.338
 4870SOL     OW15508   6.964   6.440   2.074
 4870SOL    HW115509   6.915   6.515   2.030
 4870SOL    HW215510   6.928   6.353   2.041
 4871SOL     OW15511   1.339   0.457   3.781
 4871SOL    HW115512   1.424   0.509   3.789
 4871SOL    HW215513   1.344   0.378   3.842
 4872SOL     OW15514   6.415   0.048   3.891
 4872SOL    HW115515   6.423   0.143   3.861
 4872SOL    HW215516   6.318   0.026   3.906
 4873SOL     OW15517   6.418   5.432   3.246
 4873SOL    HW115518   6.359   5.352   3.255
 4873SOL    HW215519   6.469   5.426   3.161
 4874SOL     OW15520   6.844   3.376   2.296
 4874SOL    HW115521   6.789   3.333   2.224
 4874SOL    HW215522   6.789   3.385   2.379
 4875SOL     OW15523   5.978   2.423   0.928
 4875SOL    HW115524   6.000   2.455   1.020
 4875SOL    HW215525   5.970   2.501   0.867
 4876SOL     OW15526   6.113   1.998   3.380
 4876SOL    HW115527   6.062   2.028   3.461
 4876SOL    HW215528   6.072   1.914   3.344
 4877SOL     OW15529   1.126   2.423   6.295
 4877SOL    HW115530   1.054   2.471   6.344
 4877SOL    HW215531   1.210   2.425   6.350
 4878SOL     OW15532   6.374   1.376   2.343
 4878SOL    HW115533   6.426   1.377   2.428
 4878SOL    HW215534   6.279   1.350   2.362
 4879SOL     OW15535   4.131   1.039   2.597
 4879SOL    HW115536   4.096   0.989   2.517
 4879SOL    HW215537   4.057   1.095   2.635
 4880SOL     OW15538   5.534   3.508   0.287
 4880SOL    HW115539   5.546   3.583   0.351
 4880SOL    HW215540   5.586   3.428   0.318
 4881SOL     OW15541   1.522   0.408   0.220
 4881SOL    HW115542   1.441   0.409   0.160
 4881SOL    HW215543   1.499   0.362   0.306
 4882SOL     OW15544   5.007   0.669   4.749
 4882SOL    HW115545   5.083   0.628   4.799
 4882SOL    HW215546   5.043   0.729   4.677
 4883SOL     OW15547   4.886   4.867   2.004
 4883SOL    HW115548   4.809   4.823   2.050
 4883SOL    HW215549   4.956   4.889   2.071
 4884SOL     OW15550   2.486   6.941   1.109
 4884SOL    HW115551   2.453   6.890   1.029
 4884SOL    HW215552   2.582   6.920   1.125
 4885SOL     OW15553   2.419   5.420   1.801
 4885SOL    HW115554   2.426   5.416   1.900
 4885SOL    HW215555   2.497   5.472   1.765
 4886SOL     OW15556   0.918   5.981   1.440
 4886SOL    HW115557   0.864   5.963   1.522
 4886SOL    HW215558   0.899   6.073   1.406
 4887SOL     OW15559   0.463   0.646   2.272
 4887SOL    HW115560   0.414   0.710   2.331
 4887SOL    HW215561   0.455   0.676   2.177
 4888SOL     OW15562   2.767   0.055   3.918
 4888SOL    HW115563   2.806   7.011   3.853
 4888SOL    HW215564   2.669   0.067   3.899
 4889SOL     OW15565   0.020   1.482   5.490
 4889SOL    HW115566   0.003   1.448   5.398
 4889SOL    HW215567   0.111   1.522   5.494
 4890SOL     OW15568   0.363   1.178   6.743
 4890SOL    HW115569   0.459   1.205   6.747
 4890SOL    HW215570   0.314   1.236   6.679
 4891SOL     OW15571   2.059   4.614   6.765
 4891SOL    HW115572   1.972   4.567   6.749
 4891SOL    HW215573   2.132   4.569   6.712
 4892SOL     OW15574   3.767   5.956   2.012
 4892SOL    HW115575   3.718   5.978   1.928
 4892SOL    HW215576   3.816   6.037   2.045
 4893SOL     OW15577   6.757   3.150   1.422
 4893SOL    HW115578   6.848   3.166   1.460
 4893SOL    HW215579   6.723   3.234   1.379
 4894SOL     OW15580   2.336   0.914   3.790
 4894SOL    HW115581   2.292   1.000   3.762
 4894SOL    HW215582   2.433   0.930   3.804
 4895SOL     OW15583   0.692   4.586   4.046
 4895SOL    HW115584   0.606   4.552   4.007
 4895SOL    HW215585   0.711   4.540   4.132
 4896SOL     OW15586   1.743   4.938   1.913
 4896SOL    HW115587   1.739   4.891   1.825
 4896SOL    HW215588   1.735   5.036   1.899
 4897SOL     OW15589   2.143   3.670   5.567
 4897SOL    HW115590   2.232   3.699   5.530
 4897SOL    HW215591   2.098   3.748   5.610
 4898SOL     OW15592   4.142   0.662   4.273
 4898SOL    HW115593   4.097   0.752   4.273
 4898SOL    HW215594   4.214   0.662   4.204
 4899SOL     OW15595   5.310   5.495   3.536
 4899SOL    HW115596   5.305   5.594   3.524
 4899SOL    HW215597   5.231   5.464   3.588
 4900SOL     OW15598   3.534   6.108   4.802
 4900SOL    HW115599   3.593   6.075   4.728
 4900SOL    HW215600   3.438   6.091   4.777
 4901SOL     OW15601   3.064   0.503   5.091
 4901SOL    HW115602   2.968   0.522   5.113
 4901SOL    HW215603   3.118   0.585   5.103
 4902SOL     OW15604   2.148   1.668   4.800
 4902SOL    HW115605   2.223   1.722   4.838
 4902SOL    HW215606   2.124   1.703   4.709
 4903SOL     OW15607   3.882   5.448   6.983
 4903SOL    HW115608   3.906   5.545   6.983
 4903SOL    HW215609   3.911   5.406   6.897
 4904SOL     OW15610   2.596   0.300   4.737
 4904SOL    HW115611   2.505   0.267   4.761
 4904SOL    HW215612   2.589   0.367   4.662
 4905SOL     OW15613   3.824   0.031   2.761
 4905SOL    HW115614   3.755   0.100   2.740
 4905SOL    HW215615   3.915   0.070   2.748
 4906SOL     OW15616   5.221   2.401   6.116
 4906SOL    HW115617   5.263   2.323   6.069
 4906SOL    HW215618   5.122   2.389   6.120
 4907SOL     OW15619   4.210   6.071   1.935
 4907SOL    HW115620   4.178   6.128   2.011
 4907SOL    HW215621   4.304   6.096   1.911
 4908SOL     OW15622   5.518   5.549   0.600
 4908SOL    HW115623   5.586   5.530   0.671
 4908SOL    HW215624   5.558   5.531   0.510
 4909SOL     OW15625   0.452   6.750   3.974
 4909SOL    HW115626   0.491   6.768   4.065
 4909SOL    HW215627   0.354   6.731   3.983
 4910SOL     OW15628   5.814   1.216   4.648
 4910SOL    HW115629   5.832   1.293   4.709
 4910SOL    HW215630   5.769   1.143   4.700
 4911SOL     OW15631   1.480   4.279   4.020
 4911SOL    HW115632   1.406   4.338   4.052
 4911SOL    HW215633   1.458   4.183   4.041
 4912SOL     OW15634   5.701   1.723   6.284
 4912SOL    HW115635   5.773   1.689   6.345
 4912SOL    HW215636   5.640   1.783   6.334
 4913SOL     OW15637   3.894   2.962   5.199
 4913SOL    HW115638   3.891   2.947   5.100
 4913SOL    HW215639   3.952   3.041   5.219
 4914SOL     OW15640   3.134   0.097   4.537
 4914SOL    HW115641   3.132   0.055   4.447
 4914SOL    HW215642   3.047   0.143   4.555
 4915SOL     OW15643   3.659   6.273   6.049
 4915SOL    HW115644   3.681   6.348   5.986
 4915SOL    HW215645   3.692   6.296   6.140
 4916SOL     OW15646   1.058   0.281   3.901
 4916SOL    HW115647   1.026   0.308   3.993
 4916SOL    HW215648   1.066   0.363   3.844
 4917SOL     OW15649   2.631   5.676   1.357
 4917SOL    HW115650   2.729   5.659   1.351
 4917SOL    HW215651   2.613   5.746   1.426
 4918SOL     OW15652   4.946   5.282   3.267
 4918SOL    HW115653   4.942   5.203   3.206
 4918SOL    HW215654   4.971   5.364   3.214
 4919SOL     OW15655   3.075   2.887   0.682
 4919SOL    HW115656   3.017   2.820   0.635
 4919SOL    HW215657   3.142   2.923   0.618
 4920SOL     OW15658   5.868   0.849   4.008
 4920SOL    HW115659   5.945   0.788   3.992
 4920SOL    HW215660   5.805   0.806   4.073
 4921SOL     OW15661   1.200   5.091   0.624
 4921SOL    HW115662   1.121   5.127   0.575
 4921SOL    HW215663   1.170   5.028   0.696
 4922SOL     OW15664   2.651   2.495   5.094
 4922SOL    HW115665   2.598   2.580   5.089
 4922SOL    HW215666   2.613   2.436   5.166
 4923SOL     OW15667   3.879   1.832   2.739
 4923SOL    HW115668   3.971   1.794   2.745
 4923SOL    HW215669   3.883   1.923   2.696
 4924SOL     OW15670   3.392   0.935   5.138
 4924SOL    HW115671   3.403   1.029   5.172
 4924SOL    HW215672   3.465   0.878   5.174
 4925SOL     OW15673   6.460   6.841   2.531
 4925SOL    HW115674   6.555   6.872   2.524
 4925SOL    HW215675   6.422   6.868   2.620
 4926SOL     OW15676   4.938   1.107   0.424
 4926SOL    HW115677   5.023   1.059   0.445
 4926SOL    HW215678   4.912   1.089   0.329
 4927SOL     OW15679   3.536   3.793   4.361
 4927SOL    HW115680   3.438   3.774   4.347
 4927SOL    HW215681   3.587   3.706   4.359
 4928SOL     OW15682   2.286   6.462   0.201
 4928SOL    HW115683   2.312   6.370   0.172
 4928SOL    HW215684   2.306   6.527   0.128
 4929SOL     OW15685   6.863   6.208   4.084
 4929SOL    HW115686   6.959   6.207   4.054
 4929SOL    HW215687   6.809   6.263   4.020
 4930SOL     OW15688   5.273   0.737   3.262
 4930SOL    HW115689   5.193   0.683   3.235
 4930SOL    HW215690   5.328   0.684   3.326
 4931SOL     OW15691   0.032   6.630   0.878
 4931SOL    HW115692   0.031   6.585   0.789
 4931SOL    HW215693   0.123   6.669   0.895
 4932SOL     OW15694   3.116   3.263   2.263
 4932SOL    HW115695   3.181   3.189   2.247
 4932SOL    HW215696   3.160   3.351   2.244
 4933SOL     OW15697   2.495   0.202   2.893
 4933SOL    HW115698   2.528   0.273   2.831
 4933SOL    HW215699   2.569   0.172   2.953
 4934SOL     OW15700   2.960   5.929   2.785
 4934SOL    HW115701   3.047   5.885   2.764
 4934SOL    HW215702   2.911   5.947   2.699
 4935SOL     OW15703   1.867   1.766   6.147
 4935SOL    HW115704   1.795   1.816   6.195
 4935SOL    HW215705   1.956   1.802   6.175
 4936SOL     OW15706   2.543   4.282   1.339
 4936SOL    HW115707   2.594   4.349   1.286
 4936SOL    HW215708   2.462   4.325   1.379
 4937SOL     OW15709   6.310   3.217   5.746
 4937SOL    HW115710   6.404   3.221   5.778
 4937SOL    HW215711   6.267   3.307   5.758
 4938SOL     OW15712   2.468   5.194   5.648
 4938SOL    HW115713   2.511   5.241   5.725
 4938SOL    HW215714   2.538   5.158   5.587
 4939SOL     OW15715   5.979   2.293   4.619
 4939SOL    HW115716   5.969   2.215   4.557
 4939SOL    HW215717   5.958   2.264   4.713
 4940SOL     OW15718   0.123   1.306   4.717
 4940SOL    HW115719   0.121   1.223   4.661
 4940SOL    HW215720   0.218   1.326   4.743
 4941SOL     OW15721   5.458   2.234   5.376
 4941SOL    HW115722   5.554   2.244   5.399
 4941SOL    HW215723   5.404   2.298   5.432
 4942SOL     OW15724   5.023   2.255   5.882
 4942SOL    HW115725   5.002   2.158   5.898
 4942SOL    HW215726   4.979   2.285   5.797
 4943SOL     OW15727   4.629   3.314   6.615
 4943SOL    HW115728   4.701   3.351   6.674
 4943SOL    HW215729   4.569   3.255   6.669
 4944SOL     OW15730   1.936   4.454   1.582
 4944SOL    HW115731   1.889   4.513   1.647
 4944SOL    HW215732   1.957   4.505   1.498
 4945SOL     OW15733   1.064   0.394   4.178
 4945SOL    HW115734   1.164   0.391   4.177
 4945SOL    HW215735   1.034   0.433   4.265
 4946SOL     OW15736   1.391   4.507   6.917
 4946SOL    HW115737   1.374   4.577   6.986
 4946SOL    HW215738   1.453   4.438   6.954
 4947SOL     OW15739   2.228   1.136   1.048
 4947SOL    HW115740   2.278   1.052   1.028
 4947SOL    HW215741   2.286   1.215   1.027
 4948SOL     OW15742   1.288   2.077   2.232
 4948SOL    HW115743   1.331   2.054   2.145
 4948SOL    HW215744   1.339   2.034   2.307
 4949SOL     OW15745   4.786   0.060   6.301
 4949SOL    HW115746   4.703   0.026   6.345
 4949SOL    HW215747   4.773   0.154   6.271
 4950SOL     OW15748   2.279   5.868   4.069
 4950SOL    HW115749   2.201   5.834   4.121
 4950SOL    HW215750   2.364   5.840   4.114
 4951SOL     OW15751   5.323   1.581   4.225
 4951SOL    HW115752   5.257   1.590   4.300
 4951SOL    HW215753   5.414   1.607   4.258
 4952SOL     OW15754   0.655   0.731   5.766
 4952SOL    HW115755   0.626   0.827   5.768
 4952SOL    HW215756   0.593   0.676   5.822
 4953SOL     OW15757   2.412   6.278   2.579
 4953SOL    HW115758   2.376   6.285   2.486
 4953SOL    HW215759   2.345   6.316   2.643
 4954SOL     OW15760   3.970   3.327   0.338
 4954SOL    HW115761   3.898   3.345   0.271
 4954SOL    HW215762   3.998   3.413   0.380
 4955SOL     OW15763   2.846   6.212   6.777
 4955SOL    HW115764   2.861   6.277   6.852
 4955SOL    HW215765   2.916   6.141   6.781
 4956SOL     OW15766   2.418   6.819   4.734
 4956SOL    HW115767   2.511   6.848   4.714
 4956SOL    HW215768   2.416   6.721   4.752
 4957SOL     OW15769   6.901   1.856   2.147
 4957SOL    HW115770   6.911   1.829   2.243
 4957SOL    HW215771   6.990   1.852   2.102
 4958SOL     OW15772   6.834   5.363   5.518
 4958SOL    HW115773   6.766   5.410   5.574
 4958SOL    HW215774   6.860   5.422   5.441
 4959SOL     OW15775   6.569   1.406   6.603
 4959SOL    HW115776   6.524   1.381   6.688
 4959SOL    HW215777   6.506   1.392   6.526
 4960SOL     OW15778   3.538   5.426   3.285
 4960SOL    HW115779   3.504   5.339   3.318
 4960SOL    HW215780   3.548   5.423   3.186
 4961SOL     OW15781   4.820   1.391   5.809
 4961SOL    HW115782   4.817   1.485   5.841
 4961SOL    HW215783   4.827   1.389   5.709
 4962SOL     OW15784   6.638   1.961   0.034
 4962SOL    HW115785   6.597   1.916   0.113
 4962SOL    HW215786   6.571   1.964   6.980
 4963SOL     OW15787   6.407   5.719   6.554
 4963SOL    HW115788   6.309   5.729   6.570
 4963SOL    HW215789   6.423   5.643   6.491
 4964SOL     OW15790   3.132   6.716   3.863
 4964SOL    HW115791   3.209   6.673   3.911
 4964SOL    HW215792   3.050   6.709   3.920
 4965SOL     OW15793   0.434   0.376   3.005
 4965SOL    HW115794   0.457   0.473   3.002
 4965SOL    HW215795   0.386   0.355   3.090
 4966SOL     OW15796   2.165   0.171   4.982
 4966SOL    HW115797   2.258   0.132   4.987
 4966SOL    HW215798   2.137   0.178   4.887
 4967SOL     OW15799   3.899   4.238   6.549
 4967SOL    HW115800   3.974   4.304   6.547
 4967SOL    HW215801   3.819   4.278   6.502
 4968SOL     OW15802   6.286   2.434   3.494
 4968SOL    HW115803   6.235   2.362   3.448
 4968SOL    HW215804   6.224   2.509   3.518
 4969SOL     OW15805   2.592   0.404   2.268
 4969SOL    HW115806   2.592   0.455   2.182
 4969SOL    HW215807   2.519   0.335   2.265
 4970SOL     OW15808   1.835   1.853   3.563
 4970SOL    HW115809   1.817   1.891   3.472
 4970SOL    HW215810   1.919   1.893   3.600
 4971SOL     OW15811   6.731   6.629   4.413
 4971SOL    HW115812   6.717   6.721   4.378
 4971SOL    HW215813   6.671   6.613   4.492
 4972SOL     OW15814   2.410   2.835   6.954
 4972SOL    HW115815   2.382   2.858   6.860
 4972SOL    HW215816   2.361   2.895   7.018
 4973SOL     OW15817   1.302   0.640   2.512
 4973SOL    HW115818   1.379   0.600   2.463
 4973SOL    HW215819   1.319   0.634   2.611
 4974SOL     OW15820   6.106   4.970   1.677
 4974SOL    HW115821   6.187   4.914   1.663
 4974SOL    HW215822   6.029   4.913   1.706
 4975SOL     OW15823   5.254   5.159   5.432
 4975SOL    HW115824   5.197   5.116   5.501
 4975SOL    HW215825   5.276   5.094   5.359
 4976SOL     OW15826   2.607   6.771   3.864
 4976SOL    HW115827   2.617   6.840   3.793
 4976SOL    HW215828   2.584   6.816   3.951
 4977SOL     OW15829   4.180   3.871   0.715
 4977SOL    HW115830   4.212   3.956   0.757
 4977SOL    HW215831   4.098   3.889   0.661
 4978SOL     OW15832   0.234   4.150   5.665
 4978SOL    HW115833   0.200   4.073   5.720
 4978SOL    HW215834   0.156   4.202   5.630
 4979SOL     OW15835   0.397   0.040   5.471
 4979SOL    HW115836   0.415   6.981   5.530
 4979SOL    HW215837   0.419   0.017   5.376
 4980SOL     OW15838   4.547   6.145   3.450
 4980SOL    HW115839   4.613   6.073   3.469
 4980SOL    HW215840   4.462   6.127   3.500
 4981SOL     OW15841   5.348   6.325   6.464
 4981SOL    HW115842   5.340   6.300   6.368
 4981SOL    HW215843   5.329   6.423   6.475
 4982SOL     OW15844   2.361   1.648   6.132
 4982SOL    HW115845   2.379   1.581   6.060
 4982SOL    HW215846   2.381   1.608   6.221
 4983SOL     OW15847   5.427   2.071   4.700
 4983SOL    HW115848   5.477   2.104   4.781
 4983SOL    HW215849   5.338   2.116   4.695
 4984SOL     OW15850   5.971   4.529   4.309
 4984SOL    HW115851   5.900   4.495   4.370
 4984SOL    HW215852   6.013   4.610   4.348
 4985SOL     OW15853   6.191   6.194   3.417
 4985SOL    HW115854   6.273   6.139   3.433
 4985SOL    HW215855   6.218   6.288   3.397
 4986SOL     OW15856   5.953   4.154   2.615
 4986SOL    HW115857   5.902   4.193   2.538
 4986SOL    HW215858   5.986   4.227   2.674
 4987SOL     OW15859   1.090   1.322   0.992
 4987SOL    HW115860   1.055   1.228   0.987
 4987SOL    HW215861   1.033   1.381   0.935
 4988SOL     OW15862   5.933   1.127   3.097
 4988SOL    HW115863   5.834   1.128   3.091
 4988SOL    HW215864   5.963   1.041   3.138
 4989SOL     OW15865   5.445   0.468   1.119
 4989SOL    HW115866   5.530   0.486   1.068
 4989SOL    HW215867   5.457   0.387   1.176
 4990SOL     OW15868   2.130   1.420   5.477
 4990SOL    HW115869   2.197   1.394   5.408
 4990SOL    HW215870   2.079   1.338   5.505
 4991SOL     OW15871   6.885   4.063   4.300
 4991SOL    HW115872   6.950   3.992   4.272
 4991SOL    HW215873   6.818   4.024   4.363
 4992SOL     OW15874   4.702   0.939   4.594
 4992SOL    HW115875   4.619   0.977   4.635
 4992SOL    HW215876   4.686   0.923   4.496
 4993SOL     OW15877   3.419   4.928   3.997
 4993SOL    HW115878   3.511   4.920   4.035
 4993SOL    HW215879   3.384   5.020   4.013
 4994SOL     OW15880   1.873   0.005   2.377
 4994SOL    HW115881   1.804   6.960   2.409
 4994SOL    HW215882   1.937   6.978   2.316
 4995SOL     OW15883   6.557   3.156   5.390
 4995SOL    HW115884   6.473   3.132   5.440
 4995SOL    HW215885   6.582   3.081   5.329
 4996SOL     OW15886   1.329   1.140   2.448
 4996SOL    HW115887   1.229   1.145   2.454
 4996SOL    HW215888   1.363   1.213   2.389
 4997SOL     OW15889   5.942   1.807   3.227
 4997SOL    HW115890   5.844   1.788   3.236
 4997SOL    HW215891   5.975   1.770   3.140
 4998SOL     OW15892   2.082   3.970   5.089
 4998SOL    HW115893   2.178   3.993   5.104
 4998SOL    HW215894   2.056   3.893   5.147
 4999SOL     OW15895   5.974   4.512   1.530
 4999SOL    HW115896   5.928   4.594   1.496
 4999SOL    HW215897   6.047   4.487   1.467
 5000SOL     OW15898   2.545   6.167   4.111
 5000SOL    HW115899   2.628   6.196   4.159
 5000SOL    HW215900   2.565   6.157   4.013
 5001SOL     OW15901   1.461   4.190   1.090
 5001SOL    HW115902   1.498   4.125   1.024
 5001SOL    HW215903   1.365   4.209   1.068
 5002SOL     OW15904   1.253   3.207   3.288
 5002SOL    HW115905   1.287   3.259   3.210
 5002SOL    HW215906   1.322   3.140   3.316
 5003SOL     OW15907   2.439   6.125   2.902
 5003SOL    HW115908   2.420   6.030   2.929
 5003SOL    HW215909   2.477   6.125   2.809
 5004SOL     OW15910   3.349   4.798   5.565
 5004SOL    HW115911   3.376   4.827   5.473
 5004SOL    HW215912   3.421   4.740   5.604
 5005SOL     OW15913   3.504   2.124   0.758
 5005SOL    HW115914   3.533   2.109   0.664
 5005SOL    HW215915   3.581   2.157   0.812
 5006SOL     OW15916   4.758   7.014   6.760
 5006SOL    HW115917   4.689   6.998   6.831
 5006SOL    HW215918   4.847   6.982   6.793
 5007SOL     OW15919   1.754   0.144   6.921
 5007SOL    HW115920   1.740   0.243   6.926
 5007SOL    HW215921   1.679   0.102   6.870
 5008SOL     OW15922   6.218   0.258   3.436
 5008SOL    HW115923   6.217   0.357   3.418
 5008SOL    HW215924   6.201   0.208   3.351
 5009SOL     OW15925   1.845   6.215   1.347
 5009SOL    HW115926   1.939   6.181   1.342
 5009SOL    HW215927   1.785   6.142   1.381
 5010SOL     OW15928   3.647   2.884   3.062
 5010SOL    HW115929   3.664   2.903   2.965
 5010SOL    HW215930   3.549   2.875   3.078
 5011SOL     OW15931   1.856   3.585   2.649
 5011SOL    HW115932   1.908   3.671   2.643
 5011SOL    HW215933   1.861   3.538   2.560
 5012SOL     OW15934   4.942   3.672   6.498
 5012SOL    HW115935   4.910   3.590   6.449
 5012SOL    HW215936   5.018   3.712   6.448
 5013SOL     OW15937   5.221   1.572   0.094
 5013SOL    HW115938   5.305   1.612   0.059
 5013SOL    HW215939   5.231   1.472   0.100
 5014SOL     OW15940   5.411   4.180   0.836
 5014SOL    HW115941   5.322   4.226   0.833
 5014SOL    HW215942   5.406   4.094   0.786
 5015SOL     OW15943   4.542   2.092   3.800
 5015SOL    HW115944   4.478   2.061   3.871
 5015SOL    HW215945   4.542   2.192   3.798
 5016SOL     OW15946   2.728   2.054   0.745
 5016SOL    HW115947   2.770   2.124   0.804
 5016SOL    HW215948   2.661   2.003   0.798
 5017SOL     OW15949   1.381   2.336   6.535
 5017SOL    HW115950   1.364   2.259   6.473
 5017SOL    HW215951   1.478   2.338   6.559
 5018SOL     OW15952   0.746   3.972   1.563
 5018SOL    HW115953   0.703   3.882   1.555
 5018SOL    HW215954   0.679   4.043   1.538
 5019SOL     OW15955   1.927   5.077   6.874
 5019SOL    HW115956   2.004   5.117   6.923
 5019SOL    HW215957   1.961   5.022   6.798
 5020SOL     OW15958   4.951   0.073   5.932
 5020SOL    HW115959   4.909   0.163   5.926
 5020SOL    HW215960   4.880   0.003   5.931
 5021SOL     OW15961   1.524   2.011   5.855
 5021SOL    HW115962   1.563   2.034   5.766
 5021SOL    HW215963   1.566   2.068   5.925
 5022SOL     OW15964   1.752   0.079   0.188
 5022SOL    HW115965   1.773   0.109   0.094
 5022SOL    HW215966   1.657   0.051   0.193
 5023SOL     OW15967   6.354   2.609   1.213
 5023SOL    HW115968   6.373   2.704   1.238
 5023SOL    HW215969   6.407   2.547   1.271
 5024SOL     OW15970   6.742   5.744   2.892
 5024SOL    HW115971   6.809   5.761   2.964
 5024SOL    HW215972   6.786   5.699   2.814
 5025SOL     OW15973   4.018   2.032   2.150
 5025SOL    HW115974   4.052   2.100   2.085
 5025SOL    HW215975   4.019   1.942   2.107
 5026SOL     OW15976   5.879   6.360   6.771
 5026SOL    HW115977   5.925   6.399   6.691
 5026SOL    HW215978   5.937   6.289   6.812
 5027SOL     OW15979   0.556   6.949   2.375
 5027SOL    HW115980   0.459   6.962   2.354
 5027SOL    HW215981   0.567   6.865   2.428
 5028SOL     OW15982   0.231   6.313   3.291
 5028SOL    HW115983   0.190   6.279   3.376
 5028SOL    HW215984   0.161   6.317   3.219
 5029SOL     OW15985   0.048   3.619   3.355
 5029SOL    HW115986   0.126   3.592   3.411
 5029SOL    HW215987   0.078   3.630   3.260
 5030SOL     OW15988   0.004   0.987   6.311
 5030SOL    HW115989   0.024   1.058   6.243
 5030SOL    HW215990   0.048   0.901   6.284
 5031SOL     OW15991   5.699   0.349   5.002
 5031SOL    HW115992   5.665   0.443   4.989
 5031SOL    HW215993   5.705   0.329   5.099
 5032SOL     OW15994   1.346   3.850   1.019
 5032SOL    HW115995   1.431   3.860   1.072
 5032SOL    HW215996   1.350   3.765   0.967
 5033SOL     OW15997   1.846   5.497   6.500
 5033SOL    HW115998   1.861   5.565   6.571
 5033SOL    HW215999   1.886   5.529   6.414
 5034SOL     OW16000   6.410   1.634   2.864
 5034SOL    HW116001   6.506   1.662   2.869
 5034SOL    HW216002   6.366   1.679   2.786
 5035SOL     OW16003   6.314   4.507   0.624
 5035SOL    HW116004   6.373   4.477   0.550
 5035SOL    HW216005   6.274   4.596   0.602
 5036SOL     OW16006   0.071   4.887   6.908
 5036SOL    HW116007   0.066   4.790   6.933
 5036SOL    HW216008   0.091   4.940   6.990
 5037SOL     OW16009   5.508   2.339   2.476
 5037SOL    HW116010   5.456   2.361   2.394
 5037SOL    HW216011   5.592   2.292   2.450
 5038SOL     OW16012   1.887   4.200   5.784
 5038SOL    HW116013   1.801   4.225   5.830
 5038SOL    HW216014   1.939   4.139   5.844
 5039SOL     OW16015   2.563   3.315   5.744
 5039SOL    HW116016   2.477   3.364   5.729
 5039SOL    HW216017   2.616   3.313   5.660
 5040SOL     OW16018   1.930   4.990   6.549
 5040SOL    HW116019   2.017   5.030   6.578
 5040SOL    HW216020   1.864   5.063   6.533
 5041SOL     OW16021   1.887   2.439   1.415
 5041SOL    HW116022   1.886   2.420   1.316
 5041SOL    HW216023   1.843   2.363   1.463
 5042SOL     OW16024   6.392   3.257   0.038
 5042SOL    HW116025   6.432   3.235   6.969
 5042SOL    HW216026   6.345   3.177   0.074
 5043SOL     OW16027   2.555   1.477   6.008
 5043SOL    HW116028   2.571   1.563   6.056
 5043SOL    HW216029   2.499   1.417   6.065
 5044SOL     OW16030   5.924   6.370   2.273
 5044SOL    HW116031   5.934   6.436   2.347
 5044SOL    HW216032   5.930   6.418   2.185
 5045SOL     OW16033   5.977   2.817   0.107
 5045SOL    HW116034   5.988   2.848   0.202
 5045SOL    HW216035   6.066   2.788   0.071
 5046SOL     OW16036   3.427   4.195   4.737
 5046SOL    HW116037   3.450   4.109   4.692
 5046SOL    HW216038   3.429   4.270   4.670
 5047SOL     OW16039   0.287   2.730   2.081
 5047SOL    HW116040   0.338   2.755   2.163
 5047SOL    HW216041   0.339   2.662   2.029
 5048SOL     OW16042   0.294   1.308   1.335
 5048SOL    HW116043   0.339   1.314   1.424
 5048SOL    HW216044   0.202   1.347   1.341
 5049SOL     OW16045   6.175   1.675   4.112
 5049SOL    HW116046   6.251   1.680   4.048
 5049SOL    HW216047   6.196   1.726   4.194
 5050SOL     OW16048   1.076   0.987   1.867
 5050SOL    HW116049   1.044   0.894   1.847
 5050SOL    HW216050   1.107   0.991   1.962
 5051SOL     OW16051   4.367   3.142   0.426
 5051SOL    HW116052   4.388   3.057   0.377
 5051SOL    HW216053   4.274   3.137   0.463
 5052SOL     OW16054   2.828   5.281   5.754
 5052SOL    HW116055   2.836   5.256   5.657
 5052SOL    HW216056   2.733   5.306   5.774
 5053SOL     OW16057   1.556   4.128   3.586
 5053SOL    HW116058   1.655   4.127   3.598
 5053SOL    HW216059   1.520   4.036   3.605
 5054SOL     OW16060   3.606   5.426   5.414
 5054SOL    HW116061   3.671   5.444   5.488
 5054SOL    HW216062   3.524   5.481   5.427
 5055SOL     OW16063   1.146   0.227   5.500
 5055SOL    HW116064   1.228   0.197   5.450
 5055SOL    HW216065   1.069   0.231   5.437
 5056SOL     OW16066   6.512   3.586   0.904
 5056SOL    HW116067   6.602   3.562   0.869
 5056SOL    HW216068   6.456   3.504   0.913
 5057SOL     OW16069   0.601   5.438   4.450
 5057SOL    HW116070   0.630   5.352   4.491
 5057SOL    HW216071   0.611   5.513   4.516
 5058SOL     OW16072   2.327   3.490   5.742
 5058SOL    HW116073   2.329   3.553   5.665
 5058SOL    HW216074   2.259   3.520   5.809
 5059SOL     OW16075   5.627   3.049   3.828
 5059SOL    HW116076   5.681   3.132   3.812
 5059SOL    HW216077   5.639   2.987   3.751
 5060SOL     OW16078   0.486   2.711   5.345
 5060SOL    HW116079   0.506   2.667   5.433
 5060SOL    HW216080   0.524   2.804   5.345
 5061SOL     OW16081   3.470   3.195   3.577
 5061SOL    HW116082   3.570   3.192   3.573
 5061SOL    HW216083   3.436   3.271   3.521
 5062SOL     OW16084   5.548   1.584   2.735
 5062SOL    HW116085   5.589   1.598   2.826
 5062SOL    HW216086   5.544   1.672   2.687
 5063SOL     OW16087   1.498   6.460   1.979
 5063SOL    HW116088   1.527   6.389   2.044
 5063SOL    HW216089   1.525   6.550   2.014
 5064SOL     OW16090   4.658   4.340   1.686
 5064SOL    HW116091   4.602   4.278   1.741
 5064SOL    HW216092   4.662   4.430   1.731
 5065SOL     OW16093   1.195   1.668   3.273
 5065SOL    HW116094   1.237   1.751   3.238
 5065SOL    HW216095   1.202   1.595   3.205
 5066SOL     OW16096   3.700   3.737   1.204
 5066SOL    HW116097   3.633   3.811   1.195
 5066SOL    HW216098   3.775   3.768   1.263
 5067SOL     OW16099   3.037   1.024   2.581
 5067SOL    HW116100   3.090   0.963   2.522
 5067SOL    HW216101   2.944   0.987   2.591
 5068SOL     OW16102   3.422   5.115   0.216
 5068SOL    HW116103   3.360   5.045   0.252
 5068SOL    HW216104   3.462   5.166   0.292
 5069SOL     OW16105   1.638   2.451   5.896
 5069SOL    HW116106   1.727   2.440   5.852
 5069SOL    HW216107   1.629   2.386   5.971
 5070SOL     OW16108   5.178   4.869   4.739
 5070SOL    HW116109   5.246   4.886   4.810
 5070SOL    HW216110   5.174   4.948   4.677
 5071SOL     OW16111   3.721   1.767   3.567
 5071SOL    HW116112   3.752   1.672   3.577
 5071SOL    HW216113   3.719   1.791   3.470
 5072SOL     OW16114   1.812   1.243   1.036
 5072SOL    HW116115   1.763   1.167   1.080
 5072SOL    HW216116   1.753   1.323   1.033
 5073SOL     OW16117   1.444   4.858   0.804
 5073SOL    HW116118   1.378   4.866   0.730
 5073SOL    HW216119   1.535   4.882   0.771
 5074SOL     OW16120   3.251   2.112   2.155
 5074SOL    HW116121   3.329   2.097   2.093
 5074SOL    HW216122   3.270   2.189   2.215
 5075SOL     OW16123   1.014   2.566   6.711
 5075SOL    HW116124   1.035   2.664   6.711
 5075SOL    HW216125   0.998   2.535   6.804
 5076SOL     OW16126   5.320   0.028   0.947
 5076SOL    HW116127   5.395   0.093   0.965
 5076SOL    HW216128   5.305   0.021   0.849
 5077SOL     OW16129   1.346   4.220   5.718
 5077SOL    HW116130   1.282   4.234   5.642
 5077SOL    HW216131   1.331   4.130   5.758
 5078SOL     OW16132   0.600   0.888   3.904
 5078SOL    HW116133   0.548   0.934   3.976
 5078SOL    HW216134   0.562   0.797   3.887
 5079SOL     OW16135   2.485   2.717   5.157
 5079SOL    HW116136   2.503   2.812   5.182
 5079SOL    HW216137   2.404   2.712   5.099
 5080SOL     OW16138   6.256   5.998   5.497
 5080SOL    HW116139   6.192   6.017   5.422
 5080SOL    HW216140   6.250   6.070   5.565
 5081SOL     OW16141   2.438   3.686   5.566
 5081SOL    HW116142   2.425   3.758   5.634
 5081SOL    HW216143   2.441   3.725   5.475
 5082SOL     OW16144   4.920   0.001   0.917
 5082SOL    HW116145   4.982   0.021   0.992
 5082SOL    HW216146   4.877   0.085   0.885
 5083SOL     OW16147   2.792   0.154   2.873
 5083SOL    HW116148   2.834   0.196   2.792
 5083SOL    HW216149   2.859   0.095   2.918
 5084SOL     OW16150   0.554   5.107   3.842
 5084SOL    HW116151   0.621   5.099   3.769
 5084SOL    HW216152   0.508   5.196   3.836
 5085SOL     OW16153   6.604   2.595   5.500
 5085SOL    HW116154   6.685   2.632   5.455
 5085SOL    HW216155   6.539   2.564   5.431
 5086SOL     OW16156   1.518   4.753   2.819
 5086SOL    HW116157   1.522   4.661   2.782
 5086SOL    HW216158   1.470   4.751   2.907
 5087SOL     OW16159   1.086   5.285   2.176
 5087SOL    HW116160   1.053   5.318   2.264
 5087SOL    HW216161   1.136   5.358   2.130
 5088SOL     OW16162   5.855   6.968   3.993
 5088SOL    HW116163   5.917   6.909   3.940
 5088SOL    HW216164   5.814   6.915   4.067
 5089SOL     OW16165   6.213   4.802   3.999
 5089SOL    HW116166   6.287   4.735   4.006
 5089SOL    HW216167   6.125   4.755   4.000
 5090SOL     OW16168   1.804   2.620   2.566
 5090SOL    HW116169   1.705   2.633   2.568
 5090SOL    HW216170   1.847   2.684   2.630
 5091SOL     OW16171   6.635   1.133   1.784
 5091SOL    HW116172   6.592   1.072   1.850
 5091SOL    HW216173   6.679   1.079   1.712
 5092SOL     OW16174   3.397   3.446   3.477
 5092SOL    HW116175   3.331   3.521   3.483
 5092SOL    HW216176   3.490   3.482   3.481
 5093SOL     OW16177   3.158   1.268   0.609
 5093SOL    HW116178   3.099   1.331   0.558
 5093SOL    HW216179   3.149   1.176   0.573
 5094SOL     OW16180   2.337   5.674   6.059
 5094SOL    HW116181   2.238   5.664   6.044
 5094SOL    HW216182   2.371   5.753   6.008
 5095SOL     OW16183   6.955   2.637   2.725
 5095SOL    HW116184   7.011   2.562   2.760
 5095SOL    HW216185   6.860   2.606   2.713
 5096SOL     OW16186   4.729   4.741   6.676
 5096SOL    HW116187   4.719   4.733   6.577
 5096SOL    HW216188   4.783   4.822   6.698
 5097SOL     OW16189   0.865   0.055   6.184
 5097SOL    HW116190   0.889   0.091   6.274
 5097SOL    HW216191   0.856   0.131   6.120
 5098SOL     OW16192   2.635   0.703   1.694
 5098SOL    HW116193   2.535   0.699   1.701
 5098SOL    HW216194   2.671   0.613   1.671
 5099SOL     OW16195   0.769   6.758   1.459
 5099SOL    HW116196   0.777   6.774   1.361
 5099SOL    HW216197   0.784   6.661   1.479
 5100SOL     OW16198   3.317   5.569   4.602
 5100SOL    HW116199   3.408   5.608   4.594
 5100SOL    HW216200   3.291   5.562   4.698
 5101SOL     OW16201   4.072   7.003   5.870
 5101SOL    HW116202   4.022   0.048   5.927
 5101SOL    HW216203   4.156   0.026   5.836
 5102SOL     OW16204   4.641   6.273   4.793
 5102SOL    HW116205   4.660   6.347   4.728
 5102SOL    HW216206   4.722   6.256   4.848
 5103SOL     OW16207   6.800   1.447   4.420
 5103SOL    HW116208   6.808   1.357   4.377
 5103SOL    HW216209   6.889   1.477   4.452
 5104SOL     OW16210   1.666   6.284   1.853
 5104SOL    HW116211   1.624   6.254   1.767
 5104SOL    HW216212   1.613   6.360   1.890
 5105SOL     OW16213   3.181   2.403   6.944
 5105SOL    HW116214   3.279   2.386   6.933
 5105SOL    HW216215   3.143   2.432   6.856
 5106SOL     OW16216   4.404   1.688   1.077
 5106SOL    HW116217   4.492   1.736   1.085
 5106SOL    HW216218   4.414   1.595   1.112
 5107SOL     OW16219   4.264   2.447   1.579
 5107SOL    HW116220   4.320   2.506   1.637
 5107SOL    HW216221   4.322   2.373   1.542
 5108SOL     OW16222   4.201   4.041   5.327
 5108SOL    HW116223   4.150   4.030   5.242
 5108SOL    HW216224   4.157   4.110   5.384
 5109SOL     OW16225   0.804   1.984   6.857
 5109SOL    HW116226   0.890   1.982   6.908
 5109SOL    HW216227   0.807   2.057   6.788
 5110SOL     OW16228   0.643   0.067   5.897
 5110SOL    HW116229   0.574   0.066   5.969
 5110SOL    HW216230   0.733   0.083   5.938
 5111SOL     OW16231   1.227   0.998   4.537
 5111SOL    HW116232   1.213   0.941   4.456
 5111SOL    HW216233   1.162   1.074   4.537
 5112SOL     OW16234   1.262   0.056   2.629
 5112SOL    HW116235   1.312   0.142   2.633
 5112SOL    HW216236   1.246   0.031   2.533
 5113SOL     OW16237   2.323   5.952   1.149
 5113SOL    HW116238   2.313   6.025   1.217
 5113SOL    HW216239   2.352   5.868   1.195
 5114SOL     OW16240   4.020   0.193   6.523
 5114SOL    HW116241   4.054   0.156   6.436
 5114SOL    HW216242   4.095   0.196   6.589
 5115SOL     OW16243   1.266   5.260   3.378
 5115SOL    HW116244   1.318   5.286   3.297
 5115SOL    HW216245   1.286   5.166   3.402
 5116SOL     OW16246   0.940   6.666   0.201
 5116SOL    HW116247   0.851   6.711   0.211
 5116SOL    HW216248   0.928   6.567   0.210
 5117SOL     OW16249   1.839   3.719   3.988
 5117SOL    HW116250   1.885   3.680   4.068
 5117SOL    HW216251   1.776   3.791   4.018
 5118SOL     OW16252   5.345   0.892   6.961
 5118SOL    HW116253   5.314   0.888   0.035
 5118SOL    HW216254   5.341   0.987   6.929
 5119SOL     OW16255   5.193   1.041   2.511
 5119SOL    HW116256   5.114   1.091   2.546
 5119SOL    HW216257   5.211   0.962   2.569
 5120SOL     OW16258   4.364   6.986   4.761
 5120SOL    HW116259   4.390   6.908   4.818
 5120SOL    HW216260   4.282   0.009   4.799
 5121SOL     OW16261   2.921   2.757   6.842
 5121SOL    HW116262   2.991   2.826   6.861
 5121SOL    HW216263   2.891   2.765   6.748
 5122SOL     OW16264   3.239   6.120   3.231
 5122SOL    HW116265   3.283   6.206   3.255
 5122SOL    HW216266   3.294   6.073   3.162
 5123SOL     OW16267   4.184   2.211   4.482
 5123SOL    HW116268   4.174   2.296   4.535
 5123SOL    HW216269   4.192   2.234   4.385
 5124SOL     OW16270   2.166   5.671   5.147
 5124SOL    HW116271   2.102   5.671   5.070
 5124SOL    HW216272   2.232   5.744   5.135
 5125SOL     OW16273   6.754   3.935   3.785
 5125SOL    HW116274   6.752   3.981   3.696
 5125SOL    HW216275   6.664   3.896   3.805
 5126SOL     OW16276   6.264   5.269   6.224
 5126SOL    HW116277   6.200   5.308   6.290
 5126SOL    HW216278   6.246   5.307   6.134
 5127SOL     OW16279   0.516   3.823   0.216
 5127SOL    HW116280   0.582   3.780   0.278
 5127SOL    HW216281   0.450   3.754   0.185
 5128SOL     OW16282   0.224   0.225   6.169
 5128SOL    HW116283   0.141   0.255   6.122
 5128SOL    HW216284   0.206   0.221   6.268
 5129SOL     OW16285   6.469   0.268   2.500
 5129SOL    HW116286   6.545   0.264   2.565
 5129SOL    HW216287   6.487   0.205   2.425
 5130SOL     OW16288   0.535   5.562   3.434
 5130SOL    HW116289   0.495   5.578   3.344
 5130SOL    HW216290   0.573   5.470   3.437
 5131SOL     OW16291   2.228   4.659   4.195
 5131SOL    HW116292   2.314   4.679   4.148
 5131SOL    HW216293   2.176   4.744   4.206
 5132SOL     OW16294   3.634   3.053   6.819
 5132SOL    HW116295   3.656   3.094   6.908
 5132SOL    HW216296   3.699   3.086   6.750
 5133SOL     OW16297   2.713   5.376   0.240
 5133SOL    HW116298   2.739   5.294   0.189
 5133SOL    HW216299   2.665   5.350   0.324
 5134SOL     OW16300   0.572   3.650   2.775
 5134SOL    HW116301   0.623   3.578   2.823
 5134SOL    HW216302   0.495   3.679   2.832
 5135SOL     OW16303   5.958   3.063   4.412
 5135SOL    HW116304   5.937   3.132   4.343
 5135SOL    HW216305   6.054   3.071   4.439
 5136SOL     OW16306   3.544   0.761   5.953
 5136SOL    HW116307   3.581   0.853   5.954
 5136SOL    HW216308   3.604   0.701   5.899
 5137SOL     OW16309   5.386   2.987   5.886
 5137SOL    HW116310   5.436   2.947   5.809
 5137SOL    HW216311   5.300   2.938   5.898
 5138SOL     OW16312   3.133   2.690   5.657
 5138SOL    HW116313   3.176   2.673   5.745
 5138SOL    HW216314   3.200   2.677   5.584
 5139SOL     OW16315   1.358   0.481   3.012
 5139SOL    HW116316   1.339   0.539   3.091
 5139SOL    HW216317   1.336   0.386   3.034
 5140SOL     OW16318   3.962   2.428   0.238
 5140SOL    HW116319   4.046   2.459   0.194
 5140SOL    HW216320   3.975   2.425   0.337
 5141SOL     OW16321   6.809   3.493   0.092
 5141SOL    HW116322   6.784   3.409   0.045
 5141SOL    HW216323   6.757   3.570   0.053
 5142SOL     OW16324   5.922   0.523   3.759
 5142SOL    HW116325   5.828   0.539   3.730
 5142SOL    HW216326   5.952   0.598   3.819
 5143SOL     OW16327   6.429   4.377   4.122
 5143SOL    HW116328   6.401   4.454   4.064
 5143SOL    HW216329   6.434   4.294   4.067
 5144SOL     OW16330   0.449   4.854   6.578
 5144SOL    HW116331   0.359   4.897   6.581
 5144SOL    HW216332   0.519   4.924   6.570
 5145SOL     OW16333   2.883   4.939   5.738
 5145SOL    HW116334   2.819   5.001   5.783
 5145SOL    HW216335   2.834   4.889   5.666
 5146SOL     OW16336   3.786   4.073   4.971
 5146SOL    HW116337   3.711   4.139   4.963
 5146SOL    HW216338   3.834   4.066   4.884
 5147SOL     OW16339   6.843   5.123   2.610
 5147SOL    HW116340   6.878   5.123   2.703
 5147SOL    HW216341   6.913   5.156   2.547
 5148SOL     OW16342   6.724   6.255   1.593
 5148SOL    HW116343   6.818   6.287   1.588
 5148SOL    HW216344   6.663   6.332   1.609
 5149SOL     OW16345   6.423   5.829   3.200
 5149SOL    HW116346   6.475   5.753   3.162
 5149SOL    HW216347   6.368   5.871   3.129
 5150SOL     OW16348   2.516   5.157   2.640
 5150SOL    HW116349   2.453   5.234   2.629
 5150SOL    HW216350   2.463   5.071   2.638
 5151SOL     OW16351   5.709   2.321   0.719
 5151SOL    HW116352   5.689   2.255   0.646
 5151SOL    HW216353   5.801   2.304   0.754
 5152SOL     OW16354   2.424   4.905   0.273
 5152SOL    HW116355   2.472   4.875   0.355
 5152SOL    HW216356   2.460   4.993   0.243
 5153SOL     OW16357   2.085   0.161   6.938
 5153SOL    HW116358   2.178   0.134   6.964
 5153SOL    HW216359   2.068   0.134   6.843
 5154SOL     OW16360   1.177   3.721   6.391
 5154SOL    HW116361   1.270   3.748   6.369
 5154SOL    HW216362   1.124   3.713   6.307
 5155SOL     OW16363   4.348   6.459   2.331
 5155SOL    HW116364   4.395   6.462   2.419
 5155SOL    HW216365   4.406   6.498   2.260
 5156SOL     OW16366   5.942   3.624   5.764
 5156SOL    HW116367   5.964   3.656   5.672
 5156SOL    HW216368   5.876   3.549   5.759
 5157SOL     OW16369   3.765   2.173   3.522
 5157SOL    HW116370   3.847   2.118   3.533
 5157SOL    HW216371   3.789   2.270   3.523
 5158SOL     OW16372   3.902   1.400   1.782
 5158SOL    HW116373   3.854   1.426   1.699
 5158SOL    HW216374   3.870   1.456   1.858
 5159SOL     OW16375   6.913   3.554   3.877
 5159SOL    HW116376   6.831   3.586   3.924
 5159SOL    HW216377   6.955   3.480   3.931
 5160SOL     OW16378   0.251   4.732   3.498
 5160SOL    HW116379   0.282   4.641   3.469
 5160SOL    HW216380   0.152   4.733   3.505
 5161SOL     OW16381   1.717   3.596   5.566
 5161SOL    HW116382   1.644   3.663   5.577
 5161SOL    HW216383   1.740   3.588   5.469
 5162SOL     OW16384   1.160   5.251   2.952
 5162SOL    HW116385   1.197   5.220   2.864
 5162SOL    HW216386   1.138   5.171   3.008
 5163SOL     OW16387   3.355   6.544   0.264
 5163SOL    HW116388   3.393   6.474   0.324
 5163SOL    HW216389   3.356   6.633   0.311
 5164SOL     OW16390   4.851   2.392   0.166
 5164SOL    HW116391   4.764   2.373   0.120
 5164SOL    HW216392   4.920   2.327   0.136
 5165SOL     OW16393   5.993   4.387   6.182
 5165SOL    HW116394   6.032   4.359   6.270
 5165SOL    HW216395   5.911   4.442   6.197
 5166SOL     OW16396   0.772   5.137   3.309
 5166SOL    HW116397   0.710   5.215   3.320
 5166SOL    HW216398   0.724   5.062   3.264
 5167SOL     OW16399   6.241   6.153   5.733
 5167SOL    HW116400   6.324   6.201   5.760
 5167SOL    HW216401   6.248   6.057   5.757
 5168SOL     OW16402   5.288   4.224   2.666
 5168SOL    HW116403   5.379   4.204   2.629
 5168SOL    HW216404   5.219   4.207   2.596
 5169SOL     OW16405   3.848   1.740   4.649
 5169SOL    HW116406   3.841   1.665   4.583
 5169SOL    HW216407   3.879   1.704   4.737
 5170SOL     OW16408   0.829   4.657   5.810
 5170SOL    HW116409   0.874   4.569   5.824
 5170SOL    HW216410   0.766   4.675   5.886
 5171SOL     OW16411   0.883   5.743   4.552
 5171SOL    HW116412   0.789   5.776   4.554
 5171SOL    HW216413   0.882   5.644   4.537
 5172SOL     OW16414   0.666   1.921   2.039
 5172SOL    HW116415   0.599   1.857   2.000
 5172SOL    HW216416   0.707   1.880   2.120
 5173SOL     OW16417   5.413   4.561   6.364
 5173SOL    HW116418   5.416   4.608   6.452
 5173SOL    HW216419   5.484   4.491   6.360
 5174SOL     OW16420   2.102   4.602   3.336
 5174SOL    HW116421   2.053   4.552   3.264
 5174SOL    HW216422   2.045   4.610   3.417
 5175SOL     OW16423   2.225   3.807   6.695
 5175SOL    HW116424   2.303   3.853   6.653
 5175SOL    HW216425   2.232   3.709   6.682
 5176SOL     OW16426   4.649   2.913   6.728
 5176SOL    HW116427   4.689   2.823   6.712
 5176SOL    HW216428   4.602   2.944   6.645
 5177SOL     OW16429   4.827   0.297   6.949
 5177SOL    HW116430   4.851   0.316   6.854
 5177SOL    HW216431   4.728   0.297   6.959
 5178SOL     OW16432   1.106   4.389   1.911
 5178SOL    HW116433   1.140   4.369   1.820
 5178SOL    HW216434   1.044   4.317   1.941
 5179SOL     OW16435   3.787   6.079   4.105
 5179SOL    HW116436   3.845   6.070   4.186
 5179SOL    HW216437   3.715   6.146   4.122
 5180SOL     OW16438   3.251   3.015   0.524
 5180SOL    HW116439   3.349   3.013   0.545
 5180SOL    HW216440   3.233   3.085   0.456
 5181SOL     OW16441   5.875   2.067   1.949
 5181SOL    HW116442   5.953   2.077   2.011
 5181SOL    HW216443   5.792   2.096   1.996
 5182SOL     OW16444   3.935   4.489   1.730
 5182SOL    HW116445   3.995   4.545   1.786
 5182SOL    HW216446   3.840   4.509   1.752
 5183SOL     OW16447   4.407   1.572   2.505
 5183SOL    HW116448   4.392   1.579   2.406
 5183SOL    HW216449   4.455   1.487   2.525
 5184SOL     OW16450   0.021   2.780   4.349
 5184SOL    HW116451   6.968   2.830   4.396
 5184SOL    HW216452   7.012   2.686   4.332
 5185SOL     OW16453   5.350   0.887   2.871
 5185SOL    HW116454   5.318   0.831   2.795
 5185SOL    HW216455   5.382   0.828   2.945
 5186SOL     OW16456   6.329   3.211   0.411
 5186SOL    HW116457   6.341   3.309   0.397
 5186SOL    HW216458   6.323   3.192   0.509
 5187SOL     OW16459   0.472   0.105   4.170
 5187SOL    HW116460   0.496   0.008   4.169
 5187SOL    HW216461   0.542   0.158   4.122
 5188SOL     OW16462   0.608   5.824   0.366
 5188SOL    HW116463   0.694   5.874   0.361
 5188SOL    HW216464   0.532   5.888   0.357
 5189SOL     OW16465   4.735   4.891   0.589
 5189SOL    HW116466   4.669   4.816   0.602
 5189SOL    HW216467   4.811   4.879   0.652
 5190SOL     OW16468   6.997   3.230   4.428
 5190SOL    HW116469   6.996   3.232   4.528
 5190SOL    HW216470   0.048   3.167   4.397
 5191SOL     OW16471   3.898   0.650   1.747
 5191SOL    HW116472   3.954   0.724   1.709
 5191SOL    HW216473   3.950   0.600   1.816
 5192SOL     OW16474   2.928   5.078   2.480
 5192SOL    HW116475   2.927   5.048   2.384
 5192SOL    HW216476   3.020   5.111   2.503
 5193SOL     OW16477   5.005   4.443   4.495
 5193SOL    HW116478   4.956   4.365   4.455
 5193SOL    HW216479   4.962   4.528   4.465
 5194SOL     OW16480   3.818   1.551   0.198
 5194SOL    HW116481   3.738   1.526   0.143
 5194SOL    HW216482   3.792   1.616   0.268
 5195SOL     OW16483   5.814   6.060   4.809
 5195SOL    HW116484   5.841   6.148   4.848
 5195SOL    HW216485   5.881   5.990   4.835
 5196SOL     OW16486   3.184   4.057   0.815
 5196SOL    HW116487   3.095   4.019   0.788
 5196SOL    HW216488   3.245   3.983   0.842
 5197SOL     OW16489   2.169   5.741   5.393
 5197SOL    HW116490   2.165   5.714   5.297
 5197SOL    HW216491   2.264   5.757   5.420
 5198SOL     OW16492   4.065   6.625   3.047
 5198SOL    HW116493   4.059   6.686   2.969
 5198SOL    HW216494   4.075   6.531   3.015
 5199SOL     OW16495   1.632   6.195   0.385
 5199SOL    HW116496   1.678   6.134   0.451
 5199SOL    HW216497   1.536   6.203   0.409
 5200SOL     OW16498   1.281   1.806   5.541
 5200SOL    HW116499   1.325   1.720   5.516
 5200SOL    HW216500   1.292   1.872   5.467
 5201SOL     OW16501   6.443   6.339   4.241
 5201SOL    HW116502   6.436   6.414   4.176
 5201SOL    HW216503   6.439   6.375   4.334
 5202SOL     OW16504   5.757   4.254   5.579
 5202SOL    HW116505   5.719   4.164   5.558
 5202SOL    HW216506   5.857   4.252   5.567
 5203SOL     OW16507   2.114   0.947   6.701
 5203SOL    HW116508   2.158   0.969   6.614
 5203SOL    HW216509   2.046   0.875   6.686
 5204SOL     OW16510   4.304   6.853   6.829
 5204SOL    HW116511   4.328   6.756   6.831
 5204SOL    HW216512   4.341   6.898   6.910
 5205SOL     OW16513   6.713   5.843   0.180
 5205SOL    HW116514   6.720   5.786   0.099
 5205SOL    HW216515   6.626   5.827   0.225
 5206SOL     OW16516   0.104   4.959   0.157
 5206SOL    HW116517   0.130   5.055   0.157
 5206SOL    HW216518   0.185   4.902   0.148
 5207SOL     OW16519   1.397   6.790   3.902
 5207SOL    HW116520   1.306   6.827   3.916
 5207SOL    HW216521   1.435   6.759   3.989
 5208SOL     OW16522   5.014   2.166   0.069
 5208SOL    HW116523   5.109   2.165   0.035
 5208SOL    HW216524   5.002   2.093   0.136
 5209SOL     OW16525   5.270   0.345   1.491
 5209SOL    HW116526   5.312   0.320   1.578
 5209SOL    HW216527   5.318   0.300   1.416
 5210SOL     OW16528   4.955   3.184   0.534
 5210SOL    HW116529   4.929   3.216   0.625
 5210SOL    HW216530   4.962   3.262   0.472
 5211SOL     OW16531   3.948   2.063   5.350
 5211SOL    HW116532   3.884   2.071   5.426
 5211SOL    HW216533   3.905   2.096   5.266
 5212SOL     OW16534   0.823   3.386   0.595
 5212SOL    HW116535   0.817   3.304   0.538
 5212SOL    HW216536   0.733   3.407   0.633
 5213SOL     OW16537   4.252   3.267   1.056
 5213SOL    HW116538   4.168   3.319   1.041
 5213SOL    HW216539   4.293   3.243   0.969
 5214SOL     OW16540   5.173   2.650   6.166
 5214SOL    HW116541   5.173   2.552   6.145
 5214SOL    HW216542   5.107   2.669   6.238
 5215SOL     OW16543   0.919   4.847   4.141
 5215SOL    HW116544   0.914   4.782   4.065
 5215SOL    HW216545   0.942   4.937   4.106
 5216SOL     OW16546   4.010   4.247   1.618
 5216SOL    HW116547   3.998   4.344   1.637
 5216SOL    HW216548   3.945   4.218   1.548
 5217SOL     OW16549   3.710   5.426   4.439
 5217SOL    HW116550   3.698   5.338   4.485
 5217SOL    HW216551   3.647   5.493   4.479
 5218SOL     OW16552   0.407   1.007   1.233
 5218SOL    HW116553   0.428   1.027   1.329
 5218SOL    HW216554   0.492   0.987   1.184
 5219SOL     OW16555   3.190   1.371   5.036
 5219SOL    HW116556   3.145   1.305   5.096
 5219SOL    HW216557   3.121   1.421   4.984
 5220SOL     OW16558   1.222   5.922   2.615
 5220SOL    HW116559   1.314   5.892   2.590
 5220SOL    HW216560   1.221   6.021   2.627
 5221SOL     OW16561   5.907   1.489   2.748
 5221SOL    HW116562   5.836   1.532   2.803
 5221SOL    HW216563   5.979   1.455   2.807
 5222SOL     OW16564   3.539   6.845   2.440
 5222SOL    HW116565   3.527   6.772   2.373
 5222SOL    HW216566   3.625   6.894   2.422
 5223SOL     OW16567   6.650   2.983   0.107
 5223SOL    HW116568   6.555   3.015   0.105
 5223SOL    HW216569   6.684   2.976   0.014
 5224SOL     OW16570   6.380   3.268   4.329
 5224SOL    HW116571   6.427   3.276   4.241
 5224SOL    HW216572   6.398   3.351   4.383
 5225SOL     OW16573   7.004   1.104   3.917
 5225SOL    HW116574   6.952   1.037   3.865
 5225SOL    HW216575   6.950   1.188   3.925
 5226SOL     OW16576   6.676   6.896   4.594
 5226SOL    HW116577   6.652   6.983   4.551
 5226SOL    HW216578   6.768   6.869   4.563
 5227SOL     OW16579   0.439   3.936   5.281
 5227SOL    HW116580   0.506   3.885   5.335
 5227SOL    HW216581   0.367   3.875   5.250
 5228SOL     OW16582   0.263   2.648   0.168
 5228SOL    HW116583   0.293   2.651   0.073
 5228SOL    HW216584   0.320   2.584   0.219
 5229SOL     OW16585   2.895   6.722   0.256
 5229SOL    HW116586   2.949   6.638   0.251
 5229SOL    HW216587   2.798   6.699   0.261
 5230SOL     OW16588   6.811   6.240   2.010
 5230SOL    HW116589   6.732   6.193   1.970
 5230SOL    HW216590   6.894   6.209   1.965
 5231SOL     OW16591   4.313   2.328   3.964
 5231SOL    HW116592   4.381   2.364   3.901
 5231SOL    HW216593   4.357   2.268   4.031
 5232SOL     OW16594   1.412   3.791   6.276
 5232SOL    HW116595   1.501   3.753   6.302
 5232SOL    HW216596   1.398   3.779   6.178
 5233SOL     OW16597   4.573   1.356   2.576
 5233SOL    HW116598   4.491   1.305   2.550
 5233SOL    HW216599   4.644   1.292   2.604
 5234SOL     OW16600   2.707   2.288   5.939
 5234SOL    HW116601   2.751   2.253   6.022
 5234SOL    HW216602   2.754   2.254   5.858
 5235SOL     OW16603   1.711   2.736   0.963
 5235SOL    HW116604   1.742   2.722   1.057
 5235SOL    HW216605   1.622   2.694   0.950
 5236SOL     OW16606   4.133   5.582   2.106
 5236SOL    HW116607   4.124   5.520   2.028
 5236SOL    HW216608   4.149   5.675   2.072
 5237SOL     OW16609   0.915   0.692   4.898
 5237SOL    HW116610   0.977   0.708   4.975
 5237SOL    HW216611   0.897   0.778   4.851
 5238SOL     OW16612   0.945   4.859   0.395
 5238SOL    HW116613   0.965   4.849   0.493
 5238SOL    HW216614   0.971   4.951   0.365
 5239SOL     OW16615   3.582   2.439   6.152
 5239SOL    HW116616   3.648   2.378   6.109
 5239SOL    HW216617   3.599   2.533   6.121
 5240SOL     OW16618   3.356   2.307   5.396
 5240SOL    HW116619   3.309   2.227   5.433
 5240SOL    HW216620   3.313   2.335   5.310
 5241SOL     OW16621   6.901   5.564   4.313
 5241SOL    HW116622   6.863   5.493   4.254
 5241SOL    HW216623   6.925   5.524   4.402
 5242SOL     OW16624   6.762   0.021   0.349
 5242SOL    HW116625   6.695   0.093   0.334
 5242SOL    HW216626   6.754   7.006   0.442
 5243SOL     OW16627   1.884   5.771   1.472
 5243SOL    HW116628   1.959   5.836   1.468
 5243SOL    HW216629   1.920   5.678   1.477
 5244SOL     OW16630   3.371   4.349   5.870
 5244SOL    HW116631   3.360   4.309   5.961
 5244SOL    HW216632   3.312   4.430   5.862
 5245SOL     OW16633   4.129   4.098   0.192
 5245SOL    HW116634   4.067   4.047   0.131
 5245SOL    HW216635   4.075   4.148   0.260
 5246SOL     OW16636   6.066   2.525   1.197
 5246SOL    HW116637   6.166   2.520   1.201
 5246SOL    HW216638   6.035   2.601   1.254
 5247SOL     OW16639   2.568   0.382   6.234
 5247SOL    HW116640   2.578   0.426   6.323
 5247SOL    HW216641   2.639   0.416   6.172
 5248SOL     OW16642   6.415   1.320   2.859
 5248SOL    HW116643   6.433   1.400   2.915
 5248SOL    HW216644   6.322   1.324   2.823
 5249SOL     OW16645   0.532   5.538   6.442
 5249SOL    HW116646   0.615   5.586   6.414
 5249SOL    HW216647   0.479   5.512   6.361
 5250SOL     OW16648   2.468   5.898   6.977
 5250SOL    HW116649   2.375   5.881   7.009
 5250SOL    HW216650   2.520   5.944   0.029
 5251SOL     OW16651   0.860   3.694   6.764
 5251SOL    HW116652   0.885   3.638   6.842
 5251SOL    HW216653   0.919   3.672   6.686
 5252SOL     OW16654   2.348   6.251   0.522
 5252SOL    HW116655   2.257   6.230   0.484
 5252SOL    HW216656   2.355   6.349   0.541
 5253SOL     OW16657   6.678   3.920   4.406
 5253SOL    HW116658   6.599   3.951   4.353
 5253SOL    HW216659   6.646   3.878   4.491
 5254SOL     OW16660   5.082   1.124   3.036
 5254SOL    HW116661   5.068   1.055   2.965
 5254SOL    HW216662   5.176   1.121   3.068
 5255SOL     OW16663   5.534   2.212   4.922
 5255SOL    HW116664   5.495   2.182   5.008
 5255SOL    HW216665   5.529   2.312   4.916
 5256SOL     OW16666   4.846   1.794   3.923
 5256SOL    HW116667   4.802   1.866   3.869
 5256SOL    HW216668   4.827   1.705   3.882
 5257SOL     OW16669   5.407   0.042   2.183
 5257SOL    HW116670   5.315   0.010   2.208
 5257SOL    HW216671   5.412   0.054   2.084
 5258SOL     OW16672   6.065   3.089   1.523
 5258SOL    HW116673   6.139   3.156   1.525
 5258SOL    HW216674   6.080   3.020   1.593
 5259SOL     OW16675   4.726   6.542   2.306
 5259SOL    HW116676   4.689   6.517   2.216
 5259SOL    HW216677   4.710   6.466   2.370
 5260SOL     OW16678   4.880   3.296   0.762
 5260SOL    HW116679   4.878   3.306   0.861
 5260SOL    HW216680   4.801   3.342   0.722
 5261SOL     OW16681   1.091   3.916   6.063
 5261SOL    HW116682   1.058   4.009   6.048
 5261SOL    HW216683   1.157   3.892   5.992
 5262SOL     OW16684   2.566   1.365   4.047
 5262SOL    HW116685   2.557   1.447   3.991
 5262SOL    HW216686   2.643   1.375   4.109
 5263SOL     OW16687   1.790   1.363   3.588
 5263SOL    HW116688   1.745   1.351   3.677
 5263SOL    HW216689   1.788   1.277   3.538
 5264SOL     OW16690   0.132   2.221   1.900
 5264SOL    HW116691   0.189   2.238   1.820
 5264SOL    HW216692   0.061   2.154   1.876
 5265SOL     OW16693   6.208   3.844   3.849
 5265SOL    HW116694   6.151   3.778   3.799
 5265SOL    HW216695   6.152   3.924   3.872
 5266SOL     OW16696   3.171   4.944   6.895
 5266SOL    HW116697   3.141   4.902   6.809
 5266SOL    HW216698   3.194   5.040   6.878
 5267SOL     OW16699   5.224   2.886   4.819
 5267SOL    HW116700   5.199   2.974   4.859
 5267SOL    HW216701   5.318   2.864   4.844
 5268SOL     OW16702   5.352   1.496   0.400
 5268SOL    HW116703   5.259   1.461   0.389
 5268SOL    HW216704   5.379   1.486   0.496
 5269SOL     OW16705   1.089   5.813   2.811
 5269SOL    HW116706   1.031   5.740   2.775
 5269SOL    HW216707   1.146   5.850   2.738
 5270SOL     OW16708   5.935   1.080   1.458
 5270SOL    HW116709   5.937   1.090   1.358
 5270SOL    HW216710   5.944   0.983   1.481
 5271SOL     OW16711   6.429   5.573   5.802
 5271SOL    HW116712   6.352   5.581   5.739
 5271SOL    HW216713   6.421   5.641   5.875
 5272SOL     OW16714   3.349   5.695   2.017
 5272SOL    HW116715   3.440   5.733   2.031
 5272SOL    HW216716   3.283   5.769   2.005
 5273SOL     OW16717   6.913   2.637   3.820
 5273SOL    HW116718   6.990   2.576   3.802
 5273SOL    HW216719   6.901   2.646   3.919
 5274SOL     OW16720   5.792   6.927   2.595
 5274SOL    HW116721   5.740   6.864   2.651
 5274SOL    HW216722   5.861   6.876   2.543
 5275SOL     OW16723   3.881   1.791   0.858
 5275SOL    HW116724   3.793   1.777   0.903
 5275SOL    HW216725   3.870   1.852   0.779
 5276SOL     OW16726   2.003   6.764   0.777
 5276SOL    HW116727   1.946   6.765   0.859
 5276SOL    HW216728   1.944   6.755   0.696
 5277SOL     OW16729   2.142   1.197   2.200
 5277SOL    HW116730   2.201   1.277   2.211
 5277SOL    HW216731   2.172   1.125   2.263
 5278SOL     OW16732   6.146   6.982   3.923
 5278SOL    HW116733   6.168   6.884   3.920
 5278SOL    HW216734   6.137   7.011   4.018
 5279SOL     OW16735   2.585   5.412   6.363
 5279SOL    HW116736   2.618   5.321   6.337
 5279SOL    HW216737   2.497   5.429   6.319
 5280SOL     OW16738   2.644   5.780   4.695
 5280SOL    HW116739   2.710   5.716   4.656
 5280SOL    HW216740   2.554   5.736   4.700
 5281SOL     OW16741   0.620   2.380   2.508
 5281SOL    HW116742   0.612   2.325   2.591
 5281SOL    HW216743   0.598   2.324   2.429
 5282SOL     OW16744   2.898   1.849   3.805
 5282SOL    HW116745   2.985   1.806   3.780
 5282SOL    HW216746   2.905   1.948   3.791
 5283SOL     OW16747   4.414   6.807   1.567
 5283SOL    HW116748   4.367   6.889   1.538
 5283SOL    HW216749   4.484   6.782   1.499
 5284SOL     OW16750   4.790   4.009   3.240
 5284SOL    HW116751   4.767   4.017   3.143
 5284SOL    HW216752   4.889   4.019   3.251
 5285SOL     OW16753   2.442   4.811   3.978
 5285SOL    HW116754   2.470   4.818   3.883
 5285SOL    HW216755   2.361   4.868   3.994
 5286SOL     OW16756   1.756   4.891   0.263
 5286SOL    HW116757   1.743   4.959   0.191
 5286SOL    HW216758   1.844   4.906   0.307
 5287SOL     OW16759   2.950   0.032   0.630
 5287SOL    HW116760   2.864   0.044   0.580
 5287SOL    HW216761   2.939   6.983   0.700
 5288SOL     OW16762   3.207   0.008   2.257
 5288SOL    HW116763   3.203   0.008   2.357
 5288SOL    HW216764   3.225   0.100   2.224
 5289SOL     OW16765   2.180   5.117   6.597
 5289SOL    HW116766   2.264   5.080   6.637
 5289SOL    HW216767   2.170   5.213   6.624
 5290SOL     OW16768   1.991   6.054   4.822
 5290SOL    HW116769   1.896   6.029   4.803
 5290SOL    HW216770   2.042   5.973   4.851
 5291SOL     OW16771   2.709   5.500   6.033
 5291SOL    HW116772   2.691   5.563   6.109
 5291SOL    HW216773   2.799   5.521   5.993
 5292SOL     OW16774   6.702   2.947   6.509
 5292SOL    HW116775   6.794   2.941   6.471
 5292SOL    HW216776   6.678   3.043   6.522
 5293SOL     OW16777   0.184   0.808   4.770
 5293SOL    HW116778   0.266   0.756   4.793
 5293SOL    HW216779   0.192   0.901   4.806
 5294SOL     OW16780   4.447   3.460   5.772
 5294SOL    HW116781   4.433   3.524   5.848
 5294SOL    HW216782   4.468   3.370   5.809
 5295SOL     OW16783   6.328   0.496   2.728
 5295SOL    HW116784   6.362   0.525   2.639
 5295SOL    HW216785   6.238   0.453   2.717
 5296SOL     OW16786   2.100   5.200   0.038
 5296SOL    HW116787   2.170   5.128   0.033
 5296SOL    HW216788   2.142   5.288   0.015
 5297SOL     OW16789   2.189   1.937   1.601
 5297SOL    HW116790   2.247   2.014   1.630
 5297SOL    HW216791   2.236   1.886   1.529
 5298SOL     OW16792   0.199   5.798   1.249
 5298SOL    HW116793   0.144   5.749   1.181
 5298SOL    HW216794   0.163   5.782   1.340
 5299SOL     OW16795   2.804   1.825   0.609
 5299SOL    HW116796   2.898   1.847   0.586
 5299SOL    HW216797   2.768   1.893   0.673
 5300SOL     OW16798   0.211   5.885   2.945
 5300SOL    HW116799   0.282   5.828   2.902
 5300SOL    HW216800   0.226   5.980   2.920
 5301SOL     OW16801   4.586   1.280   0.504
 5301SOL    HW116802   4.658   1.236   0.557
 5301SOL    HW216803   4.558   1.219   0.429
 5302SOL     OW16804   5.506   4.954   3.576
 5302SOL    HW116805   5.532   4.878   3.635
 5302SOL    HW216806   5.579   4.970   3.509
 5303SOL     OW16807   0.197   6.022   4.107
 5303SOL    HW116808   0.189   6.119   4.085
 5303SOL    HW216809   0.113   5.975   4.078
 5304SOL     OW16810   6.347   2.194   5.883
 5304SOL    HW116811   6.301   2.281   5.899
 5304SOL    HW216812   6.352   2.142   5.968
 5305SOL     OW16813   1.588   6.477   4.504
 5305SOL    HW116814   1.576   6.472   4.603
 5305SOL    HW216815   1.519   6.422   4.459
 5306SOL     OW16816   1.298   5.567   4.838
 5306SOL    HW116817   1.361   5.517   4.779
 5306SOL    HW216818   1.273   5.510   4.916
 5307SOL     OW16819   4.114   6.238   6.977
 5307SOL    HW116820   4.199   6.233   0.010
 5307SOL    HW216821   4.050   6.301   0.000
 5308SOL     OW16822   0.699   6.816   4.801
 5308SOL    HW116823   0.629   6.783   4.737
 5308SOL    HW216824   0.753   6.888   4.757
 5309SOL     OW16825   3.374   4.072   2.438
 5309SOL    HW116826   3.378   4.152   2.497
 5309SOL    HW216827   3.418   4.092   2.350
 5310SOL     OW16828   5.304   2.827   2.169
 5310SOL    HW116829   5.390   2.872   2.145
 5310SOL    HW216830   5.236   2.897   2.191
 5311SOL     OW16831   0.164   5.932   0.853
 5311SOL    HW116832   0.137   5.836   0.843
 5311SOL    HW216833   0.222   5.959   0.777
 5312SOL     OW16834   6.973   4.574   2.162
 5312SOL    HW116835   6.874   4.589   2.158
 5312SOL    HW216836   6.990   4.484   2.204
 5313SOL     OW16837   1.191   5.453   0.045
 5313SOL    HW116838   1.198   5.430   0.143
 5313SOL    HW216839   1.097   5.479   0.024
 5314SOL     OW16840   4.503   5.145   0.744
 5314SOL    HW116841   4.523   5.051   0.770
 5314SOL    HW216842   4.573   5.178   0.680
 5315SOL     OW16843   4.344   4.601   1.621
 5315SOL    HW116844   4.310   4.643   1.537
 5315SOL    HW216845   4.330   4.502   1.617
 5316SOL     OW16846   6.189   5.021   4.865
 5316SOL    HW116847   6.185   5.081   4.785
 5316SOL    HW216848   6.176   4.926   4.836
 5317SOL     OW16849   6.254   1.590   4.611
 5317SOL    HW116850   6.200   1.584   4.695
 5317SOL    HW216851   6.321   1.515   4.610
 5318SOL     OW16852   0.303   1.755   5.745
 5318SOL    HW116853   0.219   1.708   5.772
 5318SOL    HW216854   0.380   1.692   5.747
 5319SOL     OW16855   4.610   6.873   0.012
 5319SOL    HW116856   4.612   6.973   0.023
 5319SOL    HW216857   4.677   6.832   0.074
 5320SOL     OW16858   5.746   5.373   6.776
 5320SOL    HW116859   5.708   5.345   6.864
 5320SOL    HW216860   5.686   5.441   6.734
 5321SOL     OW16861   1.118   5.614   2.532
 5321SOL    HW116862   1.042   5.590   2.592
 5321SOL    HW216863   1.204   5.584   2.574
 5322SOL     OW16864   4.062   6.702   6.179
 5322SOL    HW116865   4.099   6.680   6.269
 5322SOL    HW216866   3.990   6.637   6.156
 5323SOL     OW16867   3.915   2.964   0.801
 5323SOL    HW116868   3.893   2.909   0.881
 5323SOL    HW216869   4.008   2.999   0.809
 5324SOL     OW16870   3.664   2.643   1.687
 5324SOL    HW116871   3.614   2.705   1.747
 5324SOL    HW216872   3.683   2.557   1.734
 5325SOL     OW16873   6.036   6.685   3.386
 5325SOL    HW116874   6.099   6.642   3.450
 5325SOL    HW216875   6.001   6.770   3.425
 5326SOL     OW16876   6.360   5.195   2.716
 5326SOL    HW116877   6.433   5.253   2.753
 5326SOL    HW216878   6.326   5.234   2.631
 5327SOL     OW16879   0.582   6.018   5.788
 5327SOL    HW116880   0.672   6.013   5.745
 5327SOL    HW216881   0.549   5.925   5.807
 5328SOL     OW16882   3.829   2.150   5.614
 5328SOL    HW116883   3.907   2.115   5.666
 5328SOL    HW216884   3.749   2.092   5.630
 5329SOL     OW16885   0.420   3.999   6.708
 5329SOL    HW116886   0.420   4.039   6.617
 5329SOL    HW216887   0.422   3.899   6.701
 5330SOL     OW16888   3.366   4.183   6.817
 5330SOL    HW116889   3.365   4.089   6.850
 5330SOL    HW216890   3.436   4.235   6.865
 5331SOL     OW16891   5.192   1.378   1.355
 5331SOL    HW116892   5.210   1.285   1.387
 5331SOL    HW216893   5.259   1.440   1.395
 5332SOL     OW16894   6.229   4.126   0.258
 5332SOL    HW116895   6.206   4.223   0.262
 5332SOL    HW216896   6.252   4.093   0.349
 5333SOL     OW16897   1.037   0.527   3.772
 5333SOL    HW116898   0.970   0.522   3.699
 5333SOL    HW216899   1.129   0.527   3.733
 5334SOL     OW16900   4.247   5.162   5.095
 5334SOL    HW116901   4.222   5.135   5.188
 5334SOL    HW216902   4.175   5.220   5.057
 5335SOL     OW16903   0.042   4.805   2.055
 5335SOL    HW116904   7.015   4.721   2.081
 5335SOL    HW216905   0.019   4.828   1.961
 5336SOL     OW16906   2.424   1.787   3.615
 5336SOL    HW116907   2.515   1.745   3.616
 5336SOL    HW216908   2.354   1.716   3.610
 5337SOL     OW16909   5.883   5.294   2.447
 5337SOL    HW116910   5.878   5.362   2.374
 5337SOL    HW216911   5.842   5.332   2.530
 5338SOL     OW16912   5.437   1.675   0.005
 5338SOL    HW116913   5.424   1.766   6.986
 5338SOL    HW216914   5.534   1.657   0.016
 5339SOL     OW16915   5.564   1.367   2.234
 5339SOL    HW116916   5.646   1.311   2.224
 5339SOL    HW216917   5.559   1.432   2.158
 5340SOL     OW16918   5.474   3.620   1.170
 5340SOL    HW116919   5.559   3.666   1.197
 5340SOL    HW216920   5.406   3.630   1.242
 5341SOL     OW16921   3.825   4.949   4.918
 5341SOL    HW116922   3.735   4.987   4.940
 5341SOL    HW216923   3.868   4.916   5.002
 5342SOL     OW16924   4.388   6.480   4.883
 5342SOL    HW116925   4.367   6.391   4.922
 5342SOL    HW216926   4.488   6.494   4.882
 5343SOL     OW16927   3.802   3.635   4.921
 5343SOL    HW116928   3.786   3.668   5.014
 5343SOL    HW216929   3.716   3.600   4.883
 5344SOL     OW16930   0.611   1.282   6.768
 5344SOL    HW116931   0.650   1.328   6.849
 5344SOL    HW216932   0.663   1.199   6.749
 5345SOL     OW16933   4.960   0.997   6.766
 5345SOL    HW116934   4.936   1.072   6.828
 5345SOL    HW216935   4.877   0.963   6.722
 5346SOL     OW16936   2.358   4.954   4.265
 5346SOL    HW116937   2.322   5.019   4.332
 5346SOL    HW216938   2.300   4.955   4.183
 5347SOL     OW16939   0.251   3.532   3.469
 5347SOL    HW116940   0.320   3.604   3.459
 5347SOL    HW216941   0.263   3.487   3.557
 5348SOL     OW16942   0.548   1.005   5.810
 5348SOL    HW116943   0.461   0.990   5.857
 5348SOL    HW216944   0.534   1.070   5.735
 5349SOL     OW16945   2.426   2.995   1.372
 5349SOL    HW116946   2.514   2.951   1.357
 5349SOL    HW216947   2.427   3.043   1.460
 5350SOL     OW16948   2.346   6.465   5.309
 5350SOL    HW116949   2.301   6.515   5.235
 5350SOL    HW216950   2.308   6.373   5.314
 5351SOL     OW16951   0.014   5.087   2.108
 5351SOL    HW116952   6.979   5.115   2.029
 5351SOL    HW216953   0.047   4.994   2.094
 5352SOL     OW16954   2.318   4.362   2.964
 5352SOL    HW116955   2.369   4.341   2.881
 5352SOL    HW216956   2.369   4.427   3.020
 5353SOL     OW16957   4.053   5.051   3.371
 5353SOL    HW116958   4.015   4.986   3.305
 5353SOL    HW216959   4.148   5.028   3.391
 5354SOL     OW16960   2.843   4.250   0.015
 5354SOL    HW116961   2.907   4.219   6.964
 5354SOL    HW216962   2.813   4.343   7.014
 5355SOL     OW16963   5.585   4.406   5.059
 5355SOL    HW116964   5.505   4.422   5.002
 5355SOL    HW216965   5.652   4.353   5.008
 5356SOL     OW16966   6.983   3.860   1.706
 5356SOL    HW116967   6.937   3.852   1.794
 5356SOL    HW216968   6.923   3.826   1.633
 5357SOL     OW16969   4.069   4.622   1.388
 5357SOL    HW116970   4.154   4.666   1.360
 5357SOL    HW216971   4.064   4.531   1.347
 5358SOL     OW16972   4.601   2.126   0.882
 5358SOL    HW116973   4.529   2.137   0.814
 5358SOL    HW216974   4.560   2.102   0.970
 5359SOL     OW16975   1.960   1.789   6.466
 5359SOL    HW116976   1.896   1.724   6.508
 5359SOL    HW216977   1.922   1.881   6.471
 5360SOL     OW16978   5.619   5.565   3.575
 5360SOL    HW116979   5.548   5.636   3.577
 5360SOL    HW216980   5.576   5.475   3.584
 5361SOL     OW16981   1.957   6.400   3.777
 5361SOL    HW116982   1.874   6.444   3.809
 5361SOL    HW216983   2.037   6.447   3.816
 5362SOL     OW16984   6.361   6.913   2.794
 5362SOL    HW116985   6.413   6.840   2.839
 5362SOL    HW216986   6.287   6.942   2.855
 5363SOL     OW16987   5.110   6.485   5.288
 5363SOL    HW116988   5.035   6.528   5.338
 5363SOL    HW216989   5.176   6.555   5.261
 5364SOL     OW16990   5.819   0.159   2.469
 5364SOL    HW116991   5.791   0.067   2.494
 5364SOL    HW216992   5.917   0.161   2.451
 5365SOL     OW16993   3.578   3.224   2.578
 5365SOL    HW116994   3.615   3.302   2.528
 5365SOL    HW216995   3.578   3.244   2.676
 5366SOL     OW16996   6.904   0.507   2.502
 5366SOL    HW116997   6.882   0.415   2.470
 5366SOL    HW216998   6.985   0.541   2.455
 5367SOL     OW16999   6.752   0.238   0.832
 5367SOL    HW117000   6.812   0.166   0.798
 5367SOL    HW217001   6.746   0.232   0.932
 5368SOL     OW17002   6.216   5.971   2.302
 5368SOL    HW117003   6.215   5.937   2.396
 5368SOL    HW217004   6.138   6.032   2.288
 5369SOL     OW17005   2.883   5.743   1.507
 5369SOL    HW117006   2.881   5.645   1.528
 5369SOL    HW217007   2.955   5.761   1.440
 5370SOL     OW17008   4.598   3.663   1.376
 5370SOL    HW117009   4.603   3.573   1.334
 5370SOL    HW217010   4.650   3.663   1.461
 5371SOL     OW17011   0.046   4.976   5.510
 5371SOL    HW117012   0.008   4.885   5.523
 5371SOL    HW217013   0.052   4.996   5.412
 5372SOL     OW17014   1.375   6.441   2.710
 5372SOL    HW117015   1.409   6.436   2.804
 5372SOL    HW217016   1.314   6.520   2.701
 5373SOL     OW17017   3.703   6.731   5.775
 5373SOL    HW117018   3.654   6.793   5.714
 5373SOL    HW217019   3.796   6.765   5.790
 5374SOL     OW17020   2.782   4.163   0.992
 5374SOL    HW117021   2.760   4.080   0.940
 5374SOL    HW217022   2.786   4.141   1.090
 5375SOL     OW17023   0.474   5.326   5.417
 5375SOL    HW117024   0.533   5.405   5.426
 5375SOL    HW217025   0.419   5.333   5.334
 5376SOL     OW17026   1.441   2.149   1.894
 5376SOL    HW117027   1.499   2.188   1.965
 5376SOL    HW217028   1.498   2.098   1.829
 5377SOL     OW17029   1.300   0.658   2.789
 5377SOL    HW117030   1.214   0.702   2.815
 5377SOL    HW217031   1.316   0.580   2.849
 5378SOL     OW17032   7.006   0.529   1.776
 5378SOL    HW117033   6.974   0.485   1.860
 5378SOL    HW217034   0.025   0.461   1.715
 5379SOL     OW17035   1.299   3.226   5.095
 5379SOL    HW117036   1.204   3.259   5.092
 5379SOL    HW217037   1.317   3.169   5.015
 5380SOL     OW17038   3.171   0.114   1.254
 5380SOL    HW117039   3.134   0.036   1.204
 5380SOL    HW217040   3.165   0.196   1.198
 5381SOL     OW17041   6.071   6.120   2.643
 5381SOL    HW117042   6.023   6.144   2.558
 5381SOL    HW217043   6.017   6.054   2.695
 5382SOL     OW17044   3.078   2.168   2.792
 5382SOL    HW117045   3.005   2.237   2.796
 5382SOL    HW217046   3.039   2.077   2.806
 5383SOL     OW17047   1.908   3.017   4.614
 5383SOL    HW117048   1.984   2.972   4.568
 5383SOL    HW217049   1.926   3.115   4.621
 5384SOL     OW17050   4.810   5.558   4.961
 5384SOL    HW117051   4.868   5.478   4.943
 5384SOL    HW217052   4.714   5.533   4.945
 5385SOL     OW17053   5.736   3.250   4.522
 5385SOL    HW117054   5.817   3.220   4.470
 5385SOL    HW217055   5.707   3.340   4.490
 5386SOL     OW17056   5.832   1.629   3.894
 5386SOL    HW117057   5.910   1.579   3.856
 5386SOL    HW217058   5.823   1.609   3.992
 5387SOL     OW17059   2.727   6.406   3.610
 5387SOL    HW117060   2.663   6.460   3.555
 5387SOL    HW217061   2.807   6.382   3.555
 5388SOL     OW17062   1.627   6.723   2.962
 5388SOL    HW117063   1.609   6.629   2.933
 5388SOL    HW217064   1.587   6.786   2.896
 5389SOL     OW17065   4.052   2.015   4.758
 5389SOL    HW117066   3.966   2.024   4.708
 5389SOL    HW217067   4.125   1.991   4.695
 5390SOL     OW17068   5.202   4.013   4.152
 5390SOL    HW117069   5.193   4.012   4.053
 5390SOL    HW217070   5.112   3.998   4.194
 5391SOL     OW17071   2.885   1.827   0.200
 5391SOL    HW117072   2.862   1.914   0.244
 5391SOL    HW217073   2.853   1.751   0.257
 5392SOL     OW17074   4.871   3.709   2.364
 5392SOL    HW117075   4.914   3.799   2.350
 5392SOL    HW217076   4.805   3.692   2.291
 5393SOL     OW17077   4.270   1.112   5.511
 5393SOL    HW117078   4.220   1.178   5.567
 5393SOL    HW217079   4.348   1.156   5.469
 5394SOL     OW17080   0.509   6.263   0.940
 5394SOL    HW117081   0.550   6.277   1.030
 5394SOL    HW217082   0.471   6.171   0.934
 5395SOL     OW17083   4.609   1.330   0.914
 5395SOL    HW117084   4.671   1.355   0.988
 5395SOL    HW217085   4.616   1.396   0.840
 5396SOL     OW17086   5.109   5.784   1.865
 5396SOL    HW117087   5.113   5.773   1.766
 5396SOL    HW217088   5.047   5.716   1.904
 5397SOL     OW17089   6.934   1.815   1.479
 5397SOL    HW117090   6.920   1.904   1.524
 5397SOL    HW217091   6.902   1.821   1.385
 5398SOL     OW17092   3.445   2.135   3.464
 5398SOL    HW117093   3.375   2.135   3.536
 5398SOL    HW217094   3.527   2.182   3.497
 5399SOL     OW17095   2.791   6.501   5.958
 5399SOL    HW117096   2.751   6.531   6.045
 5399SOL    HW217097   2.802   6.580   5.898
 5400SOL     OW17098   3.178   3.416   1.098
 5400SOL    HW117099   3.176   3.480   1.021
 5400SOL    HW217100   3.140   3.328   1.068
 5401SOL     OW17101   5.580   4.429   2.790
 5401SOL    HW117102   5.562   4.353   2.728
 5401SOL    HW217103   5.652   4.487   2.752
 5402SOL     OW17104   3.347   6.551   0.943
 5402SOL    HW117105   3.250   6.572   0.953
 5402SOL    HW217106   3.381   6.510   1.028
 5403SOL     OW17107   5.101   3.037   6.821
 5403SOL    HW117108   5.020   3.041   6.762
 5403SOL    HW217109   5.171   3.098   6.785
 5404SOL     OW17110   1.169   0.726   0.590
 5404SOL    HW117111   1.243   0.712   0.656
 5404SOL    HW217112   1.149   0.824   0.584
 5405SOL     OW17113   6.069   5.091   0.377
 5405SOL    HW117114   6.134   5.043   0.436
 5405SOL    HW217115   6.040   5.031   0.303
 5406SOL     OW17116   2.090   1.075   5.180
 5406SOL    HW117117   2.017   1.130   5.140
 5406SOL    HW217118   2.097   0.988   5.130
 5407SOL     OW17119   2.878   1.563   0.683
 5407SOL    HW117120   2.955   1.533   0.628
 5407SOL    HW217121   2.854   1.657   0.658
 5408SOL     OW17122   3.164   1.647   4.904
 5408SOL    HW117123   3.243   1.708   4.909
 5408SOL    HW217124   3.169   1.593   4.820
 5409SOL     OW17125   6.563   1.814   2.049
 5409SOL    HW117126   6.595   1.762   1.970
 5409SOL    HW217127   6.556   1.753   2.128
 5410SOL     OW17128   0.651   3.262   0.154
 5410SOL    HW117129   0.692   3.322   0.085
 5410SOL    HW217130   0.578   3.311   0.201
 5411SOL     OW17131   5.322   4.675   0.217
 5411SOL    HW117132   5.323   4.775   0.207
 5411SOL    HW217133   5.229   4.641   0.200
 5412SOL     OW17134   2.392   1.284   6.180
 5412SOL    HW117135   2.430   1.192   6.174
 5412SOL    HW217136   2.304   1.287   6.134
 5413SOL     OW17137   6.948   6.857   6.351
 5413SOL    HW117138   0.001   6.889   6.290
 5413SOL    HW217139   6.979   6.777   6.402
 5414SOL     OW17140   6.601   4.665   5.487
 5414SOL    HW117141   6.552   4.744   5.524
 5414SOL    HW217142   6.693   4.692   5.460
 5415SOL     OW17143   3.383   5.680   0.333
 5415SOL    HW117144   3.306   5.691   0.270
 5415SOL    HW217145   3.421   5.588   0.324
 5416SOL     OW17146   2.813   5.368   5.136
 5416SOL    HW117147   2.818   5.468   5.140
 5416SOL    HW217148   2.717   5.340   5.129
 5417SOL     OW17149   3.734   6.797   4.149
 5417SOL    HW117150   3.701   6.847   4.229
 5417SOL    HW217151   3.826   6.763   4.167
 5418SOL     OW17152   5.593   5.557   4.777
 5418SOL    HW117153   5.684   5.598   4.784
 5418SOL    HW217154   5.537   5.589   4.854
 5419SOL     OW17155   4.328   6.403   0.090
 5419SOL    HW117156   4.326   6.464   0.169
 5419SOL    HW217157   4.387   6.325   0.109
 5420SOL     OW17158   2.047   2.023   0.823
 5420SOL    HW117159   1.958   1.988   0.853
 5420SOL    HW217160   2.107   2.034   0.902
 5421SOL     OW17161   2.997   5.406   1.748
 5421SOL    HW117162   3.040   5.471   1.812
 5421SOL    HW217163   2.941   5.341   1.798
 5422SOL     OW17164   2.106   5.757   4.217
 5422SOL    HW117165   2.028   5.783   4.159
 5422SOL    HW217166   2.078   5.685   4.281
 5423SOL     OW17167   6.353   5.280   1.185
 5423SOL    HW117168   6.350   5.353   1.117
 5423SOL    HW217169   6.260   5.253   1.210
 5424SOL     OW17170   4.867   3.768   4.252
 5424SOL    HW117171   4.931   3.693   4.269
 5424SOL    HW217172   4.800   3.773   4.326
 5425SOL     OW17173   6.218   3.072   4.437
 5425SOL    HW117174   6.258   3.016   4.510
 5425SOL    HW217175   6.278   3.149   4.417
 5426SOL     OW17176   4.456   5.605   2.352
 5426SOL    HW117177   4.371   5.562   2.382
 5426SOL    HW217178   4.531   5.573   2.409
 5427SOL     OW17179   4.829   2.738   7.005
 5427SOL    HW117180   4.855   2.736   0.081
 5427SOL    HW217181   4.770   2.817   6.988
 5428SOL     OW17182   5.080   6.551   2.298
 5428SOL    HW117183   5.000   6.603   2.327
 5428SOL    HW217184   5.057   6.498   2.216
 5429SOL     OW17185   2.208   7.014   4.725
 5429SOL    HW117186   2.301   6.979   4.721
 5429SOL    HW217187   2.154   6.976   4.650
 5430SOL     OW17188   2.138   2.946   5.831
 5430SOL    HW117189   2.177   2.856   5.812
 5430SOL    HW217190   2.115   2.992   5.745
 5431SOL     OW17191   3.341   4.408   6.288
 5431SOL    HW117192   3.302   4.498   6.269
 5431SOL    HW217193   3.301   4.339   6.228
 5432SOL     OW17194   5.394   5.375   0.344
 5432SOL    HW117195   5.408   5.339   0.437
 5432SOL    HW217196   5.467   5.440   0.322
 5433SOL     OW17197   1.701   0.317   0.828
 5433SOL    HW117198   1.630   0.322   0.898
 5433SOL    HW217199   1.730   0.409   0.802
 5434SOL     OW17200   4.750   0.866   4.905
 5434SOL    HW117201   4.808   0.943   4.932
 5434SOL    HW217202   4.755   0.852   4.806
 5435SOL     OW17203   6.400   3.827   1.061
 5435SOL    HW117204   6.340   3.893   1.015
 5435SOL    HW217205   6.413   3.747   1.003
 5436SOL     OW17206   6.826   5.342   4.171
 5436SOL    HW117207   6.900   5.352   4.105
 5436SOL    HW217208   6.788   5.250   4.165
 5437SOL     OW17209   3.516   4.622   5.701
 5437SOL    HW117210   3.598   4.610   5.758
 5437SOL    HW217211   3.513   4.549   5.632
 5438SOL     OW17212   5.089   4.904   2.207
 5438SOL    HW117213   5.079   5.002   2.224
 5438SOL    HW217214   5.120   4.858   2.290
 5439SOL     OW17215   1.389   3.763   0.087
 5439SOL    HW117216   1.330   3.838   0.117
 5439SOL    HW217217   1.333   3.696   0.037
 5440SOL     OW17218   5.590   7.002   3.593
 5440SOL    HW117219   5.667   0.045   3.591
 5440SOL    HW217220   5.578   6.960   3.503
 5441SOL     OW17221   5.525   3.512   3.158
 5441SOL    HW117222   5.611   3.515   3.107
 5441SOL    HW217223   5.524   3.432   3.217
 5442SOL     OW17224   3.791   7.011   3.076
 5442SOL    HW117225   3.751   6.919   3.084
 5442SOL    HW217226   3.766   0.030   2.987
 5443SOL     OW17227   4.206   6.543   4.020
 5443SOL    HW117228   4.289   6.506   3.978
 5443SOL    HW217229   4.149   6.468   4.052
 5444SOL     OW17230   6.920   1.570   4.065
 5444SOL    HW117231   6.841   1.631   4.069
 5444SOL    HW217232   6.993   1.605   4.124
 5445SOL     OW17233   5.049   4.230   3.981
 5445SOL    HW117234   5.104   4.278   4.049
 5445SOL    HW217235   5.054   4.278   3.894
 5446SOL     OW17236   6.293   4.601   4.534
 5446SOL    HW117237   6.365   4.549   4.486
 5446SOL    HW217238   6.272   4.684   4.482
 5447SOL     OW17239   2.085   1.740   0.763
 5447SOL    HW117240   2.096   1.835   0.734
 5447SOL    HW217241   2.158   1.716   0.827
 5448SOL     OW17242   4.744   5.521   4.036
 5448SOL    HW117243   4.666   5.488   4.089
 5448SOL    HW217244   4.797   5.585   4.091
 5449SOL     OW17245   2.657   1.129   1.654
 5449SOL    HW117246   2.601   1.165   1.579
 5449SOL    HW217247   2.730   1.194   1.675
 5450SOL     OW17248   3.983   6.499   1.045
 5450SOL    HW117249   4.062   6.553   1.015
 5450SOL    HW217250   3.901   6.529   0.996
 5451SOL     OW17251   1.480   6.188   3.501
 5451SOL    HW117252   1.511   6.094   3.520
 5451SOL    HW217253   1.499   6.245   3.581
 5452SOL     OW17254   2.282   4.263   0.944
 5452SOL    HW117255   2.345   4.216   1.006
 5452SOL    HW217256   2.274   4.359   0.972
 5453SOL     OW17257   4.977   4.320   1.866
 5453SOL    HW117258   4.907   4.255   1.895
 5453SOL    HW217259   4.970   4.403   1.920
 5454SOL     OW17260   5.453   6.221   1.954
 5454SOL    HW117261   5.516   6.173   2.015
 5454SOL    HW217262   5.411   6.155   1.891
 5455SOL     OW17263   0.413   1.762   3.160
 5455SOL    HW117264   0.512   1.754   3.154
 5455SOL    HW217265   0.378   1.693   3.224
 5456SOL     OW17266   3.945   1.390   6.480
 5456SOL    HW117267   3.917   1.483   6.505
 5456SOL    HW217268   3.863   1.335   6.464
 5457SOL     OW17269   6.246   1.197   0.587
 5457SOL    HW117270   6.330   1.175   0.638
 5457SOL    HW217271   6.170   1.144   0.624
 5458SOL     OW17272   6.616   4.918   1.438
 5458SOL    HW117273   6.588   4.842   1.496
 5458SOL    HW217274   6.666   4.883   1.359
 5459SOL     OW17275   2.281   4.847   4.882
 5459SOL    HW117276   2.271   4.781   4.809
 5459SOL    HW217277   2.231   4.816   4.963
 5460SOL     OW17278   2.645   0.455   1.979
 5460SOL    HW117279   2.612   0.378   1.925
 5460SOL    HW217280   2.736   0.482   1.948
 5461SOL     OW17281   0.989   1.566   5.165
 5461SOL    HW117282   0.929   1.593   5.240
 5461SOL    HW217283   0.974   1.470   5.143
 5462SOL     OW17284   5.415   6.408   6.848
 5462SOL    HW117285   5.488   6.463   6.807
 5462SOL    HW217286   5.454   6.349   6.919
 5463SOL     OW17287   6.898   1.974   6.632
 5463SOL    HW117288   6.933   2.068   6.634
 5463SOL    HW217289   6.806   1.974   6.593
 5464SOL     OW17290   6.426   5.283   5.395
 5464SOL    HW117291   6.392   5.377   5.402
 5464SOL    HW217292   6.362   5.228   5.342
 5465SOL     OW17293   6.895   0.252   3.243
 5465SOL    HW117294   6.920   0.333   3.190
 5465SOL    HW217295   6.817   0.273   3.302
 5466SOL     OW17296   6.511   2.776   5.685
 5466SOL    HW117297   6.447   2.738   5.752
 5466SOL    HW217298   6.532   2.707   5.616
 5467SOL     OW17299   5.760   3.979   3.336
 5467SOL    HW117300   5.740   3.902   3.275
 5467SOL    HW217301   5.675   4.019   3.369
 5468SOL     OW17302   6.827   2.664   4.081
 5468SOL    HW117303   6.747   2.644   4.138
 5468SOL    HW217304   6.848   2.761   4.087
 5469SOL     OW17305   3.540   5.903   6.270
 5469SOL    HW117306   3.515   5.994   6.300
 5469SOL    HW217307   3.459   5.855   6.236
 5470SOL     OW17308   3.917   5.266   3.500
 5470SOL    HW117309   3.955   5.276   3.592
 5470SOL    HW217310   3.946   5.179   3.462
 5471SOL     OW17311   5.476   0.119   2.545
 5471SOL    HW117312   5.541   0.115   2.621
 5471SOL    HW217313   5.518   0.168   2.469
 5472SOL     OW17314   3.112   3.391   6.566
 5472SOL    HW117315   3.189   3.454   6.553
 5472SOL    HW217316   3.142   3.313   6.621
 5473SOL     OW17317   2.085   4.092   0.172
 5473SOL    HW117318   2.125   4.157   0.237
 5473SOL    HW217319   1.992   4.069   0.202
 5474SOL     OW17320   0.473   5.912   4.108
 5474SOL    HW117321   0.454   5.815   4.122
 5474SOL    HW217322   0.389   5.964   4.121
 5475SOL     OW17323   1.793   2.045   0.964
 5475SOL    HW117324   1.743   2.055   0.878
 5475SOL    HW217325   1.818   2.135   0.999
 5476SOL     OW17326   2.542   4.676   4.917
 5476SOL    HW117327   2.548   4.761   4.865
 5476SOL    HW217328   2.605   4.679   4.994
 5477SOL     OW17329   1.614   3.546   3.035
 5477SOL    HW117330   1.608   3.452   3.068
 5477SOL    HW217331   1.587   3.550   2.939
 5478SOL     OW17332   5.123   6.399   5.622
 5478SOL    HW117333   5.071   6.347   5.554
 5478SOL    HW217334   5.216   6.414   5.589
 5479SOL     OW17335   4.253   1.642   4.838
 5479SOL    HW117336   4.266   1.707   4.913
 5479SOL    HW217337   4.316   1.565   4.848
 5480SOL     OW17338   5.981   4.674   5.145
 5480SOL    HW117339   6.030   4.725   5.215
 5480SOL    HW217340   5.882   4.685   5.158
 5481SOL     OW17341   4.960   1.008   4.707
 5481SOL    HW117342   4.870   1.026   4.668
 5481SOL    HW217343   5.028   1.004   4.634
 5482SOL     OW17344   3.116   4.037   2.879
 5482SOL    HW117345   3.053   4.032   2.802
 5482SOL    HW217346   3.196   3.980   2.861
 5483SOL     OW17347   6.438   2.124   5.223
 5483SOL    HW117348   6.501   2.047   5.232
 5483SOL    HW217349   6.376   2.125   5.302
 5484SOL     OW17350   6.348   0.676   3.603
 5484SOL    HW117351   6.375   0.733   3.526
 5484SOL    HW217352   6.283   0.726   3.660
 5485SOL     OW17353   3.273   6.130   4.709
 5485SOL    HW117354   3.220   6.209   4.741
 5485SOL    HW217355   3.272   6.127   4.609
 5486SOL     OW17356   1.423   6.279   4.326
 5486SOL    HW117357   1.494   6.210   4.339
 5486SOL    HW217358   1.415   6.301   4.229
 5487SOL     OW17359   5.527   3.225   6.741
 5487SOL    HW117360   5.430   3.252   6.739
 5487SOL    HW217361   5.571   3.266   6.821
 5488SOL     OW17362   5.420   1.843   1.445
 5488SOL    HW117363   5.515   1.839   1.413
 5488SOL    HW217364   5.366   1.897   1.381
 5489SOL     OW17365   0.905   4.185   1.475
 5489SOL    HW117366   0.844   4.237   1.414
 5489SOL    HW217367   0.852   4.115   1.523
 5490SOL     OW17368   3.480   0.038   0.945
 5490SOL    HW117369   3.524   0.006   0.861
 5490SOL    HW217370   3.493   0.137   0.954
 5491SOL     OW17371   1.651   3.703   6.359
 5491SOL    HW117372   1.746   3.690   6.329
 5491SOL    HW217373   1.618   3.619   6.402
 5492SOL     OW17374   0.718   2.154   6.615
 5492SOL    HW117375   0.749   2.249   6.621
 5492SOL    HW217376   0.761   2.110   6.536
 5493SOL     OW17377   4.107   3.627   4.200
 5493SOL    HW117378   4.120   3.617   4.102
 5493SOL    HW217379   4.101   3.536   4.243
 5494SOL     OW17380   5.939   2.644   6.865
 5494SOL    HW117381   5.898   2.733   6.843
 5494SOL    HW217382   5.964   2.598   6.779
 5495SOL     OW17383   3.155   2.357   1.273
 5495SOL    HW117384   3.246   2.400   1.269
 5495SOL    HW217385   3.085   2.425   1.249
 5496SOL     OW17386   2.520   6.646   3.628
 5496SOL    HW117387   2.424   6.631   3.603
 5496SOL    HW217388   2.529   6.641   3.728
 5497SOL     OW17389   0.151   1.793   3.469
 5497SOL    HW117390   0.081   1.794   3.539
 5497SOL    HW217391   0.237   1.830   3.506
 5498SOL     OW17392   5.184   0.319   1.196
 5498SOL    HW117393   5.127   0.262   1.137
 5498SOL    HW217394   5.140   0.328   1.285
 5499SOL     OW17395   0.909   0.681   3.527
 5499SOL    HW117396   0.810   0.685   3.514
 5499SOL    HW217397   0.947   0.607   3.470
 5500SOL     OW17398   1.966   6.410   6.972
 5500SOL    HW117399   1.918   6.373   6.892
 5500SOL    HW217400   2.016   6.336   7.017
 5501SOL     OW17401   3.768   0.186   0.989
 5501SOL    HW117402   3.805   0.211   0.900
 5501SOL    HW217403   3.678   0.228   1.002
 5502SOL     OW17404   5.524   3.857   0.021
 5502SOL    HW117405   5.509   3.905   6.954
 5502SOL    HW217406   5.566   3.920   0.086
 5503SOL     OW17407   0.511   5.218   2.920
 5503SOL    HW117408   0.532   5.222   2.822
 5503SOL    HW217409   0.586   5.259   2.971
 5504SOL     OW17410   3.896   1.213   5.778
 5504SOL    HW117411   3.891   1.310   5.753
 5504SOL    HW217412   3.819   1.190   5.837
 5505SOL     OW17413   2.348   5.350   4.185
 5505SOL    HW117414   2.366   5.446   4.207
 5505SOL    HW217415   2.358   5.294   4.267
 5506SOL     OW17416   0.340   0.970   6.207
 5506SOL    HW117417   0.425   1.002   6.165
 5506SOL    HW217418   0.263   0.992   6.147
 5507SOL     OW17419   2.262   0.014   2.839
 5507SOL    HW117420   2.307   6.968   2.900
 5507SOL    HW217421   2.298   0.105   2.857
 5508SOL     OW17422   1.936   1.195   0.091
 5508SOL    HW117423   1.995   1.211   0.170
 5508SOL    HW217424   1.927   1.279   0.037
 5509SOL     OW17425   1.052   6.517   0.486
 5509SOL    HW117426   0.986   6.554   0.421
 5509SOL    HW217427   1.127   6.582   0.499
 5510SOL     OW17428   5.522   6.460   0.507
 5510SOL    HW117429   5.505   6.369   0.543
 5510SOL    HW217430   5.476   6.528   0.565
 5511SOL     OW17431   2.882   0.094   4.374
 5511SOL    HW117432   2.862   0.170   4.436
 5511SOL    HW217433   2.895   0.130   4.282
 5512SOL     OW17434   5.608   2.394   1.431
 5512SOL    HW117435   5.638   2.392   1.336
 5512SOL    HW217436   5.671   2.340   1.487
 5513SOL     OW17437   3.630   3.808   5.917
 5513SOL    HW117438   3.574   3.776   5.994
 5513SOL    HW217439   3.580   3.878   5.866
 5514SOL     OW17440   4.489   5.566   2.088
 5514SOL    HW117441   4.430   5.639   2.053
 5514SOL    HW217442   4.490   5.570   2.188
 5515SOL     OW17443   0.131   4.846   1.139
 5515SOL    HW117444   0.067   4.770   1.130
 5515SOL    HW217445   0.090   4.917   1.196
 5516SOL     OW17446   1.560   3.774   6.847
 5516SOL    HW117447   1.498   3.722   6.788
 5516SOL    HW217448   1.507   3.817   6.920
 5517SOL     OW17449   2.091   2.702   2.289
 5517SOL    HW117450   2.047   2.677   2.203
 5517SOL    HW217451   2.082   2.800   2.304
 5518SOL     OW17452   6.298   6.868   6.280
 5518SOL    HW117453   6.352   6.937   6.327
 5518SOL    HW217454   6.302   6.884   6.181
 5519SOL     OW17455   5.052   3.399   2.716
 5519SOL    HW117456   4.998   3.480   2.740
 5519SOL    HW217457   5.138   3.427   2.674
 5520SOL     OW17458   6.941   5.742   2.375
 5520SOL    HW117459   6.860   5.801   2.379
 5520SOL    HW217460   6.987   5.743   2.464
 5521SOL     OW17461   4.272   6.922   2.049
 5521SOL    HW117462   4.180   6.893   2.021
 5521SOL    HW217463   4.315   6.971   1.974
 5522SOL     OW17464   0.436   5.301   0.544
 5522SOL    HW117465   0.444   5.303   0.644
 5522SOL    HW217466   0.524   5.323   0.502
 5523SOL     OW17467   2.785   6.650   2.792
 5523SOL    HW117468   2.822   6.717   2.728
 5523SOL    HW217469   2.731   6.582   2.741
 5524SOL     OW17470   5.357   5.476   4.604
 5524SOL    HW117471   5.439   5.533   4.614
 5524SOL    HW217472   5.332   5.437   4.692
 5525SOL     OW17473   6.736   3.261   6.999
 5525SOL    HW117474   6.698   3.179   6.956
 5525SOL    HW217475   6.805   3.234   0.046
 5526SOL     OW17476   5.502   4.641   4.507
 5526SOL    HW117477   5.408   4.611   4.524
 5526SOL    HW217478   5.502   4.737   4.480
 5527SOL     OW17479   0.343   3.547   3.976
 5527SOL    HW117480   0.423   3.551   4.036
 5527SOL    HW217481   0.294   3.634   3.980
 5528SOL     OW17482   1.126   2.011   6.677
 5528SOL    HW117483   1.120   2.109   6.692
 5528SOL    HW217484   1.159   1.993   6.584
 5529SOL     OW17485   1.895   0.547   4.328
 5529SOL    HW117486   1.819   0.538   4.391
 5529SOL    HW217487   1.911   0.459   4.283
 5530SOL     OW17488   0.514   2.260   2.205
 5530SOL    HW117489   0.423   2.298   2.190
 5530SOL    HW217490   0.508   2.179   2.263
 5531SOL     OW17491   3.728   3.551   2.454
 5531SOL    HW117492   3.711   3.646   2.480
 5531SOL    HW217493   3.820   3.543   2.417
 5532SOL     OW17494   1.632   1.699   0.130
 5532SOL    HW117495   1.575   1.778   0.150
 5532SOL    HW217496   1.635   1.639   0.210
 5533SOL     OW17497   3.017   0.560   3.374
 5533SOL    HW117498   2.968   0.610   3.445
 5533SOL    HW217499   3.064   0.625   3.315
 5534SOL     OW17500   0.453   2.197   5.315
 5534SOL    HW117501   0.485   2.106   5.290
 5534SOL    HW217502   0.461   2.258   5.236
 5535SOL     OW17503   0.556   3.131   4.361
 5535SOL    HW117504   0.532   3.070   4.285
 5535SOL    HW217505   0.528   3.224   4.339
 5536SOL     OW17506   2.893   0.918   4.362
 5536SOL    HW117507   2.959   0.858   4.316
 5536SOL    HW217508   2.901   1.011   4.325
 5537SOL     OW17509   3.167   0.517   4.107
 5537SOL    HW117510   3.264   0.494   4.103
 5537SOL    HW217511   3.114   0.447   4.059
 5538SOL     OW17512   3.387   6.843   5.112
 5538SOL    HW117513   3.406   6.761   5.165
 5538SOL    HW217514   3.288   6.853   5.099
 5539SOL     OW17515   1.527   2.942   0.182
 5539SOL    HW117516   1.517   3.038   0.208
 5539SOL    HW217517   1.443   2.893   0.205
 5540SOL     OW17518   6.403   3.531   2.850
 5540SOL    HW117519   6.421   3.532   2.752
 5540SOL    HW217520   6.373   3.440   2.878
 5541SOL     OW17521   5.760   1.119   6.481
 5541SOL    HW117522   5.812   1.038   6.454
 5541SOL    HW217523   5.669   1.091   6.512
 5542SOL     OW17524   6.060   6.464   6.290
 5542SOL    HW117525   6.084   6.382   6.237
 5542SOL    HW217526   6.143   6.518   6.306
 5543SOL     OW17527   3.114   5.387   6.076
 5543SOL    HW117528   3.186   5.450   6.050
 5543SOL    HW217529   3.138   5.341   6.161
 5544SOL     OW17530   5.512   6.635   6.176
 5544SOL    HW117531   5.548   6.709   6.119
 5544SOL    HW217532   5.426   6.602   6.137
 5545SOL     OW17533   4.674   1.673   3.541
 5545SOL    HW117534   4.712   1.765   3.533
 5545SOL    HW217535   4.575   1.678   3.549
 5546SOL     OW17536   1.551   6.086   4.622
 5546SOL    HW117537   1.637   6.109   4.667
 5546SOL    HW217538   1.561   6.099   4.523
 5547SOL     OW17539   3.808   0.792   4.613
 5547SOL    HW117540   3.758   0.862   4.664
 5547SOL    HW217541   3.748   0.713   4.597
 5548SOL     OW17542   5.505   3.323   4.644
 5548SOL    HW117543   5.530   3.417   4.664
 5548SOL    HW217544   5.577   3.280   4.589
 5549SOL     OW17545   4.240   4.128   0.839
 5549SOL    HW117546   4.322   4.184   0.851
 5549SOL    HW217547   4.159   4.181   0.864
 5550SOL     OW17548   2.191   4.141   2.345
 5550SOL    HW117549   2.106   4.107   2.387
 5550SOL    HW217550   2.176   4.157   2.248
 5551SOL     OW17551   1.757   6.062   3.735
 5551SOL    HW117552   1.795   6.124   3.667
 5551SOL    HW217553   1.819   5.985   3.749
 5552SOL     OW17554   6.575   0.242   6.749
 5552SOL    HW117555   6.644   0.174   6.772
 5552SOL    HW217556   6.564   0.306   6.825
 5553SOL     OW17557   4.752   6.876   0.769
 5553SOL    HW117558   4.830   6.931   0.797
 5553SOL    HW217559   4.766   6.844   0.675
 5554SOL     OW17560   4.392   1.803   6.318
 5554SOL    HW117561   4.486   1.790   6.285
 5554SOL    HW217562   4.328   1.771   6.249
 5555SOL     OW17563   1.055   3.794   3.620
 5555SOL    HW117564   1.144   3.818   3.581
 5555SOL    HW217565   1.015   3.875   3.664
 5556SOL     OW17566   6.782   1.634   3.019
 5556SOL    HW117567   6.773   1.554   3.078
 5556SOL    HW217568   6.782   1.604   2.924
 5557SOL     OW17569   3.172   6.856   2.821
 5557SOL    HW117570   3.146   6.857   2.724
 5557SOL    HW217571   3.268   6.830   2.830
 5558SOL     OW17572   4.109   3.420   5.594
 5558SOL    HW117573   4.103   3.502   5.652
 5558SOL    HW217574   4.053   3.434   5.512
 5559SOL     OW17575   1.528   0.470   1.597
 5559SOL    HW117576   1.575   0.383   1.612
 5559SOL    HW217577   1.546   0.532   1.674
 5560SOL     OW17578   0.545   6.039   2.472
 5560SOL    HW117579   0.488   5.994   2.403
 5560SOL    HW217580   0.486   6.088   2.537
 5561SOL     OW17581   1.107   1.886   4.103
 5561SOL    HW117582   1.131   1.915   4.010
 5561SOL    HW217583   1.086   1.967   4.158
 5562SOL     OW17584   4.081   2.235   6.272
 5562SOL    HW117585   4.043   2.148   6.239
 5562SOL    HW217586   4.167   2.254   6.226
 5563SOL     OW17587   3.991   5.136   2.005
 5563SOL    HW117588   4.012   5.163   2.099
 5563SOL    HW217589   4.073   5.143   1.949
 5564SOL     OW17590   4.642   0.585   1.253
 5564SOL    HW117591   4.651   0.564   1.155
 5564SOL    HW217592   4.682   0.675   1.271
 5565SOL     OW17593   4.736   1.584   6.074
 5565SOL    HW117594   4.789   1.551   6.152
 5565SOL    HW217595   4.796   1.597   5.996
 5566SOL     OW17596   1.578   5.078   6.777
 5566SOL    HW117597   1.649   5.048   6.713
 5566SOL    HW217598   1.490   5.041   6.748
 5567SOL     OW17599   7.012   2.385   0.988
 5567SOL    HW117600   0.060   2.332   1.039
 5567SOL    HW217601   6.971   2.453   1.049
 5568SOL     OW17602   4.179   1.898   3.728
 5568SOL    HW117603   4.084   1.919   3.704
 5568SOL    HW217604   4.241   1.944   3.664
 5569SOL     OW17605   1.165   1.921   2.705
 5569SOL    HW117606   1.087   1.980   2.723
 5569SOL    HW217607   1.185   1.921   2.607
 5570SOL     OW17608   5.975   4.483   4.814
 5570SOL    HW117609   6.002   4.387   4.820
 5570SOL    HW217610   6.015   4.523   4.731
 5571SOL     OW17611   6.964   5.971   0.408
 5571SOL    HW117612   6.962   5.900   0.478
 5571SOL    HW217613   6.981   5.930   0.319
 5572SOL     OW17614   1.045   2.250   5.070
 5572SOL    HW117615   1.092   2.166   5.044
 5572SOL    HW217616   1.112   2.324   5.081
 5573SOL     OW17617   2.255   4.718   4.556
 5573SOL    HW117618   2.295   4.632   4.527
 5573SOL    HW217619   2.163   4.727   4.518
 5574SOL     OW17620   0.137   1.979   2.362
 5574SOL    HW117621   0.085   2.060   2.335
 5574SOL    HW217622   0.079   1.898   2.355
 5575SOL     OW17623   6.965   1.377   0.769
 5575SOL    HW117624   0.026   1.378   0.827
 5575SOL    HW217625   6.889   1.420   0.818
 5576SOL     OW17626   0.715   5.374   2.073
 5576SOL    HW117627   0.766   5.309   2.016
 5576SOL    HW217628   0.623   5.340   2.087
 5577SOL     OW17629   3.194   3.404   5.084
 5577SOL    HW117630   3.096   3.421   5.086
 5577SOL    HW217631   3.210   3.305   5.073
 5578SOL     OW17632   3.566   3.778   0.696
 5578SOL    HW117633   3.598   3.724   0.618
 5578SOL    HW217634   3.478   3.743   0.727
 5579SOL     OW17635   0.992   3.984   6.565
 5579SOL    HW117636   1.091   3.979   6.550
 5579SOL    HW217637   0.974   4.032   6.651
 5580SOL     OW17638   5.522   2.565   5.444
 5580SOL    HW117639   5.605   2.614   5.471
 5580SOL    HW217640   5.464   2.626   5.390
 5581SOL     OW17641   1.823   0.106   1.502
 5581SOL    HW117642   1.777   0.120   1.415
 5581SOL    HW217643   1.849   0.010   1.511
 5582SOL     OW17644   2.882   3.729   4.597
 5582SOL    HW117645   2.852   3.816   4.558
 5582SOL    HW217646   2.838   3.716   4.686
 5583SOL     OW17647   4.812   0.224   2.496
 5583SOL    HW117648   4.858   0.142   2.462
 5583SOL    HW217649   4.874   0.275   2.555
 5584SOL     OW17650   5.709   4.418   3.928
 5584SOL    HW117651   5.656   4.337   3.907
 5584SOL    HW217652   5.695   4.444   4.024
 5585SOL     OW17653   5.055   6.401   4.142
 5585SOL    HW117654   5.062   6.336   4.066
 5585SOL    HW217655   5.123   6.473   4.130
 5586SOL     OW17656   0.400   2.574   6.947
 5586SOL    HW117657   0.378   2.607   6.855
 5586SOL    HW217658   0.389   2.475   6.950
 5587SOL     OW17659   4.065   6.362   1.999
 5587SOL    HW117660   4.115   6.362   1.912
 5587SOL    HW217661   4.039   6.456   2.022
 5588SOL     OW17662   1.828   5.807   2.748
 5588SOL    HW117663   1.852   5.788   2.843
 5588SOL    HW217664   1.742   5.761   2.725
 5589SOL     OW17665   5.818   3.950   5.776
 5589SOL    HW117666   5.875   3.944   5.858
 5589SOL    HW217667   5.876   3.967   5.697
 5590SOL     OW17668   6.304   5.737   4.229
 5590SOL    HW117669   6.287   5.817   4.286
 5590SOL    HW217670   6.246   5.742   4.147
 5591SOL     OW17671   5.689   2.102   0.550
 5591SOL    HW117672   5.665   2.009   0.578
 5591SOL    HW217673   5.788   2.115   0.563
 5592SOL     OW17674   6.872   4.775   2.786
 5592SOL    HW117675   6.828   4.696   2.830
 5592SOL    HW217676   6.801   4.837   2.753
 5593SOL     OW17677   0.217   2.888   6.560
 5593SOL    HW117678   0.255   2.808   6.607
 5593SOL    HW217679   0.286   2.960   6.554
 5594SOL     OW17680   3.279   0.827   6.734
 5594SOL    HW117681   3.299   0.744   6.682
 5594SOL    HW217682   3.363   0.863   6.773
 5595SOL     OW17683   6.358   0.682   5.047
 5595SOL    HW117684   6.441   0.680   5.102
 5595SOL    HW217685   6.300   0.758   5.077
 5596SOL     OW17686   4.857   0.761   3.453
 5596SOL    HW117687   4.899   0.675   3.422
 5596SOL    HW217688   4.818   0.809   3.374
 5597SOL     OW17689   5.694   2.364   5.419
 5597SOL    HW117690   5.762   2.407   5.360
 5597SOL    HW217691   5.626   2.433   5.447
 5598SOL     OW17692   6.470   3.845   3.525
 5598SOL    HW117693   6.405   3.769   3.530
 5598SOL    HW217694   6.559   3.810   3.498
 5599SOL     OW17695   0.938   2.969   1.727
 5599SOL    HW117696   1.007   2.948   1.796
 5599SOL    HW217697   0.979   2.966   1.636
 5600SOL     OW17698   2.739   0.419   2.505
 5600SOL    HW117699   2.813   0.356   2.528
 5600SOL    HW217700   2.717   0.410   2.408
 5601SOL     OW17701   2.526   0.633   6.055
 5601SOL    HW117702   2.433   0.653   6.025
 5601SOL    HW217703   2.527   0.624   6.155
 5602SOL     OW17704   0.140   1.019   1.323
 5602SOL    HW117705   0.236   1.018   1.294
 5602SOL    HW217706   0.134   1.058   1.415
 5603SOL     OW17707   5.809   2.050   0.263
 5603SOL    HW117708   5.801   2.084   0.357
 5603SOL    HW217709   5.853   2.120   0.206
 5604SOL     OW17710   6.116   2.050   4.680
 5604SOL    HW117711   6.207   2.009   4.684
 5604SOL    HW217712   6.069   2.036   4.767
 5605SOL     OW17713   0.592   0.826   4.746
 5605SOL    HW117714   0.562   0.897   4.809
 5605SOL    HW217715   0.558   0.737   4.777
 5606SOL     OW17716   5.259   0.038   0.667
 5606SOL    HW117717   5.320   6.984   0.638
 5606SOL    HW217718   5.170   0.028   0.623
 5607SOL     OW17719   6.077   1.102   3.736
 5607SOL    HW117720   6.024   1.104   3.652
 5607SOL    HW217721   6.170   1.134   3.718
 5608SOL     OW17722   6.447   0.975   3.836
 5608SOL    HW117723   6.520   1.032   3.799
 5608SOL    HW217724   6.480   0.925   3.916
 5609SOL     OW17725   4.216   6.147   1.589
 5609SOL    HW117726   4.161   6.191   1.518
 5609SOL    HW217727   4.172   6.062   1.617
 5610SOL     OW17728   4.511   5.244   1.426
 5610SOL    HW117729   4.433   5.194   1.463
 5610SOL    HW217730   4.579   5.179   1.393
 5611SOL     OW17731   0.750   5.329   2.993
 5611SOL    HW117732   0.772   5.234   2.971
 5611SOL    HW217733   0.834   5.383   2.994
 5612SOL     OW17734   4.311   2.722   6.007
 5612SOL    HW117735   4.267   2.797   5.957
 5612SOL    HW217736   4.409   2.737   6.010
 5613SOL     OW17737   5.675   5.689   5.160
 5613SOL    HW117738   5.613   5.680   5.238
 5613SOL    HW217739   5.680   5.601   5.112
 5614SOL     OW17740   5.029   2.502   4.828
 5614SOL    HW117741   4.971   2.512   4.746
 5614SOL    HW217742   5.091   2.425   4.815
 5615SOL     OW17743   6.799   1.705   3.751
 5615SOL    HW117744   6.845   1.663   3.829
 5615SOL    HW217745   6.788   1.803   3.768
 5616SOL     OW17746   2.641   2.043   5.415
 5616SOL    HW117747   2.591   2.018   5.332
 5616SOL    HW217748   2.593   2.007   5.495
 5617SOL     OW17749   2.415   6.024   5.697
 5617SOL    HW117750   2.319   6.028   5.723
 5617SOL    HW217751   2.422   6.009   5.598
 5618SOL     OW17752   6.664   4.457   4.551
 5618SOL    HW117753   6.617   4.390   4.609
 5618SOL    HW217754   6.632   4.448   4.457
 5619SOL     OW17755   4.025   3.815   4.621
 5619SOL    HW117756   4.079   3.734   4.642
 5619SOL    HW217757   3.998   3.813   4.525
 5620SOL     OW17758   4.106   3.616   0.826
 5620SOL    HW117759   4.148   3.701   0.796
 5620SOL    HW217760   4.007   3.628   0.835
 5621SOL     OW17761   2.249   2.539   0.127
 5621SOL    HW117762   2.265   2.472   0.054
 5621SOL    HW217763   2.336   2.578   0.156
 5622SOL     OW17764   4.449   0.620   5.780
 5622SOL    HW117765   4.508   0.668   5.715
 5622SOL    HW217766   4.503   0.592   5.859
 5623SOL     OW17767   4.509   6.413   5.258
 5623SOL    HW117768   4.418   6.453   5.249
 5623SOL    HW217769   4.562   6.429   5.174
 5624SOL     OW17770   0.924   4.169   3.401
 5624SOL    HW117771   0.994   4.220   3.352
 5624SOL    HW217772   0.943   4.172   3.499
 5625SOL     OW17773   6.427   7.017   5.313
 5625SOL    HW117774   6.467   7.012   5.404
 5625SOL    HW217775   6.453   0.083   5.270
 5626SOL     OW17776   2.525   6.049   3.848
 5626SOL    HW117777   2.448   5.992   3.822
 5626SOL    HW217778   2.599   6.037   3.781
 5627SOL     OW17779   1.115   5.406   6.669
 5627SOL    HW117780   1.015   5.398   6.664
 5627SOL    HW217781   1.147   5.371   6.756
 5628SOL     OW17782   2.246   2.265   2.386
 5628SOL    HW117783   2.222   2.206   2.463
 5628SOL    HW217784   2.298   2.344   2.419
 5629SOL     OW17785   4.258   3.283   1.756
 5629SOL    HW117786   4.317   3.359   1.731
 5629SOL    HW217787   4.311   3.197   1.750
 5630SOL     OW17788   1.916   3.609   6.241
 5630SOL    HW117789   1.928   3.582   6.145
 5630SOL    HW217790   1.954   3.538   6.300
 5631SOL     OW17791   4.660   1.723   1.894
 5631SOL    HW117792   4.695   1.777   1.971
 5631SOL    HW217793   4.561   1.716   1.900
 5632SOL     OW17794   3.212   2.278   5.885
 5632SOL    HW117795   3.230   2.377   5.886
 5632SOL    HW217796   3.237   2.239   5.973
 5633SOL     OW17797   5.831   4.995   4.269
 5633SOL    HW117798   5.762   5.010   4.198
 5633SOL    HW217799   5.788   4.995   4.359
 5634SOL     OW17800   2.089   4.624   3.905
 5634SOL    HW117801   2.163   4.669   3.855
 5634SOL    HW217802   2.008   4.683   3.905
 5635SOL     OW17803   2.117   5.668   6.867
 5635SOL    HW117804   2.173   5.667   6.784
 5635SOL    HW217805   2.136   5.586   6.921
 5636SOL     OW17806   4.644   0.119   4.654
 5636SOL    HW117807   4.691   0.118   4.565
 5636SOL    HW217808   4.546   0.111   4.640
 5637SOL     OW17809   4.731   6.751   3.477
 5637SOL    HW117810   4.650   6.735   3.534
 5637SOL    HW217811   4.715   6.828   3.416
 5638SOL     OW17812   6.985   3.691   0.985
 5638SOL    HW117813   0.056   3.725   0.959
 5638SOL    HW217814   6.974   3.598   0.951
 5639SOL     OW17815   1.810   0.124   2.102
 5639SOL    HW117816   1.751   0.163   2.171
 5639SOL    HW217817   1.844   0.035   2.133
 5640SOL     OW17818   3.217   0.455   3.601
 5640SOL    HW117819   3.160   0.489   3.526
 5640SOL    HW217820   3.177   0.370   3.636
 5641SOL     OW17821   0.399   4.989   5.314
 5641SOL    HW117822   0.334   4.917   5.287
 5641SOL    HW217823   0.469   4.949   5.372
 5642SOL     OW17824   1.447   5.840   4.756
 5642SOL    HW117825   1.448   5.935   4.726
 5642SOL    HW217826   1.355   5.802   4.747
 5643SOL     OW17827   4.556   1.457   4.064
 5643SOL    HW117828   4.460   1.469   4.089
 5643SOL    HW217829   4.573   1.497   3.974
 5644SOL     OW17830   3.467   6.652   5.481
 5644SOL    HW117831   3.399   6.646   5.554
 5644SOL    HW217832   3.514   6.740   5.485
 5645SOL     OW17833   6.057   5.089   3.132
 5645SOL    HW117834   6.052   4.990   3.119
 5645SOL    HW217835   5.975   5.132   3.097
 5646SOL     OW17836   0.921   5.757   3.999
 5646SOL    HW117837   0.890   5.716   4.084
 5646SOL    HW217838   0.853   5.822   3.966
 5647SOL     OW17839   4.801   6.086   0.639
 5647SOL    HW117840   4.706   6.117   0.643
 5647SOL    HW217841   4.822   6.033   0.721
 5648SOL     OW17842   1.691   0.025   3.339
 5648SOL    HW117843   1.780   0.059   3.307
 5648SOL    HW217844   1.691   0.021   3.439
 5649SOL     OW17845   0.393   0.886   4.540
 5649SOL    HW117846   0.474   0.878   4.599
 5649SOL    HW217847   0.362   0.794   4.514
 5650SOL     OW17848   0.704   5.380   0.514
 5650SOL    HW117849   0.768   5.408   0.442
 5650SOL    HW217850   0.729   5.423   0.600
 5651SOL     OW17851   1.612   1.178   1.392
 5651SOL    HW117852   1.674   1.236   1.445
 5651SOL    HW217853   1.606   1.088   1.436
 5652SOL     OW17854   6.029   6.775   2.080
 5652SOL    HW117855   6.053   6.770   2.177
 5652SOL    HW217856   5.963   6.849   2.066
 5653SOL     OW17857   6.669   5.889   6.662
 5653SOL    HW117858   6.686   5.817   6.594
 5653SOL    HW217859   6.582   5.870   6.709
 5654SOL     OW17860   6.632   6.939   5.087
 5654SOL    HW117861   6.695   7.016   5.101
 5654SOL    HW217862   6.553   6.949   5.148
 5655SOL     OW17863   1.143   3.818   4.544
 5655SOL    HW117864   1.063   3.801   4.600
 5655SOL    HW217865   1.208   3.743   4.555
 5656SOL     OW17866   0.120   3.678   6.750
 5656SOL    HW117867   0.043   3.617   6.766
 5656SOL    HW217868   0.095   3.745   6.680
 5657SOL     OW17869   6.021   1.859   0.330
 5657SOL    HW117870   5.930   1.876   0.366
 5657SOL    HW217871   6.031   1.762   0.306
 5658SOL     OW17872   3.669   3.510   6.605
 5658SOL    HW117873   3.703   3.429   6.556
 5658SOL    HW217874   3.746   3.555   6.650
 5659SOL     OW17875   3.953   3.151   4.751
 5659SOL    HW117876   3.883   3.219   4.727
 5659SOL    HW217877   3.985   3.167   4.844
 5660SOL     OW17878   5.085   6.806   0.320
 5660SOL    HW117879   5.138   6.724   0.345
 5660SOL    HW217880   5.147   6.877   0.289
 5661SOL     OW17881   1.537   5.625   5.126
 5661SOL    HW117882   1.494   5.535   5.122
 5661SOL    HW217883   1.635   5.614   5.143
 5662SOL     OW17884   2.755   6.073   3.712
 5662SOL    HW117885   2.785   6.116   3.797
 5662SOL    HW217886   2.821   6.092   3.640
 5663SOL     OW17887   1.760   2.988   6.771
 5663SOL    HW117888   1.667   2.970   6.739
 5663SOL    HW217889   1.757   3.030   6.861
 5664SOL     OW17890   6.821   4.253   4.108
 5664SOL    HW117891   6.745   4.201   4.069
 5664SOL    HW217892   6.857   4.204   4.187
 5665SOL     OW17893   1.800   1.026   0.376
 5665SOL    HW117894   1.843   1.073   0.299
 5665SOL    HW217895   1.819   1.075   0.461
 5666SOL     OW17896   6.160   6.974   2.968
 5666SOL    HW117897   6.121   6.910   3.034
 5666SOL    HW217898   6.197   0.033   3.016
 5667SOL     OW17899   1.708   5.171   4.594
 5667SOL    HW117900   1.635   5.130   4.540
 5667SOL    HW217901   1.703   5.136   4.688
 5668SOL     OW17902   5.028   2.725   3.751
 5668SOL    HW117903   4.936   2.749   3.783
 5668SOL    HW217904   5.037   2.749   3.654
 5669SOL     OW17905   0.104   3.363   6.993
 5669SOL    HW117906   0.050   3.349   0.056
 5669SOL    HW217907   0.045   3.398   6.920
 5670SOL     OW17908   6.914   2.913   3.958
 5670SOL    HW117909   7.012   2.896   3.964
 5670SOL    HW217910   6.886   2.911   3.862
 5671SOL     OW17911   6.478   6.042   6.387
 5671SOL    HW117912   6.566   6.023   6.344
 5671SOL    HW217913   6.457   6.139   6.380
 5672SOL     OW17914   4.434   4.027   0.019
 5672SOL    HW117915   4.492   4.098   0.058
 5672SOL    HW217916   4.345   4.065   7.014
 5673SOL     OW17917   1.367   0.767   1.891
 5673SOL    HW117918   1.368   0.847   1.831
 5673SOL    HW217919   1.283   0.715   1.875
 5674SOL     OW17920   0.083   5.031   5.015
 5674SOL    HW117921   0.035   5.066   5.096
 5674SOL    HW217922   0.017   5.014   4.942
 5675SOL     OW17923   4.339   2.743   6.857
 5675SOL    HW117924   4.371   2.665   6.803
 5675SOL    HW217925   4.253   2.719   6.903
 5676SOL     OW17926   2.566   2.299   2.493
 5676SOL    HW117927   2.592   2.290   2.397
 5676SOL    HW217928   2.561   2.209   2.535
 5677SOL     OW17929   1.224   1.524   0.381
 5677SOL    HW117930   1.299   1.568   0.430
 5677SOL    HW217931   1.260   1.455   0.319
 5678SOL     OW17932   4.218   6.757   2.715
 5678SOL    HW117933   4.249   6.673   2.670
 5678SOL    HW217934   4.142   6.736   2.776
 5679SOL     OW17935   7.020   0.837   4.164
 5679SOL    HW117936   0.070   0.785   4.117
 5679SOL    HW217937   6.944   0.857   4.101
 5680SOL     OW17938   1.607   5.110   6.154
 5680SOL    HW117939   1.603   5.010   6.156
 5680SOL    HW217940   1.614   5.145   6.247
 5681SOL     OW17941   0.534   4.389   1.099
 5681SOL    HW117942   0.484   4.474   1.119
 5681SOL    HW217943   0.600   4.406   1.026
 5682SOL     OW17944   2.370   4.903   5.411
 5682SOL    HW117945   2.362   4.810   5.374
 5682SOL    HW217946   2.453   4.946   5.374
 5683SOL     OW17947   4.490   1.204   6.152
 5683SOL    HW117948   4.574   1.221   6.100
 5683SOL    HW217949   4.422   1.274   6.130
 5684SOL     OW17950   2.902   3.559   5.524
 5684SOL    HW117951   2.897   3.459   5.520
 5684SOL    HW217952   2.998   3.587   5.516
 5685SOL     OW17953   1.972   2.018   2.750
 5685SOL    HW117954   1.928   1.952   2.811
 5685SOL    HW217955   1.957   2.111   2.784
 5686SOL     OW17956   2.523   1.058   6.553
 5686SOL    HW117957   2.500   1.071   6.649
 5686SOL    HW217958   2.598   0.993   6.545
 5687SOL     OW17959   0.953   5.129   0.241
 5687SOL    HW117960   1.037   5.149   0.291
 5687SOL    HW217961   0.957   5.170   0.150
 5688SOL     OW17962   0.297   2.331   1.698
 5688SOL    HW117963   0.218   2.334   1.636
 5688SOL    HW217964   0.319   2.424   1.728
 5689SOL     OW17965   3.405   1.517   0.972
 5689SOL    HW117966   3.461   1.564   1.040
 5689SOL    HW217967   3.460   1.448   0.925
 5690SOL     OW17968   2.774   5.816   6.977
 5690SOL    HW117969   2.867   5.778   6.971
 5690SOL    HW217970   2.709   5.742   6.994
 5691SOL     OW17971   3.505   0.294   2.319
 5691SOL    HW117972   3.417   0.266   2.282
 5691SOL    HW217973   3.494   0.317   2.416
 5692SOL     OW17974   5.414   3.739   0.769
 5692SOL    HW117975   5.462   3.657   0.802
 5692SOL    HW217976   5.399   3.731   0.671
 5693SOL     OW17977   4.765   2.437   2.852
 5693SOL    HW117978   4.795   2.525   2.816
 5693SOL    HW217979   4.692   2.451   2.918
 5694SOL     OW17980   0.930   1.704   3.368
 5694SOL    HW117981   0.947   1.773   3.439
 5694SOL    HW217982   1.018   1.672   3.333
 5695SOL     OW17983   1.666   1.793   3.248
 5695SOL    HW117984   1.628   1.726   3.183
 5695SOL    HW217985   1.591   1.833   3.301
 5696SOL     OW17986   0.666   1.003   3.112
 5696SOL    HW117987   0.727   1.055   3.052
 5696SOL    HW217988   0.717   0.931   3.157
 5697SOL     OW17989   5.516   2.509   0.797
 5697SOL    HW117990   5.553   2.576   0.861
 5697SOL    HW217991   5.571   2.426   0.800
 5698SOL     OW17992   1.374   4.738   4.039
 5698SOL    HW117993   1.402   4.719   4.133
 5698SOL    HW217994   1.348   4.653   3.994
 5699SOL     OW17995   0.638   2.819   3.228
 5699SOL    HW117996   0.708   2.792   3.293
 5699SOL    HW217997   0.584   2.739   3.201
 5700SOL     OW17998   6.716   6.826   3.345
 5700SOL    HW117999   6.659   6.770   3.404
 5700SOL    HW218000   6.677   6.918   3.338
 5701SOL     OW18001   1.793   0.712   1.623
 5701SOL    HW118002   1.717   0.687   1.683
 5701SOL    HW218003   1.821   0.806   1.643
 5702SOL     OW18004   2.611   5.438   4.402
 5702SOL    HW118005   2.524   5.478   4.371
 5702SOL    HW218006   2.619   5.345   4.366
 5703SOL     OW18007   6.449   4.584   2.079
 5703SOL    HW118008   6.546   4.573   2.102
 5703SOL    HW218009   6.413   4.499   2.043
 5704SOL     OW18010   4.937   4.526   2.948
 5704SOL    HW118011   4.972   4.589   3.016
 5704SOL    HW218012   4.980   4.436   2.960
 5705SOL     OW18013   4.979   6.908   6.897
 5705SOL    HW118014   4.948   6.849   6.971
 5705SOL    HW218015   4.998   6.852   6.816
 5706SOL     OW18016   6.806   4.128   1.267
 5706SOL    HW118017   6.855   4.144   1.181
 5706SOL    HW218018   6.846   4.185   1.339
 5707SOL     OW18019   0.169   6.304   0.225
 5707SOL    HW118020   0.226   6.339   0.151
 5707SOL    HW218021   0.205   6.215   0.255
 5708SOL     OW18022   5.251   5.420   1.793
 5708SOL    HW118023   5.184   5.480   1.748
 5708SOL    HW218024   5.203   5.361   1.858
 5709SOL     OW18025   1.378   0.951   2.181
 5709SOL    HW118026   1.457   0.986   2.131
 5709SOL    HW218027   1.409   0.908   2.266
 5710SOL     OW18028   2.225   2.716   0.739
 5710SOL    HW118029   2.148   2.687   0.681
 5710SOL    HW218030   2.195   2.791   0.798
 5711SOL     OW18031   5.233   0.786   2.619
 5711SOL    HW118032   5.237   0.696   2.661
 5711SOL    HW218033   5.299   0.791   2.544
 5712SOL     OW18034   6.500   0.964   6.527
 5712SOL    HW118035   6.484   1.037   6.594
 5712SOL    HW218036   6.590   0.977   6.484
 5713SOL     OW18037   3.545   2.820   1.883
 5713SOL    HW118038   3.454   2.860   1.888
 5713SOL    HW218039   3.597   2.845   1.965
 5714SOL     OW18040   0.427   5.564   0.276
 5714SOL    HW118041   0.522   5.589   0.258
 5714SOL    HW218042   0.401   5.487   0.218
 5715SOL     OW18043   1.101   0.796   2.519
 5715SOL    HW118044   1.087   0.791   2.618
 5715SOL    HW218045   1.188   0.754   2.495
 5716SOL     OW18046   1.558   4.605   6.436
 5716SOL    HW118047   1.638   4.664   6.450
 5716SOL    HW218048   1.483   4.639   6.492
 5717SOL     OW18049   1.914   4.898   1.049
 5717SOL    HW118050   1.827   4.929   1.011
 5717SOL    HW218051   1.920   4.798   1.044
 5718SOL     OW18052   0.221   3.710   5.569
 5718SOL    HW118053   0.244   3.688   5.664
 5718SOL    HW218054   0.141   3.771   5.568
 5719SOL     OW18055   2.691   2.243   6.346
 5719SOL    HW118056   2.625   2.200   6.407
 5719SOL    HW218057   2.655   2.330   6.313
 5720SOL     OW18058   1.783   5.864   4.736
 5720SOL    HW118059   1.712   5.794   4.739
 5720SOL    HW218060   1.810   5.881   4.641
 5721SOL     OW18061   6.559   3.085   0.909
 5721SOL    HW118062   6.624   3.034   0.853
 5721SOL    HW218063   6.564   3.054   1.004
 5722SOL     OW18064   6.936   1.410   5.229
 5722SOL    HW118065   7.013   1.420   5.165
 5722SOL    HW218066   6.869   1.347   5.190
 5723SOL     OW18067   4.863   2.741   0.570
 5723SOL    HW118068   4.868   2.817   0.504
 5723SOL    HW218069   4.807   2.769   0.648
 5724SOL     OW18070   5.507   2.842   4.817
 5724SOL    HW118071   5.549   2.803   4.735
 5724SOL    HW218072   5.487   2.939   4.800
 5725SOL     OW18073   5.243   5.747   4.520
 5725SOL    HW118074   5.263   5.712   4.612
 5725SOL    HW218075   5.328   5.754   4.468
 5726SOL     OW18076   0.038   5.488   4.542
 5726SOL    HW118077   7.001   5.416   4.582
 5726SOL    HW218078   0.123   5.447   4.508
 5727SOL     OW18079   0.345   1.777   4.282
 5727SOL    HW118080   0.423   1.838   4.273
 5727SOL    HW218081   0.319   1.771   4.379
 5728SOL     OW18082   3.984   0.351   6.141
 5728SOL    HW118083   4.081   0.334   6.155
 5728SOL    HW218084   3.937   0.350   6.229
 5729SOL     OW18085   1.447   0.923   0.667
 5729SOL    HW118086   1.485   0.929   0.575
 5729SOL    HW218087   1.439   0.827   0.693
 5730SOL     OW18088   5.394   5.239   6.796
 5730SOL    HW118089   5.354   5.263   6.708
 5730SOL    HW218090   5.321   5.225   6.863
 5731SOL     OW18091   0.174   6.286   3.991
 5731SOL    HW118092   0.108   6.355   3.960
 5731SOL    HW218093   0.243   6.272   3.920
 5732SOL     OW18094   6.650   5.449   4.695
 5732SOL    HW118095   6.737   5.497   4.684
 5732SOL    HW218096   6.598   5.453   4.610
 5733SOL     OW18097   4.134   6.422   5.637
 5733SOL    HW118098   4.098   6.509   5.602
 5733SOL    HW218099   4.222   6.402   5.592
 5734SOL     OW18100   1.357   6.560   5.204
 5734SOL    HW118101   1.311   6.547   5.116
 5734SOL    HW218102   1.296   6.611   5.265
 5735SOL     OW18103   4.222   2.006   1.661
 5735SOL    HW118104   4.207   1.910   1.683
 5735SOL    HW218105   4.135   2.049   1.637
 5736SOL     OW18106   6.362   4.088   6.925
 5736SOL    HW118107   6.378   4.013   6.989
 5736SOL    HW218108   6.361   4.175   6.975
 5737SOL     OW18109   5.743   6.812   1.394
 5737SOL    HW118110   5.716   6.745   1.463
 5737SOL    HW218111   5.700   6.900   1.414
 5738SOL     OW18112   2.362   2.172   5.567
 5738SOL    HW118113   2.278   2.171   5.621
 5738SOL    HW218114   2.437   2.134   5.622
 5739SOL     OW18115   1.354   0.278   5.899
 5739SOL    HW118116   1.284   0.220   5.939
 5739SOL    HW218117   1.311   0.349   5.843
 5740SOL     OW18118   4.267   3.640   1.219
 5740SOL    HW118119   4.266   3.738   1.196
 5740SOL    HW218120   4.304   3.588   1.142
 5741SOL     OW18121   0.738   4.460   4.280
 5741SOL    HW118122   0.675   4.427   4.350
 5741SOL    HW218123   0.779   4.382   4.232
 5742SOL     OW18124   5.059   6.990   1.956
 5742SOL    HW118125   5.009   6.905   1.976
 5742SOL    HW218126   5.013   0.018   1.882
 5743SOL     OW18127   2.509   5.307   5.244
 5743SOL    HW118128   2.486   5.352   5.330
 5743SOL    HW218129   2.441   5.332   5.174
 5744SOL     OW18130   4.649   0.887   2.075
 5744SOL    HW118131   4.591   0.810   2.103
 5744SOL    HW218132   4.724   0.852   2.019
 5745SOL     OW18133   2.244   1.004   4.197
 5745SOL    HW118134   2.156   1.031   4.157
 5745SOL    HW218135   2.277   0.922   4.150
 5746SOL     OW18136   6.118   6.917   1.707
 5746SOL    HW118137   6.185   6.865   1.760
 5746SOL    HW218138   6.026   6.895   1.740
 5747SOL     OW18139   6.476   4.642   2.810
 5747SOL    HW118140   6.566   4.637   2.853
 5747SOL    HW218141   6.483   4.693   2.724
 5748SOL     OW18142   1.844   5.869   1.146
 5748SOL    HW118143   1.938   5.859   1.114
 5748SOL    HW218144   1.791   5.789   1.119
 5749SOL     OW18145   1.483   0.524   4.883
 5749SOL    HW118146   1.485   0.437   4.933
 5749SOL    HW218147   1.576   0.548   4.855
 5750SOL     OW18148   5.058   6.609   4.454
 5750SOL    HW118149   5.032   6.664   4.534
 5750SOL    HW218150   4.984   6.545   4.433
 5751SOL     OW18151   2.250   2.910   4.787
 5751SOL    HW118152   2.290   2.962   4.863
 5751SOL    HW218153   2.153   2.934   4.779
 5752SOL     OW18154   6.533   0.921   6.835
 5752SOL    HW118155   6.454   0.877   6.793
 5752SOL    HW218156   6.617   0.877   6.802
 5753SOL     OW18157   3.758   3.921   5.549
 5753SOL    HW118158   3.805   3.898   5.463
 5753SOL    HW218159   3.814   3.893   5.626
 5754SOL     OW18160   5.930   4.355   1.772
 5754SOL    HW118161   5.947   4.406   1.687
 5754SOL    HW218162   5.847   4.389   1.815
 5755SOL     OW18163   2.270   3.417   6.300
 5755SOL    HW118164   2.302   3.335   6.253
 5755SOL    HW218165   2.173   3.408   6.322
 5756SOL     OW18166   6.020   6.710   3.861
 5756SOL    HW118167   5.990   6.680   3.952
 5756SOL    HW218168   6.006   6.636   3.795
 5757SOL     OW18169   6.814   6.760   2.712
 5757SOL    HW118170   6.791   6.855   2.735
 5757SOL    HW218171   6.857   6.716   2.791
 5758SOL     OW18172   2.576   1.128   4.406
 5758SOL    HW118173   2.594   1.031   4.422
 5758SOL    HW218174   2.496   1.137   4.346
 5759SOL     OW18175   5.120   1.478   6.464
 5759SOL    HW118176   5.189   1.525   6.409
 5759SOL    HW218177   5.165   1.426   6.537
 5760SOL     OW18178   1.029   4.704   1.181
 5760SOL    HW118179   1.120   4.743   1.166
 5760SOL    HW218180   1.014   4.691   1.279
 5761SOL     OW18181   5.665   7.011   6.563
 5761SOL    HW118182   5.615   6.935   6.520
 5761SOL    HW218183   5.683   6.989   6.659
 5762SOL     OW18184   4.662   6.364   0.417
 5762SOL    HW118185   4.675   6.304   0.338
 5762SOL    HW218186   4.668   6.459   0.388
 5763SOL     OW18187   0.038   0.647   0.225
 5763SOL    HW118188   0.111   0.580   0.239
 5763SOL    HW218189   0.057   0.699   0.141
 5764SOL     OW18190   4.500   4.538   6.309
 5764SOL    HW118191   4.494   4.439   6.320
 5764SOL    HW218192   4.463   4.583   6.391
 5765SOL     OW18193   6.889   4.117   6.592
 5765SOL    HW118194   6.877   4.196   6.653
 5765SOL    HW218195   6.805   4.103   6.539
 5766SOL     OW18196   2.768   2.495   0.490
 5766SOL    HW118197   2.673   2.489   0.520
 5766SOL    HW218198   2.772   2.506   0.391
 5767SOL     OW18199   2.507   6.264   0.289
 5767SOL    HW118200   2.494   6.284   0.386
 5767SOL    HW218201   2.458   6.179   0.266
 5768SOL     OW18202   0.859   0.172   3.003
 5768SOL    HW118203   0.902   0.098   2.950
 5768SOL    HW218204   0.762   0.176   2.982
 5769SOL     OW18205   2.308   6.326   4.273
 5769SOL    HW118206   2.376   6.375   4.218
 5769SOL    HW218207   2.246   6.392   4.315
 5770SOL     OW18208   6.084   0.607   6.627
 5770SOL    HW118209   6.079   0.549   6.546
 5770SOL    HW218210   5.994   0.610   6.672
 5771SOL     OW18211   0.876   6.242   2.748
 5771SOL    HW118212   0.966   6.212   2.780
 5771SOL    HW218213   0.853   6.194   2.664
 5772SOL     OW18214   6.529   2.741   0.254
 5772SOL    HW118215   6.429   2.731   0.250
 5772SOL    HW218216   6.557   2.816   0.194
 5773SOL     OW18217   5.135   1.013   4.217
 5773SOL    HW118218   5.049   0.973   4.186
 5773SOL    HW218219   5.129   1.113   4.215
 5774SOL     OW18220   2.797   5.313   3.561
 5774SOL    HW118221   2.767   5.227   3.601
 5774SOL    HW218222   2.856   5.361   3.626
 5775SOL     OW18223   1.906   0.514   1.996
 5775SOL    HW118224   1.814   0.529   2.033
 5775SOL    HW218225   1.904   0.435   1.934
 5776SOL     OW18226   6.632   1.250   6.274
 5776SOL    HW118227   6.668   1.176   6.331
 5776SOL    HW218228   6.692   1.330   6.282
 5777SOL     OW18229   6.266   0.840   4.348
 5777SOL    HW118230   6.179   0.805   4.315
 5777SOL    HW218231   6.303   0.778   4.418
 5778SOL     OW18232   2.187   0.076   1.456
 5778SOL    HW118233   2.155   0.018   1.531
 5778SOL    HW218234   2.167   0.171   1.478
 5779SOL     OW18235   4.210   0.914   0.572
 5779SOL    HW118236   4.274   0.864   0.514
 5779SOL    HW218237   4.163   0.850   0.632
 5780SOL     OW18238   5.658   5.673   3.109
 5780SOL    HW118239   5.639   5.577   3.125
 5780SOL    HW218240   5.738   5.701   3.163
 5781SOL     OW18241   1.345   3.973   4.422
 5781SOL    HW118242   1.266   3.914   4.438
 5781SOL    HW218243   1.424   3.938   4.472
 5782SOL     OW18244   1.672   1.032   1.166
 5782SOL    HW118245   1.578   1.002   1.147
 5782SOL    HW218246   1.675   1.084   1.251
 5783SOL     OW18247   2.010   1.205   0.817
 5783SOL    HW118248   1.933   1.225   0.876
 5783SOL    HW218249   2.096   1.224   0.866
 5784SOL     OW18250   0.276   6.626   6.595
 5784SOL    HW118251   0.308   6.653   6.686
 5784SOL    HW218252   0.180   6.652   6.585
 5785SOL     OW18253   2.113   1.950   1.257
 5785SOL    HW118254   2.200   1.944   1.306
 5785SOL    HW218255   2.089   1.860   1.221
 5786SOL     OW18256   0.959   4.240   0.752
 5786SOL    HW118257   0.901   4.236   0.671
 5786SOL    HW218258   1.028   4.167   0.747
 5787SOL     OW18259   4.607   2.565   4.917
 5787SOL    HW118260   4.563   2.494   4.863
 5787SOL    HW218261   4.681   2.525   4.971
 5788SOL     OW18262   3.303   0.608   1.587
 5788SOL    HW118263   3.235   0.680   1.573
 5788SOL    HW218264   3.262   0.519   1.569
 5789SOL     OW18265   3.261   3.146   6.004
 5789SOL    HW118266   3.235   3.051   5.986
 5789SOL    HW218267   3.360   3.153   6.015
 5790SOL     OW18268   0.120   5.251   4.838
 5790SOL    HW118269   0.129   5.177   4.904
 5790SOL    HW218270   0.211   5.287   4.816
 5791SOL     OW18271   2.843   2.046   2.507
 5791SOL    HW118272   2.762   2.105   2.512
 5791SOL    HW218273   2.898   2.071   2.427
 5792SOL     OW18274   5.404   3.878   2.212
 5792SOL    HW118275   5.454   3.800   2.250
 5792SOL    HW218276   5.306   3.867   2.228
 5793SOL     OW18277   5.365   0.657   4.822
 5793SOL    HW118278   5.431   0.634   4.750
 5793SOL    HW218279   5.356   0.756   4.827
 5794SOL     OW18280   3.254   0.027   6.712
 5794SOL    HW118281   3.349   0.037   6.741
 5794SOL    HW218282   3.212   6.972   6.761
 5795SOL     OW18283   0.079   0.238   0.559
 5795SOL    HW118284   0.174   0.236   0.527
 5795SOL    HW218285   0.019   0.266   0.485
 5796SOL     OW18286   4.650   0.730   6.603
 5796SOL    HW118287   4.582   0.712   6.533
 5796SOL    HW218288   4.607   0.730   6.693
 5797SOL     OW18289   5.100   1.345   0.389
 5797SOL    HW118290   5.069   1.278   0.457
 5797SOL    HW218291   5.022   1.398   0.357
 5798SOL     OW18292   0.041   3.869   4.249
 5798SOL    HW118293   0.090   3.829   4.171
 5798SOL    HW218294   0.102   3.930   4.299
 5799SOL     OW18295   0.261   0.389   3.748
 5799SOL    HW118296   0.187   0.380   3.681
 5799SOL    HW218297   0.222   0.415   3.836
 5800SOL     OW18298   0.745   0.119   1.741
 5800SOL    HW118299   0.766   0.038   1.685
 5800SOL    HW218300   0.722   0.089   1.834
 5801SOL     OW18301   2.149   2.488   3.565
 5801SOL    HW118302   2.151   2.428   3.645
 5801SOL    HW218303   2.242   2.501   3.531
 5802SOL     OW18304   6.290   3.293   2.652
 5802SOL    HW118305   6.311   3.333   2.563
 5802SOL    HW218306   6.195   3.260   2.652
 5803SOL     OW18307   1.348   5.163   3.827
 5803SOL    HW118308   1.360   5.229   3.753
 5803SOL    HW218309   1.414   5.089   3.818
 5804SOL     OW18310   6.422   6.039   3.354
 5804SOL    HW118311   6.413   5.955   3.300
 5804SOL    HW218312   6.425   6.118   3.293
 5805SOL     OW18313   1.315   2.665   0.584
 5805SOL    HW118314   1.388   2.724   0.550
 5805SOL    HW218315   1.306   2.586   0.523
 5806SOL     OW18316   6.842   5.002   4.921
 5806SOL    HW118317   6.788   5.078   4.885
 5806SOL    HW218318   6.814   4.981   5.014
 5807SOL     OW18319   1.258   5.456   1.160
 5807SOL    HW118320   1.235   5.382   1.097
 5807SOL    HW218321   1.174   5.500   1.192
 5808SOL     OW18322   6.558   7.014   4.825
 5808SOL    HW118323   6.624   6.977   4.759
 5808SOL    HW218324   6.595   7.004   4.918
 5809SOL     OW18325   6.226   2.089   5.418
 5809SOL    HW118326   6.177   2.007   5.389
 5809SOL    HW218327   6.170   2.170   5.398
 5810SOL     OW18328   4.383   1.313   5.795
 5810SOL    HW118329   4.347   1.350   5.881
 5810SOL    HW218330   4.407   1.389   5.734
 5811SOL     OW18331   3.117   1.722   5.585
 5811SOL    HW118332   3.041   1.657   5.594
 5811SOL    HW218333   3.160   1.712   5.495
 5812SOL     OW18334   4.915   3.235   6.009
 5812SOL    HW118335   4.891   3.209   5.915
 5812SOL    HW218336   4.927   3.152   6.064
 5813SOL     OW18337   2.596   0.128   0.952
 5813SOL    HW118338   2.535   0.122   0.873
 5813SOL    HW218339   2.580   0.049   1.012
 5814SOL     OW18340   0.072   2.933   2.272
 5814SOL    HW118341   0.138   2.863   2.247
 5814SOL    HW218342   0.109   3.024   2.252
 5815SOL     OW18343   4.659   1.801   4.112
 5815SOL    HW118344   4.740   1.788   4.056
 5815SOL    HW218345   4.659   1.735   4.187
 5816SOL     OW18346   6.447   4.654   0.915
 5816SOL    HW118347   6.396   4.569   0.900
 5816SOL    HW218348   6.542   4.632   0.936
 5817SOL     OW18349   5.937   5.116   5.639
 5817SOL    HW118350   5.847   5.130   5.681
 5817SOL    HW218351   5.977   5.031   5.673
 5818SOL     OW18352   6.903   5.516   5.291
 5818SOL    HW118353   7.000   5.531   5.274
 5818SOL    HW218354   6.851   5.532   5.207
 5819SOL     OW18355   3.181   5.195   6.763
 5819SOL    HW118356   3.185   5.294   6.777
 5819SOL    HW218357   3.086   5.167   6.750
 5820SOL     OW18358   4.505   4.468   2.553
 5820SOL    HW118359   4.510   4.468   2.453
 5820SOL    HW218360   4.576   4.407   2.590
 5821SOL     OW18361   6.706   0.643   1.166
 5821SOL    HW118362   6.760   0.641   1.251
 5821SOL    HW218363   6.698   0.551   1.129
 5822SOL     OW18364   1.645   2.732   1.572
 5822SOL    HW118365   1.610   2.638   1.578
 5822SOL    HW218366   1.744   2.730   1.560
 5823SOL     OW18367   2.679   6.904   4.764
 5823SOL    HW118368   2.740   6.983   4.758
 5823SOL    HW218369   2.708   6.845   4.839
 5824SOL     OW18370   0.641   6.307   3.517
 5824SOL    HW118371   0.638   6.370   3.595
 5824SOL    HW218372   0.582   6.341   3.444
 5825SOL     OW18373   0.259   6.135   5.177
 5825SOL    HW118374   0.338   6.190   5.206
 5825SOL    HW218375   0.176   6.171   5.219
 5826SOL     OW18376   0.665   6.136   6.051
 5826SOL    HW118377   0.680   6.234   6.039
 5826SOL    HW218378   0.641   6.095   5.963
 5827SOL     OW18379   1.086   3.504   4.986
 5827SOL    HW118380   1.182   3.522   4.962
 5827SOL    HW218381   1.072   3.523   5.083
 5828SOL     OW18382   4.985   1.366   2.877
 5828SOL    HW118383   5.070   1.414   2.856
 5828SOL    HW218384   4.989   1.330   2.970
 5829SOL     OW18385   1.415   0.983   4.818
 5829SOL    HW118386   1.441   0.965   4.912
 5829SOL    HW218387   1.345   1.055   4.815
 5830SOL     OW18388   4.378   0.075   5.363
 5830SOL    HW118389   4.344   0.121   5.445
 5830SOL    HW218390   4.471   0.105   5.345
 5831SOL     OW18391   1.793   1.352   6.033
 5831SOL    HW118392   1.735   1.416   5.984
 5831SOL    HW218393   1.842   1.400   6.106
 5832SOL     OW18394   3.950   3.992   0.579
 5832SOL    HW118395   3.983   4.059   0.512
 5832SOL    HW218396   3.865   4.025   0.620
 5833SOL     OW18397   4.040   3.200   5.251
 5833SOL    HW118398   4.135   3.206   5.282
 5833SOL    HW218399   3.978   3.211   5.329
 5834SOL     OW18400   6.690   4.251   6.448
 5834SOL    HW118401   6.618   4.204   6.396
 5834SOL    HW218402   6.651   4.288   6.533
 5835SOL     OW18403   5.994   1.800   2.743
 5835SOL    HW118404   6.044   1.837   2.665
 5835SOL    HW218405   5.936   1.871   2.783
 5836SOL     OW18406   3.082   6.664   2.252
 5836SOL    HW118407   3.032   6.749   2.266
 5836SOL    HW218408   3.165   6.682   2.199
 5837SOL     OW18409   3.550   3.493   6.945
 5837SOL    HW118410   3.598   3.558   6.887
 5837SOL    HW218411   3.533   3.535   0.015
 5838SOL     OW18412   3.289   1.905   1.532
 5838SOL    HW118413   3.335   1.930   1.617
 5838SOL    HW218414   3.254   1.987   1.487
 5839SOL     OW18415   0.774   2.058   0.545
 5839SOL    HW118416   0.687   2.066   0.593
 5839SOL    HW218417   0.757   2.038   0.449
 5840SOL     OW18418   0.443   3.972   0.921
 5840SOL    HW118419   0.406   4.065   0.921
 5840SOL    HW218420   0.516   3.965   0.989
 5841SOL     OW18421   5.338   0.698   1.702
 5841SOL    HW118422   5.263   0.708   1.767
 5841SOL    HW218423   5.301   0.694   1.609
 5842SOL     OW18424   4.895   2.233   1.981
 5842SOL    HW118425   4.916   2.235   1.884
 5842SOL    HW218426   4.851   2.319   2.007
 5843SOL     OW18427   1.277   4.127   1.651
 5843SOL    HW118428   1.293   4.225   1.634
 5843SOL    HW218429   1.221   4.089   1.578
 5844SOL     OW18430   1.275   5.836   5.295
 5844SOL    HW118431   1.342   5.810   5.366
 5844SOL    HW218432   1.324   5.877   5.218
 5845SOL     OW18433   1.028   0.198   1.977
 5845SOL    HW118434   0.973   0.281   1.988
 5845SOL    HW218435   1.101   0.197   2.045
 5846SOL     OW18436   5.534   3.394   5.719
 5846SOL    HW118437   5.444   3.437   5.708
 5846SOL    HW218438   5.528   3.298   5.689
 5847SOL     OW18439   2.670   2.467   1.771
 5847SOL    HW118440   2.675   2.510   1.681
 5847SOL    HW218441   2.759   2.472   1.815
 5848SOL     OW18442   1.528   5.672   3.370
 5848SOL    HW118443   1.617   5.634   3.344
 5848SOL    HW218444   1.498   5.737   3.301
 5849SOL     OW18445   2.109   6.853   4.914
 5849SOL    HW118446   2.182   6.822   4.974
 5849SOL    HW218447   2.144   6.923   4.852
 5850SOL     OW18448   0.075   3.441   1.835
 5850SOL    HW118449   0.039   3.500   1.762
 5850SOL    HW218450   0.026   3.460   1.920
 5851SOL     OW18451   5.397   3.830   4.259
 5851SOL    HW118452   5.343   3.748   4.241
 5851SOL    HW218453   5.355   3.908   4.212
 5852SOL     OW18454   4.798   5.901   2.689
 5852SOL    HW118455   4.787   6.000   2.696
 5852SOL    HW218456   4.737   5.856   2.754
 5853SOL     OW18457   4.354   4.970   5.946
 5853SOL    HW118458   4.359   4.989   5.848
 5853SOL    HW218459   4.446   4.957   5.983
 5854SOL     OW18460   4.410   4.607   5.709
 5854SOL    HW118461   4.366   4.518   5.696
 5854SOL    HW218462   4.497   4.595   5.757
 5855SOL     OW18463   1.427   1.566   4.680
 5855SOL    HW118464   1.400   1.610   4.594
 5855SOL    HW218465   1.355   1.503   4.708
 5856SOL     OW18466   1.237   6.517   3.143
 5856SOL    HW118467   1.337   6.511   3.143
 5856SOL    HW218468   1.200   6.473   3.225
 5857SOL     OW18469   6.425   3.655   5.363
 5857SOL    HW118470   6.432   3.573   5.305
 5857SOL    HW218471   6.388   3.629   5.453
 5858SOL     OW18472   2.353   2.334   3.216
 5858SOL    HW118473   2.424   2.318   3.148
 5858SOL    HW218474   2.270   2.284   3.190
 5859SOL     OW18475   6.494   6.385   1.198
 5859SOL    HW118476   6.515   6.294   1.160
 5859SOL    HW218477   6.447   6.439   1.129
 5860SOL     OW18478   0.471   4.956   2.992
 5860SOL    HW118479   0.519   4.898   2.926
 5860SOL    HW218480   0.480   5.052   2.964
 5861SOL     OW18481   5.328   0.875   4.392
 5861SOL    HW118482   5.424   0.899   4.397
 5861SOL    HW218483   5.283   0.930   4.321
 5862SOL     OW18484   6.056   5.315   1.931
 5862SOL    HW118485   6.138   5.279   1.976
 5862SOL    HW218486   5.997   5.240   1.904
 5863SOL     OW18487   2.943   2.039   4.785
 5863SOL    HW118488   3.027   2.031   4.731
 5863SOL    HW218489   2.963   2.021   4.881
 5864SOL     OW18490   3.362   3.402   2.163
 5864SOL    HW118491   3.443   3.369   2.211
 5864SOL    HW218492   3.328   3.485   2.208
 5865SOL     OW18493   5.704   0.832   5.135
 5865SOL    HW118494   5.680   0.908   5.075
 5865SOL    HW218495   5.672   0.852   5.228
 5866SOL     OW18496   3.129   2.770   1.173
 5866SOL    HW118497   3.188   2.692   1.195
 5866SOL    HW218498   3.046   2.737   1.127
 5867SOL     OW18499   1.889   3.198   1.048
 5867SOL    HW118500   1.987   3.181   1.057
 5867SOL    HW218501   1.839   3.149   1.120
 5868SOL     OW18502   1.355   1.357   6.286
 5868SOL    HW118503   1.368   1.429   6.219
 5868SOL    HW218504   1.403   1.381   6.371
 5869SOL     OW18505   1.856   4.482   2.912
 5869SOL    HW118506   1.811   4.393   2.902
 5869SOL    HW218507   1.956   4.469   2.912
 5870SOL     OW18508   4.662   6.482   5.040
 5870SOL    HW118509   4.702   6.400   4.999
 5870SOL    HW218510   4.713   6.562   5.009
 5871SOL     OW18511   3.951   3.197   1.835
 5871SOL    HW118512   3.951   3.127   1.764
 5871SOL    HW218513   4.046   3.223   1.856
 5872SOL     OW18514   4.319   6.892   1.208
 5872SOL    HW118515   4.239   6.888   1.268
 5872SOL    HW218516   4.360   6.983   1.216
 5873SOL     OW18517   3.335   6.251   2.289
 5873SOL    HW118518   3.403   6.306   2.338
 5873SOL    HW218519   3.349   6.154   2.312
 5874SOL     OW18520   2.283   4.309   4.730
 5874SOL    HW118521   2.297   4.344   4.637
 5874SOL    HW218522   2.299   4.383   4.796
 5875SOL     OW18523   3.827   1.761   0.393
 5875SOL    HW118524   3.903   1.813   0.433
 5875SOL    HW218525   3.754   1.751   0.460
 5876SOL     OW18526   4.077   3.323   1.558
 5876SOL    HW118527   4.147   3.286   1.620
 5876SOL    HW218528   4.108   3.412   1.523
 5877SOL     OW18529   6.353   6.536   1.002
 5877SOL    HW118530   6.343   6.635   0.996
 5877SOL    HW218531   6.414   6.505   0.929
 5878SOL     OW18532   0.071   5.815   4.359
 5878SOL    HW118533   0.019   5.748   4.305
 5878SOL    HW218534   0.036   5.907   4.341
 5879SOL     OW18535   1.302   4.233   0.013
 5879SOL    HW118536   1.382   4.287   7.006
 5879SOL    HW218537   1.332   4.157   0.071
 5880SOL     OW18538   4.275   3.881   0.311
 5880SOL    HW118539   4.307   3.823   0.236
 5880SOL    HW218540   4.227   3.961   0.272
 5881SOL     OW18541   0.376   5.556   3.208
 5881SOL    HW118542   0.299   5.505   3.170
 5881SOL    HW218543   0.365   5.653   3.187
 5882SOL     OW18544   0.015   6.377   0.973
 5882SOL    HW118545   0.023   6.454   0.909
 5882SOL    HW218546   0.032   6.291   0.924
 5883SOL     OW18547   0.797   1.659   6.777
 5883SOL    HW118548   0.798   1.565   6.744
 5883SOL    HW218549   0.876   1.675   6.836
 5884SOL     OW18550   2.908   1.617   4.465
 5884SOL    HW118551   3.001   1.611   4.429
 5884SOL    HW218552   2.888   1.711   4.491
 5885SOL     OW18553   0.509   0.215   2.454
 5885SOL    HW118554   0.452   0.133   2.455
 5885SOL    HW218555   0.515   0.252   2.547
 5886SOL     OW18556   0.437   2.530   4.805
 5886SOL    HW118557   0.420   2.606   4.742
 5886SOL    HW218558   0.356   2.471   4.807
 5887SOL     OW18559   2.838   1.304   3.421
 5887SOL    HW118560   2.799   1.215   3.444
 5887SOL    HW218561   2.922   1.319   3.474
 5888SOL     OW18562   3.430   0.814   1.941
 5888SOL    HW118563   3.427   0.913   1.946
 5888SOL    HW218564   3.524   0.783   1.932
 5889SOL     OW18565   1.157   6.570   1.258
 5889SOL    HW118566   1.112   6.622   1.330
 5889SOL    HW218567   1.243   6.615   1.234
 5890SOL     OW18568   1.670   0.267   4.428
 5890SOL    HW118569   1.570   0.269   4.427
 5890SOL    HW218570   1.705   0.289   4.337
 5891SOL     OW18571   3.187   3.278   5.788
 5891SOL    HW118572   3.137   3.207   5.740
 5891SOL    HW218573   3.214   3.245   5.879
 5892SOL     OW18574   0.400   5.386   1.152
 5892SOL    HW118575   0.436   5.461   1.096
 5892SOL    HW218576   0.476   5.332   1.187
 5893SOL     OW18577   1.673   4.216   4.538
 5893SOL    HW118578   1.748   4.278   4.518
 5893SOL    HW218579   1.591   4.268   4.561
 5894SOL     OW18580   6.495   5.523   4.471
 5894SOL    HW118581   6.498   5.622   4.484
 5894SOL    HW218582   6.439   5.502   4.391
 5895SOL     OW18583   5.213   3.292   4.302
 5895SOL    HW118584   5.220   3.325   4.396
 5895SOL    HW218585   5.290   3.328   4.249
 5896SOL     OW18586   4.361   1.040   0.162
 5896SOL    HW118587   4.323   0.971   0.102
 5896SOL    HW218588   4.289   1.079   0.219
 5897SOL     OW18589   4.011   0.774   1.421
 5897SOL    HW118590   4.056   0.803   1.505
 5897SOL    HW218591   3.925   0.729   1.443
 5898SOL     OW18592   2.553   6.625   3.003
 5898SOL    HW118593   2.653   6.619   3.004
 5898SOL    HW218594   2.514   6.533   3.008
 5899SOL     OW18595   5.060   6.731   5.886
 5899SOL    HW118596   5.118   6.793   5.939
 5899SOL    HW218597   4.996   6.685   5.947
 5900SOL     OW18598   4.966   5.254   3.546
 5900SOL    HW118599   4.871   5.248   3.574
 5900SOL    HW218600   4.971   5.291   3.453
 5901SOL     OW18601   2.461   0.530   0.216
 5901SOL    HW118602   2.468   0.485   0.127
 5901SOL    HW218603   2.552   0.543   0.255
 5902SOL     OW18604   6.831   2.542   6.126
 5902SOL    HW118605   6.814   2.621   6.067
 5902SOL    HW218606   6.861   2.464   6.070
 5903SOL     OW18607   4.042   3.766   0.409
 5903SOL    HW118608   3.987   3.821   0.472
 5903SOL    HW218609   4.126   3.815   0.386
 5904SOL     OW18610   1.020   3.642   2.064
 5904SOL    HW118611   0.996   3.609   1.972
 5904SOL    HW218612   0.936   3.662   2.115
 5905SOL     OW18613   6.208   6.256   3.060
 5905SOL    HW118614   6.112   6.247   3.086
 5905SOL    HW218615   6.239   6.349   3.080
 5906SOL     OW18616   4.371   2.050   3.593
 5906SOL    HW118617   4.441   2.071   3.662
 5906SOL    HW218618   4.413   2.047   3.503
 5907SOL     OW18619   1.287   4.892   1.265
 5907SOL    HW118620   1.199   4.940   1.265
 5907SOL    HW218621   1.361   4.959   1.254
 5908SOL     OW18622   0.305   2.654   6.705
 5908SOL    HW118623   0.379   2.598   6.669
 5908SOL    HW218624   0.222   2.598   6.713
 5909SOL     OW18625   6.803   5.239   0.875
 5909SOL    HW118626   6.894   5.276   0.856
 5909SOL    HW218627   6.787   5.159   0.817
 5910SOL     OW18628   0.419   3.165   3.940
 5910SOL    HW118629   0.414   3.132   3.845
 5910SOL    HW218630   0.331   3.151   3.985
 5911SOL     OW18631   6.275   6.631   6.417
 5911SOL    HW118632   6.266   6.720   6.371
 5911SOL    HW218633   6.273   6.644   6.516
 5912SOL     OW18634   0.189   0.520   5.844
 5912SOL    HW118635   0.235   0.432   5.834
 5912SOL    HW218636   0.153   0.549   5.756
 5913SOL     OW18637   4.555   2.750   6.404
 5913SOL    HW118638   4.640   2.702   6.427
 5913SOL    HW218639   4.559   2.843   6.442
 5914SOL     OW18640   1.566   5.568   0.003
 5914SOL    HW118641   1.630   5.630   0.049
 5914SOL    HW218642   1.491   5.621   6.983
 5915SOL     OW18643   4.480   5.851   1.090
 5915SOL    HW118644   4.542   5.834   1.013
 5915SOL    HW218645   4.533   5.884   1.169
 5916SOL     OW18646   6.263   6.247   3.719
 5916SOL    HW118647   6.349   6.273   3.675
 5916SOL    HW218648   6.218   6.177   3.663
 5917SOL     OW18649   3.317   4.159   4.118
 5917SOL    HW118650   3.327   4.259   4.121
 5917SOL    HW218651   3.307   4.123   4.211
 5918SOL     OW18652   2.567   4.413   5.330
 5918SOL    HW118653   2.604   4.383   5.242
 5918SOL    HW218654   2.536   4.334   5.382
 5919SOL     OW18655   3.832   2.961   3.247
 5919SOL    HW118656   3.901   3.003   3.188
 5919SOL    HW218657   3.762   2.917   3.191
 5920SOL     OW18658   4.928   0.674   6.340
 5920SOL    HW118659   4.961   0.684   6.247
 5920SOL    HW218660   4.993   0.715   6.404
 5921SOL     OW18661   4.112   5.173   6.643
 5921SOL    HW118662   4.129   5.235   6.566
 5921SOL    HW218663   4.032   5.205   6.694
 5922SOL     OW18664   5.806   3.478   3.946
 5922SOL    HW118665   5.841   3.478   4.040
 5922SOL    HW218666   5.709   3.499   3.947
 5923SOL     OW18667   0.166   1.780   1.610
 5923SOL    HW118668   0.074   1.812   1.586
 5923SOL    HW218669   0.173   1.771   1.709
 5924SOL     OW18670   6.811   7.013   2.813
 5924SOL    HW118671   6.725   0.020   2.857
 5924SOL    HW218672   6.840   0.066   2.751
 5925SOL     OW18673   3.826   6.761   1.803
 5925SOL    HW118674   3.758   6.827   1.836
 5925SOL    HW218675   3.862   6.708   1.880
 5926SOL     OW18676   3.836   5.133   2.607
 5926SOL    HW118677   3.833   5.036   2.634
 5926SOL    HW218678   3.758   5.153   2.548
 5927SOL     OW18679   1.040   4.953   2.291
 5927SOL    HW118680   1.040   5.009   2.373
 5927SOL    HW218681   0.958   4.973   2.237
 5928SOL     OW18682   3.116   6.550   1.135
 5928SOL    HW118683   3.174   6.473   1.162
 5928SOL    HW218684   3.029   6.516   1.101
 5929SOL     OW18685   6.173   0.655   6.021
 5929SOL    HW118686   6.239   0.581   6.035
 5929SOL    HW218687   6.130   0.677   6.109
 5930SOL     OW18688   6.908   3.851   3.248
 5930SOL    HW118689   6.962   3.879   3.168
 5930SOL    HW218690   6.958   3.780   3.298
 5931SOL     OW18691   6.282   6.623   3.074
 5931SOL    HW118692   6.202   6.682   3.072
 5931SOL    HW218693   6.354   6.661   3.016
 5932SOL     OW18694   3.213   6.959   0.935
 5932SOL    HW118695   3.241   6.890   1.002
 5932SOL    HW218696   3.291   7.019   0.915
 5933SOL     OW18697   6.557   4.977   4.077
 5933SOL    HW118698   6.512   4.894   4.045
 5933SOL    HW218699   6.493   5.031   4.131
 5934SOL     OW18700   3.376   2.863   4.988
 5934SOL    HW118701   3.325   2.824   5.065
 5934SOL    HW218702   3.463   2.899   5.020
 5935SOL     OW18703   6.867   5.349   6.161
 5935SOL    HW118704   6.845   5.296   6.242
 5935SOL    HW218705   6.873   5.446   6.184
 5936SOL     OW18706   3.302   2.597   1.321
 5936SOL    HW118707   3.250   2.627   1.401
 5936SOL    HW218708   3.359   2.519   1.347
 5937SOL     OW18709   6.264   3.292   1.844
 5937SOL    HW118710   6.308   3.226   1.905
 5937SOL    HW218711   6.212   3.358   1.898
 5938SOL     OW18712   6.451   5.859   3.560
 5938SOL    HW118713   6.461   5.881   3.657
 5938SOL    HW218714   6.430   5.943   3.510
 5939SOL     OW18715   2.087   5.771   3.171
 5939SOL    HW118716   2.103   5.804   3.265
 5939SOL    HW218717   2.108   5.845   3.107
 5940SOL     OW18718   4.882   5.229   2.429
 5940SOL    HW118719   4.812   5.296   2.456
 5940SOL    HW218720   4.837   5.149   2.390
 5941SOL     OW18721   5.943   3.597   2.138
 5941SOL    HW118722   5.863   3.547   2.171
 5941SOL    HW218723   5.927   3.695   2.150
 5942SOL     OW18724   5.025   3.398   6.797
 5942SOL    HW118725   4.943   3.454   6.790
 5942SOL    HW218726   5.096   3.449   6.845
 5943SOL     OW18727   3.368   3.971   6.124
 5943SOL    HW118728   3.429   3.895   6.147
 5943SOL    HW218729   3.274   3.938   6.120
 5944SOL     OW18730   0.071   2.308   6.973
 5944SOL    HW118731   0.170   2.299   6.983
 5944SOL    HW218732   0.026   2.226   7.009
 5945SOL     OW18733   6.523   4.822   5.102
 5945SOL    HW118734   6.490   4.808   5.009
 5945SOL    HW218735   6.451   4.797   5.167
 5946SOL     OW18736   3.255   3.542   6.196
 5946SOL    HW118737   3.220   3.613   6.133
 5946SOL    HW218738   3.197   3.539   6.277
 5947SOL     OW18739   3.814   3.481   3.114
 5947SOL    HW118740   3.806   3.410   3.185
 5947SOL    HW218741   3.847   3.440   3.029
 5948SOL     OW18742   4.229   4.767   2.708
 5948SOL    HW118743   4.294   4.695   2.734
 5948SOL    HW218744   4.176   4.738   2.628
 5949SOL     OW18745   5.178   4.392   1.672
 5949SOL    HW118746   5.257   4.418   1.728
 5949SOL    HW218747   5.104   4.360   1.731
 5950SOL     OW18748   5.042   1.649   5.236
 5950SOL    HW118749   5.019   1.676   5.142
 5950SOL    HW218750   5.052   1.549   5.240
 5951SOL     OW18751   1.597   5.123   4.328
 5951SOL    HW118752   1.575   5.151   4.235
 5951SOL    HW218753   1.545   5.041   4.352
 5952SOL     OW18754   5.396   5.771   3.552
 5952SOL    HW118755   5.465   5.842   3.563
 5952SOL    HW218756   5.342   5.763   3.636
 5953SOL     OW18757   6.680   3.807   5.321
 5953SOL    HW118758   6.616   3.732   5.303
 5953SOL    HW218759   6.715   3.800   5.415
 5954SOL     OW18760   6.203   5.883   5.748
 5954SOL    HW118761   6.255   5.800   5.732
 5954SOL    HW218762   6.135   5.895   5.676
 5955SOL     OW18763   4.461   5.400   1.863
 5955SOL    HW118764   4.419   5.310   1.867
 5955SOL    HW218765   4.435   5.453   1.943
 5956SOL     OW18766   4.720   2.378   4.177
 5956SOL    HW118767   4.642   2.320   4.202
 5956SOL    HW218768   4.796   2.359   4.239
 5957SOL     OW18769   3.124   1.229   4.560
 5957SOL    HW118770   3.037   1.260   4.596
 5957SOL    HW218771   3.118   1.132   4.535
 5958SOL     OW18772   4.462   0.316   2.797
 5958SOL    HW118773   4.405   0.284   2.722
 5958SOL    HW218774   4.410   0.381   2.853
 5959SOL     OW18775   4.360   2.902   5.503
 5959SOL    HW118776   4.269   2.922   5.540
 5959SOL    HW218777   4.412   2.987   5.498
 5960SOL     OW18778   4.033   5.363   4.970
 5960SOL    HW118779   3.973   5.373   5.049
 5960SOL    HW218780   4.095   5.441   4.964
 5961SOL     OW18781   4.426   2.376   2.815
 5961SOL    HW118782   4.496   2.323   2.766
 5961SOL    HW218783   4.338   2.365   2.768
 5962SOL     OW18784   6.407   6.322   6.612
 5962SOL    HW118785   6.467   6.259   6.661
 5962SOL    HW218786   6.396   6.406   6.664
 5963SOL     OW18787   3.042   3.587   6.371
 5963SOL    HW118788   3.059   3.685   6.384
 5963SOL    HW218789   3.051   3.540   6.459
 5964SOL     OW18790   1.381   6.571   4.921
 5964SOL    HW118791   1.452   6.582   4.852
 5964SOL    HW218792   1.302   6.628   4.897
 5965SOL     OW18793   1.748   1.894   7.003
 5965SOL    HW118794   1.717   1.817   0.038
 5965SOL    HW218795   1.845   1.911   0.001
 5966SOL     OW18796   2.707   5.861   6.044
 5966SOL    HW118797   2.794   5.903   6.068
 5966SOL    HW218798   2.686   5.787   6.107
 5967SOL     OW18799   2.777   6.987   6.067
 5967SOL    HW118800   2.749   0.039   6.130
 5967SOL    HW218801   2.699   6.929   6.046
 5968SOL     OW18802   5.241   2.303   0.309
 5968SOL    HW118803   5.256   2.258   0.397
 5968SOL    HW218804   5.246   2.234   0.236
 5969SOL     OW18805   6.252   0.411   6.750
 5969SOL    HW118806   6.291   0.426   6.840
 5969SOL    HW218807   6.192   0.488   6.726
 5970SOL     OW18808   0.169   4.359   2.494
 5970SOL    HW118809   0.246   4.303   2.523
 5970SOL    HW218810   0.174   4.375   2.395
 5971SOL     OW18811   0.169   1.212   1.955
 5971SOL    HW118812   0.186   1.177   2.048
 5971SOL    HW218813   0.074   1.195   1.931
 5972SOL     OW18814   5.044   5.773   6.596
 5972SOL    HW118815   5.008   5.783   6.689
 5972SOL    HW218816   5.124   5.713   6.598
 5973SOL     OW18817   1.725   3.079   1.903
 5973SOL    HW118818   1.820   3.080   1.871
 5973SOL    HW218819   1.685   2.989   1.888
 5974SOL     OW18820   5.645   5.913   0.057
 5974SOL    HW118821   5.708   5.986   0.030
 5974SOL    HW218822   5.551   5.945   0.046
 5975SOL     OW18823   3.924   6.724   0.783
 5975SOL    HW118824   3.920   6.655   0.711
 5975SOL    HW218825   3.831   6.744   0.815
 5976SOL     OW18826   3.983   2.625   6.068
 5976SOL    HW118827   3.950   2.602   6.159
 5976SOL    HW218828   3.967   2.723   6.050
 5977SOL     OW18829   0.976   6.465   0.872
 5977SOL    HW118830   1.052   6.423   0.823
 5977SOL    HW218831   0.890   6.423   0.842
 5978SOL     OW18832   3.802   5.354   1.500
 5978SOL    HW118833   3.735   5.420   1.467
 5978SOL    HW218834   3.887   5.364   1.449
 5979SOL     OW18835   6.594   0.733   3.031
 5979SOL    HW118836   6.592   0.816   2.975
 5979SOL    HW218837   6.507   0.724   3.079
 5980SOL     OW18838   3.991   3.944   1.775
 5980SOL    HW118839   4.008   4.014   1.705
 5980SOL    HW218840   3.893   3.940   1.794
 5981SOL     OW18841   5.224   1.891   0.767
 5981SOL    HW118842   5.268   1.802   0.759
 5981SOL    HW218843   5.190   1.920   0.677
 5982SOL     OW18844   6.528   2.210   1.813
 5982SOL    HW118845   6.474   2.129   1.836
 5982SOL    HW218846   6.576   2.242   1.895
 5983SOL     OW18847   0.953   1.059   4.256
 5983SOL    HW118848   0.910   1.080   4.168
 5983SOL    HW218849   0.963   0.960   4.266
 5984SOL     OW18850   5.405   6.277   3.453
 5984SOL    HW118851   5.446   6.207   3.512
 5984SOL    HW218852   5.450   6.275   3.363
 5985SOL     OW18853   6.572   3.010   3.688
 5985SOL    HW118854   6.626   3.026   3.605
 5985SOL    HW218855   6.567   2.912   3.706
 5986SOL     OW18856   3.262   4.133   4.406
 5986SOL    HW118857   3.174   4.086   4.417
 5986SOL    HW218858   3.320   4.112   4.485
 5987SOL     OW18859   5.921   0.533   4.247
 5987SOL    HW118860   5.969   0.496   4.167
 5987SOL    HW218861   5.854   0.600   4.217
 5988SOL     OW18862   4.282   0.848   5.492
 5988SOL    HW118863   4.271   0.822   5.396
 5988SOL    HW218864   4.262   0.945   5.503
 5989SOL     OW18865   1.936   5.653   6.260
 5989SOL    HW118866   1.977   5.668   6.171
 5989SOL    HW218867   1.837   5.669   6.255
 5990SOL     OW18868   3.037   3.223   0.975
 5990SOL    HW118869   3.041   3.211   0.876
 5990SOL    HW218870   3.088   3.150   1.020
 5991SOL     OW18871   4.267   5.384   6.820
 5991SOL    HW118872   4.209   5.309   6.789
 5991SOL    HW218873   4.238   5.413   6.911
 5992SOL     OW18874   3.748   0.175   2.259
 5992SOL    HW118875   3.664   0.223   2.282
 5992SOL    HW218876   3.781   0.207   2.170
 5993SOL     OW18877   3.816   4.193   6.264
 5993SOL    HW118878   3.748   4.134   6.308
 5993SOL    HW218879   3.908   4.163   6.289
 5994SOL     OW18880   6.726   2.228   0.260
 5994SOL    HW118881   6.640   2.194   0.298
 5994SOL    HW218882   6.780   2.270   0.333
 5995SOL     OW18883   4.922   3.366   2.416
 5995SOL    HW118884   5.021   3.357   2.406
 5995SOL    HW218885   4.896   3.461   2.402
 5996SOL     OW18886   0.296   6.674   0.814
 5996SOL    HW118887   0.300   6.576   0.794
 5996SOL    HW218888   0.335   6.726   0.738
 5997SOL     OW18889   0.369   5.095   2.697
 5997SOL    HW118890   0.276   5.058   2.699
 5997SOL    HW218891   0.396   5.121   2.789
 5998SOL     OW18892   6.284   1.753   2.173
 5998SOL    HW118893   6.329   1.664   2.183
 5998SOL    HW218894   6.329   1.804   2.100
 5999SOL     OW18895   2.871   2.909   1.618
 5999SOL    HW118896   2.896   2.826   1.669
 5999SOL    HW218897   2.862   2.887   1.521
 6000SOL     OW18898   2.416   6.582   0.001
 6000SOL    HW118899   2.412   6.594   6.922
 6000SOL    HW218900   2.499   6.532   0.026
 6001SOL     OW18901   6.809   4.877   6.863
 6001SOL    HW118902   6.765   4.963   6.837
 6001SOL    HW218903   6.908   4.889   6.863
 6002SOL     OW18904   5.854   0.113   0.121
 6002SOL    HW118905   5.916   0.128   0.044
 6002SOL    HW218906   5.824   0.201   0.157
 6003SOL     OW18907   5.491   1.836   5.068
 6003SOL    HW118908   5.403   1.882   5.074
 6003SOL    HW218909   5.484   1.758   5.006
 6004SOL     OW18910   0.219   3.894   2.721
 6004SOL    HW118911   0.196   3.955   2.797
 6004SOL    HW218912   0.161   3.916   2.642
 6005SOL     OW18913   5.183   5.676   4.989
 6005SOL    HW118914   5.122   5.665   5.067
 6005SOL    HW218915   5.168   5.601   4.924
 6006SOL     OW18916   2.230   0.377   5.892
 6006SOL    HW118917   2.245   0.330   5.978
 6006SOL    HW218918   2.141   0.350   5.854
 6007SOL     OW18919   5.547   3.837   5.585
 6007SOL    HW118920   5.554   3.768   5.513
 6007SOL    HW218921   5.638   3.871   5.608
 6008SOL     OW18922   2.742   4.813   5.534
 6008SOL    HW118923   2.657   4.855   5.565
 6008SOL    HW218924   2.727   4.765   5.448
 6009SOL     OW18925   2.608   0.729   3.545
 6009SOL    HW118926   2.644   0.723   3.638
 6009SOL    HW218927   2.682   0.750   3.482
 6010SOL     OW18928   0.978   5.321   3.864
 6010SOL    HW118929   1.057   5.372   3.831
 6010SOL    HW218930   0.895   5.354   3.819
 6011SOL     OW18931   6.117   3.017   3.474
 6011SOL    HW118932   6.172   2.945   3.517
 6011SOL    HW218933   6.023   3.012   3.506
 6012SOL     OW18934   5.852   0.895   0.877
 6012SOL    HW118935   5.767   0.898   0.825
 6012SOL    HW218936   5.894   0.805   0.866
 6013SOL     OW18937   5.347   1.185   2.912
 6013SOL    HW118938   5.365   1.240   2.830
 6013SOL    HW218939   5.328   1.091   2.885
 6014SOL     OW18940   3.671   3.885   2.992
 6014SOL    HW118941   3.608   3.957   3.022
 6014SOL    HW218942   3.644   3.798   3.032
 6015SOL     OW18943   5.507   4.131   4.275
 6015SOL    HW118944   5.474   4.107   4.366
 6015SOL    HW218945   5.597   4.175   4.283
 6016SOL     OW18946   6.577   2.333   5.899
 6016SOL    HW118947   6.620   2.341   5.809
 6016SOL    HW218948   6.494   2.278   5.892
 6017SOL     OW18949   6.063   4.728   3.440
 6017SOL    HW118950   6.156   4.693   3.452
 6017SOL    HW218951   6.020   4.736   3.530
 6018SOL     OW18952   3.894   0.710   6.288
 6018SOL    HW118953   3.800   0.692   6.260
 6018SOL    HW218954   3.940   0.765   6.219
 6019SOL     OW18955   0.865   3.060   4.629
 6019SOL    HW118956   0.796   3.114   4.677
 6019SOL    HW218957   0.926   3.121   4.578
 6020SOL     OW18958   0.714   5.117   0.669
 6020SOL    HW118959   0.645   5.161   0.612
 6020SOL    HW218960   0.683   5.115   0.764
 6021SOL     OW18961   4.630   0.791   3.133
 6021SOL    HW118962   4.714   0.834   3.166
 6021SOL    HW218963   4.653   0.712   3.077
 6022SOL     OW18964   6.540   1.694   3.292
 6022SOL    HW118965   6.546   1.774   3.233
 6022SOL    HW218966   6.468   1.633   3.259
 6023SOL     OW18967   5.840   0.997   1.726
 6023SOL    HW118968   5.819   0.938   1.804
 6023SOL    HW218969   5.907   1.066   1.754
 6024SOL     OW18970   1.518   4.557   2.250
 6024SOL    HW118971   1.465   4.636   2.221
 6024SOL    HW218972   1.490   4.530   2.343
 6025SOL     OW18973   3.188   1.758   3.401
 6025SOL    HW118974   3.120   1.686   3.388
 6025SOL    HW218975   3.270   1.736   3.349
 6026SOL     OW18976   0.270   4.814   5.582
 6026SOL    HW118977   0.182   4.811   5.535
 6026SOL    HW218978   0.308   4.906   5.574
 6027SOL     OW18979   0.160   3.462   5.515
 6027SOL    HW118980   0.254   3.427   5.521
 6027SOL    HW218981   0.162   3.562   5.513
 6028SOL     OW18982   6.089   4.671   0.672
 6028SOL    HW118983   6.073   4.768   0.653
 6028SOL    HW218984   6.073   4.618   0.588
 6029SOL     OW18985   2.414   6.856   4.455
 6029SOL    HW118986   2.362   6.820   4.378
 6029SOL    HW218987   2.398   6.799   4.536
 6030SOL     OW18988   4.255   5.043   2.559
 6030SOL    HW118989   4.218   4.966   2.612
 6030SOL    HW218990   4.321   5.092   2.615
 6031SOL     OW18991   3.241   5.481   4.329
 6031SOL    HW118992   3.242   5.515   4.423
 6031SOL    HW218993   3.334   5.453   4.304
 6032SOL     OW18994   2.133   4.454   2.131
 6032SOL    HW118995   2.103   4.523   2.196
 6032SOL    HW218996   2.073   4.374   2.137
 6033SOL     OW18997   2.432   2.475   3.482
 6033SOL    HW118998   2.474   2.400   3.533
 6033SOL    HW218999   2.404   2.442   3.392
 6034SOL     OW19000   1.246   0.172   5.231
 6034SOL    HW119001   1.170   0.208   5.178
 6034SOL    HW219002   1.331   0.217   5.204
 6035SOL     OW19003   1.188   1.367   2.022
 6035SOL    HW119004   1.193   1.277   1.977
 6035SOL    HW219005   1.186   1.439   1.952
 6036SOL     OW19006   4.947   5.080   3.082
 6036SOL    HW119007   4.907   5.037   3.001
 6036SOL    HW219008   5.046   5.086   3.070
 6037SOL     OW19009   3.958   7.002   0.614
 6037SOL    HW119010   3.950   6.933   0.686
 6037SOL    HW219011   4.050   7.000   0.576
 6038SOL     OW19012   1.363   3.148   6.151
 6038SOL    HW119013   1.425   3.192   6.086
 6038SOL    HW219014   1.401   3.060   6.179
 6039SOL     OW19015   3.952   3.054   2.554
 6039SOL    HW119016   3.860   3.037   2.518
 6039SOL    HW219017   4.011   3.087   2.480
 6040SOL     OW19018   1.706   2.336   1.171
 6040SOL    HW119019   1.802   2.321   1.147
 6040SOL    HW219020   1.677   2.266   1.235
 6041SOL     OW19021   3.032   0.971   5.162
 6041SOL    HW119022   3.106   0.941   5.222
 6041SOL    HW219023   2.950   0.916   5.181
 6042SOL     OW19024   4.180   6.790   2.421
 6042SOL    HW119025   4.196   6.730   2.500
 6042SOL    HW219026   4.151   6.735   2.343
 6043SOL     OW19027   1.068   6.062   5.273
 6043SOL    HW119028   1.084   6.134   5.205
 6043SOL    HW219029   1.144   5.998   5.273
 6044SOL     OW19030   1.415   2.800   1.441
 6044SOL    HW119031   1.381   2.707   1.428
 6044SOL    HW219032   1.505   2.797   1.486
 6045SOL     OW19033   6.311   3.840   2.405
 6045SOL    HW119034   6.244   3.815   2.475
 6045SOL    HW219035   6.342   3.934   2.420
 6046SOL     OW19036   3.612   2.482   0.931
 6046SOL    HW119037   3.620   2.537   0.847
 6046SOL    HW219038   3.536   2.418   0.921
 6047SOL     OW19039   5.302   1.780   1.900
 6047SOL    HW119040   5.358   1.848   1.852
 6047SOL    HW219041   5.324   1.689   1.865
 6048SOL     OW19042   4.624   5.185   5.432
 6048SOL    HW119043   4.648   5.134   5.515
 6048SOL    HW219044   4.657   5.279   5.440
 6049SOL     OW19045   4.749   3.445   6.863
 6049SOL    HW119046   4.653   3.466   6.882
 6049SOL    HW219047   4.767   3.349   6.886
 6050SOL     OW19048   3.217   4.593   5.906
 6050SOL    HW119049   3.291   4.660   5.912
 6050SOL    HW219050   3.130   4.641   5.895
 6051SOL     OW19051   1.576   0.293   3.592
 6051SOL    HW119052   1.653   0.312   3.532
 6051SOL    HW219053   1.500   0.256   3.538
 6052SOL     OW19054   5.486   1.328   1.190
 6052SOL    HW119055   5.404   1.274   1.170
 6052SOL    HW219056   5.562   1.266   1.210
 6053SOL     OW19057   4.271   1.148   6.318
 6053SOL    HW119058   4.203   1.219   6.302
 6053SOL    HW219059   4.344   1.154   6.250
 6054SOL     OW19060   2.610   2.705   6.770
 6054SOL    HW119061   2.603   2.606   6.776
 6054SOL    HW219062   2.552   2.747   6.840
 6055SOL     OW19063   5.433   0.073   5.460
 6055SOL    HW119064   5.462   0.141   5.528
 6055SOL    HW219065   5.491   0.081   5.379
 6056SOL     OW19066   4.921   3.364   4.944
 6056SOL    HW119067   4.928   3.327   5.036
 6056SOL    HW219068   4.863   3.445   4.945
 6057SOL     OW19069   0.182   1.305   2.583
 6057SOL    HW119070   0.217   1.372   2.648
 6057SOL    HW219071   0.119   1.242   2.630
 6058SOL     OW19072   4.802   3.909   1.790
 6058SOL    HW119073   4.872   3.916   1.719
 6058SOL    HW219074   4.713   3.937   1.753
 6059SOL     OW19075   5.067   5.631   6.265
 6059SOL    HW119076   4.980   5.596   6.232
 6059SOL    HW219077   5.103   5.698   6.200
 6060SOL     OW19078   3.010   3.352   6.132
 6060SOL    HW119079   3.084   3.368   6.198
 6060SOL    HW219080   3.029   3.402   6.048
 6061SOL     OW19081   4.835   3.315   1.049
 6061SOL    HW119082   4.777   3.387   1.085
 6061SOL    HW219083   4.882   3.269   1.124
 6062SOL     OW19084   2.608   1.413   5.731
 6062SOL    HW119085   2.691   1.461   5.702
 6062SOL    HW219086   2.582   1.442   5.823
 6063SOL     OW19087   4.694   2.259   6.217
 6063SOL    HW119088   4.616   2.319   6.233
 6063SOL    HW219089   4.720   2.214   6.303
 6064SOL     OW19090   1.011   0.198   1.376
 6064SOL    HW119091   0.923   0.209   1.423
 6064SOL    HW219092   1.079   0.256   1.421
 6065SOL     OW19093   0.763   6.554   3.124
 6065SOL    HW119094   0.791   6.462   3.095
 6065SOL    HW219095   0.676   6.548   3.172
 6066SOL     OW19096   4.692   1.601   5.197
 6066SOL    HW119097   4.605   1.576   5.155
 6066SOL    HW219098   4.763   1.606   5.126
 6067SOL     OW19099   5.799   0.886   5.855
 6067SOL    HW119100   5.730   0.921   5.792
 6067SOL    HW219101   5.864   0.959   5.877
 6068SOL     OW19102   4.625   2.576   4.542
 6068SOL    HW119103   4.615   2.589   4.443
 6068SOL    HW219104   4.654   2.663   4.583
 6069SOL     OW19105   6.074   2.857   5.196
 6069SOL    HW119106   6.033   2.897   5.114
 6069SOL    HW219107   6.137   2.923   5.238
 6070SOL     OW19108   2.895   2.058   1.498
 6070SOL    HW119109   2.834   2.061   1.418
 6070SOL    HW219110   2.983   2.018   1.471
 6071SOL     OW19111   6.048   5.563   5.345
 6071SOL    HW119112   6.030   5.655   5.381
 6071SOL    HW219113   5.963   5.511   5.342
 6072SOL     OW19114   6.841   0.270   1.686
 6072SOL    HW119115   6.774   0.234   1.623
 6072SOL    HW219116   6.929   0.281   1.639
 6073SOL     OW19117   5.721   3.132   0.715
 6073SOL    HW119118   5.685   3.212   0.667
 6073SOL    HW219119   5.809   3.106   0.675
 6074SOL     OW19120   0.915   6.050   2.258
 6074SOL    HW119121   0.922   6.128   2.321
 6074SOL    HW219122   0.952   5.968   2.302
 6075SOL     OW19123   4.850   0.521   5.848
 6075SOL    HW119124   4.818   0.535   5.754
 6075SOL    HW219125   4.817   0.596   5.906
 6076SOL     OW19126   3.452   5.672   3.320
 6076SOL    HW119127   3.496   5.582   3.319
 6076SOL    HW219128   3.405   5.686   3.406
 6077SOL     OW19129   6.518   5.314   0.741
 6077SOL    HW119130   6.557   5.264   0.664
 6077SOL    HW219131   6.592   5.346   0.801
 6078SOL     OW19132   4.877   5.311   0.415
 6078SOL    HW119133   4.944   5.376   0.450
 6078SOL    HW219134   4.825   5.354   0.341
 6079SOL     OW19135   4.417   3.642   5.997
 6079SOL    HW119136   4.507   3.677   6.026
 6079SOL    HW219137   4.388   3.570   6.060
 6080SOL     OW19138   0.055   6.182   0.786
 6080SOL    HW119139   0.095   6.091   0.796
 6080SOL    HW219140   0.013   6.191   0.696
 6081SOL     OW19141   6.564   2.435   5.011
 6081SOL    HW119142   6.544   2.397   4.920
 6081SOL    HW219143   6.661   2.458   5.017
 6082SOL     OW19144   2.642   0.915   3.854
 6082SOL    HW119145   2.641   0.870   3.944
 6082SOL    HW219146   2.732   0.955   3.838
 6083SOL     OW19147   5.974   5.971   0.217
 6083SOL    HW119148   5.879   5.981   0.248
 6083SOL    HW219149   6.006   6.059   0.181
 6084SOL     OW19150   1.109   7.005   3.152
 6084SOL    HW119151   1.128   0.081   3.169
 6084SOL    HW219152   1.029   6.996   3.092
 6085SOL     OW19153   6.983   6.920   6.981
 6085SOL    HW119154   6.999   6.924   6.883
 6085SOL    HW219155   0.047   6.895   0.008
 6086SOL     OW19156   3.020   1.137   5.621
 6086SOL    HW119157   3.016   1.131   5.721
 6086SOL    HW219158   2.933   1.172   5.586
 6087SOL     OW19159   3.820   6.060   1.082
 6087SOL    HW119160   3.895   6.110   1.039
 6087SOL    HW219161   3.733   6.093   1.044
 6088SOL     OW19162   5.305   6.479   4.578
 6088SOL    HW119163   5.214   6.494   4.540
 6088SOL    HW219164   5.364   6.558   4.558
 6089SOL     OW19165   5.645   2.772   2.361
 6089SOL    HW119166   5.576   2.711   2.398
 6089SOL    HW219167   5.701   2.809   2.435
 6090SOL     OW19168   2.241   5.518   4.677
 6090SOL    HW119169   2.325   5.464   4.689
 6090SOL    HW219170   2.226   5.574   4.758
 6091SOL     OW19171   2.104   1.265   0.316
 6091SOL    HW119172   2.123   1.187   0.376
 6091SOL    HW219173   2.058   1.337   0.367
 6092SOL     OW19174   4.514   0.676   2.601
 6092SOL    HW119175   4.569   0.620   2.663
 6092SOL    HW219176   4.467   0.748   2.653
 6093SOL     OW19177   1.986   3.063   1.814
 6093SOL    HW119178   2.002   2.998   1.889
 6093SOL    HW219179   2.074   3.091   1.776
 6094SOL     OW19180   1.533   6.105   2.522
 6094SOL    HW119181   1.477   6.026   2.498
 6094SOL    HW219182   1.620   6.074   2.559
 6095SOL     OW19183   5.136   4.501   0.679
 6095SOL    HW119184   5.203   4.433   0.648
 6095SOL    HW219185   5.082   4.533   0.601
 6096SOL     OW19186   6.226   0.266   3.733
 6096SOL    HW119187   6.133   0.240   3.759
 6096SOL    HW219188   6.242   0.242   3.637
 6097SOL     OW19189   1.919   5.839   2.302
 6097SOL    HW119190   1.942   5.820   2.397
 6097SOL    HW219191   1.859   5.920   2.298
 6098SOL     OW19192   0.596   1.638   5.197
 6098SOL    HW119193   0.665   1.691   5.246
 6098SOL    HW219194   0.635   1.550   5.169
 6099SOL     OW19195   5.557   6.245   0.029
 6099SOL    HW119196   5.513   6.168   0.075
 6099SOL    HW219197   5.657   6.233   0.032
 6100SOL     OW19198   5.480   6.204   1.378
 6100SOL    HW119199   5.489   6.135   1.307
 6100SOL    HW219200   5.525   6.288   1.348
 6101SOL     OW19201   0.029   3.111   3.461
 6101SOL    HW119202   0.078   3.117   3.548
 6101SOL    HW219203   0.037   3.197   3.411
 6102SOL     OW19204   3.389   6.024   3.033
 6102SOL    HW119205   3.488   6.033   3.019
 6102SOL    HW219206   3.349   5.973   2.958
 6103SOL     OW19207   6.137   1.792   1.459
 6103SOL    HW119208   6.096   1.881   1.438
 6103SOL    HW219209   6.068   1.721   1.452
 6104SOL     OW19210   5.551   0.478   5.984
 6104SOL    HW119211   5.564   0.541   5.908
 6104SOL    HW219212   5.616   0.403   5.977
 6105SOL     OW19213   3.283   6.156   6.913
 6105SOL    HW119214   3.339   6.234   6.888
 6105SOL    HW219215   3.236   6.121   6.832
 6106SOL     OW19216   1.089   4.714   6.426
 6106SOL    HW119217   1.088   4.732   6.328
 6106SOL    HW219218   1.164   4.652   6.448
 6107SOL     OW19219   4.306   5.972   4.908
 6107SOL    HW119220   4.323   5.963   4.810
 6107SOL    HW219221   4.384   5.937   4.959
 6108SOL     OW19222   2.295   2.779   2.089
 6108SOL    HW119223   2.288   2.877   2.109
 6108SOL    HW219224   2.252   2.727   2.163
 6109SOL     OW19225   5.766   1.745   5.147
 6109SOL    HW119226   5.860   1.770   5.123
 6109SOL    HW219227   5.702   1.797   5.091
 6110SOL     OW19228   3.093   3.780   1.322
 6110SOL    HW119229   3.097   3.712   1.249
 6110SOL    HW219230   3.021   3.846   1.302
 6111SOL     OW19231   1.294   3.504   2.736
 6111SOL    HW119232   1.393   3.511   2.723
 6111SOL    HW219233   1.248   3.550   2.661
 6112SOL     OW19234   3.168   0.096   3.158
 6112SOL    HW119235   3.200   0.191   3.158
 6112SOL    HW219236   3.091   0.086   3.095
 6113SOL     OW19237   3.182   2.060   6.180
 6113SOL    HW119238   3.181   1.964   6.152
 6113SOL    HW219239   3.269   2.101   6.152
 6114SOL     OW19240   4.667   4.785   2.141
 6114SOL    HW119241   4.675   4.720   2.217
 6114SOL    HW219242   4.570   4.805   2.126
 6115SOL     OW19243   6.063   0.688   3.925
 6115SOL    HW119244   6.141   0.732   3.881
 6115SOL    HW219245   6.094   0.605   3.972
 6116SOL     OW19246   4.089   1.410   6.215
 6116SOL    HW119247   4.147   1.448   6.287
 6116SOL    HW219248   4.007   1.371   6.255
 6117SOL     OW19249   1.501   1.117   3.453
 6117SOL    HW119250   1.448   1.202   3.459
 6117SOL    HW219251   1.521   1.097   3.357
 6118SOL     OW19252   0.068   1.449   1.678
 6118SOL    HW119253   0.001   1.508   1.633
 6118SOL    HW219254   0.035   1.423   1.769
 6119SOL     OW19255   0.962   3.938   6.881
 6119SOL    HW119256   0.930   3.848   6.851
 6119SOL    HW219257   1.048   3.960   6.835
 6120SOL     OW19258   3.547   6.015   5.490
 6120SOL    HW119259   3.582   5.972   5.407
 6120SOL    HW219260   3.494   5.949   5.543
 6121SOL     OW19261   0.546   3.698   5.066
 6121SOL    HW119262   0.525   3.757   4.988
 6121SOL    HW219263   0.462   3.681   5.117
 6122SOL     OW19264   4.430   5.393   0.684
 6122SOL    HW119265   4.415   5.345   0.597
 6122SOL    HW219266   4.483   5.334   0.746
 6123SOL     OW19267   5.447   7.009   6.279
 6123SOL    HW119268   5.444   0.036   6.191
 6123SOL    HW219269   5.374   0.024   6.337
 6124SOL     OW19270   1.872   6.694   5.829
 6124SOL    HW119271   1.913   6.771   5.877
 6124SOL    HW219272   1.901   6.608   5.872
 6125SOL     OW19273   1.922   4.052   0.642
 6125SOL    HW119274   1.854   4.063   0.714
 6125SOL    HW219275   2.012   4.037   0.684
 6126SOL     OW19276   0.768   0.186   4.433
 6126SOL    HW119277   0.745   0.283   4.429
 6126SOL    HW219278   0.817   0.160   4.349
 6127SOL     OW19279   2.960   0.343   1.444
 6127SOL    HW119280   2.890   0.306   1.384
 6127SOL    HW219281   3.043   0.362   1.391
 6128SOL     OW19282   6.183   3.735   0.715
 6128SOL    HW119283   6.088   3.708   0.704
 6128SOL    HW219284   6.243   3.661   0.686
 6129SOL     OW19285   0.154   3.712   2.295
 6129SOL    HW119286   0.072   3.670   2.257
 6129SOL    HW219287   0.199   3.647   2.357
 6130SOL     OW19288   5.823   3.064   2.527
 6130SOL    HW119289   5.748   3.068   2.461
 6130SOL    HW219290   5.826   2.973   2.568
 6131SOL     OW19291   0.602   1.656   4.035
 6131SOL    HW119292   0.686   1.625   3.990
 6131SOL    HW219293   0.530   1.587   4.023
 6132SOL     OW19294   4.508   1.617   0.347
 6132SOL    HW119295   4.594   1.578   0.314
 6132SOL    HW219296   4.527   1.704   0.393
 6133SOL     OW19297   2.135   3.306   2.497
 6133SOL    HW119298   2.189   3.242   2.551
 6133SOL    HW219299   2.039   3.298   2.521
 6134SOL     OW19300   4.287   4.537   0.156
 6134SOL    HW119301   4.276   4.440   0.177
 6134SOL    HW219302   4.304   4.548   0.058
 6135SOL     OW19303   6.988   0.298   0.118
 6135SOL    HW119304   0.008   0.315   0.028
 6135SOL    HW219305   6.897   0.340   0.122
 6136SOL     OW19306   1.436   2.929   2.083
 6136SOL    HW119307   1.469   2.871   2.157
 6136SOL    HW219308   1.342   2.956   2.101
 6137SOL     OW19309   6.829   4.051   2.221
 6137SOL    HW119310   6.835   4.147   2.247
 6137SOL    HW219311   6.779   4.043   2.135
 6138SOL     OW19312   3.985   6.764   2.828
 6138SOL    HW119313   3.948   6.855   2.809
 6138SOL    HW219314   3.925   6.695   2.788
 6139SOL     OW19315   1.626   6.589   6.026
 6139SOL    HW119316   1.683   6.523   6.075
 6139SOL    HW219317   1.565   6.541   5.964
 6140SOL     OW19318   0.743   6.350   2.025
 6140SOL    HW119319   0.796   6.396   2.096
 6140SOL    HW219320   0.785   6.367   1.936
 6141SOL     OW19321   0.715   6.869   6.302
 6141SOL    HW119322   0.764   6.944   6.257
 6141SOL    HW219323   0.778   6.793   6.315
 6142SOL     OW19324   0.764   6.599   6.883
 6142SOL    HW119325   0.860   6.616   6.865
 6142SOL    HW219326   0.755   6.524   6.950
 6143SOL     OW19327   6.381   3.377   0.967
 6143SOL    HW119328   6.303   3.315   0.966
 6143SOL    HW219329   6.466   3.324   0.961
 6144SOL     OW19330   4.623   4.744   4.226
 6144SOL    HW119331   4.567   4.666   4.252
 6144SOL    HW219332   4.565   4.823   4.208
 6145SOL     OW19333   5.282   4.974   4.294
 6145SOL    HW119334   5.192   4.941   4.323
 6145SOL    HW219335   5.348   4.961   4.368
 6146SOL     OW19336   3.006   5.748   3.704
 6146SOL    HW119337   2.989   5.701   3.790
 6146SOL    HW219338   2.922   5.747   3.649
 6147SOL     OW19339   2.101   2.245   4.205
 6147SOL    HW119340   2.164   2.265   4.280
 6147SOL    HW219341   2.056   2.330   4.176
 6148SOL     OW19342   4.981   6.959   5.356
 6148SOL    HW119343   4.966   6.861   5.353
 6148SOL    HW219344   5.065   6.979   5.406
 6149SOL     OW19345   2.820   6.416   1.328
 6149SOL    HW119346   2.728   6.414   1.367
 6149SOL    HW219347   2.854   6.322   1.319
 6150SOL     OW19348   5.310   5.386   0.628
 6150SOL    HW119349   5.329   5.317   0.697
 6150SOL    HW219350   5.381   5.457   0.631
 6151SOL     OW19351   6.031   5.110   6.469
 6151SOL    HW119352   6.048   5.032   6.408
 6151SOL    HW219353   6.108   5.174   6.464
 6152SOL     OW19354   6.201   5.763   4.615
 6152SOL    HW119355   6.202   5.701   4.693
 6152SOL    HW219356   6.158   5.719   4.536
 6153SOL     OW19357   5.216   4.824   1.505
 6153SOL    HW119358   5.216   4.741   1.449
 6153SOL    HW219359   5.301   4.829   1.557
 6154SOL     OW19360   6.193   2.354   2.460
 6154SOL    HW119361   6.193   2.442   2.412
 6154SOL    HW219362   6.115   2.299   2.429
 6155SOL     OW19363   1.351   1.381   3.397
 6155SOL    HW119364   1.394   1.372   3.307
 6155SOL    HW219365   1.393   1.457   3.446
 6156SOL     OW19366   4.393   4.686   1.880
 6156SOL    HW119367   4.464   4.622   1.910
 6156SOL    HW219368   4.371   4.668   1.784
 6157SOL     OW19369   0.129   1.899   4.516
 6157SOL    HW119370   0.148   1.979   4.459
 6157SOL    HW219371   0.209   1.839   4.517
 6158SOL     OW19372   3.778   2.088   6.212
 6158SOL    HW119373   3.689   2.044   6.229
 6158SOL    HW219374   3.802   2.146   6.290
 6159SOL     OW19375   4.855   1.974   1.766
 6159SOL    HW119376   4.880   1.931   1.853
 6159SOL    HW219377   4.756   1.992   1.765
 6160SOL     OW19378   5.429   1.077   6.264
 6160SOL    HW119379   5.507   1.049   6.207
 6160SOL    HW219380   5.344   1.065   6.213
 6161SOL     OW19381   4.940   1.692   4.991
 6161SOL    HW119382   4.879   1.771   4.991
 6161SOL    HW219383   4.946   1.656   4.898
 6162SOL     OW19384   6.752   6.075   3.388
 6162SOL    HW119385   6.820   6.125   3.334
 6162SOL    HW219386   6.661   6.109   3.366
 6163SOL     OW19387   6.011   6.826   1.299
 6163SOL    HW119388   6.064   6.743   1.281
 6163SOL    HW219389   5.925   6.802   1.343
 6164SOL     OW19390   3.196   3.959   3.278
 6164SOL    HW119391   3.280   3.939   3.327
 6164SOL    HW219392   3.216   4.019   3.200
 6165SOL     OW19393   4.604   1.916   0.046
 6165SOL    HW119394   4.658   1.846   0.092
 6165SOL    HW219395   4.664   1.972   7.009
 6166SOL     OW19396   5.508   1.842   6.438
 6166SOL    HW119397   5.470   1.926   6.399
 6166SOL    HW219398   5.476   1.831   6.532
 6167SOL     OW19399   1.207   4.918   2.634
 6167SOL    HW119400   1.237   4.949   2.724
 6167SOL    HW219401   1.125   4.968   2.607
 6168SOL     OW19402   1.649   3.521   2.173
 6168SOL    HW119403   1.711   3.559   2.103
 6168SOL    HW219404   1.683   3.545   2.264
 6169SOL     OW19405   1.608   2.114   6.694
 6169SOL    HW119406   1.692   2.114   6.748
 6169SOL    HW219407   1.530   2.136   6.753
 6170SOL     OW19408   2.357   4.153   5.335
 6170SOL    HW119409   2.369   4.067   5.285
 6170SOL    HW219410   2.308   4.218   5.276
 6171SOL     OW19411   1.361   3.284   1.143
 6171SOL    HW119412   1.269   3.259   1.174
 6171SOL    HW219413   1.360   3.377   1.107
 6172SOL     OW19414   1.866   1.797   2.942
 6172SOL    HW119415   1.886   1.850   3.025
 6172SOL    HW219416   1.882   1.700   2.960
 6173SOL     OW19417   6.398   5.539   2.015
 6173SOL    HW119418   6.397   5.465   1.947
 6173SOL    HW219419   6.342   5.514   2.093
 6174SOL     OW19420   4.954   4.974   3.880
 6174SOL    HW119421   4.871   5.008   3.924
 6174SOL    HW219422   5.020   4.948   3.950
 6175SOL     OW19423   4.761   0.357   3.605
 6175SOL    HW119424   4.688   0.423   3.619
 6175SOL    HW219425   4.725   0.264   3.618
 6176SOL     OW19426   5.238   3.642   6.561
 6176SOL    HW119427   5.213   3.553   6.522
 6176SOL    HW219428   5.253   3.707   6.486
 6177SOL     OW19429   5.394   0.809   1.199
 6177SOL    HW119430   5.460   0.804   1.274
 6177SOL    HW219431   5.331   0.732   1.204
 6178SOL     OW19432   4.957   4.776   3.089
 6178SOL    HW119433   4.900   4.755   3.169
 6178SOL    HW219434   4.910   4.844   3.032
 6179SOL     OW19435   0.054   5.012   4.084
 6179SOL    HW119436   0.148   5.013   4.050
 6179SOL    HW219437   0.003   5.089   4.045
 6180SOL     OW19438   3.727   4.226   0.075
 6180SOL    HW119439   3.813   4.273   0.057
 6180SOL    HW219440   3.706   4.233   0.173
 6181SOL     OW19441   3.683   6.755   0.862
 6181SOL    HW119442   3.622   6.798   0.795
 6181SOL    HW219443   3.633   6.739   0.947
 6182SOL     OW19444   5.232   2.937   5.379
 6182SOL    HW119445   5.148   2.913   5.330
 6182SOL    HW219446   5.289   2.855   5.388
 6183SOL     OW19447   2.072   1.631   3.353
 6183SOL    HW119448   1.982   1.599   3.322
 6183SOL    HW219449   2.102   1.707   3.296
 6184SOL     OW19450   1.796   6.580   6.372
 6184SOL    HW119451   1.720   6.642   6.385
 6184SOL    HW219452   1.780   6.524   6.291
 6185SOL     OW19453   0.389   4.142   6.462
 6185SOL    HW119454   0.379   4.207   6.387
 6185SOL    HW219455   0.415   4.053   6.426
 6186SOL     OW19456   6.860   6.950   5.980
 6186SOL    HW119457   6.850   6.891   5.901
 6186SOL    HW219458   6.788   6.929   6.047
 6187SOL     OW19459   4.569   4.875   3.091
 6187SOL    HW119460   4.602   4.968   3.104
 6187SOL    HW219461   4.515   4.847   3.171
 6188SOL     OW19462   2.482   0.145   1.310
 6188SOL    HW119463   2.459   0.109   1.220
 6188SOL    HW219464   2.422   0.104   1.379
 6189SOL     OW19465   5.147   3.981   3.829
 6189SOL    HW119466   5.157   3.892   3.784
 6189SOL    HW219467   5.232   4.033   3.819
 6190SOL     OW19468   0.720   4.023   5.583
 6190SOL    HW119469   0.714   4.108   5.530
 6190SOL    HW219470   0.645   3.963   5.556
 6191SOL     OW19471   3.365   1.741   0.102
 6191SOL    HW119472   3.423   1.819   0.076
 6191SOL    HW219473   3.288   1.774   0.157
 6192SOL     OW19474   3.733   2.193   6.471
 6192SOL    HW119475   3.795   2.191   6.549
 6192SOL    HW219476   3.690   2.104   6.460
 6193SOL     OW19477   5.181   1.190   2.249
 6193SOL    HW119478   5.206   1.114   2.309
 6193SOL    HW219479   5.082   1.190   2.235
 6194SOL     OW19480   1.678   0.135   1.275
 6194SOL    HW119481   1.731   0.193   1.213
 6194SOL    HW219482   1.582   0.162   1.272
 6195SOL     OW19483   4.409   6.167   5.777
 6195SOL    HW119484   4.452   6.221   5.849
 6195SOL    HW219485   4.318   6.139   5.806
 6196SOL     OW19486   5.705   2.636   1.717
 6196SOL    HW119487   5.683   2.543   1.746
 6196SOL    HW219488   5.678   2.701   1.788
 6197SOL     OW19489   4.356   4.749   0.683
 6197SOL    HW119490   4.259   4.756   0.662
 6197SOL    HW219491   4.387   4.834   0.725
 6198SOL     OW19492   3.761   6.479   2.291
 6198SOL    HW119493   3.843   6.441   2.335
 6198SOL    HW219494   3.696   6.509   2.361
 6199SOL     OW19495   1.175   1.041   0.335
 6199SOL    HW119496   1.108   1.071   0.268
 6199SOL    HW219497   1.242   0.981   0.290
 6200SOL     OW19498   1.553   1.501   5.720
 6200SOL    HW119499   1.609   1.584   5.717
 6200SOL    HW219500   1.476   1.512   5.657
 6201SOL     OW19501   0.904   3.393   5.235
 6201SOL    HW119502   0.869   3.487   5.240
 6201SOL    HW219503   0.908   3.354   5.327
 6202SOL     OW19504   3.836   1.769   2.442
 6202SOL    HW119505   3.933   1.790   2.455
 6202SOL    HW219506   3.827   1.676   2.407
 6203SOL     OW19507   0.084   6.838   3.047
 6203SOL    HW119508   0.081   6.934   3.020
 6203SOL    HW219509   0.028   6.825   3.129
 6204SOL     OW19510   0.385   4.953   4.640
 6204SOL    HW119511   0.382   4.956   4.740
 6204SOL    HW219512   0.301   4.911   4.606
 6205SOL     OW19513   6.091   6.458   0.992
 6205SOL    HW119514   6.191   6.460   0.999
 6205SOL    HW219515   6.064   6.445   0.897
 6206SOL     OW19516   6.879   1.410   3.688
 6206SOL    HW119517   6.978   1.418   3.675
 6206SOL    HW219518   6.832   1.469   3.622
 6207SOL     OW19519   1.554   4.874   5.402
 6207SOL    HW119520   1.519   4.810   5.334
 6207SOL    HW219521   1.568   4.964   5.360
 6208SOL     OW19522   5.778   1.819   5.935
 6208SOL    HW119523   5.862   1.798   5.984
 6208SOL    HW219524   5.794   1.895   5.872
 6209SOL     OW19525   4.683   5.540   6.840
 6209SOL    HW119526   4.696   5.451   6.884
 6209SOL    HW219527   4.684   5.529   6.741
 6210SOL     OW19528   5.231   3.481   2.951
 6210SOL    HW119529   5.155   3.418   2.931
 6210SOL    HW219530   5.213   3.527   3.038
 6211SOL     OW19531   3.243   6.388   5.595
 6211SOL    HW119532   3.166   6.355   5.649
 6211SOL    HW219533   3.281   6.470   5.638
 6212SOL     OW19534   1.986   5.317   3.866
 6212SOL    HW119535   2.036   5.260   3.932
 6212SOL    HW219536   1.920   5.373   3.915
 6213SOL     OW19537   5.803   0.217   0.522
 6213SOL    HW119538   5.721   0.163   0.542
 6213SOL    HW219539   5.881   0.178   0.573
 6214SOL     OW19540   5.020   4.873   4.347
 6214SOL    HW119541   4.964   4.812   4.404
 6214SOL    HW219542   4.988   4.967   4.359
 6215SOL     OW19543   4.194   1.087   0.356
 6215SOL    HW119544   4.161   1.174   0.393
 6215SOL    HW219545   4.188   1.016   0.427
 6216SOL     OW19546   6.409   1.220   1.985
 6216SOL    HW119547   6.358   1.283   1.926
 6216SOL    HW219548   6.501   1.256   2.000
 6217SOL     OW19549   0.457   3.939   2.577
 6217SOL    HW119550   0.497   3.870   2.516
 6217SOL    HW219551   0.371   3.905   2.614
 6218SOL     OW19552   3.899   5.718   6.559
 6218SOL    HW119553   3.993   5.713   6.524
 6218SOL    HW219554   3.844   5.648   6.513
 6219SOL     OW19555   1.052   2.831   4.541
 6219SOL    HW119556   1.005   2.747   4.567
 6219SOL    HW219557   1.040   2.899   4.613
 6220SOL     OW19558   2.134   1.598   5.264
 6220SOL    HW119559   2.194   1.677   5.276
 6220SOL    HW219560   2.141   1.538   5.344
 6221SOL     OW19561   5.896   6.025   6.313
 6221SOL    HW119562   5.954   6.106   6.312
 6221SOL    HW219563   5.951   5.944   6.296
 6222SOL     OW19564   0.861   6.488   1.473
 6222SOL    HW119565   0.956   6.458   1.486
 6222SOL    HW219566   0.817   6.430   1.405
 6223SOL     OW19567   0.979   5.093   4.034
 6223SOL    HW119568   0.969   5.186   3.998
 6223SOL    HW219569   1.073   5.061   4.018
 6224SOL     OW19570   2.629   1.764   6.077
 6224SOL    HW119571   2.539   1.806   6.090
 6224SOL    HW219572   2.693   1.800   6.146
 6225SOL     OW19573   4.082   4.056   6.722
 6225SOL    HW119574   4.022   4.119   6.673
 6225SOL    HW219575   4.140   4.008   6.656
 6226SOL     OW19576   6.941   1.726   5.169
 6226SOL    HW119577   6.893   1.753   5.253
 6226SOL    HW219578   6.973   1.632   5.177
 6227SOL     OW19579   3.277   5.661   5.261
 6227SOL    HW119580   3.328   5.713   5.193
 6227SOL    HW219581   3.231   5.584   5.216
 6228SOL     OW19582   1.506   2.627   2.639
 6228SOL    HW119583   1.446   2.611   2.560
 6228SOL    HW219584   1.460   2.595   2.722
 6229SOL     OW19585   0.498   2.230   3.024
 6229SOL    HW119586   0.592   2.207   3.047
 6229SOL    HW219587   0.436   2.179   3.085
 6230SOL     OW19588   0.762   1.860   3.682
 6230SOL    HW119589   0.744   1.939   3.740
 6230SOL    HW219590   0.715   1.871   3.595
 6231SOL     OW19591   6.293   5.941   1.189
 6231SOL    HW119592   6.264   6.022   1.241
 6231SOL    HW219593   6.389   5.922   1.208
 6232SOL     OW19594   0.056   0.561   0.877
 6232SOL    HW119595   0.128   0.621   0.840
 6232SOL    HW219596   0.015   0.604   0.957
 6233SOL     OW19597   6.826   0.950   1.346
 6233SOL    HW119598   6.870   1.022   1.293
 6233SOL    HW219599   6.874   0.863   1.333
 6234SOL     OW19600   6.657   1.364   5.655
 6234SOL    HW119601   6.611   1.452   5.640
 6234SOL    HW219602   6.615   1.294   5.597
 6235SOL     OW19603   1.132   6.870   1.023
 6235SOL    HW119604   1.182   6.826   1.097
 6235SOL    HW219605   1.084   6.950   1.058
 6236SOL     OW19606   0.499   3.881   1.338
 6236SOL    HW119607   0.434   3.821   1.292
 6236SOL    HW219608   0.473   3.976   1.322
 6237SOL     OW19609   2.999   0.441   6.586
 6237SOL    HW119610   3.025   0.397   6.500
 6237SOL    HW219611   2.977   0.371   6.655
 6238SOL     OW19612   3.822   4.859   2.677
 6238SOL    HW119613   3.847   4.773   2.632
 6238SOL    HW219614   3.847   4.854   2.774
 6239SOL     OW19615   2.814   0.159   2.073
 6239SOL    HW119616   2.731   0.188   2.026
 6239SOL    HW219617   2.874   0.111   2.008
 6240SOL     OW19618   1.770   3.173   5.423
 6240SOL    HW119619   1.869   3.165   5.424
 6240SOL    HW219620   1.740   3.213   5.336
 6241SOL     OW19621   3.573   7.020   1.668
 6241SOL    HW119622   3.550   6.933   1.713
 6241SOL    HW219623   3.497   0.064   1.680
 6242SOL     OW19624   4.770   0.499   4.159
 6242SOL    HW119625   4.742   0.579   4.213
 6242SOL    HW219626   4.862   0.471   4.187
 6243SOL     OW19627   5.987   6.211   4.278
 6243SOL    HW119628   5.903   6.164   4.250
 6243SOL    HW219629   6.013   6.277   4.208
 6244SOL     OW19630   6.923   2.063   1.866
 6244SOL    HW119631   6.857   2.084   1.938
 6244SOL    HW219632   6.952   1.968   1.874
 6245SOL     OW19633   1.306   4.331   0.543
 6245SOL    HW119634   1.366   4.306   0.467
 6245SOL    HW219635   1.318   4.265   0.617
 6246SOL     OW19636   2.126   1.910   5.485
 6246SOL    HW119637   2.050   1.932   5.422
 6246SOL    HW219638   2.199   1.865   5.434
 6247SOL     OW19639   0.487   6.041   4.841
 6247SOL    HW119640   0.534   6.057   4.928
 6247SOL    HW219641   0.388   6.048   4.854
 6248SOL     OW19642   3.517   3.263   0.904
 6248SOL    HW119643   3.566   3.180   0.932
 6248SOL    HW219644   3.580   3.340   0.902
 6249SOL     OW19645   0.537   3.982   0.651
 6249SOL    HW119646   0.550   3.887   0.622
 6249SOL    HW219647   0.523   3.984   0.751
 6250SOL     OW19648   6.789   0.115   6.841
 6250SOL    HW119649   6.834   0.066   6.914
 6250SOL    HW219650   6.815   0.212   6.844
 6251SOL     OW19651   4.370   5.932   6.405
 6251SOL    HW119652   4.447   5.887   6.449
 6251SOL    HW219653   4.294   5.938   6.470
 6252SOL     OW19654   1.693   6.073   5.496
 6252SOL    HW119655   1.642   6.158   5.513
 6252SOL    HW219656   1.788   6.095   5.475
 6253SOL     OW19657   2.291   4.528   3.639
 6253SOL    HW119658   2.247   4.617   3.655
 6253SOL    HW219659   2.320   4.490   3.727
 6254SOL     OW19660   5.368   1.546   1.480
 6254SOL    HW119661   5.446   1.484   1.473
 6254SOL    HW219662   5.397   1.638   1.451
 6255SOL     OW19663   3.524   0.313   0.987
 6255SOL    HW119664   3.562   0.387   0.931
 6255SOL    HW219665   3.436   0.342   1.025
 6256SOL     OW19666   3.735   5.567   1.837
 6256SOL    HW119667   3.674   5.546   1.913
 6256SOL    HW219668   3.785   5.651   1.856
 6257SOL     OW19669   5.000   2.055   1.100
 6257SOL    HW119670   4.949   2.138   1.119
 6257SOL    HW219671   4.955   1.977   1.142
 6258SOL     OW19672   3.363   0.498   3.830
 6258SOL    HW119673   3.363   0.414   3.884
 6258SOL    HW219674   3.299   0.488   3.754
 6259SOL     OW19675   1.890   2.458   6.681
 6259SOL    HW119676   1.938   2.377   6.716
 6259SOL    HW219677   1.876   2.524   6.755
 6260SOL     OW19678   3.421   5.440   0.200
 6260SOL    HW119679   3.328   5.428   0.235
 6260SOL    HW219680   3.476   5.359   0.222
 6261SOL     OW19681   3.518   0.922   6.830
 6261SOL    HW119682   3.604   0.906   6.878
 6261SOL    HW219683   3.496   1.020   6.833
 6262SOL     OW19684   2.561   6.387   1.446
 6262SOL    HW119685   2.522   6.325   1.514
 6262SOL    HW219686   2.548   6.482   1.476
 6263SOL     OW19687   0.229   1.047   5.538
 6263SOL    HW119688   0.152   1.023   5.597
 6263SOL    HW219689   0.296   0.973   5.538
 6264SOL     OW19690   1.629   0.229   1.679
 6264SOL    HW119691   1.613   0.181   1.766
 6264SOL    HW219692   1.690   0.175   1.622
 6265SOL     OW19693   3.561   3.349   0.323
 6265SOL    HW119694   3.637   3.349   0.257
 6265SOL    HW219695   3.583   3.287   0.398
 6266SOL     OW19696   4.115   0.842   4.665
 6266SOL    HW119697   4.036   0.798   4.624
 6266SOL    HW219698   4.097   0.940   4.677
 6267SOL     OW19699   2.021   6.731   6.279
 6267SOL    HW119700   2.092   6.762   6.343
 6267SOL    HW219701   1.942   6.699   6.331
 6268SOL     OW19702   2.469   0.247   3.382
 6268SOL    HW119703   2.502   0.342   3.389
 6268SOL    HW219704   2.401   0.242   3.309
 6269SOL     OW19705   0.079   6.744   1.688
 6269SOL    HW119706   0.076   6.768   1.591
 6269SOL    HW219707   0.174   6.732   1.717
 6270SOL     OW19708   1.821   0.026   5.860
 6270SOL    HW119709   1.735   6.997   5.847
 6270SOL    HW219710   1.883   6.991   5.917
 6271SOL     OW19711   6.625   2.357   6.460
 6271SOL    HW119712   6.593   2.353   6.366
 6271SOL    HW219713   6.722   2.381   6.461
 6272SOL     OW19714   0.313   3.180   0.040
 6272SOL    HW119715   0.244   3.240   7.018
 6272SOL    HW219716   0.343   3.219   0.127
 6273SOL     OW19717   1.145   6.580   2.487
 6273SOL    HW119718   1.100   6.494   2.465
 6273SOL    HW219719   1.124   6.605   2.582
 6274SOL     OW19720   3.307   5.544   5.987
 6274SOL    HW119721   3.302   5.644   5.987
 6274SOL    HW219722   3.362   5.514   5.909
 6275SOL     OW19723   2.305   6.048   6.358
 6275SOL    HW119724   2.287   6.098   6.442
 6275SOL    HW219725   2.385   6.086   6.312
 6276SOL     OW19726   1.416   4.214   3.386
 6276SOL    HW119727   1.438   4.309   3.363
 6276SOL    HW219728   1.458   4.190   3.473
 6277SOL     OW19729   5.382   4.114   1.746
 6277SOL    HW119730   5.300   4.122   1.689
 6277SOL    HW219731   5.446   4.187   1.724
 6278SOL     OW19732   4.985   6.240   4.635
 6278SOL    HW119733   5.038   6.156   4.643
 6278SOL    HW219734   5.006   6.285   4.548
 6279SOL     OW19735   3.544   6.879   6.619
 6279SOL    HW119736   3.631   6.890   6.668
 6279SOL    HW219737   3.475   6.844   6.683
 6280SOL     OW19738   1.148   2.205   4.732
 6280SOL    HW119739   1.241   2.180   4.704
 6280SOL    HW219740   1.117   2.141   4.802
 6281SOL     OW19741   0.742   5.102   4.242
 6281SOL    HW119742   0.683   5.023   4.226
 6281SOL    HW219743   0.829   5.090   4.195
 6282SOL     OW19744   0.815   5.966   5.263
 6282SOL    HW119745   0.774   6.027   5.195
 6282SOL    HW219746   0.909   5.994   5.281
 6283SOL     OW19747   6.260   3.012   5.319
 6283SOL    HW119748   6.330   2.997   5.249
 6283SOL    HW219749   6.302   3.003   5.410
 6284SOL     OW19750   0.907   5.450   5.025
 6284SOL    HW119751   0.876   5.420   4.934
 6284SOL    HW219752   0.880   5.545   5.039
 6285SOL     OW19753   0.192   3.951   4.757
 6285SOL    HW119754   0.153   3.885   4.821
 6285SOL    HW219755   0.122   4.015   4.727
 6286SOL     OW19756   5.653   1.700   3.434
 6286SOL    HW119757   5.725   1.704   3.504
 6286SOL    HW219758   5.579   1.641   3.466
 6287SOL     OW19759   3.745   4.954   4.661
 6287SOL    HW119760   3.764   4.948   4.759
 6287SOL    HW219761   3.824   4.923   4.609
 6288SOL     OW19762   5.235   4.401   2.843
 6288SOL    HW119763   5.269   4.327   2.785
 6288SOL    HW219764   5.287   4.484   2.825
 6289SOL     OW19765   1.776   5.091   0.763
 6289SOL    HW119766   1.862   5.089   0.713
 6289SOL    HW219767   1.793   5.112   0.859
 6290SOL     OW19768   6.265   5.117   5.777
 6290SOL    HW119769   6.267   5.083   5.871
 6290SOL    HW219770   6.212   5.201   5.773
 6291SOL     OW19771   4.052   3.403   4.359
 6291SOL    HW119772   3.968   3.353   4.337
 6291SOL    HW219773   4.075   3.389   4.455
 6292SOL     OW19774   1.074   2.342   4.392
 6292SOL    HW119775   1.101   2.407   4.322
 6292SOL    HW219776   1.065   2.389   4.480
 6293SOL     OW19777   3.446   0.763   0.520
 6293SOL    HW119778   3.356   0.776   0.478
 6293SOL    HW219779   3.434   0.734   0.615
 6294SOL     OW19780   3.571   6.337   3.891
 6294SOL    HW119781   3.543   6.243   3.868
 6294SOL    HW219782   3.507   6.375   3.957
 6295SOL     OW19783   5.649   4.791   6.185
 6295SOL    HW119784   5.635   4.738   6.101
 6295SOL    HW219785   5.639   4.889   6.165
 6296SOL     OW19786   0.687   6.407   6.014
 6296SOL    HW119787   0.674   6.485   6.075
 6296SOL    HW219788   0.783   6.402   5.987
 6297SOL     OW19789   5.562   0.711   3.967
 6297SOL    HW119790   5.572   0.811   3.972
 6297SOL    HW219791   5.469   0.686   3.996
 6298SOL     OW19792   1.714   2.809   0.312
 6298SOL    HW119793   1.656   2.867   0.254
 6298SOL    HW219794   1.805   2.850   0.319
 6299SOL     OW19795   5.972   2.085   0.522
 6299SOL    HW119796   6.001   2.155   0.587
 6299SOL    HW219797   6.025   2.002   0.536
 6300SOL     OW19798   6.360   0.699   0.352
 6300SOL    HW119799   6.277   0.654   0.321
 6300SOL    HW219800   6.352   0.798   0.336
 6301SOL     OW19801   3.855   6.637   0.226
 6301SOL    HW119802   3.942   6.655   0.181
 6301SOL    HW219803   3.828   6.542   0.210
 6302SOL     OW19804   1.777   0.593   3.292
 6302SOL    HW119805   1.804   0.519   3.355
 6302SOL    HW219806   1.714   0.655   3.338
 6303SOL     OW19807   2.008   1.213   3.708
 6303SOL    HW119808   1.935   1.174   3.651
 6303SOL    HW219809   1.979   1.301   3.744
 6304SOL     OW19810   2.425   0.738   1.433
 6304SOL    HW119811   2.425   0.746   1.533
 6304SOL    HW219812   2.511   0.698   1.403
 6305SOL     OW19813   6.443   6.985   1.209
 6305SOL    HW119814   6.534   0.005   1.207
 6305SOL    HW219815   6.406   6.990   1.302
 6306SOL     OW19816   0.826   4.265   4.025
 6306SOL    HW119817   0.878   4.201   4.083
 6306SOL    HW219818   0.729   4.245   4.032
 6307SOL     OW19819   3.542   4.267   5.266
 6307SOL    HW119820   3.548   4.245   5.169
 6307SOL    HW219821   3.497   4.192   5.315
 6308SOL     OW19822   2.261   2.145   4.495
 6308SOL    HW119823   2.210   2.228   4.475
 6308SOL    HW219824   2.301   2.151   4.586
 6309SOL     OW19825   6.195   4.522   5.490
 6309SOL    HW119826   6.170   4.425   5.496
 6309SOL    HW219827   6.273   4.532   5.428
 6310SOL     OW19828   2.153   6.122   2.745
 6310SOL    HW119829   2.156   6.024   2.764
 6310SOL    HW219830   2.155   6.136   2.646
 6311SOL     OW19831   4.894   1.084   6.119
 6311SOL    HW119832   4.911   1.100   6.216
 6311SOL    HW219833   4.905   0.987   6.098
 6312SOL     OW19834   6.328   5.723   5.490
 6312SOL    HW119835   6.417   5.688   5.462
 6312SOL    HW219836   6.325   5.822   5.476
 6313SOL     OW19837   7.004   5.940   5.001
 6313SOL    HW119838   6.942   5.991   5.060
 6313SOL    HW219839   0.070   5.923   5.050
 6314SOL     OW19840   4.174   6.911   1.784
 6314SOL    HW119841   4.085   6.940   1.818
 6314SOL    HW219842   4.195   6.819   1.818
 6315SOL     OW19843   2.085   2.690   5.569
 6315SOL    HW119844   2.013   2.721   5.632
 6315SOL    HW219845   2.141   2.768   5.542
 6316SOL     OW19846   4.850   1.669   0.279
 6316SOL    HW119847   4.860   1.572   0.301
 6316SOL    HW219848   4.847   1.722   0.363
 6317SOL     OW19849   4.193   5.190   1.561
 6317SOL    HW119850   4.216   5.286   1.544
 6317SOL    HW219851   4.215   5.136   1.481
 6318SOL     OW19852   3.590   1.404   5.810
 6318SOL    HW119853   3.675   1.454   5.791
 6318SOL    HW219854   3.519   1.467   5.838
 6319SOL     OW19855   6.380   1.839   4.587
 6319SOL    HW119856   6.455   1.824   4.522
 6319SOL    HW219857   6.321   1.758   4.590
 6320SOL     OW19858   6.095   6.471   5.158
 6320SOL    HW119859   6.097   6.550   5.219
 6320SOL    HW219860   6.138   6.393   5.204
 6321SOL     OW19861   3.673   3.018   0.946
 6321SOL    HW119862   3.692   2.926   0.981
 6321SOL    HW219863   3.724   3.033   0.862
 6322SOL     OW19864   1.876   2.389   0.546
 6322SOL    HW119865   1.925   2.303   0.561
 6322SOL    HW219866   1.850   2.395   0.449
 6323SOL     OW19867   3.040   2.685   1.760
 6323SOL    HW119868   3.004   2.608   1.814
 6323SOL    HW219869   3.117   2.726   1.808
 6324SOL     OW19870   5.396   0.400   6.816
 6324SOL    HW119871   5.348   0.331   6.870
 6324SOL    HW219872   5.442   0.464   6.878
 6325SOL     OW19873   1.718   2.127   2.662
 6325SOL    HW119874   1.674   2.057   2.717
 6325SOL    HW219875   1.812   2.099   2.640
 6326SOL     OW19876   4.706   5.019   1.822
 6326SOL    HW119877   4.772   4.973   1.881
 6326SOL    HW219878   4.727   5.117   1.819
 6327SOL     OW19879   6.608   0.665   5.140
 6327SOL    HW119880   6.661   0.604   5.199
 6327SOL    HW219881   6.645   0.662   5.047
 6328SOL     OW19882   3.255   3.245   0.293
 6328SOL    HW119883   3.311   3.303   0.353
 6328SOL    HW219884   3.291   3.249   0.200
 6329SOL     OW19885   2.118   2.115   3.465
 6329SOL    HW119886   2.205   2.084   3.427
 6329SOL    HW219887   2.072   2.175   3.399
 6330SOL     OW19888   4.949   0.581   1.072
 6330SOL    HW119889   4.899   0.495   1.065
 6330SOL    HW219890   4.883   0.656   1.084
 6331SOL     OW19891   6.471   2.926   5.151
 6331SOL    HW119892   6.559   2.941   5.197
 6331SOL    HW219893   6.474   2.840   5.100
 6332SOL     OW19894   0.123   3.426   1.169
 6332SOL    HW119895   0.067   3.433   1.252
 6332SOL    HW219896   0.063   3.425   1.089
 6333SOL     OW19897   4.531   5.471   5.190
 6333SOL    HW119898   4.491   5.403   5.128
 6333SOL    HW219899   4.630   5.475   5.175
 6334SOL     OW19900   3.022   0.489   2.324
 6334SOL    HW119901   3.010   0.579   2.283
 6334SOL    HW219902   3.022   0.498   2.424
 6335SOL     OW19903   3.287   0.425   0.502
 6335SOL    HW119904   3.248   0.514   0.478
 6335SOL    HW219905   3.237   0.352   0.456
 6336SOL     OW19906   0.607   2.345   5.648
 6336SOL    HW119907   0.648   2.327   5.738
 6336SOL    HW219908   0.651   2.287   5.580
 6337SOL     OW19909   4.958   4.789   6.002
 6337SOL    HW119910   4.910   4.713   5.958
 6337SOL    HW219911   5.057   4.773   5.996
 6338SOL     OW19912   3.134   1.717   4.304
 6338SOL    HW119913   3.094   1.683   4.219
 6338SOL    HW219914   3.212   1.660   4.329
 6339SOL     OW19915   0.999   3.484   3.424
 6339SOL    HW119916   0.911   3.512   3.462
 6339SOL    HW219917   1.012   3.528   3.335
 6340SOL     OW19918   1.710   5.293   2.201
 6340SOL    HW119919   1.644   5.244   2.259
 6340SOL    HW219920   1.736   5.379   2.245
 6341SOL     OW19921   0.164   4.076   4.366
 6341SOL    HW119922   0.237   4.105   4.428
 6341SOL    HW219923   0.093   4.147   4.363
 6342SOL     OW19924   1.965   1.025   1.858
 6342SOL    HW119925   2.011   1.105   1.897
 6342SOL    HW219926   1.967   0.950   1.924
 6343SOL     OW19927   4.535   2.256   6.891
 6343SOL    HW119928   4.613   2.195   6.908
 6343SOL    HW219929   4.472   2.251   6.968
 6344SOL     OW19930   5.265   2.736   4.084
 6344SOL    HW119931   5.231   2.642   4.074
 6344SOL    HW219932   5.312   2.746   4.171
 6345SOL     OW19933   6.076   2.807   2.164
 6345SOL    HW119934   6.110   2.897   2.190
 6345SOL    HW219935   6.072   2.801   2.064
 6346SOL     OW19936   6.567   5.340   4.040
 6346SOL    HW119937   6.588   5.307   3.948
 6346SOL    HW219938   6.651   5.344   4.094
 6347SOL     OW19939   2.223   0.061   0.499
 6347SOL    HW119940   2.160   0.106   0.562
 6347SOL    HW219941   2.191   6.989   0.480
 6348SOL     OW19942   1.027   3.621   5.641
 6348SOL    HW119943   0.940   3.668   5.656
 6348SOL    HW219944   1.088   3.638   5.719
 6349SOL     OW19945   2.183   0.580   1.374
 6349SOL    HW119946   2.173   0.638   1.293
 6349SOL    HW219947   2.261   0.519   1.363
 6350SOL     OW19948   0.594   5.601   3.891
 6350SOL    HW119949   0.579   5.617   3.989
 6350SOL    HW219950   0.590   5.688   3.842
 6351SOL     OW19951   6.481   3.847   3.799
 6351SOL    HW119952   6.389   3.833   3.835
 6351SOL    HW219953   6.479   3.841   3.699
 6352SOL     OW19954   3.882   5.993   4.880
 6352SOL    HW119955   3.854   6.074   4.829
 6352SOL    HW219956   3.805   5.962   4.936
 6353SOL     OW19957   0.675   6.615   6.185
 6353SOL    HW119958   0.726   6.689   6.142
 6353SOL    HW219959   0.696   6.612   6.282
 6354SOL     OW19960   2.141   5.838   2.781
 6354SOL    HW119961   2.229   5.810   2.818
 6354SOL    HW219962   2.069   5.780   2.818
 6355SOL     OW19963   0.936   5.544   6.966
 6355SOL    HW119964   0.846   5.571   6.998
 6355SOL    HW219965   0.939   5.550   6.866
 6356SOL     OW19966   4.731   5.746   1.938
 6356SOL    HW119967   4.668   5.689   1.991
 6356SOL    HW219968   4.712   5.735   1.841
 6357SOL     OW19969   6.171   3.703   2.604
 6357SOL    HW119970   6.190   3.795   2.639
 6357SOL    HW219971   6.163   3.639   2.681
 6358SOL     OW19972   0.835   2.402   6.076
 6358SOL    HW119973   0.802   2.496   6.065
 6358SOL    HW219974   0.931   2.398   6.051
 6359SOL     OW19975   5.740   6.960   6.841
 6359SOL    HW119976   5.715   0.028   6.883
 6359SOL    HW219977   5.684   6.888   6.880
 6360SOL     OW19978   1.541   4.342   3.771
 6360SOL    HW119979   1.536   4.264   3.709
 6360SOL    HW219980   1.524   4.312   3.865
 6361SOL     OW19981   0.914   6.942   1.603
 6361SOL    HW119982   0.850   6.917   1.531
 6361SOL    HW219983   0.944   6.860   1.652
 6362SOL     OW19984   6.828   6.125   0.105
 6362SOL    HW119985   6.833   6.031   0.138
 6362SOL    HW219986   6.752   6.135   0.042
 6363SOL     OW19987   1.477   5.189   3.135
 6363SOL    HW119988   1.577   5.196   3.142
 6363SOL    HW219989   1.444   5.256   3.069
 6364SOL     OW19990   2.809   1.153   5.842
 6364SOL    HW119991   2.815   1.058   5.811
 6364SOL    HW219992   2.738   1.200   5.789
 6365SOL     OW19993   5.646   0.588   3.733
 6365SOL    HW119994   5.607   0.639   3.810
 6365SOL    HW219995   5.698   0.651   3.675
 6366SOL     OW19996   1.062   6.070   6.196
 6366SOL    HW119997   1.157   6.098   6.211
 6366SOL    HW219998   1.008   6.148   6.166
 6367SOL     OW19999   4.187   1.265   5.258
 6367SOL    HW120000   4.162   1.257   5.354
 6367SOL    HW220001   4.191   1.174   5.216
 6368SOL     OW20002   3.692   4.934   4.046
 6368SOL    HW120003   3.725   5.023   4.013
 6368SOL    HW220004   3.767   4.885   4.089
 6369SOL     OW20005   2.281   5.628   3.560
 6369SOL    HW120006   2.293   5.529   3.556
 6369SOL    HW220007   2.183   5.649   3.570
 6370SOL     OW20008   6.964   2.950   3.709
 6370SOL    HW120009   0.019   2.892   3.678
 6370SOL    HW220010   6.915   2.986   3.630
 6371SOL     OW20011   4.774   4.517   3.766
 6371SOL    HW120012   4.791   4.454   3.843
 6371SOL    HW220013   4.785   4.611   3.798
 6372SOL     OW20014   2.170   0.525   2.023
 6372SOL    HW120015   2.185   0.514   2.121
 6372SOL    HW220016   2.072   0.530   2.004
 6373SOL     OW20017   4.764   4.100   2.431
 6373SOL    HW120018   4.810   4.030   2.377
 6373SOL    HW220019   4.671   4.114   2.396
 6374SOL     OW20020   3.292   4.142   3.084
 6374SOL    HW120021   3.379   4.178   3.051
 6374SOL    HW220022   3.229   4.131   3.007
 6375SOL     OW20023   0.061   1.884   3.712
 6375SOL    HW120024   6.982   1.897   3.708
 6375SOL    HW220025   0.087   1.852   3.804
 6376SOL     OW20026   5.725   2.071   4.757
 6376SOL    HW120027   5.673   2.118   4.829
 6376SOL    HW220028   5.663   2.035   4.688
 6377SOL     OW20029   6.809   1.660   5.446
 6377SOL    HW120030   6.718   1.645   5.409
 6377SOL    HW220031   6.861   1.575   5.444
 6378SOL     OW20032   4.312   5.448   4.379
 6378SOL    HW120033   4.305   5.385   4.456
 6378SOL    HW220034   4.321   5.541   4.412
 6379SOL     OW20035   1.664   3.747   4.273
 6379SOL    HW120036   1.657   3.826   4.334
 6379SOL    HW220037   1.630   3.771   4.182
 6380SOL     OW20038   0.276   1.544   5.368
 6380SOL    HW120039   0.298   1.641   5.363
 6380SOL    HW220040   0.361   1.491   5.367
 6381SOL     OW20041   3.964   3.027   1.596
 6381SOL    HW120042   4.059   3.007   1.569
 6381SOL    HW220043   3.907   2.948   1.576
 6382SOL     OW20044   2.085   2.236   1.298
 6382SOL    HW120045   2.105   2.138   1.294
 6382SOL    HW220046   2.150   2.281   1.360
 6383SOL     OW20047   1.386   1.979   2.883
 6383SOL    HW120048   1.468   1.969   2.827
 6383SOL    HW220049   1.305   1.955   2.828
 6384SOL     OW20050   6.556   4.265   2.180
 6384SOL    HW120051   6.478   4.306   2.133
 6384SOL    HW220052   6.588   4.185   2.129
 6385SOL     OW20053   0.379   4.598   3.899
 6385SOL    HW120054   0.356   4.639   3.987
 6385SOL    HW220055   0.388   4.499   3.910
 6386SOL     OW20056   2.506   4.984   6.116
 6386SOL    HW120057   2.427   5.040   6.142
 6386SOL    HW220058   2.476   4.908   6.058
 6387SOL     OW20059   0.171   1.800   6.545
 6387SOL    HW120060   0.226   1.728   6.587
 6387SOL    HW220061   0.077   1.766   6.533
 6388SOL     OW20062   3.797   5.869   1.576
 6388SOL    HW120063   3.884   5.846   1.532
 6388SOL    HW220064   3.815   5.905   1.668
 6389SOL     OW20065   0.266   5.900   2.361
 6389SOL    HW120066   0.260   5.810   2.317
 6389SOL    HW220067   0.291   5.888   2.457
 6390SOL     OW20068   0.986   1.169   5.751
 6390SOL    HW120069   0.965   1.096   5.687
 6390SOL    HW220070   0.908   1.183   5.813
 6391SOL     OW20071   2.893   6.919   5.807
 6391SOL    HW120072   2.846   6.964   5.731
 6391SOL    HW220073   2.858   6.953   5.894
 6392SOL     OW20074   2.771   5.365   2.567
 6392SOL    HW120075   2.844   5.309   2.528
 6392SOL    HW220076   2.753   5.335   2.660
 6393SOL     OW20077   6.733   6.852   2.430
 6393SOL    HW120078   6.789   6.840   2.512
 6393SOL    HW220079   6.761   6.786   2.361
 6394SOL     OW20080   2.032   5.304   0.463
 6394SOL    HW120081   1.980   5.267   0.386
 6394SOL    HW220082   2.082   5.386   0.433
 6395SOL     OW20083   0.434   2.303   0.610
 6395SOL    HW120084   0.484   2.381   0.571
 6395SOL    HW220085   0.336   2.323   0.609
 6396SOL     OW20086   4.585   3.003   6.488
 6396SOL    HW120087   4.513   3.070   6.465
 6396SOL    HW220088   4.669   3.027   6.440
 6397SOL     OW20089   5.798   1.728   0.503
 6397SOL    HW120090   5.746   1.705   0.585
 6397SOL    HW220091   5.760   1.678   0.425
 6398SOL     OW20092   2.267   6.663   2.065
 6398SOL    HW120093   2.277   6.566   2.043
 6398SOL    HW220094   2.358   6.702   2.082
 6399SOL     OW20095   1.605   6.386   6.549
 6399SOL    HW120096   1.543   6.429   6.483
 6399SOL    HW220097   1.556   6.316   6.600
 6400SOL     OW20098   2.611   6.171   2.214
 6400SOL    HW120099   2.685   6.107   2.195
 6400SOL    HW220100   2.648   6.253   2.257
 6401SOL     OW20101   5.778   4.914   3.414
 6401SOL    HW120102   5.759   4.894   3.318
 6401SOL    HW220103   5.801   4.829   3.462
 6402SOL     OW20104   3.308   1.908   3.067
 6402SOL    HW120105   3.366   1.944   2.994
 6402SOL    HW220106   3.319   1.964   3.149
 6403SOL     OW20107   0.036   6.083   6.962
 6403SOL    HW120108   0.036   6.079   0.042
 6403SOL    HW220109   0.004   5.995   6.926
 6404SOL     OW20110   4.307   1.204   1.783
 6404SOL    HW120111   4.267   1.276   1.726
 6404SOL    HW220112   4.399   1.232   1.811
 6405SOL     OW20113   2.646   0.398   4.077
 6405SOL    HW120114   2.695   0.314   4.102
 6405SOL    HW220115   2.699   0.478   4.107
 6406SOL     OW20116   0.550   3.025   2.832
 6406SOL    HW120117   0.469   3.021   2.773
 6406SOL    HW220118   0.633   3.024   2.775
 6407SOL     OW20119   2.644   6.215   4.692
 6407SOL    HW120120   2.604   6.261   4.612
 6407SOL    HW220121   2.571   6.189   4.755
 6408SOL     OW20122   5.383   1.764   6.682
 6408SOL    HW120123   5.442   1.683   6.682
 6408SOL    HW220124   5.331   1.766   6.768
 6409SOL     OW20125   6.666   4.493   4.100
 6409SOL    HW120126   6.581   4.449   4.130
 6409SOL    HW220127   6.741   4.426   4.104
 6410SOL     OW20128   1.438   1.562   6.950
 6410SOL    HW120129   1.416   1.468   6.922
 6410SOL    HW220130   1.516   1.560   7.012
 6411SOL     OW20131   1.001   2.905   2.983
 6411SOL    HW120132   0.946   2.835   2.939
 6411SOL    HW220133   0.945   2.985   3.003
 6412SOL     OW20134   0.750   2.567   5.100
 6412SOL    HW120135   0.747   2.510   5.018
 6412SOL    HW220136   0.695   2.649   5.086
 6413SOL     OW20137   4.149   4.875   4.009
 6413SOL    HW120138   4.090   4.842   4.082
 6413SOL    HW220139   4.157   4.805   3.938
 6414SOL     OW20140   5.339   1.084   0.788
 6414SOL    HW120141   5.340   1.042   0.697
 6414SOL    HW220142   5.413   1.151   0.794
 6415SOL     OW20143   1.585   3.224   2.878
 6415SOL    HW120144   1.609   3.220   2.975
 6415SOL    HW220145   1.513   3.156   2.859
 6416SOL     OW20146   1.005   1.428   6.853
 6416SOL    HW120147   0.924   1.381   6.888
 6416SOL    HW220148   0.980   1.487   6.777
 6417SOL     OW20149   6.641   5.175   1.118
 6417SOL    HW120150   6.570   5.180   1.048
 6417SOL    HW220151   6.712   5.111   1.090
 6418SOL     OW20152   4.797   4.122   1.956
 6418SOL    HW120153   4.798   4.036   1.904
 6418SOL    HW220154   4.706   4.162   1.952
 6419SOL     OW20155   2.236   4.822   3.229
 6419SOL    HW120156   2.202   4.749   3.288
 6419SOL    HW220157   2.185   4.822   3.143
 6420SOL     OW20158   3.218   5.255   4.693
 6420SOL    HW120159   3.213   5.211   4.603
 6420SOL    HW220160   3.304   5.304   4.702
 6421SOL     OW20161   5.195   0.401   2.517
 6421SOL    HW120162   5.235   0.459   2.588
 6421SOL    HW220163   5.195   0.306   2.547
 6422SOL     OW20164   0.239   0.687   4.421
 6422SOL    HW120165   0.144   0.656   4.420
 6422SOL    HW220166   0.253   0.751   4.346
 6423SOL     OW20167   4.571   5.351   2.814
 6423SOL    HW120168   4.538   5.418   2.881
 6423SOL    HW220169   4.586   5.396   2.726
 6424SOL     OW20170   6.956   5.999   5.875
 6424SOL    HW120171   6.971   6.039   5.784
 6424SOL    HW220172   0.023   5.966   5.911
 6425SOL     OW20173   6.100   6.533   2.808
 6425SOL    HW120174   6.093   6.471   2.731
 6425SOL    HW220175   6.188   6.519   2.854
 6426SOL     OW20176   1.218   5.252   2.655
 6426SOL    HW120177   1.147   5.184   2.636
 6426SOL    HW220178   1.289   5.247   2.585
 6427SOL     OW20179   3.414   3.354   4.530
 6427SOL    HW120180   3.451   3.262   4.541
 6427SOL    HW220181   3.316   3.354   4.553
 6428SOL     OW20182   5.757   3.372   6.158
 6428SOL    HW120183   5.774   3.445   6.224
 6428SOL    HW220184   5.674   3.393   6.106
 6429SOL     OW20185   2.049   2.105   5.670
 6429SOL    HW120186   2.030   2.051   5.752
 6429SOL    HW220187   2.076   2.044   5.596
 6430SOL     OW20188   6.554   0.952   2.449
 6430SOL    HW120189   6.470   0.969   2.502
 6430SOL    HW220190   6.543   0.868   2.396
 6431SOL     OW20191   5.532   6.918   3.844
 6431SOL    HW120192   5.519   6.999   3.901
 6431SOL    HW220193   5.559   6.947   3.752
 6432SOL     OW20194   4.250   4.262   6.454
 6432SOL    HW120195   4.274   4.172   6.418
 6432SOL    HW220196   4.203   4.315   6.384
 6433SOL     OW20197   2.588   4.907   6.534
 6433SOL    HW120198   2.533   4.826   6.512
 6433SOL    HW220199   2.537   4.965   6.598
 6434SOL     OW20200   2.397   4.008   6.927
 6434SOL    HW120201   2.305   3.996   6.965
 6434SOL    HW220202   2.412   4.105   6.907
 6435SOL     OW20203   4.825   6.835   0.196
 6435SOL    HW120204   4.914   6.805   0.230
 6435SOL    HW220205   4.803   6.925   0.233
 6436SOL     OW20206   2.037   2.989   3.055
 6436SOL    HW120207   2.087   2.926   3.115
 6436SOL    HW220208   2.086   2.999   2.969
 6437SOL     OW20209   2.363   1.962   0.646
 6437SOL    HW120210   2.447   1.930   0.601
 6437SOL    HW220211   2.284   1.912   0.609
 6438SOL     OW20212   6.483   4.695   6.384
 6438SOL    HW120213   6.466   4.601   6.355
 6438SOL    HW220214   6.568   4.699   6.437
 6439SOL     OW20215   5.667   1.144   1.571
 6439SOL    HW120216   5.748   1.104   1.615
 6439SOL    HW220217   5.596   1.159   1.639
 6440SOL     OW20218   2.124   1.302   6.107
 6440SOL    HW120219   2.137   1.387   6.055
 6440SOL    HW220220   2.060   1.319   6.182
 6441SOL     OW20221   6.734   6.502   2.545
 6441SOL    HW120222   6.767   6.579   2.599
 6441SOL    HW220223   6.785   6.497   2.459
 6442SOL     OW20224   2.242   0.930   4.507
 6442SOL    HW120225   2.284   0.963   4.423
 6442SOL    HW220226   2.289   0.848   4.539
 6443SOL     OW20227   3.907   2.411   5.612
 6443SOL    HW120228   3.873   2.318   5.591
 6443SOL    HW220229   3.874   2.438   5.702
 6444SOL     OW20230   5.868   2.663   4.029
 6444SOL    HW120231   5.871   2.763   4.028
 6444SOL    HW220232   5.795   2.633   4.090
 6445SOL     OW20233   4.015   3.252   4.988
 6445SOL    HW120234   4.059   3.342   4.981
 6445SOL    HW220235   4.020   3.220   5.082
 6446SOL     OW20236   1.295   1.047   6.288
 6446SOL    HW120237   1.313   1.145   6.298
 6446SOL    HW220238   1.198   1.029   6.305
 6447SOL     OW20239   5.460   5.075   3.258
 6447SOL    HW120240   5.435   5.133   3.336
 6447SOL    HW220241   5.385   5.012   3.238
 6448SOL     OW20242   4.115   5.434   1.875
 6448SOL    HW120243   4.138   5.337   1.865
 6448SOL    HW220244   4.046   5.459   1.807
 6449SOL     OW20245   3.659   4.925   0.460
 6449SOL    HW120246   3.643   4.889   0.368
 6449SOL    HW220247   3.598   5.003   0.476
 6450SOL     OW20248   0.643   4.070   1.148
 6450SOL    HW120249   0.709   4.138   1.116
 6450SOL    HW220250   0.692   3.994   1.190
 6451SOL     OW20251   2.299   0.313   4.746
 6451SOL    HW120252   2.266   0.221   4.723
 6451SOL    HW220253   2.294   0.372   4.666
 6452SOL     OW20254   4.124   5.893   4.485
 6452SOL    HW120255   4.217   5.896   4.451
 6452SOL    HW220256   4.094   5.798   4.494
 6453SOL     OW20257   2.381   6.255   1.241
 6453SOL    HW120258   2.422   6.229   1.329
 6453SOL    HW220259   2.435   6.329   1.200
 6454SOL     OW20260   2.135   1.841   3.185
 6454SOL    HW120261   2.222   1.888   3.173
 6454SOL    HW220262   2.062   1.908   3.198
 6455SOL     OW20263   0.215   2.512   3.457
 6455SOL    HW120264   0.272   2.520   3.375
 6455SOL    HW220265   0.127   2.472   3.433
 6456SOL     OW20266   0.956   1.038   3.611
 6456SOL    HW120267   0.867   1.008   3.646
 6456SOL    HW220268   1.012   0.958   3.590
 6457SOL     OW20269   4.751   1.890   0.837
 6457SOL    HW120270   4.709   1.981   0.833
 6457SOL    HW220271   4.692   1.829   0.890
 6458SOL     OW20272   0.671   6.425   4.152
 6458SOL    HW120273   0.576   6.401   4.135
 6458SOL    HW220274   0.699   6.498   4.090
 6459SOL     OW20275   6.279   3.477   0.621
 6459SOL    HW120276   6.194   3.448   0.576
 6459SOL    HW220277   6.311   3.404   0.681
 6460SOL     OW20278   5.263   5.971   5.359
 6460SOL    HW120279   5.232   5.906   5.290
 6460SOL    HW220280   5.212   6.057   5.350
 6461SOL     OW20281   2.552   4.897   5.710
 6461SOL    HW120282   2.590   4.960   5.777
 6461SOL    HW220283   2.454   4.916   5.699
 6462SOL     OW20284   2.410   2.685   4.355
 6462SOL    HW120285   2.333   2.646   4.303
 6462SOL    HW220286   2.381   2.772   4.396
 6463SOL     OW20287   6.415   3.460   6.528
 6463SOL    HW120288   6.346   3.434   6.460
 6463SOL    HW220289   6.441   3.555   6.513
 6464SOL     OW20290   1.162   5.427   4.359
 6464SOL    HW120291   1.177   5.526   4.362
 6464SOL    HW220292   1.248   5.382   4.333
 6465SOL     OW20293   6.545   2.888   2.713
 6465SOL    HW120294   6.617   2.900   2.780
 6465SOL    HW220295   6.503   2.798   2.724
 6466SOL     OW20296   1.087   1.375   6.204
 6466SOL    HW120297   1.168   1.358   6.260
 6466SOL    HW220298   1.101   1.338   6.112
 6467SOL     OW20299   3.140   1.291   0.294
 6467SOL    HW120300   3.077   1.233   0.243
 6467SOL    HW220301   3.197   1.235   0.354
 6468SOL     OW20302   3.655   6.180   0.492
 6468SOL    HW120303   3.608   6.139   0.570
 6468SOL    HW220304   3.607   6.156   0.408
 6469SOL     OW20305   5.376   1.263   4.397
 6469SOL    HW120306   5.377   1.291   4.301
 6469SOL    HW220307   5.457   1.209   4.417
 6470SOL     OW20308   6.206   3.983   0.531
 6470SOL    HW120309   6.260   4.055   0.575
 6470SOL    HW220310   6.262   3.901   0.521
 6471SOL     OW20311   6.364   6.707   5.944
 6471SOL    HW120312   6.323   6.654   5.870
 6471SOL    HW220313   6.332   6.801   5.939
 6472SOL     OW20314   0.515   6.149   1.379
 6472SOL    HW120315   0.562   6.168   1.465
 6472SOL    HW220316   0.487   6.236   1.337
 6473SOL     OW20317   3.461   0.929   4.631
 6473SOL    HW120318   3.463   0.894   4.725
 6473SOL    HW220319   3.487   1.025   4.630
 6474SOL     OW20320   2.308   4.551   6.053
 6474SOL    HW120321   2.396   4.504   6.064
 6474SOL    HW220322   2.263   4.558   6.142
 6475SOL     OW20323   6.277   5.070   3.642
 6475SOL    HW120324   6.227   5.059   3.555
 6475SOL    HW220325   6.213   5.059   3.718
 6476SOL     OW20326   4.441   3.599   1.024
 6476SOL    HW120327   4.439   3.699   1.018
 6476SOL    HW220328   4.383   3.560   0.952
 6477SOL     OW20329   6.324   4.707   1.409
 6477SOL    HW120330   6.325   4.693   1.508
 6477SOL    HW220331   6.289   4.799   1.389
 6478SOL     OW20332   3.494   0.359   1.970
 6478SOL    HW120333   3.480   0.429   2.040
 6478SOL    HW220334   3.580   0.311   1.987
 6479SOL     OW20335   4.161   5.465   3.924
 6479SOL    HW120336   4.171   5.547   3.867
 6479SOL    HW220337   4.107   5.486   4.005
 6480SOL     OW20338   2.931   1.659   6.079
 6480SOL    HW120339   2.953   1.564   6.061
 6480SOL    HW220340   2.910   1.671   6.176
 6481SOL     OW20341   3.844   2.027   1.827
 6481SOL    HW120342   3.940   2.056   1.829
 6481SOL    HW220343   3.787   2.098   1.870
 6482SOL     OW20344   0.440   1.042   6.456
 6482SOL    HW120345   0.390   1.048   6.543
 6482SOL    HW220346   0.376   1.033   6.381
 6483SOL     OW20347   1.082   6.282   1.765
 6483SOL    HW120348   1.047   6.227   1.841
 6483SOL    HW220349   1.143   6.352   1.801
 6484SOL     OW20350   3.415   6.686   1.429
 6484SOL    HW120351   3.375   6.670   1.519
 6484SOL    HW220352   3.399   6.781   1.402
 6485SOL     OW20353   2.020   4.994   3.649
 6485SOL    HW120354   1.940   5.026   3.700
 6485SOL    HW220355   2.067   5.073   3.608
 6486SOL     OW20356   2.506   4.881   3.720
 6486SOL    HW120357   2.515   4.816   3.645
 6486SOL    HW220358   2.535   4.971   3.690
 6487SOL     OW20359   6.859   6.429   4.942
 6487SOL    HW120360   6.944   6.385   4.971
 6487SOL    HW220361   6.815   6.374   4.871
 6488SOL     OW20362   3.626   6.270   4.174
 6488SOL    HW120363   3.662   6.336   4.240
 6488SOL    HW220364   3.531   6.294   4.152
 6489SOL     OW20365   3.060   2.621   6.475
 6489SOL    HW120366   3.138   2.565   6.447
 6489SOL    HW220367   2.989   2.562   6.512
 6490SOL     OW20368   4.035   0.678   6.763
 6490SOL    HW120369   4.053   0.777   6.766
 6490SOL    HW220370   4.050   0.644   6.670
 6491SOL     OW20371   3.336   0.261   0.723
 6491SOL    HW120372   3.428   0.291   0.746
 6491SOL    HW220373   3.301   0.314   0.646
 6492SOL     OW20374   4.256   5.170   0.387
 6492SOL    HW120375   4.298   5.099   0.331
 6492SOL    HW220376   4.210   5.129   0.465
 6493SOL     OW20377   1.340   5.003   4.846
 6493SOL    HW120378   1.287   5.074   4.892
 6493SOL    HW220379   1.307   4.992   4.752
 6494SOL     OW20380   0.034   0.516   3.433
 6494SOL    HW120381   0.040   0.438   3.496
 6494SOL    HW220382   0.104   0.583   3.457
 6495SOL     OW20383   5.164   6.765   4.293
 6495SOL    HW120384   5.130   6.853   4.328
 6495SOL    HW220385   5.132   6.691   4.352
 6496SOL     OW20386   6.854   0.564   3.258
 6496SOL    HW120387   6.895   0.642   3.211
 6496SOL    HW220388   6.924   0.516   3.311
 6497SOL     OW20389   1.868   2.532   0.884
 6497SOL    HW120390   1.813   2.614   0.900
 6497SOL    HW220391   1.828   2.481   0.808
 6498SOL     OW20392   2.202   4.180   3.163
 6498SOL    HW120393   2.238   4.216   3.078
 6498SOL    HW220394   2.243   4.229   3.240
 6499SOL     OW20395   5.027   2.768   4.946
 6499SOL    HW120396   5.032   2.671   4.924
 6499SOL    HW220397   5.095   2.818   4.894
 6500SOL     OW20398   0.011   3.974   3.899
 6500SOL    HW120399   0.043   4.066   3.876
 6500SOL    HW220400   6.937   3.962   3.867
 6501SOL     OW20401   6.950   2.239   6.757
 6501SOL    HW120402   6.852   2.257   6.764
 6501SOL    HW220403   6.996   2.278   6.837
 6502SOL     OW20404   6.185   2.532   1.863
 6502SOL    HW120405   6.129   2.456   1.895
 6502SOL    HW220406   6.158   2.558   1.771
 6503SOL     OW20407   4.763   1.550   3.030
 6503SOL    HW120408   4.827   1.538   2.954
 6503SOL    HW220409   4.776   1.641   3.070
 6504SOL     OW20410   4.555   5.823   5.994
 6504SOL    HW120411   4.519   5.781   6.077
 6504SOL    HW220412   4.589   5.752   5.933
 6505SOL     OW20413   5.549   6.028   1.184
 6505SOL    HW120414   5.606   5.962   1.233
 6505SOL    HW220415   5.605   6.079   1.119
 6506SOL     OW20416   6.796   2.726   2.230
 6506SOL    HW120417   6.801   2.632   2.196
 6506SOL    HW220418   6.745   2.727   2.316
 6507SOL     OW20419   1.958   5.112   5.636
 6507SOL    HW120420   2.040   5.061   5.608
 6507SOL    HW220421   1.888   5.104   5.565
 6508SOL     OW20422   1.058   0.800   2.787
 6508SOL    HW120423   0.971   0.802   2.835
 6508SOL    HW220424   1.111   0.882   2.810
 6509SOL     OW20425   2.851   1.906   4.478
 6509SOL    HW120426   2.782   1.952   4.422
 6509SOL    HW220427   2.836   1.929   4.575
 6510SOL     OW20428   6.294   5.002   7.000
 6510SOL    HW120429   6.267   5.092   6.966
 6510SOL    HW220430   6.337   4.950   6.926
 6511SOL     OW20431   4.508   1.516   4.535
 6511SOL    HW120432   4.500   1.419   4.511
 6511SOL    HW220433   4.549   1.524   4.626
 6512SOL     OW20434   4.732   6.204   2.096
 6512SOL    HW120435   4.679   6.287   2.112
 6512SOL    HW220436   4.723   6.177   2.000
 6513SOL     OW20437   3.308   5.302   2.909
 6513SOL    HW120438   3.275   5.388   2.871
 6513SOL    HW220439   3.262   5.283   2.996
 6514SOL     OW20440   5.976   1.110   3.979
 6514SOL    HW120441   5.957   1.017   4.010
 6514SOL    HW220442   6.026   1.107   3.892
 6515SOL     OW20443   0.380   4.698   4.820
 6515SOL    HW120444   0.389   4.695   4.720
 6515SOL    HW220445   0.338   4.785   4.847
 6516SOL     OW20446   6.965   3.397   1.376
 6516SOL    HW120447   6.926   3.421   1.465
 6516SOL    HW220448   6.891   3.384   1.310
 6517SOL     OW20449   6.287   0.482   0.957
 6517SOL    HW120450   6.269   0.442   0.868
 6517SOL    HW220451   6.316   0.577   0.946
 6518SOL     OW20452   6.747   6.714   6.575
 6518SOL    HW120453   6.677   6.655   6.534
 6518SOL    HW220454   6.712   6.753   6.660
 6519SOL     OW20455   1.529   1.555   3.516
 6519SOL    HW120456   1.622   1.543   3.481
 6519SOL    HW220457   1.524   1.641   3.567
 6520SOL     OW20458   5.459   5.577   2.622
 6520SOL    HW120459   5.462   5.665   2.573
 6520SOL    HW220460   5.453   5.595   2.720
 6521SOL     OW20461   2.208   3.151   4.307
 6521SOL    HW120462   2.252   3.086   4.368
 6521SOL    HW220463   2.117   3.175   4.343
 6522SOL     OW20464   3.973   4.366   0.018
 6522SOL    HW120465   4.007   4.423   0.093
 6522SOL    HW220466   3.958   4.423   6.958
 6523SOL     OW20467   4.377   1.459   6.821
 6523SOL    HW120468   4.414   1.536   6.873
 6523SOL    HW220469   4.383   1.376   6.876
 6524SOL     OW20470   2.986   3.970   1.642
 6524SOL    HW120471   2.909   4.029   1.617
 6524SOL    HW220472   2.962   3.875   1.624
 6525SOL     OW20473   2.009   4.698   2.628
 6525SOL    HW120474   1.965   4.647   2.703
 6525SOL    HW220475   2.102   4.721   2.654
 6526SOL     OW20476   2.368   6.687   6.723
 6526SOL    HW120477   2.382   6.594   6.688
 6526SOL    HW220478   2.456   6.727   6.746
 6527SOL     OW20479   0.844   2.831   4.822
 6527SOL    HW120480   0.835   2.913   4.767
 6527SOL    HW220481   0.932   2.831   4.870
 6528SOL     OW20482   6.834   0.911   5.053
 6528SOL    HW120483   6.750   0.857   5.062
 6528SOL    HW220484   6.868   0.905   4.959
 6529SOL     OW20485   1.246   1.670   2.767
 6529SOL    HW120486   1.233   1.768   2.748
 6529SOL    HW220487   1.341   1.654   2.794
 6530SOL     OW20488   6.944   3.901   0.340
 6530SOL    HW120489   7.012   3.835   0.370
 6530SOL    HW220490   6.925   3.887   0.243
 6531SOL     OW20491   5.657   2.860   5.045
 6531SOL    HW120492   5.614   2.858   4.955
 6531SOL    HW220493   5.609   2.926   5.103
 6532SOL     OW20494   6.364   0.960   0.255
 6532SOL    HW120495   6.275   0.985   0.293
 6532SOL    HW220496   6.373   0.996   0.162
 6533SOL     OW20497   4.483   0.135   1.474
 6533SOL    HW120498   4.478   0.234   1.460
 6533SOL    HW220499   4.421   0.108   1.547
 6534SOL     OW20500   3.489   4.081   1.398
 6534SOL    HW120501   3.401   4.089   1.446
 6534SOL    HW220502   3.537   4.169   1.403
 6535SOL     OW20503   6.306   3.836   4.557
 6535SOL    HW120504   6.379   3.787   4.509
 6535SOL    HW220505   6.244   3.771   4.600
 6536SOL     OW20506   1.192   1.549   5.778
 6536SOL    HW120507   1.109   1.601   5.798
 6536SOL    HW220508   1.268   1.613   5.762
 6537SOL     OW20509   6.720   5.284   6.983
 6537SOL    HW120510   6.686   5.252   0.051
 6537SOL    HW220511   6.713   5.210   6.916
 6538SOL     OW20512   2.771   3.231   7.007
 6538SOL    HW120513   2.822   3.154   0.025
 6538SOL    HW220514   2.778   3.228   6.907
 6539SOL     OW20515   3.893   0.796   5.982
 6539SOL    HW120516   3.831   0.755   5.915
 6539SOL    HW220517   3.982   0.751   5.977
 6540SOL     OW20518   4.555   1.807   5.462
 6540SOL    HW120519   4.533   1.847   5.551
 6540SOL    HW220520   4.574   1.710   5.473
 6541SOL     OW20521   4.744   1.909   5.214
 6541SOL    HW120522   4.712   1.814   5.224
 6541SOL    HW220523   4.722   1.960   5.297
 6542SOL     OW20524   6.116   4.295   4.297
 6542SOL    HW120525   6.072   4.375   4.255
 6542SOL    HW220526   6.144   4.318   4.390
 6543SOL     OW20527   6.023   3.130   5.447
 6543SOL    HW120528   6.103   3.099   5.395
 6543SOL    HW220529   6.028   3.096   5.541
 6544SOL     OW20530   0.418   6.596   2.902
 6544SOL    HW120531   0.402   6.667   2.971
 6544SOL    HW220532   0.373   6.621   2.817
 6545SOL     OW20533   4.568   1.847   0.492
 6545SOL    HW120534   4.548   1.939   0.457
 6545SOL    HW220535   4.488   1.810   0.538
 6546SOL     OW20536   3.485   4.368   6.975
 6546SOL    HW120537   3.575   4.381   7.016
 6546SOL    HW220538   3.426   4.444   7.000
 6547SOL     OW20539   4.449   1.516   5.651
 6547SOL    HW120540   4.538   1.508   5.608
 6547SOL    HW220541   4.458   1.560   5.740
 6548SOL     OW20542   1.021   4.366   0.005
 6548SOL    HW120543   0.986   4.387   6.934
 6548SOL    HW220544   1.109   4.319   7.017
 6549SOL     OW20545   4.503   1.046   1.229
 6549SOL    HW120546   4.508   0.988   1.310
 6549SOL    HW220547   4.442   1.123   1.247
 6550SOL     OW20548   0.417   6.601   4.407
 6550SOL    HW120549   0.489   6.532   4.418
 6550SOL    HW220550   0.341   6.561   4.355
 6551SOL     OW20551   1.601   4.971   2.666
 6551SOL    HW120552   1.540   5.037   2.624
 6551SOL    HW220553   1.549   4.889   2.693
 6552SOL     OW20554   2.020   6.610   5.589
 6552SOL    HW120555   1.954   6.574   5.523
 6552SOL    HW220556   1.971   6.655   5.664
 6553SOL     OW20557   0.752   2.203   3.138
 6553SOL    HW120558   0.762   2.289   3.187
 6553SOL    HW220559   0.780   2.127   3.197
 6554SOL     OW20560   0.038   1.124   5.131
 6554SOL    HW120561   7.003   1.041   5.137
 6554SOL    HW220562   7.014   1.189   5.069
 6555SOL     OW20563   6.986   2.255   2.405
 6555SOL    HW120564   6.957   2.229   2.313
 6555SOL    HW220565   0.010   2.345   2.401
 6556SOL     OW20566   5.583   4.503   4.751
 6556SOL    HW120567   5.564   4.577   4.686
 6556SOL    HW220568   5.618   4.543   4.836
 6557SOL     OW20569   3.265   6.503   1.578
 6557SOL    HW120570   3.179   6.512   1.529
 6557SOL    HW220571   3.331   6.455   1.519
 6558SOL     OW20572   6.164   4.729   0.270
 6558SOL    HW120573   6.236   4.790   0.303
 6558SOL    HW220574   6.093   4.784   0.225
 6559SOL     OW20575   1.139   4.390   6.169
 6559SOL    HW120576   1.217   4.358   6.117
 6559SOL    HW220577   1.111   4.480   6.135
 6560SOL     OW20578   4.502   5.487   1.022
 6560SOL    HW120579   4.468   5.393   1.027
 6560SOL    HW220580   4.589   5.488   0.972
 6561SOL     OW20581   3.741   3.991   1.670
 6561SOL    HW120582   3.693   3.904   1.669
 6561SOL    HW220583   3.681   4.062   1.709
 6562SOL     OW20584   5.623   3.937   1.076
 6562SOL    HW120585   5.525   3.921   1.085
 6562SOL    HW220586   5.672   3.873   1.136
 6563SOL     OW20587   5.825   6.621   0.672
 6563SOL    HW120588   5.892   6.553   0.703
 6563SOL    HW220589   5.804   6.606   0.576
 6564SOL     OW20590   6.946   4.368   3.372
 6564SOL    HW120591   6.911   4.364   3.466
 6564SOL    HW220592   6.896   4.437   3.321
 6565SOL     OW20593   6.509   2.736   3.679
 6565SOL    HW120594   6.481   2.641   3.689
 6565SOL    HW220595   6.607   2.741   3.661
 6566SOL     OW20596   3.790   5.886   2.656
 6566SOL    HW120597   3.831   5.960   2.709
 6566SOL    HW220598   3.831   5.799   2.684
 6567SOL     OW20599   4.166   1.422   1.687
 6567SOL    HW120600   4.145   1.447   1.592
 6567SOL    HW220601   4.082   1.426   1.741
 6568SOL     OW20602   4.088   1.326   3.987
 6568SOL    HW120603   4.127   1.413   3.958
 6568SOL    HW220604   4.019   1.343   4.058
 6569SOL     OW20605   2.790   3.411   6.527
 6569SOL    HW120606   2.794   3.484   6.459
 6569SOL    HW220607   2.861   3.343   6.508
 6570SOL     OW20608   3.830   0.240   2.538
 6570SOL    HW120609   3.819   0.205   2.445
 6570SOL    HW220610   3.880   0.327   2.536
 6571SOL     OW20611   2.519   5.443   2.080
 6571SOL    HW120612   2.435   5.496   2.095
 6571SOL    HW220613   2.568   5.435   2.166
 6572SOL     OW20614   6.683   4.949   6.005
 6572SOL    HW120615   6.626   5.028   6.027
 6572SOL    HW220616   6.773   4.959   6.048
 6573SOL     OW20617   2.673   1.636   2.002
 6573SOL    HW120618   2.602   1.607   2.066
 6573SOL    HW220619   2.744   1.686   2.052
 6574SOL     OW20620   3.550   5.610   2.831
 6574SOL    HW120621   3.487   5.648   2.899
 6574SOL    HW220622   3.592   5.527   2.868
 6575SOL     OW20623   1.155   0.458   2.321
 6575SOL    HW120624   1.061   0.431   2.342
 6575SOL    HW220625   1.183   0.531   2.382
 6576SOL     OW20626   2.426   5.788   6.317
 6576SOL    HW120627   2.395   5.884   6.316
 6576SOL    HW220628   2.364   5.733   6.261
 6577SOL     OW20629   0.533   1.100   4.118
 6577SOL    HW120630   0.630   1.114   4.098
 6577SOL    HW220631   0.477   1.156   4.057
 6578SOL     OW20632   1.250   4.334   2.998
 6578SOL    HW120633   1.174   4.276   3.025
 6578SOL    HW220634   1.238   4.425   3.037
 6579SOL     OW20635   6.805   3.487   5.241
 6579SOL    HW120636   6.812   3.499   5.340
 6579SOL    HW220637   6.813   3.577   5.197
 6580SOL     OW20638   6.831   2.046   0.741
 6580SOL    HW120639   6.846   1.992   0.659
 6580SOL    HW220640   6.873   2.137   0.730
 6581SOL     OW20641   2.255   1.313   0.095
 6581SOL    HW120642   2.204   1.275   0.172
 6581SOL    HW220643   2.350   1.329   0.123
 6582SOL     OW20644   1.334   1.221   1.496
 6582SOL    HW120645   1.410   1.186   1.441
 6582SOL    HW220646   1.253   1.232   1.438
 6583SOL     OW20647   3.359   0.237   4.468
 6583SOL    HW120648   3.445   0.187   4.472
 6583SOL    HW220649   3.292   0.192   4.529
 6584SOL     OW20650   4.178   1.748   0.355
 6584SOL    HW120651   4.138   1.709   0.272
 6584SOL    HW220652   4.258   1.803   0.331
 6585SOL     OW20653   6.510   6.450   0.166
 6585SOL    HW120654   6.561   6.454   0.080
 6585SOL    HW220655   6.572   6.427   0.241
 6586SOL     OW20656   0.036   1.582   5.928
 6586SOL    HW120657   0.022   1.484   5.942
 6586SOL    HW220658   0.076   1.621   6.011
 6587SOL     OW20659   2.466   6.222   4.895
 6587SOL    HW120660   2.514   6.309   4.886
 6587SOL    HW220661   2.508   6.168   4.967
 6588SOL     OW20662   1.124   4.095   1.924
 6588SOL    HW120663   1.212   4.048   1.925
 6588SOL    HW220664   1.063   4.049   1.860
 6589SOL     OW20665   5.111   0.488   0.310
 6589SOL    HW120666   5.025   0.534   0.290
 6589SOL    HW220667   5.157   0.464   0.224
 6590SOL     OW20668   1.003   0.929   5.307
 6590SOL    HW120669   0.963   1.018   5.332
 6590SOL    HW220670   1.101   0.930   5.324
 6591SOL     OW20671   5.484   5.985   1.787
 6591SOL    HW120672   5.418   5.929   1.838
 6591SOL    HW220673   5.570   5.991   1.837
 6592SOL     OW20674   6.158   6.983   4.210
 6592SOL    HW120675   6.098   6.993   4.290
 6592SOL    HW220676   6.219   6.904   4.224
 6593SOL     OW20677   2.753   1.816   2.929
 6593SOL    HW120678   2.833   1.831   2.987
 6593SOL    HW220679   2.670   1.835   2.981
 6594SOL     OW20680   3.454   2.215   0.087
 6594SOL    HW120681   3.460   2.278   0.010
 6594SOL    HW220682   3.483   2.124   0.058
 6595SOL     OW20683   0.901   3.617   0.456
 6595SOL    HW120684   0.817   3.636   0.405
 6595SOL    HW220685   0.898   3.523   0.491
 6596SOL     OW20686   3.275   6.130   4.439
 6596SOL    HW120687   3.191   6.169   4.403
 6596SOL    HW220688   3.283   6.034   4.410
 6597SOL     OW20689   2.645   5.462   2.334
 6597SOL    HW120690   2.659   5.480   2.431
 6597SOL    HW220691   2.654   5.364   2.317
 6598SOL     OW20692   1.410   6.746   4.183
 6598SOL    HW120693   1.312   6.748   4.162
 6598SOL    HW220694   1.423   6.742   4.282
 6599SOL     OW20695   5.208   6.970   5.556
 6599SOL    HW120696   5.225   6.881   5.599
 6599SOL    HW220697   5.295   7.012   5.530
 6600SOL     OW20698   4.992   5.272   6.210
 6600SOL    HW120699   5.078   5.246   6.167
 6600SOL    HW220700   4.935   5.321   6.144
 6601SOL     OW20701   1.010   2.050   5.277
 6601SOL    HW120702   0.946   1.989   5.232
 6601SOL    HW220703   1.039   2.121   5.213
 6602SOL     OW20704   0.927   1.568   1.549
 6602SOL    HW120705   0.876   1.544   1.631
 6602SOL    HW220706   0.947   1.485   1.496
 6603SOL     OW20707   0.522   2.828   3.853
 6603SOL    HW120708   0.600   2.850   3.910
 6603SOL    HW220709   0.483   2.741   3.882
 6604SOL     OW20710   2.204   6.742   1.345
 6604SOL    HW120711   2.133   6.773   1.281
 6604SOL    HW220712   2.182   6.650   1.376
 6605SOL     OW20713   5.497   3.810   1.739
 6605SOL    HW120714   5.500   3.910   1.738
 6605SOL    HW220715   5.446   3.779   1.819
 6606SOL     OW20716   6.531   6.376   2.331
 6606SOL    HW120717   6.511   6.474   2.333
 6606SOL    HW220718   6.507   6.339   2.241
 6607SOL     OW20719   1.490   3.012   2.589
 6607SOL    HW120720   1.539   2.942   2.641
 6607SOL    HW220721   1.512   3.001   2.492
 6608SOL     OW20722   6.374   6.669   1.438
 6608SOL    HW120723   6.299   6.685   1.503
 6608SOL    HW220724   6.337   6.667   1.346
 6609SOL     OW20725   4.769   0.937   5.599
 6609SOL    HW120726   4.768   0.952   5.698
 6609SOL    HW220727   4.863   0.934   5.567
 6610SOL     OW20728   2.264   0.745   6.853
 6610SOL    HW120729   2.227   0.828   6.811
 6610SOL    HW220730   2.210   0.720   6.933
 6611SOL     OW20731   6.335   3.181   3.517
 6611SOL    HW120732   6.251   3.145   3.476
 6611SOL    HW220733   6.380   3.109   3.568
 6612SOL     OW20734   6.427   1.785   6.647
 6612SOL    HW120735   6.525   1.766   6.638
 6612SOL    HW220736   6.414   1.860   6.712
 6613SOL     OW20737   6.755   6.151   5.099
 6613SOL    HW120738   6.765   6.249   5.120
 6613SOL    HW220739   6.685   6.141   5.028
 6614SOL     OW20740   5.419   6.297   0.919
 6614SOL    HW120741   5.356   6.351   0.975
 6614SOL    HW220742   5.508   6.341   0.915
 6615SOL     OW20743   1.399   4.830   2.242
 6615SOL    HW120744   1.483   4.878   2.263
 6615SOL    HW220745   1.354   4.873   2.164
 6616SOL     OW20746   3.465   1.094   6.432
 6616SOL    HW120747   3.380   1.040   6.437
 6616SOL    HW220748   3.527   1.065   6.505
 6617SOL     OW20749   3.909   4.855   2.954
 6617SOL    HW120750   3.979   4.915   2.917
 6617SOL    HW220751   3.917   4.851   3.053
 6618SOL     OW20752   1.117   2.764   2.389
 6618SOL    HW120753   1.126   2.808   2.479
 6618SOL    HW220754   1.185   2.691   2.381
 6619SOL     OW20755   6.291   0.007   4.528
 6619SOL    HW120756   6.301   0.043   4.621
 6619SOL    HW220757   6.196   0.017   4.499
 6620SOL     OW20758   1.221   2.783   5.552
 6620SOL    HW120759   1.312   2.809   5.519
 6620SOL    HW220760   1.212   2.683   5.550
 6621SOL     OW20761   2.082   3.080   6.566
 6621SOL    HW120762   2.057   3.055   6.660
 6621SOL    HW220763   2.106   3.178   6.563
 6622SOL     OW20764   5.619   0.042   1.470
 6622SOL    HW120765   5.525   0.018   1.447
 6622SOL    HW220766   5.642   0.131   1.431
 6623SOL     OW20767   2.498   3.166   6.413
 6623SOL    HW120768   2.533   3.242   6.358
 6623SOL    HW220769   2.541   3.167   6.503
 6624SOL     OW20770   0.880   5.740   5.059
 6624SOL    HW120771   0.961   5.702   5.105
 6624SOL    HW220772   0.886   5.840   5.060
 6625SOL     OW20773   5.119   2.221   5.480
 6625SOL    HW120774   5.196   2.280   5.503
 6625SOL    HW220775   5.123   2.197   5.383
 6626SOL     OW20776   5.053   5.564   5.959
 6626SOL    HW120777   5.129   5.513   5.920
 6626SOL    HW220778   5.089   5.641   6.013
 6627SOL     OW20779   2.622   0.072   5.095
 6627SOL    HW120780   2.544   0.033   5.047
 6627SOL    HW220781   2.630   0.170   5.074
 6628SOL     OW20782   4.676   4.499   4.890
 6628SOL    HW120783   4.630   4.443   4.959
 6628SOL    HW220784   4.630   4.587   4.883
 6629SOL     OW20785   4.712   6.149   0.234
 6629SOL    HW120786   4.670   6.095   0.307
 6629SOL    HW220787   4.798   6.105   0.206
 6630SOL     OW20788   3.973   1.089   1.780
 6630SOL    HW120789   3.987   1.185   1.756
 6630SOL    HW220790   3.930   1.041   1.704
 6631SOL     OW20791   2.590   5.414   2.963
 6631SOL    HW120792   2.677   5.399   2.916
 6631SOL    HW220793   2.593   5.371   3.053
 6632SOL     OW20794   0.219   6.258   1.142
 6632SOL    HW120795   0.158   6.298   1.073
 6632SOL    HW220796   0.218   6.159   1.134
 6633SOL     OW20797   0.981   4.379   6.479
 6633SOL    HW120798   1.007   4.405   6.386
 6633SOL    HW220799   0.893   4.330   6.476
 6634SOL     OW20800   6.078   2.246   3.855
 6634SOL    HW120801   5.978   2.245   3.866
 6634SOL    HW220802   6.111   2.340   3.855
 6635SOL     OW20803   4.222   4.659   3.021
 6635SOL    HW120804   4.229   4.630   2.926
 6635SOL    HW220805   4.252   4.585   3.081
 6636SOL     OW20806   4.819   2.645   5.704
 6636SOL    HW120807   4.800   2.633   5.801
 6636SOL    HW220808   4.737   2.680   5.658
 6637SOL     OW20809   1.423   0.108   6.377
 6637SOL    HW120810   1.509   0.144   6.341
 6637SOL    HW220811   1.439   0.067   6.467
 6638SOL     OW20812   3.166   3.685   4.111
 6638SOL    HW120813   3.170   3.591   4.143
 6638SOL    HW220814   3.072   3.707   4.085
 6639SOL     OW20815   5.724   5.150   6.515
 6639SOL    HW120816   5.710   5.248   6.502
 6639SOL    HW220817   5.819   5.128   6.495
 6640SOL     OW20818   1.289   1.931   5.301
 6640SOL    HW120819   1.344   2.014   5.287
 6640SOL    HW220820   1.194   1.950   5.274
 6641SOL     OW20821   2.138   1.903   6.822
 6641SOL    HW120822   2.054   1.853   6.801
 6641SOL    HW220823   2.156   1.970   6.750
 6642SOL     OW20824   3.426   4.897   6.431
 6642SOL    HW120825   3.436   4.814   6.487
 6642SOL    HW220826   3.343   4.889   6.376
 6643SOL     OW20827   6.204   5.334   0.456
 6643SOL    HW120828   6.280   5.339   0.392
 6643SOL    HW220829   6.150   5.252   0.438
 6644SOL     OW20830   2.388   4.839   2.115
 6644SOL    HW120831   2.419   4.756   2.067
 6644SOL    HW220832   2.292   4.828   2.141
 6645SOL     OW20833   6.668   5.288   0.521
 6645SOL    HW120834   6.735   5.362   0.523
 6645SOL    HW220835   6.613   5.295   0.437
 6646SOL     OW20836   3.858   0.036   5.103
 6646SOL    HW120837   3.763   0.005   5.105
 6646SOL    HW220838   3.862   0.135   5.093
 6647SOL     OW20839   4.328   1.265   2.510
 6647SOL    HW120840   4.271   1.211   2.571
 6647SOL    HW220841   4.291   1.262   2.417
 6648SOL     OW20842   4.107   0.209   2.268
 6648SOL    HW120843   4.090   0.142   2.340
 6648SOL    HW220844   4.077   0.299   2.299
 6649SOL     OW20845   5.811   0.530   6.932
 6649SOL    HW120846   5.886   0.518   6.997
 6649SOL    HW220847   5.724   0.515   6.978
 6650SOL     OW20848   2.908   1.576   5.007
 6650SOL    HW120849   2.928   1.589   5.104
 6650SOL    HW220850   2.987   1.606   4.953
 6651SOL     OW20851   2.144   1.672   5.692
 6651SOL    HW120852   2.130   1.766   5.661
 6651SOL    HW220853   2.238   1.644   5.672
 6652SOL     OW20854   0.367   4.751   0.748
 6652SOL    HW120855   0.435   4.764   0.676
 6652SOL    HW220856   0.407   4.777   0.836
 6653SOL     OW20857   3.548   2.828   2.692
 6653SOL    HW120858   3.469   2.777   2.659
 6653SOL    HW220859   3.518   2.912   2.737
 6654SOL     OW20860   1.819   3.634   1.663
 6654SOL    HW120861   1.720   3.641   1.677
 6654SOL    HW220862   1.852   3.716   1.617
 6655SOL     OW20863   1.635   6.905   2.736
 6655SOL    HW120864   1.536   6.896   2.733
 6655SOL    HW220865   1.661   7.000   2.717
 6656SOL     OW20866   6.452   1.985   2.433
 6656SOL    HW120867   6.551   1.978   2.424
 6656SOL    HW220868   6.430   2.032   2.518
 6657SOL     OW20869   5.979   6.457   6.546
 6657SOL    HW120870   6.005   6.469   6.450
 6657SOL    HW220871   5.932   6.540   6.577
 6658SOL     OW20872   6.576   0.897   5.346
 6658SOL    HW120873   6.546   0.822   5.405
 6658SOL    HW220874   6.563   0.871   5.250
 6659SOL     OW20875   2.225   2.484   0.387
 6659SOL    HW120876   2.224   2.518   0.293
 6659SOL    HW220877   2.139   2.507   0.433
 6660SOL     OW20878   0.996   5.598   0.872
 6660SOL    HW120879   0.991   5.649   0.958
 6660SOL    HW220880   0.940   5.643   0.803
 6661SOL     OW20881   0.861   6.569   4.554
 6661SOL    HW120882   0.918   6.651   4.565
 6661SOL    HW220883   0.916   6.488   4.573
 6662SOL     OW20884   0.617   1.131   0.192
 6662SOL    HW120885   0.529   1.177   0.175
 6662SOL    HW220886   0.683   1.197   0.227
 6663SOL     OW20887   0.203   5.523   4.024
 6663SOL    HW120888   0.168   5.451   4.083
 6663SOL    HW220889   0.271   5.484   3.961
 6664SOL     OW20890   2.707   6.081   6.992
 6664SOL    HW120891   2.702   5.988   6.956
 6664SOL    HW220892   2.736   6.144   6.919
 6665SOL     OW20893   1.472   6.342   4.057
 6665SOL    HW120894   1.551   6.298   4.015
 6665SOL    HW220895   1.392   6.328   3.999
 6666SOL     OW20896   5.456   6.914   5.804
 6666SOL    HW120897   5.376   6.880   5.755
 6666SOL    HW220898   5.481   7.005   5.769
 6667SOL     OW20899   6.706   5.752   6.432
 6667SOL    HW120900   6.709   5.846   6.398
 6667SOL    HW220901   6.626   5.705   6.395
 6668SOL     OW20902   6.804   5.946   1.461
 6668SOL    HW120903   6.860   5.918   1.539
 6668SOL    HW220904   6.760   6.033   1.481
 6669SOL     OW20905   1.741   2.413   3.608
 6669SOL    HW120906   1.656   2.424   3.556
 6669SOL    HW220907   1.767   2.500   3.649
 6670SOL     OW20908   3.967   2.575   5.390
 6670SOL    HW120909   3.990   2.502   5.455
 6670SOL    HW220910   4.027   2.570   5.311
 6671SOL     OW20911   6.086   5.804   1.097
 6671SOL    HW120912   6.010   5.840   1.043
 6671SOL    HW220913   6.149   5.879   1.119
 6672SOL     OW20914   6.667   1.656   6.317
 6672SOL    HW120915   6.657   1.740   6.369
 6672SOL    HW220916   6.620   1.664   6.230
 6673SOL     OW20917   5.559   6.167   3.675
 6673SOL    HW120918   5.530   6.193   3.767
 6673SOL    HW220919   5.568   6.067   3.670
 6674SOL     OW20920   0.895   4.989   6.012
 6674SOL    HW120921   0.893   5.022   5.918
 6674SOL    HW220922   0.803   4.964   6.041
 6675SOL     OW20923   4.887   3.419   1.930
 6675SOL    HW120924   4.868   3.341   1.870
 6675SOL    HW220925   4.926   3.386   2.016
 6676SOL     OW20926   6.976   4.161   5.747
 6676SOL    HW120927   0.012   4.102   5.806
 6676SOL    HW220928   6.880   4.138   5.760
 6677SOL     OW20929   1.216   1.936   6.405
 6677SOL    HW120930   1.182   1.842   6.414
 6677SOL    HW220931   1.311   1.941   6.437
 6678SOL     OW20932   3.140   3.142   6.715
 6678SOL    HW120933   3.235   3.112   6.703
 6678SOL    HW220934   3.080   3.081   6.663
 6679SOL     OW20935   2.274   1.649   3.857
 6679SOL    HW120936   2.203   1.688   3.914
 6679SOL    HW220937   2.236   1.627   3.767
 6680SOL     OW20938   4.441   0.142   6.424
 6680SOL    HW120939   4.392   0.182   6.501
 6680SOL    HW220940   4.503   0.070   6.458
 6681SOL     OW20941   4.464   5.823   0.726
 6681SOL    HW120942   4.535   5.821   0.797
 6681SOL    HW220943   4.423   5.733   0.716
 6682SOL     OW20944   1.131   4.311   3.310
 6682SOL    HW120945   1.128   4.383   3.240
 6682SOL    HW220946   1.214   4.256   3.299
 6683SOL     OW20947   5.938   2.787   5.457
 6683SOL    HW120948   6.013   2.807   5.521
 6683SOL    HW220949   5.961   2.822   5.367
 6684SOL     OW20950   2.527   6.660   1.554
 6684SOL    HW120951   2.507   6.752   1.520
 6684SOL    HW220952   2.590   6.666   1.631
 6685SOL     OW20953   6.185   3.482   5.865
 6685SOL    HW120954   6.111   3.541   5.834
 6685SOL    HW220955   6.179   3.472   5.964
 6686SOL     OW20956   5.339   6.067   4.737
 6686SOL    HW120957   5.370   6.116   4.818
 6686SOL    HW220958   5.339   5.968   4.755
 6687SOL     OW20959   0.835   3.200   0.379
 6687SOL    HW120960   0.792   3.251   0.305
 6687SOL    HW220961   0.921   3.160   0.346
 6688SOL     OW20962   7.018   4.544   1.873
 6688SOL    HW120963   0.041   4.482   1.808
 6688SOL    HW220964   0.037   4.531   1.964
 6689SOL     OW20965   4.590   2.947   6.996
 6689SOL    HW120966   4.500   2.990   7.003
 6689SOL    HW220967   4.608   2.922   6.901
 6690SOL     OW20968   2.439   0.990   0.883
 6690SOL    HW120969   2.379   0.914   0.906
 6690SOL    HW220970   2.516   0.993   0.947
 6691SOL     OW20971   2.890   6.150   1.332
 6691SOL    HW120972   2.836   6.087   1.277
 6691SOL    HW220973   2.932   6.101   1.408
 6692SOL     OW20974   3.998   3.994   5.118
 6692SOL    HW120975   4.029   3.927   5.051
 6692SOL    HW220976   3.913   4.036   5.087
 6693SOL     OW20977   4.234   3.820   5.502
 6693SOL    HW120978   4.239   3.908   5.453
 6693SOL    HW220979   4.194   3.751   5.442
 6694SOL     OW20980   4.715   5.166   0.574
 6694SOL    HW120981   4.791   5.207   0.523
 6694SOL    HW220982   4.721   5.066   0.569
 6695SOL     OW20983   3.024   1.285   6.864
 6695SOL    HW120984   2.953   1.317   6.925
 6695SOL    HW220985   3.045   1.357   6.797
 6696SOL     OW20986   1.203   2.919   5.851
 6696SOL    HW120987   1.221   2.875   5.763
 6696SOL    HW220988   1.133   2.868   5.900
 6697SOL     OW20989   4.939   2.360   2.513
 6697SOL    HW120990   4.888   2.305   2.579
 6697SOL    HW220991   4.875   2.397   2.445
 6698SOL     OW20992   2.697   2.673   1.260
 6698SOL    HW120993   2.608   2.678   1.213
 6698SOL    HW220994   2.749   2.596   1.223
 6699SOL     OW20995   3.018   5.181   5.922
 6699SOL    HW120996   3.051   5.246   5.990
 6699SOL    HW220997   2.939   5.220   5.874
 6700SOL     OW20998   0.077   6.725   0.354
 6700SOL    HW120999   0.150   6.658   0.366
 6700SOL    HW221000   0.067   6.779   0.437
 6701SOL     OW21001   5.497   2.794   1.626
 6701SOL    HW121002   5.581   2.739   1.621
 6701SOL    HW221003   5.521   2.891   1.633
 6702SOL     OW21004   2.801   2.015   1.775
 6702SOL    HW121005   2.852   2.025   1.689
 6702SOL    HW221006   2.756   2.102   1.797
 6703SOL     OW21007   6.514   2.244   6.665
 6703SOL    HW121008   6.556   2.270   6.578
 6703SOL    HW221009   6.584   2.237   6.735
 6704SOL     OW21010   3.575   1.996   3.025
 6704SOL    HW121011   3.519   2.071   2.988
 6704SOL    HW221012   3.539   1.968   3.114
 6705SOL     OW21013   6.580   2.103   0.972
 6705SOL    HW121014   6.592   2.192   1.017
 6705SOL    HW221015   6.634   2.101   0.888
 6706SOL     OW21016   1.361   3.928   1.922
 6706SOL    HW121017   1.393   3.972   1.838
 6706SOL    HW221018   1.412   3.843   1.936
 6707SOL     OW21019   6.736   6.235   3.627
 6707SOL    HW121020   6.776   6.199   3.543
 6707SOL    HW221021   6.723   6.161   3.693
 6708SOL     OW21022   6.879   5.351   2.220
 6708SOL    HW121023   6.812   5.353   2.294
 6708SOL    HW221024   6.838   5.391   2.137
 6709SOL     OW21025   2.956   6.918   2.260
 6709SOL    HW121026   3.048   6.951   2.280
 6709SOL    HW221027   2.898   6.995   2.235
 6710SOL     OW21028   3.134   0.965   5.457
 6710SOL    HW121029   3.092   1.037   5.513
 6710SOL    HW221030   3.233   0.967   5.471
 6711SOL     OW21031   5.154   5.331   6.902
 6711SOL    HW121032   5.100   5.251   6.877
 6711SOL    HW221033   5.189   5.321   6.995
 6712SOL     OW21034   4.539   5.067   0.315
 6712SOL    HW121035   4.634   5.042   0.332
 6712SOL    HW221036   4.532   5.111   0.225
 6713SOL     OW21037   2.483   0.879   2.694
 6713SOL    HW121038   2.498   0.969   2.653
 6713SOL    HW221039   2.483   0.809   2.623
 6714SOL     OW21040   6.377   1.312   6.424
 6714SOL    HW121041   6.305   1.326   6.356
 6714SOL    HW221042   6.465   1.300   6.378
 6715SOL     OW21043   6.703   6.957   6.250
 6715SOL    HW121044   6.679   0.017   6.305
 6715SOL    HW221045   6.795   6.926   6.276
 6716SOL     OW21046   0.286   6.070   1.675
 6716SOL    HW121047   0.356   6.013   1.717
 6716SOL    HW221048   0.324   6.160   1.653
 6717SOL     OW21049   4.187   2.507   0.121
 6717SOL    HW121050   4.231   2.423   0.089
 6717SOL    HW221051   4.147   2.556   0.044
 6718SOL     OW21052   4.773   0.337   6.210
 6718SOL    HW121053   4.721   0.408   6.258
 6718SOL    HW221054   4.871   0.355   6.220
 6719SOL     OW21055   1.704   6.789   6.665
 6719SOL    HW121056   1.803   6.796   6.677
 6719SOL    HW221057   1.682   6.796   6.567
 6720SOL     OW21058   0.639   6.075   3.385
 6720SOL    HW121059   0.581   5.999   3.417
 6720SOL    HW221060   0.651   6.141   3.459
 6721SOL     OW21061   6.590   0.603   5.743
 6721SOL    HW121062   6.602   0.625   5.840
 6721SOL    HW221063   6.659   0.652   5.689
 6722SOL     OW21064   6.840   3.741   1.487
 6722SOL    HW121065   6.872   3.752   1.393
 6722SOL    HW221066   6.745   3.711   1.486
 6723SOL     OW21067   2.194   6.493   3.134
 6723SOL    HW121068   2.117   6.488   3.070
 6723SOL    HW221069   2.227   6.587   3.140
 6724SOL     OW21070   1.337   3.716   5.734
 6724SOL    HW121071   1.324   3.632   5.682
 6724SOL    HW221072   1.357   3.694   5.829
 6725SOL     OW21073   1.124   3.970   1.110
 6725SOL    HW121074   1.209   3.933   1.074
 6725SOL    HW221075   1.048   3.909   1.089
 6726SOL     OW21076   0.824   1.923   5.144
 6726SOL    HW121077   0.776   1.949   5.060
 6726SOL    HW221078   0.760   1.921   5.220
 6727SOL     OW21079   6.271   3.880   5.938
 6727SOL    HW121080   6.275   3.955   6.004
 6727SOL    HW221081   6.326   3.803   5.971
 6728SOL     OW21082   4.295   1.554   3.447
 6728SOL    HW121083   4.362   1.587   3.513
 6728SOL    HW221084   4.297   1.454   3.445
 6729SOL     OW21085   0.194   1.639   2.593
 6729SOL    HW121086   0.260   1.588   2.647
 6729SOL    HW221087   0.243   1.702   2.531
 6730SOL     OW21088   2.612   5.931   6.496
 6730SOL    HW121089   2.602   5.875   6.578
 6730SOL    HW221090   2.559   5.891   6.421
 6731SOL     OW21091   0.987   5.774   1.056
 6731SOL    HW121092   0.920   5.840   1.090
 6731SOL    HW221093   1.023   5.720   1.132
 6732SOL     OW21094   5.282   5.031   6.263
 6732SOL    HW121095   5.304   4.942   6.223
 6732SOL    HW221096   5.275   5.100   6.191
 6733SOL     OW21097   4.054   4.431   0.621
 6733SOL    HW121098   4.092   4.521   0.598
 6733SOL    HW221099   4.039   4.425   0.719
 6734SOL     OW21100   6.234   2.346   4.753
 6734SOL    HW121101   6.191   2.312   4.836
 6734SOL    HW221102   6.170   2.340   4.676
 6735SOL     OW21103   6.910   4.835   4.696
 6735SOL    HW121104   6.879   4.891   4.772
 6735SOL    HW221105   6.951   4.750   4.731
 6736SOL     OW21106   3.287   3.798   6.832
 6736SOL    HW121107   3.242   3.797   6.743
 6736SOL    HW221108   3.298   3.704   6.865
 6737SOL     OW21109   2.022   2.637   0.549
 6737SOL    HW121110   1.980   2.726   0.567
 6737SOL    HW221111   1.952   2.565   0.557
 6738SOL     OW21112   1.726   4.236   2.929
 6738SOL    HW121113   1.788   4.210   3.003
 6738SOL    HW221114   1.717   4.160   2.865
 6739SOL     OW21115   3.768   4.848   5.921
 6739SOL    HW121116   3.825   4.913   5.870
 6739SOL    HW221117   3.804   4.839   6.014
 6740SOL     OW21118   1.589   1.369   4.246
 6740SOL    HW121119   1.535   1.386   4.329
 6740SOL    HW221120   1.671   1.318   4.270
 6741SOL     OW21121   4.150   1.292   5.669
 6741SOL    HW121122   4.226   1.307   5.733
 6741SOL    HW221123   4.067   1.270   5.719
 6742SOL     OW21124   6.288   5.957   2.993
 6742SOL    HW121125   6.320   6.021   2.923
 6742SOL    HW221126   6.194   5.981   3.019
 6743SOL     OW21127   4.298   4.174   0.545
 6743SOL    HW121128   4.284   4.219   0.633
 6743SOL    HW221129   4.337   4.083   0.560
 6744SOL     OW21130   5.236   5.968   6.214
 6744SOL    HW121131   5.207   6.062   6.236
 6744SOL    HW221132   5.322   5.948   6.260
 6745SOL     OW21133   0.292   0.037   2.426
 6745SOL    HW121134   0.226   0.062   2.355
 6745SOL    HW221135   0.250   0.050   2.516
 6746SOL     OW21136   0.850   1.148   2.950
 6746SOL    HW121137   0.876   1.055   2.924
 6746SOL    HW221138   0.841   1.205   2.869
 6747SOL     OW21139   5.596   1.047   4.751
 6747SOL    HW121140   5.642   1.054   4.840
 6747SOL    HW221141   5.502   1.014   4.766
 6748SOL     OW21142   1.329   0.231   3.380
 6748SOL    HW121143   1.328   0.146   3.431
 6748SOL    HW221144   1.397   0.226   3.307
 6749SOL     OW21145   2.767   5.844   0.270
 6749SOL    HW121146   2.755   5.870   0.174
 6749SOL    HW221147   2.863   5.823   0.287
 6750SOL     OW21148   4.449   1.393   4.897
 6750SOL    HW121149   4.449   1.371   4.995
 6750SOL    HW221150   4.532   1.445   4.875
 6751SOL     OW21151   4.039   0.999   3.581
 6751SOL    HW121152   4.074   1.030   3.670
 6751SOL    HW221153   4.090   0.918   3.552
 6752SOL     OW21154   0.232   3.225   2.907
 6752SOL    HW121155   0.241   3.209   3.005
 6752SOL    HW221156   0.226   3.138   2.859
 6753SOL     OW21157   4.139   0.964   6.186
 6753SOL    HW121158   4.108   1.009   6.102
 6753SOL    HW221159   4.176   1.033   6.249
 6754SOL     OW21160   6.905   1.849   0.239
 6754SOL    HW121161   6.959   1.783   0.187
 6754SOL    HW221162   6.808   1.826   0.232
 6755SOL     OW21163   4.688   1.302   3.094
 6755SOL    HW121164   4.597   1.282   3.059
 6755SOL    HW221165   4.720   1.390   3.058
 6756SOL     OW21166   4.095   4.854   4.845
 6756SOL    HW121167   3.995   4.857   4.846
 6756SOL    HW221168   4.126   4.765   4.811
 6757SOL     OW21169   4.264   0.338   1.467
 6757SOL    HW121170   4.165   0.347   1.480
 6757SOL    HW221171   4.284   0.334   1.369
 6758SOL     OW21172   6.815   2.997   0.842
 6758SOL    HW121173   6.817   2.908   0.888
 6758SOL    HW221174   6.897   3.049   0.867
 6759SOL     OW21175   0.873   4.228   4.545
 6759SOL    HW121176   0.937   4.184   4.607
 6759SOL    HW221177   0.909   4.223   4.451
 6760SOL     OW21178   6.800   5.098   4.081
 6760SOL    HW121179   6.708   5.060   4.067
 6760SOL    HW221180   6.833   5.074   4.172
 6761SOL     OW21181   5.890   2.560   6.479
 6761SOL    HW121182   5.916   2.558   6.383
 6761SOL    HW221183   5.971   2.579   6.535
 6762SOL     OW21184   6.728   5.663   3.276
 6762SOL    HW121185   6.669   5.688   3.199
 6762SOL    HW221186   6.681   5.596   3.333
 6763SOL     OW21187   6.979   5.254   3.905
 6763SOL    HW121188   0.021   5.244   3.827
 6763SOL    HW221189   6.893   5.207   3.885
 6764SOL     OW21190   3.003   4.956   6.392
 6764SOL    HW121191   2.952   4.879   6.431
 6764SOL    HW221192   3.096   4.927   6.370
 6765SOL     OW21193   4.684   5.010   4.015
 6765SOL    HW121194   4.680   4.998   3.916
 6765SOL    HW221195   4.597   4.985   4.056
 6766SOL     OW21196   4.167   6.601   6.443
 6766SOL    HW121197   4.100   6.541   6.486
 6766SOL    HW221198   4.250   6.549   6.425
 6767SOL     OW21199   0.926   2.308   0.514
 6767SOL    HW121200   0.873   2.225   0.496
 6767SOL    HW221201   0.985   2.293   0.593
 6768SOL     OW21202   6.755   6.498   3.671
 6768SOL    HW121203   6.732   6.494   3.768
 6768SOL    HW221204   6.748   6.406   3.632
 6769SOL     OW21205   3.110   0.450   5.560
 6769SOL    HW121206   3.099   0.400   5.474
 6769SOL    HW221207   3.075   0.543   5.549
 6770SOL     OW21208   6.483   1.904   3.098
 6770SOL    HW121209   6.386   1.882   3.086
 6770SOL    HW221210   6.525   1.917   3.008
 6771SOL     OW21211   3.459   1.060   3.135
 6771SOL    HW121212   3.502   0.971   3.119
 6771SOL    HW221213   3.516   1.113   3.198
 6772SOL     OW21214   5.329   2.678   2.721
 6772SOL    HW121215   5.304   2.773   2.742
 6772SOL    HW221216   5.313   2.660   2.624
 6773SOL     OW21217   6.757   6.944   1.699
 6773SOL    HW121218   6.801   6.942   1.610
 6773SOL    HW221219   6.658   6.952   1.688
 6774SOL     OW21220   2.104   2.532   4.709
 6774SOL    HW121221   2.149   2.465   4.769
 6774SOL    HW221222   2.065   2.605   4.765
 6775SOL     OW21223   0.653   2.172   3.500
 6775SOL    HW121224   0.680   2.217   3.586
 6775SOL    HW221225   0.564   2.209   3.471
 6776SOL     OW21226   3.855   3.270   1.298
 6776SOL    HW121227   3.778   3.227   1.252
 6776SOL    HW221228   3.940   3.224   1.272
 6777SOL     OW21229   4.377   5.966   0.529
 6777SOL    HW121230   4.435   6.016   0.464
 6777SOL    HW221231   4.434   5.913   0.592
 6778SOL     OW21232   6.181   3.607   2.299
 6778SOL    HW121233   6.213   3.697   2.330
 6778SOL    HW221234   6.087   3.616   2.265
 6779SOL     OW21235   5.594   5.066   6.774
 6779SOL    HW121236   5.646   5.080   6.689
 6779SOL    HW221237   5.525   5.138   6.782
 6780SOL     OW21238   1.580   3.564   2.761
 6780SOL    HW121239   1.659   3.622   2.742
 6780SOL    HW221240   1.590   3.477   2.712
 6781SOL     OW21241   6.817   1.978   3.831
 6781SOL    HW121242   6.726   2.020   3.823
 6781SOL    HW221243   6.886   2.041   3.796
 6782SOL     OW21244   0.650   1.128   3.365
 6782SOL    HW121245   0.692   1.068   3.433
 6782SOL    HW221246   0.640   1.078   3.278
 6783SOL     OW21247   0.730   3.689   5.251
 6783SOL    HW121248   0.667   3.675   5.175
 6783SOL    HW221249   0.706   3.772   5.300
 6784SOL     OW21250   2.340   4.062   1.589
 6784SOL    HW121251   2.330   4.154   1.626
 6784SOL    HW221252   2.332   3.995   1.663
 6785SOL     OW21253   5.706   5.122   5.774
 6785SOL    HW121254   5.637   5.185   5.738
 6785SOL    HW221255   5.662   5.051   5.828
 6786SOL     OW21256   0.388   3.266   6.253
 6786SOL    HW121257   0.322   3.294   6.323
 6786SOL    HW221258   0.470   3.230   6.296
 6787SOL     OW21259   3.184   2.131   1.462
 6787SOL    HW121260   3.199   2.179   1.548
 6787SOL    HW221261   3.177   2.197   1.388
 6788SOL     OW21262   0.397   4.211   2.570
 6788SOL    HW121263   0.412   4.113   2.580
 6788SOL    HW221264   0.483   4.259   2.589
 6789SOL     OW21265   7.012   4.732   4.158
 6789SOL    HW121266   0.070   4.694   4.207
 6789SOL    HW221267   0.019   4.816   4.110
 6790SOL     OW21268   0.368   4.355   6.792
 6790SOL    HW121269   0.320   4.441   6.774
 6790SOL    HW221270   0.332   4.283   6.734
 6791SOL     OW21271   4.330   2.054   2.884
 6791SOL    HW121272   4.300   2.044   2.789
 6791SOL    HW221273   4.272   1.998   2.943
 6792SOL     OW21274   4.602   0.246   5.293
 6792SOL    HW121275   4.610   0.276   5.388
 6792SOL    HW221276   4.692   0.244   5.250
 6793SOL     OW21277   3.210   1.561   6.998
 6793SOL    HW121278   3.276   1.630   0.007
 6793SOL    HW221279   3.145   1.602   6.934
 6794SOL     OW21280   4.535   1.186   5.460
 6794SOL    HW121281   4.610   1.237   5.503
 6794SOL    HW221282   4.560   1.089   5.455
 6795SOL     OW21283   0.950   6.932   7.003
 6795SOL    HW121284   0.901   6.857   0.028
 6795SOL    HW221285   1.049   6.914   7.007
 6796SOL     OW21286   5.662   0.101   2.754
 6796SOL    HW121287   5.708   0.188   2.773
 6796SOL    HW221288   5.727   0.038   2.711
 6797SOL     OW21289   6.445   1.668   0.083
 6797SOL    HW121290   6.521   1.675   0.148
 6797SOL    HW221291   6.481   1.668   7.010
 6798SOL     OW21292   6.227   0.447   1.200
 6798SOL    HW121293   6.255   0.455   1.105
 6798SOL    HW221294   6.303   0.472   1.260
 6799SOL     OW21295   5.189   0.126   2.582
 6799SOL    HW121296   5.157   0.076   2.662
 6799SOL    HW221297   5.286   0.106   2.566
 6800SOL     OW21298   2.354   2.159   1.656
 6800SOL    HW121299   2.380   2.131   1.749
 6800SOL    HW221300   2.396   2.248   1.636
 6801SOL     OW21301   0.561   6.387   3.762
 6801SOL    HW121302   0.513   6.475   3.769
 6801SOL    HW221303   0.496   6.312   3.777
 6802SOL     OW21304   3.688   5.702   0.747
 6802SOL    HW121305   3.733   5.774   0.800
 6802SOL    HW221306   3.751   5.666   0.679
 6803SOL     OW21307   4.297   3.472   0.104
 6803SOL    HW121308   4.333   3.442   0.193
 6803SOL    HW221309   4.252   3.560   0.114
 6804SOL     OW21310   3.405   5.424   2.629
 6804SOL    HW121311   3.452   5.456   2.711
 6804SOL    HW221312   3.323   5.478   2.614
 6805SOL     OW21313   0.940   5.208   6.969
 6805SOL    HW121314   0.840   5.210   6.965
 6805SOL    HW221315   0.977   5.268   6.899
 6806SOL     OW21316   0.170   0.469   3.990
 6806SOL    HW121317   0.202   0.453   4.083
 6806SOL    HW221318   0.078   0.431   3.979
 6807SOL     OW21319   3.700   4.133   3.418
 6807SOL    HW121320   3.665   4.138   3.512
 6807SOL    HW221321   3.632   4.171   3.356
 6808SOL     OW21322   5.819   1.391   4.867
 6808SOL    HW121323   5.868   1.360   4.948
 6808SOL    HW221324   5.842   1.487   4.849
 6809SOL     OW21325   5.946   4.068   0.533
 6809SOL    HW121326   5.920   4.103   0.623
 6809SOL    HW221327   6.043   4.047   0.531
 6810SOL     OW21328   3.527   0.787   3.118
 6810SOL    HW121329   3.572   0.702   3.146
 6810SOL    HW221330   3.461   0.767   3.046
 6811SOL     OW21331   6.718   3.306   1.967
 6811SOL    HW121332   6.776   3.230   1.938
 6811SOL    HW221333   6.637   3.271   2.015
 6812SOL     OW21334   3.372   3.762   4.760
 6812SOL    HW121335   3.465   3.777   4.793
 6812SOL    HW221336   3.320   3.847   4.769
 6813SOL     OW21337   5.621   3.453   2.454
 6813SOL    HW121338   5.563   3.382   2.495
 6813SOL    HW221339   5.715   3.440   2.484
 6814SOL     OW21340   4.900   1.840   6.823
 6814SOL    HW121341   4.870   1.777   6.752
 6814SOL    HW221342   5.000   1.841   6.827
 6815SOL     OW21343   1.853   5.799   6.879
 6815SOL    HW121344   1.948   5.769   6.886
 6815SOL    HW221345   1.796   5.721   6.851
 6816SOL     OW21346   6.987   1.940   4.725
 6816SOL    HW121347   0.024   1.910   4.648
 6816SOL    HW221348   6.965   1.861   4.783
 6817SOL     OW21349   2.345   2.677   3.992
 6817SOL    HW121350   2.334   2.772   4.021
 6817SOL    HW221351   2.291   2.662   3.909
 6818SOL     OW21352   2.334   6.072   0.196
 6818SOL    HW121353   2.278   6.023   0.264
 6818SOL    HW221354   2.276   6.133   0.143
 6819SOL     OW21355   4.477   1.065   2.749
 6819SOL    HW121356   4.488   1.030   2.842
 6819SOL    HW221357   4.425   0.999   2.694
 6820SOL     OW21358   1.196   5.713   1.828
 6820SOL    HW121359   1.287   5.673   1.836
 6820SOL    HW221360   1.174   5.726   1.732
 6821SOL     OW21361   4.706   2.932   5.782
 6821SOL    HW121362   4.784   2.974   5.735
 6821SOL    HW221363   4.673   2.855   5.727
 6822SOL     OW21364   6.578   2.744   6.626
 6822SOL    HW121365   6.587   2.832   6.580
 6822SOL    HW221366   6.667   2.699   6.632
 6823SOL     OW21367   5.254   4.546   6.879
 6823SOL    HW121368   5.207   4.482   6.939
 6823SOL    HW221369   5.189   4.610   6.839
 6824SOL     OW21370   1.605   1.792   0.562
 6824SOL    HW121371   1.626   1.765   0.468
 6824SOL    HW221372   1.686   1.832   0.605
 6825SOL     OW21373   6.391   6.670   0.644
 6825SOL    HW121374   6.422   6.751   0.693
 6825SOL    HW221375   6.303   6.689   0.600
 6826SOL     OW21376   0.902   3.613   4.034
 6826SOL    HW121377   0.832   3.673   3.997
 6826SOL    HW221378   0.863   3.558   4.108
 6827SOL     OW21379   5.265   5.406   5.854
 6827SOL    HW121380   5.254   5.406   5.755
 6827SOL    HW221381   5.363   5.410   5.876
 6828SOL     OW21382   3.897   1.466   2.745
 6828SOL    HW121383   3.983   1.513   2.727
 6828SOL    HW221384   3.821   1.530   2.734
 6829SOL     OW21385   5.249   0.047   5.154
 6829SOL    HW121386   5.213   0.138   5.174
 6829SOL    HW221387   5.320   0.024   5.221
 6830SOL     OW21388   5.934   1.097   3.456
 6830SOL    HW121389   5.985   1.040   3.391
 6830SOL    HW221390   5.908   1.183   3.412
 6831SOL     OW21391   1.267   0.863   5.707
 6831SOL    HW121392   1.324   0.942   5.731
 6831SOL    HW221393   1.294   0.785   5.763
 6832SOL     OW21394   2.284   3.669   0.450
 6832SOL    HW121395   2.360   3.727   0.421
 6832SOL    HW221396   2.221   3.721   0.507
 6833SOL     OW21397   3.358   5.178   6.323
 6833SOL    HW121398   3.415   5.098   6.343
 6833SOL    HW221399   3.371   5.205   6.227
 6834SOL     OW21400   5.206   0.439   0.930
 6834SOL    HW121401   5.283   0.428   0.993
 6834SOL    HW221402   5.131   0.487   0.977
 6835SOL     OW21403   3.781   1.476   4.773
 6835SOL    HW121404   3.743   1.439   4.689
 6835SOL    HW221405   3.711   1.530   4.820
 6836SOL     OW21406   2.149   4.147   5.964
 6836SOL    HW121407   2.076   4.173   6.027
 6836SOL    HW221408   2.232   4.196   5.987
 6837SOL     OW21409   0.435   0.942   2.984
 6837SOL    HW121410   0.365   1.007   3.011
 6837SOL    HW221411   0.524   0.971   3.021
 6838SOL     OW21412   2.128   4.075   5.457
 6838SOL    HW121413   2.071   4.153   5.482
 6838SOL    HW221414   2.222   4.106   5.440
 6839SOL     OW21415   5.542   1.851   3.659
 6839SOL    HW121416   5.545   1.771   3.719
 6839SOL    HW221417   5.501   1.825   3.571
 6840SOL     OW21418   2.824   6.131   5.407
 6840SOL    HW121419   2.868   6.042   5.410
 6840SOL    HW221420   2.735   6.127   5.452
 6841SOL     OW21421   3.856   4.726   1.202
 6841SOL    HW121422   3.847   4.818   1.165
 6841SOL    HW221423   3.941   4.719   1.254
 6842SOL     OW21424   1.994   2.753   6.512
 6842SOL    HW121425   1.997   2.797   6.602
 6842SOL    HW221426   2.084   2.759   6.468
 6843SOL     OW21427   5.285   1.191   1.991
 6843SOL    HW121428   5.230   1.256   1.938
 6843SOL    HW221429   5.296   1.224   2.085
 6844SOL     OW21430   5.674   6.280   4.356
 6844SOL    HW121431   5.663   6.256   4.453
 6844SOL    HW221432   5.683   6.196   4.302
 6845SOL     OW21433   5.409   4.460   2.415
 6845SOL    HW121434   5.475   4.423   2.349
 6845SOL    HW221435   5.326   4.405   2.415
 6846SOL     OW21436   4.095   3.159   1.305
 6846SOL    HW121437   4.158   3.215   1.251
 6846SOL    HW221438   4.148   3.097   1.363
 6847SOL     OW21439   6.304   4.088   1.852
 6847SOL    HW121440   6.295   4.017   1.923
 6847SOL    HW221441   6.214   4.120   1.825
 6848SOL     OW21442   2.562   6.328   3.063
 6848SOL    HW121443   2.653   6.287   3.068
 6848SOL    HW221444   2.512   6.289   2.987
 6849SOL     OW21445   2.861   5.663   4.604
 6849SOL    HW121446   2.944   5.718   4.594
 6849SOL    HW221447   2.884   5.566   4.595
 6850SOL     OW21448   5.469   3.281   2.616
 6850SOL    HW121449   5.480   3.181   2.620
 6850SOL    HW221450   5.468   3.319   2.708
 6851SOL     OW21451   1.559   3.097   4.537
 6851SOL    HW121452   1.586   3.029   4.605
 6851SOL    HW221453   1.620   3.176   4.544
 6852SOL     OW21454   1.325   4.481   1.197
 6852SOL    HW121455   1.320   4.557   1.133
 6852SOL    HW221456   1.304   4.395   1.150
 6853SOL     OW21457   6.931   3.483   6.696
 6853SOL    HW121458   6.915   3.492   6.597
 6853SOL    HW221459   6.844   3.473   6.743
 6854SOL     OW21460   5.522   1.264   5.827
 6854SOL    HW121461   5.618   1.269   5.857
 6854SOL    HW221462   5.491   1.356   5.801
 6855SOL     OW21463   3.587   5.925   2.374
 6855SOL    HW121464   3.624   5.887   2.459
 6855SOL    HW221465   3.499   5.968   2.393
 6856SOL     OW21466   4.716   4.443   5.558
 6856SOL    HW121467   4.683   4.444   5.653
 6856SOL    HW221468   4.702   4.352   5.519
 6857SOL     OW21469   3.674   1.683   6.890
 6857SOL    HW121470   3.640   1.640   6.806
 6857SOL    HW221471   3.596   1.707   6.949
 6858SOL     OW21472   4.143   3.584   4.780
 6858SOL    HW121473   4.145   3.509   4.714
 6858SOL    HW221474   4.099   3.553   4.865
 6859SOL     OW21475   1.674   6.457   1.346
 6859SOL    HW121476   1.731   6.379   1.371
 6859SOL    HW221477   1.730   6.527   1.302
 6860SOL     OW21478   5.415   5.650   1.787
 6860SOL    HW121479   5.357   5.574   1.815
 6860SOL    HW221480   5.499   5.650   1.841
 6861SOL     OW21481   5.656   4.515   1.657
 6861SOL    HW121482   5.643   4.445   1.586
 6861SOL    HW221483   5.685   4.600   1.615
 6862SOL     OW21484   2.415   4.379   4.475
 6862SOL    HW121485   2.432   4.304   4.411
 6862SOL    HW221486   2.493   4.441   4.475
 6863SOL     OW21487   5.675   1.651   4.333
 6863SOL    HW121488   5.677   1.605   4.422
 6863SOL    HW221489   5.697   1.586   4.261
 6864SOL     OW21490   3.437   5.945   3.569
 6864SOL    HW121491   3.534   5.920   3.566
 6864SOL    HW221492   3.382   5.867   3.537
 6865SOL     OW21493   6.235   5.897   2.570
 6865SOL    HW121494   6.224   5.831   2.644
 6865SOL    HW221495   6.193   5.984   2.596
 6866SOL     OW21496   6.695   4.512   2.213
 6866SOL    HW121497   6.642   4.532   2.295
 6866SOL    HW221498   6.670   4.422   2.179
 6867SOL     OW21499   1.628   4.709   1.520
 6867SOL    HW121500   1.628   4.673   1.613
 6867SOL    HW221501   1.536   4.702   1.482
 6868SOL     OW21502   2.111   5.186   5.133
 6868SOL    HW121503   2.075   5.128   5.206
 6868SOL    HW221504   2.127   5.278   5.168
 6869SOL     OW21505   5.894   2.056   5.248
 6869SOL    HW121506   5.928   2.137   5.295
 6869SOL    HW221507   5.795   2.049   5.261
 6870SOL     OW21508   6.977   4.307   2.248
 6870SOL    HW121509   0.055   4.305   2.232
 6870SOL    HW221510   6.959   4.297   2.346
 6871SOL     OW21511   6.373   5.016   2.403
 6871SOL    HW121512   6.367   4.994   2.501
 6871SOL    HW221513   6.460   5.061   2.385
 6872SOL     OW21514   1.287   3.469   0.706
 6872SOL    HW121515   1.373   3.417   0.698
 6872SOL    HW221516   1.284   3.540   0.636
 6873SOL     OW21517   5.755   3.675   5.167
 6873SOL    HW121518   5.753   3.596   5.229
 6873SOL    HW221519   5.662   3.699   5.140
 6874SOL     OW21520   0.863   4.843   3.059
 6874SOL    HW121521   0.843   4.806   3.149
 6874SOL    HW221522   0.863   4.768   2.992
 6875SOL     OW21523   1.627   2.831   3.534
 6875SOL    HW121524   1.679   2.902   3.582
 6875SOL    HW221525   1.664   2.819   3.442
 6876SOL     OW21526   4.085   5.488   5.299
 6876SOL    HW121527   4.144   5.516   5.223
 6876SOL    HW221528   4.018   5.422   5.266
 6877SOL     OW21529   2.531   4.041   6.027
 6877SOL    HW121530   2.587   4.071   5.949
 6877SOL    HW221531   2.489   4.120   6.070
 6878SOL     OW21532   2.641   2.314   5.313
 6878SOL    HW121533   2.632   2.215   5.317
 6878SOL    HW221534   2.630   2.352   5.405
 6879SOL     OW21535   1.075   1.906   6.915
 6879SOL    HW121536   1.090   1.960   6.832
 6879SOL    HW221537   1.162   1.871   6.948
 6880SOL     OW21538   2.097   3.422   4.843
 6880SOL    HW121539   2.125   3.513   4.873
 6880SOL    HW221540   2.151   3.353   4.890
 6881SOL     OW21541   0.268   3.812   2.080
 6881SOL    HW121542   0.222   3.771   2.159
 6881SOL    HW221543   0.264   3.911   2.087
 6882SOL     OW21544   3.070   0.281   5.765
 6882SOL    HW121545   3.079   0.362   5.708
 6882SOL    HW221546   2.996   0.223   5.730
 6883SOL     OW21547   3.885   1.344   0.787
 6883SOL    HW121548   3.869   1.408   0.862
 6883SOL    HW221549   3.824   1.366   0.711
 6884SOL     OW21550   1.877   3.720   4.493
 6884SOL    HW121551   1.808   3.710   4.422
 6884SOL    HW221552   1.885   3.817   4.519
 6885SOL     OW21553   3.677   5.465   4.854
 6885SOL    HW121554   3.673   5.456   4.954
 6885SOL    HW221555   3.741   5.398   4.817
 6886SOL     OW21556   0.038   0.677   3.038
 6886SOL    HW121557   0.027   0.771   3.072
 6886SOL    HW221558   7.001   0.664   2.957
 6887SOL     OW21559   5.171   0.089   5.782
 6887SOL    HW121560   5.179   0.027   5.703
 6887SOL    HW221561   5.085   0.071   5.829
 6888SOL     OW21562   5.307   6.689   6.855
 6888SOL    HW121563   5.222   6.655   6.895
 6888SOL    HW221564   5.292   6.713   6.759
 6889SOL     OW21565   1.283   2.096   5.752
 6889SOL    HW121566   1.274   1.999   5.728
 6889SOL    HW221567   1.344   2.106   5.831
 6890SOL     OW21568   3.634   6.251   1.721
 6890SOL    HW121569   3.734   6.259   1.712
 6890SOL    HW221570   3.611   6.166   1.767
 6891SOL     OW21571   2.205   4.077   4.347
 6891SOL    HW121572   2.205   4.010   4.273
 6891SOL    HW221573   2.179   4.033   4.433
 6892SOL     OW21574   3.247   0.818   3.503
 6892SOL    HW121575   3.339   0.817   3.464
 6892SOL    HW221576   3.181   0.799   3.431
 6893SOL     OW21577   5.371   5.895   1.024
 6893SOL    HW121578   5.418   5.931   1.104
 6893SOL    HW221579   5.423   5.817   0.987
 6894SOL     OW21580   6.345   5.602   6.858
 6894SOL    HW121581   6.324   5.623   6.953
 6894SOL    HW221582   6.330   5.683   6.802
 6895SOL     OW21583   2.970   5.123   6.613
 6895SOL    HW121584   2.878   5.160   6.611
 6895SOL    HW221585   2.976   5.044   6.552
 6896SOL     OW21586   2.447   6.784   4.095
 6896SOL    HW121587   2.371   6.848   4.085
 6896SOL    HW221588   2.527   6.832   4.130
 6897SOL     OW21589   2.152   3.778   6.964
 6897SOL    HW121590   2.092   3.698   6.959
 6897SOL    HW221591   2.192   3.796   6.873
 6898SOL     OW21592   3.802   1.543   2.047
 6898SOL    HW121593   3.890   1.572   2.087
 6898SOL    HW221594   3.750   1.624   2.019
 6899SOL     OW21595   4.836   0.240   0.798
 6899SOL    HW121596   4.736   0.235   0.805
 6899SOL    HW221597   4.861   0.326   0.754
 6900SOL     OW21598   6.185   0.878   5.879
 6900SOL    HW121599   6.134   0.946   5.932
 6900SOL    HW221600   6.179   0.789   5.924
 6901SOL     OW21601   0.901   0.201   5.921
 6901SOL    HW121602   0.919   0.134   5.848
 6901SOL    HW221603   0.893   0.292   5.881
 6902SOL     OW21604   6.795   6.660   0.674
 6902SOL    HW121605   6.737   6.675   0.594
 6902SOL    HW221606   6.865   6.592   0.653
 6903SOL     OW21607   4.355   5.201   5.463
 6903SOL    HW121608   4.452   5.190   5.443
 6903SOL    HW221609   4.326   5.294   5.441
 6904SOL     OW21610   6.009   1.863   3.989
 6904SOL    HW121611   5.992   1.778   4.039
 6904SOL    HW221612   6.069   1.922   4.043
 6905SOL     OW21613   6.030   6.903   0.462
 6905SOL    HW121614   6.064   6.960   0.388
 6905SOL    HW221615   5.963   6.955   0.516
 6906SOL     OW21616   4.119   0.649   3.908
 6906SOL    HW121617   4.143   0.554   3.892
 6906SOL    HW221618   4.184   0.690   3.973
 6907SOL     OW21619   4.743   1.430   1.159
 6907SOL    HW121620   4.823   1.456   1.105
 6907SOL    HW221621   4.752   1.335   1.190
 6908SOL     OW21622   1.043   6.520   5.458
 6908SOL    HW121623   0.971   6.491   5.394
 6908SOL    HW221624   1.026   6.615   5.485
 6909SOL     OW21625   5.456   4.752   1.711
 6909SOL    HW121626   5.454   4.840   1.759
 6909SOL    HW221627   5.531   4.697   1.745
 6910SOL     OW21628   6.709   2.617   3.261
 6910SOL    HW121629   6.727   2.579   3.170
 6910SOL    HW221630   6.700   2.543   3.327
 6911SOL     OW21631   4.125   6.771   3.274
 6911SOL    HW121632   4.074   6.716   3.208
 6911SOL    HW221633   4.085   6.863   3.280
 6912SOL     OW21634   4.917   5.094   0.863
 6912SOL    HW121635   4.918   4.994   0.860
 6912SOL    HW221636   4.832   5.125   0.906
 6913SOL     OW21637   5.249   5.206   6.056
 6913SOL    HW121638   5.239   5.295   6.012
 6913SOL    HW221639   5.253   5.134   5.986
 6914SOL     OW21640   5.983   4.930   0.171
 6914SOL    HW121641   5.888   4.903   0.188
 6914SOL    HW221642   5.995   4.952   0.075
 6915SOL     OW21643   6.335   4.818   1.939
 6915SOL    HW121644   6.261   4.847   2.000
 6915SOL    HW221645   6.337   4.718   1.935
 6916SOL     OW21646   5.872   3.871   0.384
 6916SOL    HW121647   5.896   3.892   0.290
 6916SOL    HW221648   5.908   3.942   0.445
 6917SOL     OW21649   3.386   5.601   0.607
 6917SOL    HW121650   3.300   5.607   0.658
 6917SOL    HW221651   3.374   5.644   0.517
 6918SOL     OW21652   1.159   3.281   4.804
 6918SOL    HW121653   1.235   3.321   4.753
 6918SOL    HW221654   1.111   3.353   4.855
 6919SOL     OW21655   0.446   6.108   3.163
 6919SOL    HW121656   0.532   6.113   3.213
 6919SOL    HW221657   0.377   6.164   3.211
 6920SOL     OW21658   4.217   6.104   5.943
 6920SOL    HW121659   4.258   6.095   6.034
 6920SOL    HW221660   4.159   6.025   5.924
 6921SOL     OW21661   4.703   5.477   3.360
 6921SOL    HW121662   4.743   5.494   3.270
 6921SOL    HW221663   4.760   5.519   3.430
 6922SOL     OW21664   2.256   5.680   6.626
 6922SOL    HW121665   2.288   5.604   6.569
 6922SOL    HW221666   2.198   5.740   6.572
 6923SOL     OW21667   5.285   6.216   3.947
 6923SOL    HW121668   5.364   6.171   3.988
 6923SOL    HW221669   5.269   6.180   3.855
 6924SOL     OW21670   0.919   4.472   6.765
 6924SOL    HW121671   0.908   4.570   6.751
 6924SOL    HW221672   0.903   4.424   6.679
 6925SOL     OW21673   4.027   6.125   4.589
 6925SOL    HW121674   4.098   6.156   4.653
 6925SOL    HW221675   4.055   6.039   4.547
 6926SOL     OW21676   3.154   3.235   2.582
 6926SOL    HW121677   3.124   3.266   2.492
 6926SOL    HW221678   3.074   3.217   2.640
 6927SOL     OW21679   5.212   3.868   5.881
 6927SOL    HW121680   5.268   3.916   5.813
 6927SOL    HW221681   5.227   3.908   5.971
 6928SOL     OW21682   6.629   6.753   0.869
 6928SOL    HW121683   6.688   6.711   0.800
 6928SOL    HW221684   6.674   6.748   0.958
 6929SOL     OW21685   4.992   5.621   1.316
 6929SOL    HW121686   4.926   5.579   1.378
 6929SOL    HW221687   5.064   5.666   1.368
 6930SOL     OW21688   0.117   0.159   1.853
 6930SOL    HW121689   0.032   0.134   1.898
 6930SOL    HW221690   0.174   0.212   1.916
 6931SOL     OW21691   1.831   0.878   2.305
 6931SOL    HW121692   1.802   0.787   2.335
 6931SOL    HW221693   1.907   0.868   2.240
 6932SOL     OW21694   4.035   0.488   1.030
 6932SOL    HW121695   3.989   0.479   0.942
 6932SOL    HW221696   4.117   0.429   1.031
 6933SOL     OW21697   3.644   5.855   5.021
 6933SOL    HW121698   3.663   5.884   5.115
 6933SOL    HW221699   3.549   5.827   5.014
 6934SOL     OW21700   4.914   4.583   5.794
 6934SOL    HW121701   4.992   4.545   5.843
 6934SOL    HW221702   4.932   4.584   5.696
 6935SOL     OW21703   4.645   6.223   3.802
 6935SOL    HW121704   4.672   6.291   3.871
 6935SOL    HW221705   4.615   6.270   3.719
 6936SOL     OW21706   6.731   2.994   2.530
 6936SOL    HW121707   6.804   2.926   2.523
 6936SOL    HW221708   6.656   2.957   2.586
 6937SOL     OW21709   6.341   6.155   6.862
 6937SOL    HW121710   6.343   6.253   6.881
 6937SOL    HW221711   6.420   6.130   6.807
 6938SOL     OW21712   4.866   3.754   5.330
 6938SOL    HW121713   4.959   3.721   5.345
 6938SOL    HW221714   4.816   3.688   5.273
 6939SOL     OW21715   0.155   4.482   1.045
 6939SOL    HW121716   0.244   4.496   1.089
 6939SOL    HW221717   0.091   4.553   1.074
 6940SOL     OW21718   5.032   1.090   0.061
 6940SOL    HW121719   4.991   1.139   7.005
 6940SOL    HW221720   5.102   1.148   0.104
 6941SOL     OW21721   3.681   3.180   3.031
 6941SOL    HW121722   3.767   3.137   3.002
 6941SOL    HW221723   3.605   3.120   3.010
 6942SOL     OW21724   6.552   2.699   0.541
 6942SOL    HW121725   6.577   2.690   0.445
 6942SOL    HW221726   6.462   2.659   0.556
 6943SOL     OW21727   4.940   6.539   6.990
 6943SOL    HW121728   4.917   6.607   6.919
 6943SOL    HW221729   4.952   6.449   6.947
 6944SOL     OW21730   1.558   4.532   6.159
 6944SOL    HW121731   1.525   4.553   6.251
 6944SOL    HW221732   1.658   4.536   6.158
 6945SOL     OW21733   5.647   3.002   6.279
 6945SOL    HW121734   5.572   2.941   6.308
 6945SOL    HW221735   5.635   3.025   6.183
 6946SOL     OW21736   6.583   6.393   2.035
 6946SOL    HW121737   6.676   6.367   2.008
 6946SOL    HW221738   6.529   6.310   2.052
 6947SOL     OW21739   3.157   6.913   5.827
 6947SOL    HW121740   3.188   6.878   5.916
 6947SOL    HW221741   3.058   6.926   5.828
 6948SOL     OW21742   6.753   0.819   6.705
 6948SOL    HW121743   6.771   0.722   6.687
 6948SOL    HW221744   6.838   0.871   6.699
 6949SOL     OW21745   5.684   0.169   3.961
 6949SOL    HW121746   5.729   0.220   3.888
 6949SOL    HW221747   5.739   0.088   3.984
 6950SOL     OW21748   2.070   0.214   3.724
 6950SOL    HW121749   2.130   0.269   3.782
 6950SOL    HW221750   2.085   0.239   3.628
 6951SOL     OW21751   6.213   6.315   6.079
 6951SOL    HW121752   6.253   6.398   6.116
 6951SOL    HW221753   6.271   6.237   6.102
 6952SOL     OW21754   0.289   5.957   3.840
 6952SOL    HW121755   0.259   5.969   3.934
 6952SOL    HW221756   0.238   5.882   3.797
 6953SOL     OW21757   4.829   0.517   6.708
 6953SOL    HW121758   4.790   0.433   6.671
 6953SOL    HW221759   4.798   0.595   6.654
 6954SOL     OW21760   0.691   4.038   4.457
 6954SOL    HW121761   0.737   3.951   4.435
 6954SOL    HW221762   0.748   4.090   4.520
 6955SOL     OW21763   6.712   0.577   2.674
 6955SOL    HW121764   6.795   0.546   2.628
 6955SOL    HW221765   6.636   0.579   2.610
 6956SOL     OW21766   4.687   6.323   2.445
 6956SOL    HW121767   4.775   6.284   2.471
 6956SOL    HW221768   4.618   6.250   2.442
 6957SOL     OW21769   5.842   4.886   1.744
 6957SOL    HW121770   5.864   4.954   1.814
 6957SOL    HW221771   5.783   4.927   1.675
 6958SOL     OW21772   2.995   3.877   4.999
 6958SOL    HW121773   3.047   3.801   4.958
 6958SOL    HW221774   2.906   3.885   4.954
 6959SOL     OW21775   2.886   1.184   4.853
 6959SOL    HW121776   2.841   1.146   4.772
 6959SOL    HW221777   2.829   1.256   4.892
 6960SOL     OW21778   1.386   5.753   1.396
 6960SOL    HW121779   1.315   5.796   1.451
 6960SOL    HW221780   1.473   5.756   1.445
 6961SOL     OW21781   6.444   3.004   4.083
 6961SOL    HW121782   6.521   2.949   4.116
 6961SOL    HW221783   6.361   2.949   4.084
 6962SOL     OW21784   5.196   5.596   2.486
 6962SOL    HW121785   5.258   5.667   2.519
 6962SOL    HW221786   5.231   5.558   2.400
 6963SOL     OW21787   0.189   5.316   0.977
 6963SOL    HW121788   0.261   5.368   1.021
 6963SOL    HW221789   0.111   5.307   1.038
 6964SOL     OW21790   4.178   5.561   4.794
 6964SOL    HW121791   4.121   5.541   4.715
 6964SOL    HW221792   4.142   5.640   4.843
 6965SOL     OW21793   0.751   3.598   6.366
 6965SOL    HW121794   0.693   3.536   6.313
 6965SOL    HW221795   0.785   3.671   6.307
 6966SOL     OW21796   6.562   2.390   3.415
 6966SOL    HW121797   6.582   2.292   3.408
 6966SOL    HW221798   6.472   2.403   3.456
 6967SOL     OW21799   1.629   0.352   5.466
 6967SOL    HW121800   1.566   0.276   5.485
 6967SOL    HW221801   1.594   0.435   5.509
 6968SOL     OW21802   3.785   6.969   2.378
 6968SOL    HW121803   3.746   0.029   2.332
 6968SOL    HW221804   3.871   6.994   2.421
 6969SOL     OW21805   3.033   2.184   1.110
 6969SOL    HW121806   3.097   2.107   1.113
 6969SOL    HW221807   3.068   2.260   1.164
 6970SOL     OW21808   4.290   3.760   0.070
 6970SOL    HW121809   4.272   3.700   7.012
 6970SOL    HW221810   4.348   3.836   0.042
 6971SOL     OW21811   6.509   4.617   1.207
 6971SOL    HW121812   6.447   4.665   1.269
 6971SOL    HW221813   6.568   4.683   1.161
 6972SOL     OW21814   5.105   4.902   4.089
 6972SOL    HW121815   5.191   4.927   4.133
 6972SOL    HW221816   5.031   4.906   4.156
 6973SOL     OW21817   1.158   3.831   5.479
 6973SOL    HW121818   1.182   3.739   5.448
 6973SOL    HW221819   1.142   3.830   5.578
 6974SOL     OW21820   3.923   3.067   3.025
 6974SOL    HW121821   3.978   3.100   2.948
 6974SOL    HW221822   3.896   2.973   3.008
 6975SOL     OW21823   2.365   6.344   5.813
 6975SOL    HW121824   2.452   6.364   5.768
 6975SOL    HW221825   2.291   6.351   5.746
 6976SOL     OW21826   4.492   5.230   5.751
 6976SOL    HW121827   4.420   5.179   5.705
 6976SOL    HW221828   4.576   5.175   5.755
 6977SOL     OW21829   4.374   2.393   2.049
 6977SOL    HW121830   4.414   2.484   2.053
 6977SOL    HW221831   4.378   2.359   1.955
 6978SOL     OW21832   5.782   2.254   1.590
 6978SOL    HW121833   5.761   2.157   1.580
 6978SOL    HW221834   5.881   2.268   1.580
 6979SOL     OW21835   1.301   4.863   0.519
 6979SOL    HW121836   1.387   4.864   0.468
 6979SOL    HW221837   1.268   4.956   0.531
 6980SOL     OW21838   1.443   0.930   3.641
 6980SOL    HW121839   1.383   0.967   3.712
 6980SOL    HW221840   1.444   0.992   3.562
 6981SOL     OW21841   2.814   3.174   6.228
 6981SOL    HW121842   2.885   3.240   6.202
 6981SOL    HW221843   2.814   3.098   6.163
 6982SOL     OW21844   1.385   0.926   4.225
 6982SOL    HW121845   1.449   0.919   4.301
 6982SOL    HW221846   1.398   1.014   4.178
 6983SOL     OW21847   5.191   2.203   3.328
 6983SOL    HW121848   5.248   2.269   3.279
 6983SOL    HW221849   5.217   2.111   3.300
 6984SOL     OW21850   2.482   2.262   4.254
 6984SOL    HW121851   2.543   2.324   4.206
 6984SOL    HW221852   2.473   2.291   4.349
 6985SOL     OW21853   3.726   5.833   1.188
 6985SOL    HW121854   3.730   5.931   1.169
 6985SOL    HW221855   3.816   5.792   1.171
 6986SOL     OW21856   2.189   6.236   6.565
 6986SOL    HW121857   2.118   6.170   6.588
 6986SOL    HW221858   2.147   6.322   6.536
 6987SOL     OW21859   0.312   2.011   6.203
 6987SOL    HW121860   0.409   2.022   6.182
 6987SOL    HW221861   0.259   2.074   6.147
 6988SOL     OW21862   6.943   1.114   6.079
 6988SOL    HW121863   6.889   1.079   6.155
 6988SOL    HW221864   6.935   1.213   6.074
 6989SOL     OW21865   0.587   3.415   3.701
 6989SOL    HW121866   0.627   3.323   3.701
 6989SOL    HW221867   0.487   3.408   3.710
 6990SOL     OW21868   5.262   2.328   1.469
 6990SOL    HW121869   5.323   2.406   1.454
 6990SOL    HW221870   5.167   2.360   1.467
 6991SOL     OW21871   3.218   4.912   3.470
 6991SOL    HW121872   3.313   4.930   3.497
 6991SOL    HW221873   3.156   4.958   3.533
 6992SOL     OW21874   4.876   6.671   5.315
 6992SOL    HW121875   4.876   6.689   5.217
 6992SOL    HW221876   4.782   6.668   5.349
 6993SOL     OW21877   0.009   0.931   3.167
 6993SOL    HW121878   6.948   0.959   3.115
 6993SOL    HW221879   7.014   0.950   3.264
 6994SOL     OW21880   0.415   3.350   4.887
 6994SOL    HW121881   0.437   3.430   4.832
 6994SOL    HW221882   0.492   3.327   4.947
 6995SOL     OW21883   6.513   5.093   6.212
 6995SOL    HW121884   6.484   4.999   6.195
 6995SOL    HW221885   6.436   5.155   6.195
 6996SOL     OW21886   2.734   6.830   6.406
 6996SOL    HW121887   2.649   6.883   6.400
 6996SOL    HW221888   2.713   6.739   6.442
 6997SOL     OW21889   5.898   6.585   5.434
 6997SOL    HW121890   5.942   6.595   5.523
 6997SOL    HW221891   5.806   6.548   5.446
 6998SOL     OW21892   2.259   2.503   1.145
 6998SOL    HW121893   2.276   2.505   1.046
 6998SOL    HW221894   2.188   2.569   1.168
 6999SOL     OW21895   2.361   2.931   6.298
 6999SOL    HW121896   2.407   2.906   6.213
 6999SOL    HW221897   2.391   3.022   6.326
 7000SOL     OW21898   6.207   6.048   1.903
 7000SOL    HW121899   6.178   6.040   1.807
 7000SOL    HW221900   6.191   6.141   1.935
 7001SOL     OW21901   2.685   3.171   5.546
 7001SOL    HW121902   2.659   3.102   5.479
 7001SOL    HW221903   2.691   3.128   5.637
 7002SOL     OW21904   1.848   5.049   2.540
 7002SOL    HW121905   1.770   5.022   2.596
 7002SOL    HW221906   1.869   5.146   2.556
 7003SOL     OW21907   4.280   5.512   0.091
 7003SOL    HW121908   4.313   5.576   0.021
 7003SOL    HW221909   4.314   5.542   0.180
 7004SOL     OW21910   2.070   4.900   1.565
 7004SOL    HW121911   2.090   4.875   1.660
 7004SOL    HW221912   2.116   4.985   1.542
 7005SOL     OW21913   1.734   6.437   6.771
 7005SOL    HW121914   1.685   6.424   6.684
 7005SOL    HW221915   1.720   6.530   6.803
 7006SOL     OW21916   5.218   4.579   4.568
 7006SOL    HW121917   5.156   4.503   4.548
 7006SOL    HW221918   5.171   4.646   4.626
 7007SOL     OW21919   4.434   6.503   3.885
 7007SOL    HW121920   4.522   6.459   3.899
 7007SOL    HW221921   4.401   6.484   3.793
 7008SOL     OW21922   1.824   4.545   5.319
 7008SOL    HW121923   1.737   4.502   5.346
 7008SOL    HW221924   1.880   4.478   5.270
 7009SOL     OW21925   6.307   5.649   2.412
 7009SOL    HW121926   6.275   5.731   2.459
 7009SOL    HW221927   6.382   5.673   2.351
 7010SOL     OW21928   4.253   4.274   5.977
 7010SOL    HW121929   4.172   4.279   5.920
 7010SOL    HW221930   4.326   4.228   5.928
 7011SOL     OW21931   2.998   0.154   6.030
 7011SOL    HW121932   3.005   0.205   5.944
 7011SOL    HW221933   2.915   0.098   6.028
 7012SOL     OW21934   1.740   1.055   2.482
 7012SOL    HW121935   1.735   1.152   2.460
 7012SOL    HW221936   1.772   1.003   2.403
 7013SOL     OW21937   0.659   0.155   0.476
 7013SOL    HW121938   0.676   0.104   0.391
 7013SOL    HW221939   0.702   0.245   0.470
 7014SOL     OW21940   4.758   2.972   1.519
 7014SOL    HW121941   4.764   2.909   1.596
 7014SOL    HW221942   4.706   2.930   1.445
 7015SOL     OW21943   6.196   4.746   2.473
 7015SOL    HW121944   6.256   4.822   2.449
 7015SOL    HW221945   6.182   4.688   2.392
 7016SOL     OW21946   3.687   4.750   1.609
 7016SOL    HW121947   3.678   4.687   1.532
 7016SOL    HW221948   3.640   4.713   1.689
 7017SOL     OW21949   2.257   6.882   2.596
 7017SOL    HW121950   2.310   6.797   2.586
 7017SOL    HW221951   2.268   6.917   2.689
 7018SOL     OW21952   5.723   4.087   4.705
 7018SOL    HW121953   5.813   4.104   4.666
 7018SOL    HW221954   5.731   4.023   4.782
 7019SOL     OW21955   2.415   3.615   6.461
 7019SOL    HW121956   2.510   3.617   6.432
 7019SOL    HW221957   2.362   3.557   6.399
 7020SOL     OW21958   6.166   0.132   6.460
 7020SOL    HW121959   6.209   0.127   6.550
 7020SOL    HW221960   6.070   0.105   6.467
 7021SOL     OW21961   1.741   1.199   5.672
 7021SOL    HW121962   1.823   1.204   5.614
 7021SOL    HW221963   1.720   1.290   5.707
 7022SOL     OW21964   4.654   5.962   0.414
 7022SOL    HW121965   4.645   5.863   0.400
 7022SOL    HW221966   4.716   5.979   0.491
 7023SOL     OW21967   0.416   1.811   3.529
 7023SOL    HW121968   0.479   1.837   3.456
 7023SOL    HW221969   0.433   1.716   3.555
 7024SOL     OW21970   1.644   4.471   5.657
 7024SOL    HW121971   1.671   4.561   5.692
 7024SOL    HW221972   1.666   4.401   5.724
 7025SOL     OW21973   2.279   1.445   6.847
 7025SOL    HW121974   2.303   1.383   6.923
 7025SOL    HW221975   2.349   1.437   6.775
 7026SOL     OW21976   2.999   1.610   2.256
 7026SOL    HW121977   2.924   1.639   2.315
 7026SOL    HW221978   3.086   1.625   2.301
 7027SOL     OW21979   2.773   4.782   3.746
 7027SOL    HW121980   2.790   4.691   3.708
 7027SOL    HW221981   2.675   4.795   3.759
 7028SOL     OW21982   4.789   6.618   4.386
 7028SOL    HW121983   4.734   6.701   4.397
 7028SOL    HW221984   4.832   6.618   4.296
 7029SOL     OW21985   4.463   5.692   6.203
 7029SOL    HW121986   4.363   5.698   6.199
 7029SOL    HW221987   4.497   5.749   6.277
 7030SOL     OW21988   6.830   2.456   5.103
 7030SOL    HW121989   6.850   2.358   5.097
 7030SOL    HW221990   6.896   2.507   5.048
 7031SOL     OW21991   2.133   6.494   4.736
 7031SOL    HW121992   2.087   6.433   4.800
 7031SOL    HW221993   2.069   6.562   4.702
 7032SOL     OW21994   3.618   0.109   3.243
 7032SOL    HW121995   3.693   0.056   3.204
 7032SOL    HW221996   3.535   0.093   3.191
 7033SOL     OW21997   1.157   2.179   3.750
 7033SOL    HW121998   1.233   2.134   3.797
 7033SOL    HW221999   1.192   2.238   3.678
 7034SOL     OW22000   6.131   6.995   3.277
 7034SOL    HW122001   6.191   6.916   3.262
 7034SOL    HW222002   6.179   0.058   3.251
 7035SOL     OW22003   1.523   6.252   1.614
 7035SOL    HW122004   1.578   6.202   1.547
 7035SOL    HW222005   1.475   6.328   1.569
 7036SOL     OW22006   0.062   0.781   2.292
 7036SOL    HW122007   0.052   0.693   2.337
 7036SOL    HW222008   0.153   0.819   2.312
 7037SOL     OW22009   1.562   0.330   6.683
 7037SOL    HW122010   1.647   0.307   6.636
 7037SOL    HW222011   1.539   0.426   6.667
 7038SOL     OW22012   1.940   3.169   4.380
 7038SOL    HW122013   1.914   3.076   4.408
 7038SOL    HW222014   1.896   3.190   4.293
 7039SOL     OW22015   2.870   5.209   1.851
 7039SOL    HW122016   2.779   5.192   1.888
 7039SOL    HW222017   2.890   5.140   1.781
 7040SOL     OW22018   5.949   2.070   4.478
 7040SOL    HW122019   6.031   2.070   4.535
 7040SOL    HW222020   5.930   1.978   4.446
 7041SOL     OW22021   0.843   2.444   1.619
 7041SOL    HW122022   0.905   2.440   1.541
 7041SOL    HW222023   0.850   2.533   1.663
 7042SOL     OW22024   5.260   5.959   6.534
 7042SOL    HW122025   5.174   5.910   6.522
 7042SOL    HW222026   5.243   6.048   6.577
 7043SOL     OW22027   2.305   2.780   2.895
 7043SOL    HW122028   2.345   2.718   2.828
 7043SOL    HW222029   2.224   2.738   2.935
 7044SOL     OW22030   4.651   5.149   3.051
 7044SOL    HW122031   4.749   5.169   3.052
 7044SOL    HW222032   4.604   5.215   2.992
 7045SOL     OW22033   4.710   5.765   2.470
 7045SOL    HW122034   4.780   5.753   2.399
 7045SOL    HW222035   4.745   5.826   2.541
 7046SOL     OW22036   3.648   1.391   2.838
 7046SOL    HW122037   3.624   1.475   2.788
 7046SOL    HW222038   3.633   1.406   2.936
 7047SOL     OW22039   0.868   2.946   2.087
 7047SOL    HW122040   0.931   3.015   2.125
 7047SOL    HW222041   0.895   2.925   1.993
 7048SOL     OW22042   6.706   5.928   2.356
 7048SOL    HW122043   6.756   6.010   2.330
 7048SOL    HW222044   6.620   5.954   2.401
 7049SOL     OW22045   2.938   1.829   1.040
 7049SOL    HW122046   3.024   1.824   1.091
 7049SOL    HW222047   2.881   1.902   1.078
 7050SOL     OW22048   4.051   3.683   2.442
 7050SOL    HW122049   4.100   3.598   2.423
 7050SOL    HW222050   4.009   3.679   2.533
 7051SOL     OW22051   0.642   0.395   0.882
 7051SOL    HW122052   0.688   0.378   0.969
 7051SOL    HW222053   0.544   0.409   0.898
 7052SOL     OW22054   5.870   2.702   3.669
 7052SOL    HW122055   5.935   2.667   3.602
 7052SOL    HW222056   5.911   2.776   3.721
 7053SOL     OW22057   1.195   3.822   4.930
 7053SOL    HW122058   1.268   3.818   4.998
 7053SOL    HW222059   1.235   3.813   4.838
 7054SOL     OW22060   0.731   6.624   0.610
 7054SOL    HW122061   0.746   6.722   0.608
 7054SOL    HW222062   0.816   6.577   0.634
 7055SOL     OW22063   3.920   5.683   5.546
 7055SOL    HW122064   3.956   5.720   5.460
 7055SOL    HW222065   3.876   5.595   5.528
 7056SOL     OW22066   5.721   5.731   2.594
 7056SOL    HW122067   5.781   5.654   2.612
 7056SOL    HW222068   5.672   5.716   2.508
 7057SOL     OW22069   0.813   5.628   3.546
 7057SOL    HW122070   0.849   5.720   3.557
 7057SOL    HW222071   0.714   5.632   3.533
 7058SOL     OW22072   6.755   5.954   6.016
 7058SOL    HW122073   6.674   5.992   5.971
 7058SOL    HW222074   6.836   5.979   5.963
 7059SOL     OW22075   6.883   0.848   3.550
 7059SOL    HW122076   6.848   0.844   3.457
 7059SOL    HW222077   6.898   0.756   3.584
 7060SOL     OW22078   4.041   0.455   1.925
 7060SOL    HW122079   4.117   0.486   1.869
 7060SOL    HW222080   4.061   0.363   1.959
 7061SOL     OW22081   0.086   3.387   4.024
 7061SOL    HW122082   0.104   3.289   4.018
 7061SOL    HW222083   0.170   3.438   4.004
 7062SOL     OW22084   5.054   1.393   5.145
 7062SOL    HW122085   4.999   1.410   5.063
 7062SOL    HW222086   5.055   1.295   5.165
 7063SOL     OW22087   0.894   0.650   1.423
 7063SOL    HW122088   0.892   0.742   1.384
 7063SOL    HW222089   0.808   0.633   1.472
 7064SOL     OW22090   4.131   2.069   2.399
 7064SOL    HW122091   4.062   2.075   2.327
 7064SOL    HW222092   4.217   2.108   2.367
 7065SOL     OW22093   4.095   3.255   6.487
 7065SOL    HW122094   4.035   3.294   6.416
 7065SOL    HW222095   4.106   3.321   6.561
 7066SOL     OW22096   4.452   0.000   0.358
 7066SOL    HW122097   4.521   6.997   0.426
 7066SOL    HW222098   4.488   0.071   0.297
 7067SOL     OW22099   1.532   1.608   5.222
 7067SOL    HW122100   1.445   1.657   5.231
 7067SOL    HW222101   1.604   1.673   5.200
 7068SOL     OW22102   0.542   4.257   4.352
 7068SOL    HW122103   0.484   4.257   4.434
 7068SOL    HW222104   0.601   4.176   4.352
 7069SOL     OW22105   5.848   1.739   3.634
 7069SOL    HW122106   5.926   1.793   3.666
 7069SOL    HW222107   5.784   1.724   3.709
 7070SOL     OW22108   6.260   6.266   4.661
 7070SOL    HW122109   6.277   6.176   4.702
 7070SOL    HW222110   6.266   6.336   4.732
 7071SOL     OW22111   1.623   6.140   6.290
 7071SOL    HW122112   1.645   6.228   6.332
 7071SOL    HW222113   1.683   6.070   6.328
 7072SOL     OW22114   0.665   6.317   6.413
 7072SOL    HW122115   0.679   6.220   6.429
 7072SOL    HW222116   0.604   6.329   6.335
 7073SOL     OW22117   5.029   6.945   4.440
 7073SOL    HW122118   4.937   6.984   4.432
 7073SOL    HW222119   5.043   6.912   4.533
 7074SOL     OW22120   4.568   1.955   1.707
 7074SOL    HW122121   4.494   2.022   1.714
 7074SOL    HW222122   4.534   1.874   1.658
 7075SOL     OW22123   1.968   4.992   5.261
 7075SOL    HW122124   1.983   4.927   5.187
 7075SOL    HW222125   1.939   4.943   5.343
 7076SOL     OW22126   5.655   2.587   6.647
 7076SOL    HW122127   5.734   2.565   6.590
 7076SOL    HW222128   5.623   2.679   6.626
 7077SOL     OW22129   2.314   4.490   3.903
 7077SOL    HW122130   2.330   4.392   3.906
 7077SOL    HW222131   2.219   4.509   3.929
 7078SOL     OW22132   6.767   0.280   1.148
 7078SOL    HW122133   6.851   0.323   1.179
 7078SOL    HW222134   6.752   0.195   1.199
 7079SOL     OW22135   6.497   6.265   4.887
 7079SOL    HW122136   6.486   6.168   4.911
 7079SOL    HW222137   6.574   6.275   4.824
 7080SOL     OW22138   2.537   2.515   4.127
 7080SOL    HW122139   2.466   2.563   4.075
 7080SOL    HW222140   2.553   2.563   4.213
 7081SOL     OW22141   2.533   1.786   0.003
 7081SOL    HW122142   2.538   1.880   0.035
 7081SOL    HW222143   2.484   1.782   6.936
 7082SOL     OW22144   6.278   4.367   0.049
 7082SOL    HW122145   6.246   4.421   6.991
 7082SOL    HW222146   6.210   4.372   0.122
 7083SOL     OW22147   2.740   0.691   0.417
 7083SOL    HW122148   2.669   0.620   0.415
 7083SOL    HW222149   2.806   0.670   0.489
 7084SOL     OW22150   0.516   6.562   5.283
 7084SOL    HW122151   0.536   6.594   5.376
 7084SOL    HW222152   0.516   6.639   5.220
 7085SOL     OW22153   1.190   1.958   1.863
 7085SOL    HW122154   1.234   2.037   1.821
 7085SOL    HW222155   1.260   1.894   1.895
 7086SOL     OW22156   5.275   1.128   5.067
 7086SOL    HW122157   5.266   1.217   5.022
 7086SOL    HW222158   5.237   1.133   5.159
 7087SOL     OW22159   6.385   4.110   3.443
 7087SOL    HW122160   6.447   4.144   3.373
 7087SOL    HW222161   6.420   4.023   3.479
 7088SOL     OW22162   5.863   3.005   3.562
 7088SOL    HW122163   5.788   2.971   3.506
 7088SOL    HW222164   5.877   2.945   3.640
 7089SOL     OW22165   3.322   2.125   4.783
 7089SOL    HW122166   3.286   2.199   4.839
 7089SOL    HW222167   3.263   2.111   4.703
 7090SOL     OW22168   2.354   0.811   6.435
 7090SOL    HW122169   2.281   0.744   6.446
 7090SOL    HW222170   2.314   0.903   6.426
 7091SOL     OW22171   0.310   1.618   6.683
 7091SOL    HW122172   0.400   1.659   6.668
 7091SOL    HW222173   0.287   1.623   6.780
 7092SOL     OW22174   4.452   2.376   6.255
 7092SOL    HW122175   4.402   2.462   6.257
 7092SOL    HW222176   4.425   2.319   6.333
 7093SOL     OW22177   3.018   3.853   3.460
 7093SOL    HW122178   3.037   3.890   3.551
 7093SOL    HW222179   3.079   3.897   3.394
 7094SOL     OW22180   1.045   5.735   6.055
 7094SOL    HW122181   1.016   5.828   6.076
 7094SOL    HW222182   0.980   5.670   6.096
 7095SOL     OW22183   2.924   3.945   5.920
 7095SOL    HW122184   2.850   3.958   5.986
 7095SOL    HW222185   2.885   3.921   5.831
 7096SOL     OW22186   6.533   1.094   3.492
 7096SOL    HW122187   6.605   1.091   3.423
 7096SOL    HW222188   6.571   1.126   3.579
 7097SOL     OW22189   5.638   1.438   1.489
 7097SOL    HW122190   5.698   1.435   1.569
 7097SOL    HW222191   5.650   1.355   1.435
 7098SOL     OW22192   1.013   0.364   4.730
 7098SOL    HW122193   1.096   0.326   4.772
 7098SOL    HW222194   1.028   0.460   4.708
 7099SOL     OW22195   2.397   0.699   5.155
 7099SOL    HW122196   2.297   0.702   5.158
 7099SOL    HW222197   2.426   0.627   5.091
 7100SOL     OW22198   5.552   2.904   0.739
 7100SOL    HW122199   5.462   2.935   0.770
 7100SOL    HW222200   5.618   2.978   0.748
 7101SOL     OW22201   2.404   1.137   4.763
 7101SOL    HW122202   2.451   1.225   4.768
 7101SOL    HW222203   2.471   1.063   4.767
 7102SOL     OW22204   4.315   0.607   0.896
 7102SOL    HW122205   4.360   0.658   0.970
 7102SOL    HW222206   4.302   0.512   0.924
 7103SOL     OW22207   4.640   5.279   1.675
 7103SOL    HW122208   4.592   5.334   1.743
 7103SOL    HW222209   4.605   5.300   1.584
 7104SOL     OW22210   0.373   3.048   4.541
 7104SOL    HW122211   0.405   2.956   4.566
 7104SOL    HW222212   0.444   3.094   4.488
 7105SOL     OW22213   2.842   2.746   5.370
 7105SOL    HW122214   2.868   2.779   5.461
 7105SOL    HW222215   2.891   2.662   5.350
 7106SOL     OW22216   2.886   3.334   3.302
 7106SOL    HW122217   2.917   3.273   3.375
 7106SOL    HW222218   2.921   3.426   3.319
 7107SOL     OW22219   2.475   2.022   0.198
 7107SOL    HW122220   2.409   1.948   0.209
 7107SOL    HW222221   2.435   2.108   0.231
 7108SOL     OW22222   3.874   6.306   2.894
 7108SOL    HW122223   3.955   6.342   2.939
 7108SOL    HW222224   3.898   6.223   2.843
 7109SOL     OW22225   2.818   0.423   6.101
 7109SOL    HW122226   2.808   0.344   6.041
 7109SOL    HW222227   2.895   0.479   6.070
 7110SOL     OW22228   3.501   5.469   4.220
 7110SOL    HW122229   3.567   5.429   4.283
 7110SOL    HW222230   3.537   5.462   4.126
 7111SOL     OW22231   1.572   1.945   4.199
 7111SOL    HW122232   1.605   1.868   4.145
 7111SOL    HW222233   1.502   1.994   4.147
 7112SOL     OW22234   1.308   5.681   4.083
 7112SOL    HW122235   1.322   5.586   4.056
 7112SOL    HW222236   1.229   5.718   4.035
 7113SOL     OW22237   3.621   3.828   4.820
 7113SOL    HW122238   3.691   3.792   4.882
 7113SOL    HW222239   3.654   3.915   4.781
 7114SOL     OW22240   3.935   0.025   1.922
 7114SOL    HW122241   3.878   0.068   1.851
 7114SOL    HW222242   3.877   7.009   1.994
 7115SOL     OW22243   5.388   3.615   1.977
 7115SOL    HW122244   5.300   3.656   2.000
 7115SOL    HW222245   5.374   3.524   1.937
 7116SOL     OW22246   6.212   4.069   3.124
 7116SOL    HW122247   6.288   4.036   3.180
 7116SOL    HW222248   6.245   4.097   3.034
 7117SOL     OW22249   6.427   5.757   5.027
 7117SOL    HW122250   6.454   5.847   4.992
 7117SOL    HW222251   6.432   5.689   4.953
 7118SOL     OW22252   2.472   3.520   0.914
 7118SOL    HW122253   2.378   3.485   0.911
 7118SOL    HW222254   2.534   3.446   0.940
 7119SOL     OW22255   5.260   1.729   2.538
 7119SOL    HW122256   5.172   1.775   2.548
 7119SOL    HW222257   5.274   1.666   2.615
 7120SOL     OW22258   3.701   2.147   2.762
 7120SOL    HW122259   3.694   2.127   2.664
 7120SOL    HW222260   3.617   2.190   2.794
 7121SOL     OW22261   1.841   6.827   3.063
 7121SOL    HW122262   1.895   6.868   2.989
 7121SOL    HW222263   1.751   6.800   3.027
 7122SOL     OW22264   1.494   6.898   5.776
 7122SOL    HW122265   1.527   6.816   5.730
 7122SOL    HW222266   1.536   6.905   5.866
 7123SOL     OW22267   2.076   4.781   3.021
 7123SOL    HW122268   1.994   4.752   3.069
 7123SOL    HW222269   2.053   4.852   2.954
 7124SOL     OW22270   0.181   2.385   0.578
 7124SOL    HW122271   0.109   2.393   0.648
 7124SOL    HW222272   0.167   2.455   0.508
 7125SOL     OW22273   6.421   6.963   0.740
 7125SOL    HW122274   6.383   6.998   0.654
 7125SOL    HW222275   6.347   6.941   0.803
 7126SOL     OW22276   3.378   4.813   7.018
 7126SOL    HW122277   3.410   4.863   0.078
 7126SOL    HW222278   3.308   4.867   6.970
 7127SOL     OW22279   1.814   5.224   5.254
 7127SOL    HW122280   1.718   5.201   5.241
 7127SOL    HW222281   1.869   5.140   5.256
 7128SOL     OW22282   3.328   4.781   0.343
 7128SOL    HW122283   3.234   4.802   0.370
 7128SOL    HW222284   3.357   4.696   0.388
 7129SOL     OW22285   1.883   1.490   0.031
 7129SOL    HW122286   1.801   1.529   0.074
 7129SOL    HW222287   1.913   1.549   6.976
 7130SOL     OW22288   4.034   5.204   5.683
 7130SOL    HW122289   4.072   5.122   5.639
 7130SOL    HW222290   4.078   5.218   5.772
 7131SOL     OW22291   2.306   0.764   0.945
 7131SOL    HW122292   2.312   0.753   1.045
 7131SOL    HW222293   2.272   0.679   0.904
 7132SOL     OW22294   3.797   3.608   6.830
 7132SOL    HW122295   3.790   3.695   6.879
 7132SOL    HW222296   3.887   3.568   6.847
 7133SOL     OW22297   5.154   5.557   5.397
 7133SOL    HW122298   5.117   5.616   5.325
 7133SOL    HW222299   5.198   5.613   5.467
 7134SOL     OW22300   5.873   6.990   1.966
 7134SOL    HW122301   5.819   6.999   2.050
 7134SOL    HW222302   5.829   0.022   1.893
 7135SOL     OW22303   0.650   3.227   3.183
 7135SOL    HW122304   0.616   3.319   3.204
 7135SOL    HW222305   0.575   3.161   3.191
 7136SOL     OW22306   2.016   2.611   1.121
 7136SOL    HW122307   1.938   2.646   1.172
 7136SOL    HW222308   1.983   2.563   1.039
 7137SOL     OW22309   3.799   0.006   6.601
 7137SOL    HW122310   3.873   0.070   6.584
 7137SOL    HW222311   3.749   7.009   6.515
 7138SOL     OW22312   1.577   2.539   6.798
 7138SOL    HW122313   1.668   2.560   6.835
 7138SOL    HW222314   1.583   2.464   6.733
 7139SOL     OW22315   5.851   4.213   2.129
 7139SOL    HW122316   5.825   4.296   2.079
 7139SOL    HW222317   5.781   4.143   2.116
 7140SOL     OW22318   5.623   4.453   4.187
 7140SOL    HW122319   5.668   4.463   4.275
 7140SOL    HW222320   5.525   4.467   4.197
 7141SOL     OW22321   3.941   6.100   1.779
 7141SOL    HW122322   4.018   6.070   1.835
 7141SOL    HW222323   3.960   6.190   1.741
 7142SOL     OW22324   4.478   0.390   3.732
 7142SOL    HW122325   4.456   0.456   3.804
 7142SOL    HW222326   4.520   0.308   3.773
 7143SOL     OW22327   1.044   2.749   5.992
 7143SOL    HW122328   0.994   2.783   6.072
 7143SOL    HW222329   1.058   2.650   6.001
 7144SOL     OW22330   1.832   1.770   2.396
 7144SOL    HW122331   1.924   1.804   2.414
 7144SOL    HW222332   1.823   1.748   2.298
 7145SOL     OW22333   4.313   6.793   0.294
 7145SOL    HW122334   4.228   6.818   0.248
 7145SOL    HW222335   4.360   6.876   0.325
 7146SOL     OW22336   2.225   0.216   0.981
 7146SOL    HW122337   2.207   0.169   1.067
 7146SOL    HW222338   2.156   0.288   0.968
 7147SOL     OW22339   0.506   6.751   3.468
 7147SOL    HW122340   0.560   6.826   3.431
 7147SOL    HW222341   0.459   6.703   3.393
 7148SOL     OW22342   0.870   6.400   0.273
 7148SOL    HW122343   0.793   6.371   0.216
 7148SOL    HW222344   0.874   6.343   0.355
 7149SOL     OW22345   5.875   6.686   2.903
 7149SOL    HW122346   5.796   6.655   2.851
 7149SOL    HW222347   5.956   6.634   2.875
 7150SOL     OW22348   3.409   1.889   2.288
 7150SOL    HW122349   3.375   1.889   2.194
 7150SOL    HW222350   3.497   1.936   2.292
 7151SOL     OW22351   2.243   6.375   0.908
 7151SOL    HW122352   2.275   6.283   0.890
 7151SOL    HW222353   2.320   6.433   0.935
 7152SOL     OW22354   1.228   1.179   4.820
 7152SOL    HW122355   1.160   1.145   4.755
 7152SOL    HW222356   1.229   1.279   4.817
 7153SOL     OW22357   3.504   5.337   1.998
 7153SOL    HW122358   3.440   5.378   1.933
 7153SOL    HW222359   3.554   5.409   2.046
 7154SOL     OW22360   3.612   0.617   3.820
 7154SOL    HW122361   3.643   0.609   3.915
 7154SOL    HW222362   3.517   0.588   3.813
 7155SOL     OW22363   2.047   3.375   1.836
 7155SOL    HW122364   2.095   3.357   1.750
 7155SOL    HW222365   2.114   3.393   1.908
 7156SOL     OW22366   0.380   4.077   4.576
 7156SOL    HW122367   0.463   4.116   4.615
 7156SOL    HW222368   0.321   4.045   4.649
 7157SOL     OW22369   6.318   3.860   2.021
 7157SOL    HW122370   6.246   3.849   2.090
 7157SOL    HW222371   6.390   3.793   2.038
 7158SOL     OW22372   1.381   6.837   2.694
 7158SOL    HW122373   1.304   6.781   2.725
 7158SOL    HW222374   1.351   6.931   2.681
 7159SOL     OW22375   0.679   4.604   2.598
 7159SOL    HW122376   0.667   4.525   2.658
 7159SOL    HW222377   0.772   4.603   2.561
 7160SOL     OW22378   5.096   0.095   3.035
 7160SOL    HW122379   5.024   0.136   3.091
 7160SOL    HW222380   5.171   0.066   3.094
 7161SOL     OW22381   2.888   3.431   4.637
 7161SOL    HW122382   2.808   3.383   4.672
 7161SOL    HW222383   2.875   3.529   4.645
 7162SOL     OW22384   1.726   5.452   6.093
 7162SOL    HW122385   1.754   5.449   5.997
 7162SOL    HW222386   1.770   5.377   6.142
 7163SOL     OW22387   2.630   6.454   2.675
 7163SOL    HW122388   2.580   6.413   2.598
 7163SOL    HW222389   2.671   6.382   2.730
 7164SOL     OW22390   1.922   1.057   3.920
 7164SOL    HW122391   1.971   1.111   3.852
 7164SOL    HW222392   1.830   1.094   3.931
 7165SOL     OW22393   6.902   1.521   1.889
 7165SOL    HW122394   6.842   1.452   1.850
 7165SOL    HW222395   6.881   1.610   1.848
 7166SOL     OW22396   5.994   3.117   0.615
 7166SOL    HW122397   6.033   3.090   0.703
 7166SOL    HW222398   5.990   3.217   0.609
 7167SOL     OW22399   5.236   3.400   3.961
 7167SOL    HW122400   5.196   3.309   3.965
 7167SOL    HW222401   5.308   3.403   3.892
 7168SOL     OW22402   1.834   2.182   3.212
 7168SOL    HW122403   1.881   2.266   3.241
 7168SOL    HW222404   1.742   2.180   3.252
 7169SOL     OW22405   6.424   2.667   5.059
 7169SOL    HW122406   6.353   2.651   5.127
 7169SOL    HW222407   6.477   2.583   5.045
 7170SOL     OW22408   5.115   6.030   3.474
 7170SOL    HW122409   5.159   6.006   3.388
 7170SOL    HW222410   5.043   5.963   3.495
 7171SOL     OW22411   5.387   3.932   0.282
 7171SOL    HW122412   5.482   3.963   0.290
 7171SOL    HW222413   5.367   3.911   0.186
 7172SOL     OW22414   1.684   0.695   5.214
 7172SOL    HW122415   1.712   0.749   5.135
 7172SOL    HW222416   1.695   0.597   5.193
 7173SOL     OW22417   6.988   4.473   5.994
 7173SOL    HW122418   6.906   4.515   6.034
 7173SOL    HW222419   0.024   4.433   6.067
 7174SOL     OW22420   0.554   4.725   0.562
 7174SOL    HW122421   0.553   4.718   0.462
 7174SOL    HW222422   0.625   4.790   0.589
 7175SOL     OW22423   5.085   2.389   6.555
 7175SOL    HW122424   5.045   2.381   6.646
 7175SOL    HW222425   5.028   2.340   6.489
 7176SOL     OW22426   0.857   6.529   2.656
 7176SOL    HW122427   0.890   6.443   2.695
 7176SOL    HW222428   0.810   6.582   2.726
 7177SOL     OW22429   2.101   5.830   4.547
 7177SOL    HW122430   2.181   5.800   4.496
 7177SOL    HW222431   2.025   5.844   4.483
 7178SOL     OW22432   1.839   2.369   5.742
 7178SOL    HW122433   1.923   2.421   5.728
 7178SOL    HW222434   1.794   2.355   5.654
 7179SOL     OW22435   2.181   3.890   4.138
 7179SOL    HW122436   2.117   3.955   4.098
 7179SOL    HW222437   2.224   3.837   4.064
 7180SOL     OW22438   2.425   5.140   0.135
 7180SOL    HW122439   2.484   5.220   0.119
 7180SOL    HW222440   2.387   5.109   0.048
 7181SOL     OW22441   2.418   5.981   0.541
 7181SOL    HW122442   2.407   6.079   0.560
 7181SOL    HW222443   2.328   5.936   0.543
 7182SOL     OW22444   1.570   2.620   5.049
 7182SOL    HW122445   1.665   2.620   5.017
 7182SOL    HW222446   1.528   2.708   5.025
 7183SOL     OW22447   2.691   5.929   0.531
 7183SOL    HW122448   2.736   5.903   0.445
 7183SOL    HW222449   2.593   5.917   0.523
 7184SOL     OW22450   6.978   1.274   3.166
 7184SOL    HW122451   0.020   1.304   3.239
 7184SOL    HW222452   7.016   1.302   3.077
 7185SOL     OW22453   5.227   0.534   5.051
 7185SOL    HW122454   5.271   0.598   4.988
 7185SOL    HW222455   5.296   0.485   5.104
 7186SOL     OW22456   6.479   0.511   0.172
 7186SOL    HW122457   6.452   0.590   0.228
 7186SOL    HW222458   6.557   0.535   0.114
 7187SOL     OW22459   3.616   4.122   6.682
 7187SOL    HW122460   3.531   4.156   6.641
 7187SOL    HW222461   3.694   4.151   6.627
 7188SOL     OW22462   6.613   0.370   0.484
 7188SOL    HW122463   6.696   0.389   0.537
 7188SOL    HW222464   6.635   0.313   0.405
 7189SOL     OW22465   0.812   0.939   5.913
 7189SOL    HW122466   0.740   1.003   5.887
 7189SOL    HW222467   0.772   0.856   5.951
 7190SOL     OW22468   6.953   3.806   2.955
 7190SOL    HW122469   7.003   3.859   2.887
 7190SOL    HW222470   6.856   3.804   2.932
 7191SOL     OW22471   0.696   4.383   2.816
 7191SOL    HW122472   0.605   4.352   2.844
 7191SOL    HW222473   0.759   4.306   2.821
 7192SOL     OW22474   3.437   4.493   5.392
 7192SOL    HW122475   3.458   4.410   5.339
 7192SOL    HW222476   3.341   4.517   5.380
 7193SOL     OW22477   1.906   2.671   2.098
 7193SOL    HW122478   1.881   2.658   2.002
 7193SOL    HW222479   1.862   2.601   2.154
 7194SOL     OW22480   2.451   2.299   0.900
 7194SOL    HW122481   2.500   2.267   0.819
 7194SOL    HW222482   2.394   2.378   0.876
 7195SOL     OW22483   6.850   4.309   6.843
 7195SOL    HW122484   6.759   4.291   6.880
 7195SOL    HW222485   6.868   4.407   6.844
 7196SOL     OW22486   3.508   3.949   1.174
 7196SOL    HW122487   3.445   3.968   1.100
 7196SOL    HW222488   3.485   4.006   1.253
 7197SOL     OW22489   0.208   2.721   5.432
 7197SOL    HW122490   0.187   2.629   5.465
 7197SOL    HW222491   0.304   2.726   5.404
 7198SOL     OW22492   0.652   0.817   6.692
 7198SOL    HW122493   0.619   0.753   6.761
 7198SOL    HW222494   0.616   0.790   6.602
 7199SOL     OW22495   2.300   1.164   2.762
 7199SOL    HW122496   2.225   1.104   2.789
 7199SOL    HW222497   2.348   1.125   2.683
 7200SOL     OW22498   2.567   1.922   0.486
 7200SOL    HW122499   2.649   1.877   0.520
 7200SOL    HW222500   2.576   1.939   0.388
 7201SOL     OW22501   0.869   5.660   4.255
 7201SOL    HW122502   0.769   5.652   4.257
 7201SOL    HW222503   0.908   5.581   4.207
 7202SOL     OW22504   4.271   0.728   6.122
 7202SOL    HW122505   4.231   0.818   6.138
 7202SOL    HW222506   4.215   0.678   6.057
 7203SOL     OW22507   6.711   1.800   0.911
 7203SOL    HW122508   6.726   1.898   0.897
 7203SOL    HW222509   6.613   1.780   0.903
 7204SOL     OW22510   0.498   6.735   5.551
 7204SOL    HW122511   0.495   6.824   5.596
 7204SOL    HW222512   0.592   6.713   5.526
 7205SOL     OW22513   0.799   5.539   3.271
 7205SOL    HW122514   0.749   5.453   3.266
 7205SOL    HW222515   0.821   5.561   3.366
 7206SOL     OW22516   1.787   0.409   1.233
 7206SOL    HW122517   1.830   0.464   1.161
 7206SOL    HW222518   1.833   0.425   1.320
 7207SOL     OW22519   3.748   0.315   2.788
 7207SOL    HW122520   3.816   0.378   2.827
 7207SOL    HW222521   3.787   0.270   2.708
 7208SOL     OW22522   4.068   6.438   3.527
 7208SOL    HW122523   4.149   6.385   3.502
 7208SOL    HW222524   4.054   6.433   3.626
 7209SOL     OW22525   2.934   3.538   2.609
 7209SOL    HW122526   2.915   3.474   2.535
 7209SOL    HW222527   2.908   3.497   2.697
 7210SOL     OW22528   4.625   0.713   3.901
 7210SOL    HW122529   4.618   0.702   3.802
 7210SOL    HW222530   4.698   0.654   3.935
 7211SOL     OW22531   2.687   5.557   3.842
 7211SOL    HW122532   2.594   5.553   3.878
 7211SOL    HW222533   2.686   5.597   3.750
 7212SOL     OW22534   0.258   6.143   4.678
 7212SOL    HW122535   0.257   6.239   4.705
 7212SOL    HW222536   0.281   6.136   4.580
 7213SOL     OW22537   5.251   0.476   0.065
 7213SOL    HW122538   5.181   0.523   0.012
 7213SOL    HW222539   5.242   0.377   0.051
 7214SOL     OW22540   0.280   5.079   5.627
 7214SOL    HW122541   0.184   5.054   5.611
 7214SOL    HW222542   0.308   5.147   5.560
 7215SOL     OW22543   0.075   3.395   5.266
 7215SOL    HW122544   0.103   3.414   5.360
 7215SOL    HW222545   6.996   3.410   5.258
 7216SOL     OW22546   3.292   6.461   6.599
 7216SOL    HW122547   3.263   6.368   6.576
 7216SOL    HW222548   3.348   6.497   6.525
 7217SOL     OW22549   2.404   4.331   2.711
 7217SOL    HW122550   2.350   4.311   2.630
 7217SOL    HW222551   2.467   4.406   2.691
 7218SOL     OW22552   4.641   2.353   5.563
 7218SOL    HW122553   4.600   2.437   5.598
 7218SOL    HW222554   4.731   2.340   5.604
 7219SOL     OW22555   4.416   6.555   4.621
 7219SOL    HW122556   4.371   6.520   4.704
 7219SOL    HW222557   4.515   6.544   4.630
 7220SOL     OW22558   0.567   5.713   5.046
 7220SOL    HW122559   0.604   5.712   4.953
 7220SOL    HW222560   0.593   5.630   5.094
 7221SOL     OW22561   4.413   5.640   4.600
 7221SOL    HW122562   4.422   5.723   4.654
 7221SOL    HW222563   4.346   5.580   4.643
 7222SOL     OW22564   5.988   0.420   2.984
 7222SOL    HW122565   5.931   0.404   3.065
 7222SOL    HW222566   6.081   0.391   3.004
 7223SOL     OW22567   2.864   2.327   1.450
 7223SOL    HW122568   2.850   2.228   1.448
 7223SOL    HW222569   2.929   2.350   1.523
 7224SOL     OW22570   5.797   2.313   3.626
 7224SOL    HW122571   5.717   2.255   3.641
 7224SOL    HW222572   5.789   2.396   3.682
 7225SOL     OW22573   0.764   5.935   6.969
 7225SOL    HW122574   0.678   5.976   6.939
 7225SOL    HW222575   0.834   5.949   6.898
 7226SOL     OW22576   6.756   1.021   0.992
 7226SOL    HW122577   6.697   1.102   0.982
 7226SOL    HW222578   6.782   0.988   0.901
 7227SOL     OW22579   0.753   2.626   0.946
 7227SOL    HW122580   0.727   2.536   0.979
 7227SOL    HW222581   0.674   2.688   0.952
 7228SOL     OW22582   0.860   1.096   2.278
 7228SOL    HW122583   0.840   1.136   2.189
 7228SOL    HW222584   0.935   1.030   2.268
 7229SOL     OW22585   1.588   6.719   5.055
 7229SOL    HW122586   1.624   6.693   5.145
 7229SOL    HW222587   1.507   6.664   5.034
 7230SOL     OW22588   4.759   5.174   4.561
 7230SOL    HW122589   4.734   5.090   4.609
 7230SOL    HW222590   4.680   5.236   4.559
 7231SOL     OW22591   5.213   7.015   0.190
 7231SOL    HW122592   5.229   0.070   0.254
 7231SOL    HW222593   5.147   0.023   0.121
 7232SOL     OW22594   5.138   5.669   3.263
 7232SOL    HW122595   5.223   5.618   3.274
 7232SOL    HW222596   5.158   5.764   3.241
 7233SOL     OW22597   0.429   2.763   4.622
 7233SOL    HW122598   0.472   2.710   4.549
 7233SOL    HW222599   0.330   2.755   4.616
 7234SOL     OW22600   5.315   3.837   3.339
 7234SOL    HW122601   5.361   3.793   3.262
 7234SOL    HW222602   5.310   3.773   3.416
 7235SOL     OW22603   6.921   4.171   1.800
 7235SOL    HW122604   6.844   4.183   1.738
 7235SOL    HW222605   7.000   4.221   1.766
 7236SOL     OW22606   2.598   1.628   2.292
 7236SOL    HW122607   2.654   1.672   2.362
 7236SOL    HW222608   2.533   1.694   2.254
 7237SOL     OW22609   5.587   0.141   5.227
 7237SOL    HW122610   5.672   0.162   5.276
 7237SOL    HW222611   5.609   0.106   5.136
 7238SOL     OW22612   3.248   2.005   1.150
 7238SOL    HW122613   3.328   2.061   1.171
 7238SOL    HW222614   3.273   1.908   1.158
 7239SOL     OW22615   2.098   1.845   2.403
 7239SOL    HW122616   2.149   1.873   2.483
 7239SOL    HW222617   2.111   1.911   2.329
 7240SOL     OW22618   2.326   4.805   5.957
 7240SOL    HW122619   2.279   4.800   5.869
 7240SOL    HW222620   2.329   4.714   5.999
 7241SOL     OW22621   2.668   0.566   0.790
 7241SOL    HW122622   2.704   0.538   0.701
 7241SOL    HW222623   2.589   0.627   0.776
 7242SOL     OW22624   6.263   5.887   0.465
 7242SOL    HW122625   6.230   5.793   0.469
 7242SOL    HW222626   6.186   5.949   0.454
 7243SOL     OW22627   6.902   4.441   6.429
 7243SOL    HW122628   6.873   4.512   6.493
 7243SOL    HW222629   6.834   4.367   6.429
 7244SOL     OW22630   5.725   0.604   1.057
 7244SOL    HW122631   5.714   0.668   1.133
 7244SOL    HW222632   5.819   0.568   1.057
 7245SOL     OW22633   0.328   2.032   5.114
 7245SOL    HW122634   0.250   2.060   5.170
 7245SOL    HW222635   0.393   2.107   5.105
 7246SOL     OW22636   6.472   0.402   4.152
 7246SOL    HW122637   6.448   0.305   4.145
 7246SOL    HW222638   6.471   0.429   4.249
 7247SOL     OW22639   2.956   6.756   4.180
 7247SOL    HW122640   2.903   6.732   4.098
 7247SOL    HW222641   2.942   6.686   4.250
 7248SOL     OW22642   3.552   0.883   3.734
 7248SOL    HW122643   3.546   0.785   3.751
 7248SOL    HW222644   3.619   0.901   3.661
 7249SOL     OW22645   5.674   4.688   2.236
 7249SOL    HW122646   5.638   4.672   2.329
 7249SOL    HW222647   5.608   4.742   2.184
 7250SOL     OW22648   4.246   6.067   6.213
 7250SOL    HW122649   4.152   6.086   6.245
 7250SOL    HW222650   4.299   6.029   6.289
 7251SOL     OW22651   0.461   6.740   5.069
 7251SOL    HW122652   0.517   6.750   4.987
 7251SOL    HW222653   0.365   6.757   5.047
 7252SOL     OW22654   3.789   3.170   3.572
 7252SOL    HW122655   3.876   3.172   3.622
 7252SOL    HW222656   3.759   3.076   3.560
 7253SOL     OW22657   2.337   6.282   6.790
 7253SOL    HW122658   2.291   6.295   6.702
 7253SOL    HW222659   2.420   6.228   6.776
 7254SOL     OW22660   4.555   5.902   5.046
 7254SOL    HW122661   4.516   5.855   5.126
 7254SOL    HW222662   4.646   5.936   5.069
 7255SOL     OW22663   3.878   3.541   1.224
 7255SOL    HW122664   3.796   3.584   1.187
 7255SOL    HW222665   3.851   3.460   1.277
 7256SOL     OW22666   4.391   4.582   4.247
 7256SOL    HW122667   4.378   4.609   4.343
 7256SOL    HW222668   4.407   4.483   4.243
 7257SOL     OW22669   4.841   3.176   3.891
 7257SOL    HW122670   4.761   3.195   3.948
 7257SOL    HW222671   4.890   3.261   3.873
 7258SOL     OW22672   3.918   1.071   3.078
 7258SOL    HW122673   4.016   1.052   3.083
 7258SOL    HW222674   3.903   1.168   3.060
 7259SOL     OW22675   3.281   2.935   1.343
 7259SOL    HW122676   3.233   2.871   1.282
 7259SOL    HW222677   3.219   3.011   1.365
 7260SOL     OW22678   2.816   2.286   2.854
 7260SOL    HW122679   2.741   2.342   2.819
 7260SOL    HW222680   2.845   2.320   2.943
 7261SOL     OW22681   1.976   2.907   1.367
 7261SOL    HW122682   1.915   2.902   1.289
 7261SOL    HW222683   1.938   2.969   1.436
 7262SOL     OW22684   5.409   1.792   4.689
 7262SOL    HW122685   5.413   1.892   4.699
 7262SOL    HW222686   5.444   1.766   4.599
 7263SOL     OW22687   0.201   6.515   2.456
 7263SOL    HW122688   0.214   6.566   2.371
 7263SOL    HW222689   0.148   6.432   2.437
 7264SOL     OW22690   6.131   1.509   6.468
 7264SOL    HW122691   6.188   1.505   6.550
 7264SOL    HW222692   6.049   1.453   6.481
 7265SOL     OW22693   5.516   5.974   5.897
 7265SOL    HW122694   5.538   6.031   5.976
 7265SOL    HW222695   5.456   6.024   5.835
 7266SOL     OW22696   4.469   0.116   1.089
 7266SOL    HW122697   4.539   0.062   1.136
 7266SOL    HW222698   4.458   0.204   1.136
 7267SOL     OW22699   6.667   5.513   5.665
 7267SOL    HW122700   6.668   5.580   5.590
 7267SOL    HW222701   6.587   5.529   5.722
 7268SOL     OW22702   4.416   4.578   2.799
 7268SOL    HW122703   4.499   4.580   2.855
 7268SOL    HW222704   4.441   4.556   2.705
 7269SOL     OW22705   6.945   6.376   1.240
 7269SOL    HW122706   6.961   6.289   1.288
 7269SOL    HW222707   6.965   6.364   1.143
 7270SOL     OW22708   1.186   3.002   4.735
 7270SOL    HW122709   1.148   2.978   4.825
 7270SOL    HW222710   1.191   3.101   4.727
 7271SOL     OW22711   0.341   5.053   4.043
 7271SOL    HW122712   0.383   5.140   4.071
 7271SOL    HW222713   0.413   4.990   4.013
 7272SOL     OW22714   5.517   4.959   1.889
 7272SOL    HW122715   5.584   5.033   1.882
 7272SOL    HW222716   5.476   4.960   1.981
 7273SOL     OW22717   5.580   4.968   2.513
 7273SOL    HW122718   5.582   4.868   2.518
 7273SOL    HW222719   5.658   5.005   2.564
 7274SOL     OW22720   1.018   6.188   6.885
 7274SOL    HW122721   1.109   6.159   6.857
 7274SOL    HW222722   1.019   6.215   6.982
 7275SOL     OW22723   6.964   1.127   2.340
 7275SOL    HW122724   6.878   1.097   2.298
 7275SOL    HW222725   6.944   1.181   2.421
 7276SOL     OW22726   3.564   1.447   3.482
 7276SOL    HW122727   3.610   1.371   3.437
 7276SOL    HW222728   3.520   1.505   3.414
 7277SOL     OW22729   5.313   1.502   3.957
 7277SOL    HW122730   5.244   1.559   3.911
 7277SOL    HW222731   5.327   1.536   4.050
 7278SOL     OW22732   3.220   1.815   2.024
 7278SOL    HW122733   3.125   1.804   2.052
 7278SOL    HW222734   3.226   1.887   1.954
 7279SOL     OW22735   3.969   2.958   6.819
 7279SOL    HW122736   3.925   2.979   6.906
 7279SOL    HW222737   3.923   3.008   6.746
 7280SOL     OW22738   6.736   2.281   4.334
 7280SOL    HW122739   6.799   2.214   4.375
 7280SOL    HW222740   6.780   2.370   4.331
 7281SOL     OW22741   2.284   0.519   0.479
 7281SOL    HW122742   2.362   0.516   0.417
 7281SOL    HW222743   2.296   0.451   0.551
 7282SOL     OW22744   6.642   6.667   0.460
 7282SOL    HW122745   6.698   6.714   0.392
 7282SOL    HW222746   6.546   6.672   0.432
 7283SOL     OW22747   3.253   6.875   2.038
 7283SOL    HW122748   3.254   6.926   1.951
 7283SOL    HW222749   3.240   6.939   2.114
 7284SOL     OW22750   6.793   3.427   4.761
 7284SOL    HW122751   6.701   3.429   4.723
 7284SOL    HW222752   6.850   3.364   4.709
 7285SOL     OW22753   5.659   3.689   2.012
 7285SOL    HW122754   5.560   3.671   2.014
 7285SOL    HW222755   5.708   3.605   2.032
 7286SOL     OW22756   0.832   0.356   0.487
 7286SOL    HW122757   0.919   0.314   0.513
 7286SOL    HW222758   0.835   0.454   0.505
 7287SOL     OW22759   6.495   3.356   4.775
 7287SOL    HW122760   6.470   3.445   4.813
 7287SOL    HW222761   6.482   3.358   4.676
 7288SOL     OW22762   1.107   2.836   1.924
 7288SOL    HW122763   1.093   2.737   1.933
 7288SOL    HW222764   1.134   2.874   2.012
 7289SOL     OW22765   6.877   2.062   2.757
 7289SOL    HW122766   6.789   2.056   2.804
 7289SOL    HW222767   6.875   2.138   2.692
 7290SOL     OW22768   2.999   0.707   5.510
 7290SOL    HW122769   2.930   0.724   5.581
 7290SOL    HW222770   3.057   0.788   5.499
 7291SOL     OW22771   3.050   0.155   0.960
 7291SOL    HW122772   2.961   0.172   0.917
 7291SOL    HW222773   3.088   0.069   0.926
 7292SOL     OW22774   2.749   0.155   3.338
 7292SOL    HW122775   2.813   0.143   3.414
 7292SOL    HW222776   2.655   0.154   3.372
 7293SOL     OW22777   1.741   1.096   5.930
 7293SOL    HW122778   1.753   1.096   5.831
 7293SOL    HW222779   1.770   1.185   5.967
 7294SOL     OW22780   2.963   3.917   0.755
 7294SOL    HW122781   2.933   3.907   0.660
 7294SOL    HW222782   2.888   3.894   0.816
 7295SOL     OW22783   0.060   4.319   1.314
 7295SOL    HW122784   0.112   4.355   1.392
 7295SOL    HW222785   6.996   4.372   1.304
 7296SOL     OW22786   4.666   4.766   2.645
 7296SOL    HW122787   4.637   4.714   2.725
 7296SOL    HW222788   4.590   4.771   2.579
 7297SOL     OW22789   2.825   6.807   2.513
 7297SOL    HW122790   2.738   6.831   2.558
 7297SOL    HW222791   2.854   6.883   2.455
 7298SOL     OW22792   5.199   5.560   0.276
 7298SOL    HW122793   5.264   5.634   0.295
 7298SOL    HW222794   5.245   5.472   0.286
 7299SOL     OW22795   0.765   1.662   0.619
 7299SOL    HW122796   0.816   1.744   0.645
 7299SOL    HW222797   0.669   1.686   0.603
 7300SOL     OW22798   0.719   5.409   2.342
 7300SOL    HW122799   0.622   5.421   2.366
 7300SOL    HW222800   0.728   5.401   2.243
 7301SOL     OW22801   6.511   1.729   6.082
 7301SOL    HW122802   6.561   1.661   6.029
 7301SOL    HW222803   6.521   1.819   6.040
 7302SOL     OW22804   0.290   1.935   5.552
 7302SOL    HW122805   0.272   1.855   5.610
 7302SOL    HW222806   0.325   1.904   5.464
 7303SOL     OW22807   3.283   0.513   6.904
 7303SOL    HW122808   3.217   0.577   6.942
 7303SOL    HW222809   3.273   0.511   6.804
 7304SOL     OW22810   1.946   5.613   1.814
 7304SOL    HW122811   1.857   5.648   1.843
 7304SOL    HW222812   1.968   5.648   1.723
 7305SOL     OW22813   5.842   2.102   1.218
 7305SOL    HW122814   5.769   2.148   1.167
 7305SOL    HW222815   5.880   2.028   1.162
 7306SOL     OW22816   3.702   1.829   1.702
 7306SOL    HW122817   3.774   1.766   1.672
 7306SOL    HW222818   3.743   1.910   1.744
 7307SOL     OW22819   4.340   0.069   2.282
 7307SOL    HW122820   4.310   7.015   2.222
 7307SOL    HW222821   4.269   0.139   2.286
 7308SOL     OW22822   6.738   1.421   3.185
 7308SOL    HW122823   6.830   1.383   3.196
 7308SOL    HW222824   6.698   1.438   3.275
 7309SOL     OW22825   2.708   6.710   1.819
 7309SOL    HW122826   2.765   6.628   1.815
 7309SOL    HW222827   2.649   6.705   1.900
 7310SOL     OW22828   1.813   3.138   6.296
 7310SOL    HW122829   1.892   3.134   6.235
 7310SOL    HW222830   1.814   3.059   6.358
 7311SOL     OW22831   1.034   7.019   0.340
 7311SOL    HW122832   0.958   0.056   0.307
 7311SOL    HW222833   1.061   6.955   0.268
 7312SOL     OW22834   0.873   1.694   4.939
 7312SOL    HW122835   0.889   1.677   5.036
 7312SOL    HW222836   0.815   1.775   4.929
 7313SOL     OW22837   2.214   1.790   0.474
 7313SOL    HW122838   2.294   1.797   0.414
 7313SOL    HW222839   2.217   1.703   0.523
 7314SOL     OW22840   0.108   4.012   5.915
 7314SOL    HW122841   0.099   4.072   5.995
 7314SOL    HW222842   0.191   3.956   5.925
 7315SOL     OW22843   5.539   5.408   2.403
 7315SOL    HW122844   5.609   5.475   2.377
 7315SOL    HW222845   5.502   5.432   2.493
 7316SOL     OW22846   3.540   2.014   6.293
 7316SOL    HW122847   3.472   2.080   6.262
 7316SOL    HW222848   3.497   1.925   6.309
 7317SOL     OW22849   3.609   1.304   2.061
 7317SOL    HW122850   3.674   1.235   2.028
 7317SOL    HW222851   3.648   1.395   2.046
 7318SOL     OW22852   3.483   6.472   2.719
 7318SOL    HW122853   3.541   6.457   2.800
 7318SOL    HW222854   3.472   6.570   2.704
 7319SOL     OW22855   6.090   3.699   6.298
 7319SOL    HW122856   6.098   3.696   6.398
 7319SOL    HW222857   6.106   3.793   6.266
 7320SOL     OW22858   0.920   3.550   6.992
 7320SOL    HW122859   0.916   3.640   0.015
 7320SOL    HW222860   0.829   3.508   6.997
 7321SOL     OW22861   2.300   6.531   6.319
 7321SOL    HW122862   2.222   6.580   6.358
 7321SOL    HW222863   2.345   6.479   6.391
 7322SOL     OW22864   0.198   3.019   2.712
 7322SOL    HW122865   0.134   3.015   2.635
 7322SOL    HW222866   0.174   2.947   2.778
 7323SOL     OW22867   2.640   2.289   1.147
 7323SOL    HW122868   2.630   2.272   1.049
 7323SOL    HW222869   2.553   2.319   1.185
 7324SOL     OW22870   6.228   4.491   2.692
 7324SOL    HW122871   6.282   4.494   2.777
 7324SOL    HW222872   6.241   4.577   2.642
 7325SOL     OW22873   2.878   6.947   5.130
 7325SOL    HW122874   2.847   6.909   5.217
 7325SOL    HW222875   2.818   0.001   5.102
 7326SOL     OW22876   3.892   0.393   6.383
 7326SOL    HW122877   3.941   0.328   6.442
 7326SOL    HW222878   3.908   0.486   6.415
 7327SOL     OW22879   5.827   3.263   3.783
 7327SOL    HW122880   5.827   3.350   3.834
 7327SOL    HW222881   5.883   3.273   3.701
 7328SOL     OW22882   4.629   6.608   5.978
 7328SOL    HW122883   4.670   6.562   5.900
 7328SOL    HW222884   4.534   6.631   5.958
 7329SOL     OW22885   1.102   2.773   0.457
 7329SOL    HW122886   1.042   2.693   0.458
 7329SOL    HW222887   1.176   2.760   0.523
 7330SOL     OW22888   2.076   2.977   0.849
 7330SOL    HW122889   1.977   2.963   0.845
 7330SOL    HW222890   2.103   3.050   0.786
 7331SOL     OW22891   5.200   6.080   2.172
 7331SOL    HW122892   5.261   6.146   2.215
 7331SOL    HW222893   5.160   6.021   2.242
 7332SOL     OW22894   4.248   4.270   0.000
 7332SOL    HW122895   4.244   4.232   0.093
 7332SOL    HW222896   4.157   4.297   6.991
 7333SOL     OW22897   5.907   3.340   2.846
 7333SOL    HW122898   5.989   3.394   2.828
 7333SOL    HW222899   5.934   3.248   2.875
 7334SOL     OW22900   3.111   5.477   5.689
 7334SOL    HW122901   3.163   5.421   5.624
 7334SOL    HW222902   3.022   5.499   5.651
 7335SOL     OW22903   6.961   2.146   3.244
 7335SOL    HW122904   7.005   2.058   3.266
 7335SOL    HW222905   6.862   2.133   3.240
 7336SOL     OW22906   2.129   6.168   1.526
 7336SOL    HW122907   2.144   6.223   1.608
 7336SOL    HW222908   2.115   6.228   1.447
 7337SOL     OW22909   2.194   3.031   1.213
 7337SOL    HW122910   2.284   3.005   1.246
 7337SOL    HW222911   2.125   2.971   1.253
 7338SOL     OW22912   5.950   1.986   1.432
 7338SOL    HW122913   5.909   2.039   1.357
 7338SOL    HW222914   5.878   1.932   1.476
 7339SOL     OW22915   6.885   6.978   5.503
 7339SOL    HW122916   6.967   7.000   5.450
 7339SOL    HW222917   6.911   6.928   5.585
 7340SOL     OW22918   3.955   2.007   0.014
 7340SOL    HW122919   4.011   1.930   7.003
 7340SOL    HW222920   3.873   1.972   0.059
 7341SOL     OW22921   1.554   5.144   5.223
 7341SOL    HW122922   1.458   5.138   5.250
 7341SOL    HW222923   1.564   5.119   5.127
 7342SOL     OW22924   6.155   6.897   0.172
 7342SOL    HW122925   6.207   6.827   0.221
 7342SOL    HW222926   6.069   6.858   0.139
 7343SOL     OW22927   5.514   2.967   2.057
 7343SOL    HW122928   5.445   2.935   1.992
 7343SOL    HW222929   5.599   2.916   2.043
 7344SOL     OW22930   2.016   0.052   6.477
 7344SOL    HW122931   1.997   0.147   6.502
 7344SOL    HW222932   1.989   7.012   6.552
 7345SOL     OW22933   4.988   5.872   5.478
 7345SOL    HW122934   5.050   5.904   5.550
 7345SOL    HW222935   4.902   5.923   5.483
 7346SOL     OW22936   3.838   4.130   1.452
 7346SOL    HW122937   3.820   4.087   1.363
 7346SOL    HW222938   3.796   4.075   1.524
 7347SOL     OW22939   6.501   2.463   1.371
 7347SOL    HW122940   6.466   2.530   1.436
 7347SOL    HW222941   6.503   2.372   1.414
 7348SOL     OW22942   1.683   3.258   3.446
 7348SOL    HW122943   1.604   3.198   3.433
 7348SOL    HW222944   1.764   3.215   3.405
 7349SOL     OW22945   3.731   1.939   1.318
 7349SOL    HW122946   3.641   1.918   1.280
 7349SOL    HW222947   3.720   1.985   1.406
 7350SOL     OW22948   1.490   3.354   4.041
 7350SOL    HW122949   1.570   3.373   3.983
 7350SOL    HW222950   1.484   3.256   4.058
 7351SOL     OW22951   4.099   4.922   6.515
 7351SOL    HW122952   4.012   4.878   6.493
 7351SOL    HW222953   4.082   5.004   6.571
 7352SOL     OW22954   1.772   2.561   3.271
 7352SOL    HW122955   1.818   2.647   3.294
 7352SOL    HW222956   1.745   2.562   3.175
 7353SOL     OW22957   0.859   0.520   5.836
 7353SOL    HW122958   0.786   0.452   5.830
 7353SOL    HW222959   0.820   0.611   5.844
 7354SOL     OW22960   0.413   1.568   6.042
 7354SOL    HW122961   0.478   1.579   6.117
 7354SOL    HW222962   0.362   1.483   6.054
 7355SOL     OW22963   1.219   6.799   6.947
 7355SOL    HW122964   1.318   6.799   6.934
 7355SOL    HW222965   1.194   6.734   7.018
 7356SOL     OW22966   5.461   2.715   6.135
 7356SOL    HW122967   5.520   2.717   6.054
 7356SOL    HW222968   5.384   2.654   6.120
 7357SOL     OW22969   4.481   1.089   0.953
 7357SOL    HW122970   4.515   1.052   1.040
 7357SOL    HW222971   4.521   1.179   0.937
 7358SOL     OW22972   2.027   2.449   1.890
 7358SOL    HW122973   2.075   2.418   1.809
 7358SOL    HW222974   1.945   2.500   1.863
 7359SOL     OW22975   3.201   2.759   0.877
 7359SOL    HW122976   3.154   2.810   0.805
 7359SOL    HW222977   3.134   2.713   0.935
 7360SOL     OW22978   3.389   2.218   6.148
 7360SOL    HW122979   3.440   2.190   6.066
 7360SOL    HW222980   3.397   2.317   6.160
 7361SOL     OW22981   4.141   0.217   1.983
 7361SOL    HW122982   4.059   0.164   1.961
 7361SOL    HW222983   4.149   0.228   2.082
 7362SOL     OW22984   0.849   6.819   5.049
 7362SOL    HW122985   0.856   6.744   5.114
 7362SOL    HW222986   0.783   6.794   4.977
 7363SOL     OW22987   4.081   1.638   1.152
 7363SOL    HW122988   4.176   1.652   1.178
 7363SOL    HW222989   4.026   1.716   1.184
 7364SOL     OW22990   4.276   0.049   1.611
 7364SOL    HW122991   4.236   7.002   1.674
 7364SOL    HW222992   4.205   0.084   1.550
 7365SOL     OW22993   1.294   5.943   2.018
 7365SOL    HW122994   1.269   5.865   1.960
 7365SOL    HW222995   1.312   6.023   1.961
 7366SOL     OW22996   1.528   5.648   0.756
 7366SOL    HW122997   1.519   5.610   0.664
 7366SOL    HW222998   1.444   5.632   0.807
 7367SOL     OW22999   4.534   4.107   1.299
 7367SOL    HW123000   4.617   4.056   1.324
 7367SOL    HW223001   4.535   4.196   1.344
 7368SOL     OW23002   3.644   2.924   4.121
 7368SOL    HW123003   3.660   2.949   4.217
 7368SOL    HW223004   3.546   2.914   4.105
 7369SOL     OW23005   4.769   3.015   1.000
 7369SOL    HW123006   4.739   3.096   0.950
 7369SOL    HW223007   4.841   3.041   1.065
 7370SOL     OW23008   2.331   0.248   5.397
 7370SOL    HW123009   2.402   0.297   5.448
 7370SOL    HW223010   2.361   0.155   5.380
 7371SOL     OW23011   2.573   5.770   3.694
 7371SOL    HW123012   2.527   5.784   3.781
 7371SOL    HW223013   2.504   5.756   3.622
 7372SOL     OW23014   2.875   0.890   5.841
 7372SOL    HW123015   2.850   0.824   5.770
 7372SOL    HW223016   2.842   0.859   5.930
 7373SOL     OW23017   5.306   1.948   3.370
 7373SOL    HW123018   5.266   1.910   3.453
 7373SOL    HW223019   5.310   1.878   3.299
 7374SOL     OW23020   3.017   2.188   5.282
 7374SOL    HW123021   3.073   2.271   5.279
 7374SOL    HW223022   2.955   2.186   5.203
 7375SOL     OW23023   1.902   2.247   2.927
 7375SOL    HW123024   1.854   2.330   2.898
 7375SOL    HW223025   1.860   2.212   3.010
 7376SOL     OW23026   4.091   1.305   0.489
 7376SOL    HW123027   4.019   1.371   0.507
 7376SOL    HW223028   4.180   1.349   0.499
 7377SOL     OW23029   5.303   5.924   1.980
 7377SOL    HW123030   5.253   5.975   2.050
 7377SOL    HW223031   5.241   5.861   1.934
 7378SOL     OW23032   7.020   2.026   4.982
 7378SOL    HW123033   7.006   1.943   5.036
 7378SOL    HW223034   6.991   2.009   4.888
 7379SOL     OW23035   3.948   2.106   2.897
 7379SOL    HW123036   3.856   2.112   2.859
 7379SOL    HW223037   4.010   2.065   2.830
 7380SOL     OW23038   6.840   3.315   5.019
 7380SOL    HW123039   6.853   3.386   5.089
 7380SOL    HW223040   6.815   3.359   4.932
 7381SOL     OW23041   5.106   4.146   2.469
 7381SOL    HW123042   5.007   4.159   2.467
 7381SOL    HW223043   5.146   4.184   2.385
 7382SOL     OW23044   0.188   5.956   5.955
 7382SOL    HW123045   0.222   6.025   5.891
 7382SOL    HW223046   0.212   5.865   5.921
 7383SOL     OW23047   0.567   6.916   1.638
 7383SOL    HW123048   0.617   6.871   1.564
 7383SOL    HW223049   0.604   6.887   1.726
 7384SOL     OW23050   5.471   0.792   2.464
 7384SOL    HW123051   5.557   0.814   2.419
 7384SOL    HW223052   5.401   0.774   2.395
 7385SOL     OW23053   4.429   6.721   2.131
 7385SOL    HW123054   4.368   6.792   2.095
 7385SOL    HW223055   4.517   6.762   2.155
 7386SOL     OW23056   7.017   2.167   5.492
 7386SOL    HW123057   6.965   2.248   5.521
 7386SOL    HW223058   6.955   2.090   5.481
 7387SOL     OW23059   4.165   6.499   4.453
 7387SOL    HW123060   4.242   6.500   4.518
 7387SOL    HW223061   4.171   6.578   4.393
 7388SOL     OW23062   6.770   5.471   3.603
 7388SOL    HW123063   6.696   5.525   3.563
 7388SOL    HW223064   6.807   5.410   3.533
 7389SOL     OW23065   1.000   4.817   0.074
 7389SOL    HW123066   1.053   4.733   0.077
 7389SOL    HW223067   0.984   4.850   0.167
 7390SOL     OW23068   1.529   1.195   6.965
 7390SOL    HW123069   1.537   1.260   0.021
 7390SOL    HW223070   1.600   1.125   6.973
 7391SOL     OW23071   4.882   4.121   4.821
 7391SOL    HW123072   4.796   4.158   4.786
 7391SOL    HW223073   4.920   4.056   4.754
 7392SOL     OW23074   3.030   5.643   6.642
 7392SOL    HW123075   2.985   5.567   6.596
 7392SOL    HW223076   3.127   5.644   6.619
 7393SOL     OW23077   5.998   5.449   1.451
 7393SOL    HW123078   6.038   5.474   1.364
 7393SOL    HW223079   6.023   5.355   1.475
 7394SOL     OW23080   3.136   2.210   6.427
 7394SOL    HW123081   3.057   2.270   6.415
 7394SOL    HW223082   3.193   2.212   6.345
 7395SOL     OW23083   2.182   1.581   0.185
 7395SOL    HW123084   2.203   1.493   0.143
 7395SOL    HW223085   2.091   1.577   0.227
 7396SOL     OW23086   1.393   6.774   0.293
 7396SOL    HW123087   1.332   6.751   0.218
 7396SOL    HW223088   1.401   6.874   0.299
 7397SOL     OW23089   5.207   5.439   4.872
 7397SOL    HW123090   5.122   5.393   4.895
 7397SOL    HW223091   5.283   5.394   4.919
 7398SOL     OW23092   3.224   5.148   4.088
 7398SOL    HW123093   3.246   5.053   4.114
 7398SOL    HW223094   3.125   5.163   4.100
 7399SOL     OW23095   0.500   3.434   5.271
 7399SOL    HW123096   0.517   3.339   5.248
 7399SOL    HW223097   0.431   3.472   5.210
 7400SOL     OW23098   2.730   3.721   6.638
 7400SOL    HW123099   2.812   3.684   6.682
 7400SOL    HW223100   2.706   3.808   6.682
 7401SOL     OW23101   0.824   0.870   4.025
 7401SOL    HW123102   0.745   0.860   3.965
 7401SOL    HW223103   0.900   0.816   3.990
 7402SOL     OW23104   2.218   5.414   5.271
 7402SOL    HW123105   2.258   5.417   5.363
 7402SOL    HW223106   2.213   5.507   5.235
 7403SOL     OW23107   1.381   3.631   3.209
 7403SOL    HW123108   1.466   3.651   3.159
 7403SOL    HW223109   1.310   3.604   3.144
 7404SOL     OW23110   2.848   5.870   1.729
 7404SOL    HW123111   2.876   5.812   1.653
 7404SOL    HW223112   2.749   5.872   1.736
 7405SOL     OW23113   2.646   4.976   4.176
 7405SOL    HW123114   2.686   4.887   4.156
 7405SOL    HW223115   2.547   4.971   4.169
 7406SOL     OW23116   1.415   3.568   3.461
 7406SOL    HW123117   1.399   3.585   3.364
 7406SOL    HW223118   1.359   3.490   3.490
 7407SOL     OW23119   6.847   5.905   5.242
 7407SOL    HW123120   6.814   5.829   5.185
 7407SOL    HW223121   6.780   5.979   5.239
 7408SOL     OW23122   1.100   3.627   5.918
 7408SOL    HW123123   1.069   3.620   6.013
 7408SOL    HW223124   1.163   3.552   5.898
 7409SOL     OW23125   0.637   1.314   4.868
 7409SOL    HW123126   0.574   1.390   4.850
 7409SOL    HW223127   0.584   1.230   4.881
 7410SOL     OW23128   0.080   4.940   0.883
 7410SOL    HW123129   0.162   4.938   0.827
 7410SOL    HW223130   0.101   4.904   0.974
 7411SOL     OW23131   2.869   6.259   4.234
 7411SOL    HW123132   2.802   6.321   4.275
 7411SOL    HW223133   2.945   6.312   4.196
 7412SOL     OW23134   3.995   0.908   2.408
 7412SOL    HW123135   3.936   0.974   2.361
 7412SOL    HW223136   3.939   0.836   2.448
 7413SOL     OW23137   5.978   5.370   4.903
 7413SOL    HW123138   5.941   5.279   4.922
 7413SOL    HW223139   5.997   5.379   4.806
 7414SOL     OW23140   6.886   6.709   4.055
 7414SOL    HW123141   6.966   6.766   4.036
 7414SOL    HW223142   6.914   6.626   4.102
 7415SOL     OW23143   0.858   4.153   2.857
 7415SOL    HW123144   0.917   4.163   2.938
 7415SOL    HW223145   0.851   4.056   2.833
 7416SOL     OW23146   3.005   0.659   3.957
 7416SOL    HW123147   3.041   0.738   3.908
 7416SOL    HW223148   3.081   0.602   3.990
 7417SOL     OW23149   2.265   6.903   5.871
 7417SOL    HW123150   2.295   6.837   5.940
 7417SOL    HW223151   2.296   6.994   5.897
 7418SOL     OW23152   4.016   5.128   0.552
 7418SOL    HW123153   4.100   5.134   0.605
 7418SOL    HW223154   3.938   5.149   0.611
 7419SOL     OW23155   6.415   2.574   4.677
 7419SOL    HW123156   6.338   2.638   4.667
 7419SOL    HW223157   6.380   2.483   4.699
 7420SOL     OW23158   6.484   6.651   2.339
 7420SOL    HW123159   6.561   6.677   2.281
 7420SOL    HW223160   6.476   6.714   2.416
 7421SOL     OW23161   3.161   3.553   1.683
 7421SOL    HW123162   3.175   3.633   1.742
 7421SOL    HW223163   3.207   3.474   1.723
 7422SOL     OW23164   0.271   3.508   2.468
 7422SOL    HW123165   0.326   3.457   2.402
 7422SOL    HW223166   0.290   3.475   2.561
 7423SOL     OW23167   6.748   4.332   5.905
 7423SOL    HW123168   6.725   4.377   5.818
 7423SOL    HW223169   6.842   4.353   5.929
 7424SOL     OW23170   6.480   0.670   4.566
 7424SOL    HW123171   6.449   0.575   4.565
 7424SOL    HW223172   6.521   0.692   4.477
 7425SOL     OW23173   4.579   5.884   6.796
 7425SOL    HW123174   4.580   5.786   6.816
 7425SOL    HW223175   4.581   5.898   6.697
 7426SOL     OW23176   1.267   2.186   6.289
 7426SOL    HW123177   1.223   2.113   6.340
 7426SOL    HW223178   1.202   2.260   6.273
 7427SOL     OW23179   3.068   5.872   4.123
 7427SOL    HW123180   3.124   5.874   4.040
 7427SOL    HW223181   2.993   5.807   4.111
 7428SOL     OW23182   3.576   1.678   5.631
 7428SOL    HW123183   3.654   1.627   5.667
 7428SOL    HW223184   3.603   1.726   5.547
 7429SOL     OW23185   5.123   0.175   3.476
 7429SOL    HW123186   5.113   0.078   3.498
 7429SOL    HW223187   5.108   0.189   3.378
 7430SOL     OW23188   0.323   3.836   6.395
 7430SOL    HW123189   0.340   3.802   6.488
 7430SOL    HW223190   0.410   3.848   6.348
 7431SOL     OW23191   0.351   3.404   2.715
 7431SOL    HW123192   0.348   3.494   2.759
 7431SOL    HW223193   0.316   3.335   2.778
 7432SOL     OW23194   0.390   6.995   3.605
 7432SOL    HW123195   0.456   6.923   3.585
 7432SOL    HW223196   0.346   0.005   3.521
 7433SOL     OW23197   5.849   5.078   1.047
 7433SOL    HW123198   5.871   5.137   0.969
 7433SOL    HW223199   5.805   4.994   1.013
 7434SOL     OW23200   4.510   0.938   6.181
 7434SOL    HW123201   4.513   1.037   6.195
 7434SOL    HW223202   4.437   0.915   6.117
 7435SOL     OW23203   3.741   5.343   0.227
 7435SOL    HW123204   3.694   5.299   0.151
 7435SOL    HW223205   3.787   5.426   0.195
 7436SOL     OW23206   5.514   3.272   6.302
 7436SOL    HW123207   5.593   3.308   6.252
 7436SOL    HW223208   5.459   3.214   6.241
 7437SOL     OW23209   0.350   6.139   0.429
 7437SOL    HW123210   0.430   6.199   0.418
 7437SOL    HW223211   0.335   6.089   0.344
 7438SOL     OW23212   0.723   5.658   1.049
 7438SOL    HW123213   0.697   5.717   1.125
 7438SOL    HW223214   0.815   5.621   1.064
 7439SOL     OW23215   1.755   5.983   4.995
 7439SOL    HW123216   1.756   5.918   4.919
 7439SOL    HW223217   1.673   6.040   4.990
 7440SOL     OW23218   1.018   3.199   4.425
 7440SOL    HW123219   0.983   3.177   4.334
 7440SOL    HW223220   1.114   3.173   4.431
 7441SOL     OW23221   4.688   6.217   5.111
 7441SOL    HW123222   4.748   6.276   5.166
 7441SOL    HW223223   4.600   6.262   5.097
 7442SOL     OW23224   1.036   1.231   6.454
 7442SOL    HW123225   1.014   1.279   6.369
 7442SOL    HW223226   1.047   1.133   6.436
 7443SOL     OW23227   0.297   0.619   1.370
 7443SOL    HW123228   0.361   0.542   1.364
 7443SOL    HW223229   0.287   0.660   1.280
 7444SOL     OW23230   6.664   3.754   4.899
 7444SOL    HW123231   6.593   3.696   4.940
 7444SOL    HW223232   6.632   3.790   4.812
 7445SOL     OW23233   3.406   1.027   1.166
 7445SOL    HW123234   3.465   0.994   1.092
 7445SOL    HW223235   3.365   0.948   1.213
 7446SOL     OW23236   5.464   4.199   1.114
 7446SOL    HW123237   5.518   4.139   1.173
 7446SOL    HW223238   5.470   4.166   1.020
 7447SOL     OW23239   1.463   2.881   5.477
 7447SOL    HW123240   1.447   2.980   5.471
 7447SOL    HW223241   1.556   2.864   5.509
 7448SOL     OW23242   5.483   6.670   5.455
 7448SOL    HW123243   5.568   6.719   5.473
 7448SOL    HW223244   5.427   6.724   5.393
 7449SOL     OW23245   6.470   2.484   1.810
 7449SOL    HW123246   6.467   2.457   1.906
 7449SOL    HW223247   6.446   2.406   1.752
 7450SOL     OW23248   5.086   2.214   4.459
 7450SOL    HW123249   5.104   2.151   4.534
 7450SOL    HW223250   5.072   2.306   4.495
 7451SOL     OW23251   1.203   6.793   2.330
 7451SOL    HW123252   1.200   6.700   2.366
 7451SOL    HW223253   1.176   6.792   2.233
 7452SOL     OW23254   0.763   6.467   4.897
 7452SOL    HW123255   0.766   6.526   4.817
 7452SOL    HW223256   0.833   6.396   4.890
 7453SOL     OW23257   4.763   6.102   6.293
 7453SOL    HW123258   4.827   6.026   6.300
 7453SOL    HW223259   4.698   6.084   6.219
 7454SOL     OW23260   1.343   2.511   1.377
 7454SOL    HW123261   1.369   2.464   1.462
 7454SOL    HW223262   1.425   2.525   1.321
 7455SOL     OW23263   0.305   2.021   2.006
 7455SOL    HW123264   0.336   2.009   1.911
 7455SOL    HW223265   0.256   2.108   2.014
 7456SOL     OW23266   0.557   2.610   4.230
 7456SOL    HW123267   0.564   2.673   4.308
 7456SOL    HW223268   0.641   2.616   4.175
 7457SOL     OW23269   3.660   0.818   5.259
 7457SOL    HW123270   3.693   0.906   5.225
 7457SOL    HW223271   3.737   0.756   5.273
 7458SOL     OW23272   2.961   6.853   6.244
 7458SOL    HW123273   2.937   6.899   6.329
 7458SOL    HW223274   2.906   6.890   6.169
 7459SOL     OW23275   4.474   0.706   0.695
 7459SOL    HW123276   4.441   0.652   0.773
 7459SOL    HW223277   4.410   0.695   0.618
 7460SOL     OW23278   1.710   4.392   1.181
 7460SOL    HW123279   1.653   4.319   1.218
 7460SOL    HW223280   1.711   4.470   1.244
 7461SOL     OW23281   5.682   1.501   6.105
 7461SOL    HW123282   5.585   1.477   6.108
 7461SOL    HW223283   5.697   1.589   6.149
 7462SOL     OW23284   1.948   3.718   3.061
 7462SOL    HW123285   1.903   3.686   3.145
 7462SOL    HW223286   1.980   3.640   3.008
 7463SOL     OW23287   3.394   4.659   1.473
 7463SOL    HW123288   3.360   4.649   1.566
 7463SOL    HW223289   3.381   4.574   1.422
 7464SOL     OW23290   3.715   6.955   6.346
 7464SOL    HW123291   3.670   0.019   6.315
 7464SOL    HW223292   3.802   6.945   6.297
 7465SOL     OW23293   1.546   6.833   0.005
 7465SOL    HW123294   1.522   6.881   0.089
 7465SOL    HW223295   1.563   6.900   6.953
 7466SOL     OW23296   0.431   6.843   6.248
 7466SOL    HW123297   0.518   6.860   6.294
 7466SOL    HW223298   0.414   6.745   6.242
 7467SOL     OW23299   6.579   1.130   0.362
 7467SOL    HW123300   6.491   1.081   0.362
 7467SOL    HW223301   6.654   1.063   0.361
 7468SOL     OW23302   6.150   3.052   2.242
 7468SOL    HW123303   6.082   3.122   2.264
 7468SOL    HW223304   6.209   3.037   2.321
 7469SOL     OW23305   6.601   6.936   0.013
 7469SOL    HW123306   6.662   7.004   0.053
 7469SOL    HW223307   6.517   6.981   7.001
 7470SOL     OW23308   0.201   3.107   4.076
 7470SOL    HW123309   0.227   3.094   4.172
 7470SOL    HW223310   0.158   3.023   4.043
 7471SOL     OW23311   5.694   5.890   5.564
 7471SOL    HW123312   5.613   5.834   5.545
 7471SOL    HW223313   5.679   5.983   5.531
 7472SOL     OW23314   6.063   6.583   4.455
 7472SOL    HW123315   6.127   6.613   4.525
 7472SOL    HW223316   6.027   6.493   4.479
 7473SOL     OW23317   0.110   4.655   2.845
 7473SOL    HW123318   0.161   4.609   2.773
 7473SOL    HW223319   0.029   4.700   2.806
 7474SOL     OW23320   2.668   1.256   5.249
 7474SOL    HW123321   2.569   1.245   5.246
 7474SOL    HW223322   2.702   1.232   5.340
 7475SOL     OW23323   3.763   1.493   2.342
 7475SOL    HW123324   3.778   1.500   2.243
 7475SOL    HW223325   3.831   1.431   2.381
 7476SOL     OW23326   3.931   5.308   4.225
 7476SOL    HW123327   3.843   5.345   4.255
 7476SOL    HW223328   3.916   5.221   4.178
 7477SOL     OW23329   6.537   1.846   4.335
 7477SOL    HW123330   6.634   1.838   4.360
 7477SOL    HW223331   6.502   1.755   4.310
 7478SOL     OW23332   4.415   4.841   6.893
 7478SOL    HW123333   4.403   4.742   6.903
 7478SOL    HW223334   4.325   4.885   6.887
 7479SOL     OW23335   3.980   2.445   1.525
 7479SOL    HW123336   3.938   2.521   1.475
 7479SOL    HW223337   4.079   2.454   1.523
 7480SOL     OW23338   6.446   4.273   1.694
 7480SOL    HW123339   6.415   4.194   1.746
 7480SOL    HW223340   6.392   4.281   1.610
 7481SOL     OW23341   6.272   5.371   2.507
 7481SOL    HW123342   6.273   5.465   2.472
 7481SOL    HW223343   6.211   5.316   2.451
 7482SOL     OW23344   5.175   2.223   2.988
 7482SOL    HW123345   5.261   2.270   2.968
 7482SOL    HW223346   5.148   2.168   2.909
 7483SOL     OW23347   4.526   2.340   5.188
 7483SOL    HW123348   4.624   2.356   5.183
 7483SOL    HW223349   4.507   2.243   5.176
 7484SOL     OW23350   0.712   0.392   3.290
 7484SOL    HW123351   0.792   0.357   3.340
 7484SOL    HW223352   0.730   0.485   3.259
 7485SOL     OW23353   3.096   6.677   4.560
 7485SOL    HW123354   3.111   6.758   4.503
 7485SOL    HW223355   3.160   6.605   4.533
 7486SOL     OW23356   2.771   0.742   6.081
 7486SOL    HW123357   2.843   0.687   6.041
 7486SOL    HW223358   2.683   0.694   6.073
 7487SOL     OW23359   2.686   6.391   2.345
 7487SOL    HW123360   2.617   6.459   2.371
 7487SOL    HW223361   2.744   6.429   2.273
 7488SOL     OW23362   2.021   6.952   4.502
 7488SOL    HW123363   1.921   6.946   4.491
 7488SOL    HW223364   2.065   6.888   4.440
 7489SOL     OW23365   5.120   2.099   4.704
 7489SOL    HW123366   5.107   2.031   4.776
 7489SOL    HW223367   5.106   2.191   4.741
 7490SOL     OW23368   0.576   1.692   0.946
 7490SOL    HW123369   0.518   1.680   0.865
 7490SOL    HW223370   0.626   1.608   0.965
 7491SOL     OW23371   6.587   3.218   6.578
 7491SOL    HW123372   6.501   3.251   6.539
 7491SOL    HW223373   6.659   3.222   6.509
 7492SOL     OW23374   2.596   0.847   4.412
 7492SOL    HW123375   2.689   0.845   4.377
 7492SOL    HW223376   2.561   0.753   4.418
 7493SOL     OW23377   0.011   3.876   6.584
 7493SOL    HW123378   0.060   3.888   6.498
 7493SOL    HW223379   6.994   3.964   6.614
 7494SOL     OW23380   5.960   0.694   2.948
 7494SOL    HW123381   6.039   0.733   2.900
 7494SOL    HW223382   5.973   0.596   2.958
 7495SOL     OW23383   2.412   1.064   0.170
 7495SOL    HW123384   2.367   1.096   0.087
 7495SOL    HW223385   2.511   1.077   0.161
 7496SOL     OW23386   0.240   3.373   6.460
 7496SOL    HW123387   0.330   3.405   6.491
 7496SOL    HW223388   0.169   3.407   6.522
 7497SOL     OW23389   2.610   4.317   0.350
 7497SOL    HW123390   2.706   4.297   0.331
 7497SOL    HW223391   2.562   4.338   0.264
 7498SOL     OW23392   2.389   1.194   5.504
 7498SOL    HW123393   2.329   1.117   5.484
 7498SOL    HW223394   2.373   1.267   5.436
 7499SOL     OW23395   4.767   1.167   3.598
 7499SOL    HW123396   4.714   1.197   3.677
 7499SOL    HW223397   4.863   1.157   3.624
 7500SOL     OW23398   3.893   5.739   4.157
 7500SOL    HW123399   3.887   5.817   4.218
 7500SOL    HW223400   3.957   5.672   4.194
 7501SOL     OW23401   6.270   4.824   4.405
 7501SOL    HW123402   6.338   4.791   4.340
 7501SOL    HW223403   6.314   4.884   4.472
 7502SOL     OW23404   1.435   0.463   4.585
 7502SOL    HW123405   1.407   0.525   4.658
 7502SOL    HW223406   1.459   0.517   4.504
 7503SOL     OW23407   2.548   1.865   0.852
 7503SOL    HW123408   2.457   1.870   0.811
 7503SOL    HW223409   2.540   1.839   0.948
 7504SOL     OW23410   2.070   0.359   3.181
 7504SOL    HW123411   2.027   0.443   3.147
 7504SOL    HW223412   2.168   0.373   3.193
 7505SOL     OW23413   2.514   2.100   5.825
 7505SOL    HW123414   2.534   2.198   5.815
 7505SOL    HW223415   2.565   2.064   5.903
 7506SOL     OW23416   4.682   6.698   2.823
 7506SOL    HW123417   4.715   6.779   2.871
 7506SOL    HW223418   4.655   6.723   2.730
 7507SOL     OW23419   0.438   0.829   1.577
 7507SOL    HW123420   0.360   0.779   1.540
 7507SOL    HW223421   0.440   0.921   1.537
 7508SOL     OW23422   6.713   6.696   2.151
 7508SOL    HW123423   6.774   6.728   2.079
 7508SOL    HW223424   6.702   6.597   2.143
 7509SOL     OW23425   5.654   4.625   0.941
 7509SOL    HW123426   5.664   4.611   0.843
 7509SOL    HW223427   5.682   4.542   0.989
 7510SOL     OW23428   2.860   4.385   5.418
 7510SOL    HW123429   2.887   4.428   5.331
 7510SOL    HW223430   2.796   4.311   5.399
 7511SOL     OW23431   1.842   6.698   3.552
 7511SOL    HW123432   1.927   6.734   3.588
 7511SOL    HW223433   1.829   6.729   3.458
 7512SOL     OW23434   3.072   4.779   6.668
 7512SOL    HW123435   3.098   4.684   6.653
 7512SOL    HW223436   2.996   4.803   6.607
 7513SOL     OW23437   2.229   1.356   1.649
 7513SOL    HW123438   2.197   1.326   1.739
 7513SOL    HW223439   2.151   1.383   1.593
 7514SOL     OW23440   2.177   5.451   1.688
 7514SOL    HW123441   2.110   5.464   1.762
 7514SOL    HW223442   2.268   5.440   1.728
 7515SOL     OW23443   0.016   5.423   2.663
 7515SOL    HW123444   0.023   5.443   2.565
 7515SOL    HW223445   0.100   5.453   2.709
 7516SOL     OW23446   6.030   5.664   4.419
 7516SOL    HW123447   6.070   5.577   4.389
 7516SOL    HW223448   6.013   5.722   4.340
 7517SOL     OW23449   6.712   3.385   1.290
 7517SOL    HW123450   6.644   3.356   1.223
 7517SOL    HW223451   6.696   3.480   1.315
 7518SOL     OW23452   4.312   5.102   3.240
 7518SOL    HW123453   4.352   5.163   3.308
 7518SOL    HW223454   4.322   5.142   3.149
 7519SOL     OW23455   0.051   6.909   4.587
 7519SOL    HW123456   0.150   6.925   4.596
 7519SOL    HW223457   0.020   6.853   4.664
 7520SOL     OW23458   3.345   6.627   2.040
 7520SOL    HW123459   3.287   6.589   1.968
 7520SOL    HW223460   3.339   6.727   2.038
 7521SOL     OW23461   4.836   4.519   6.154
 7521SOL    HW123462   4.858   4.426   6.124
 7521SOL    HW223463   4.857   4.528   6.251
 7522SOL     OW23464   3.089   6.543   6.172
 7522SOL    HW123465   3.087   6.521   6.074
 7522SOL    HW223466   3.008   6.596   6.196
 7523SOL     OW23467   5.766   0.809   6.120
 7523SOL    HW123468   5.771   0.827   6.021
 7523SOL    HW223469   5.670   0.809   6.148
 7524SOL     OW23470   1.625   2.575   6.381
 7524SOL    HW123471   1.629   2.494   6.438
 7524SOL    HW223472   1.718   2.606   6.359
 7525SOL     OW23473   2.689   0.440   6.481
 7525SOL    HW123474   2.695   0.343   6.505
 7525SOL    HW223475   2.761   0.491   6.528
 7526SOL     OW23476   3.267   3.340   1.814
 7526SOL    HW123477   3.237   3.247   1.792
 7526SOL    HW223478   3.361   3.338   1.849
 7527SOL     OW23479   4.305   5.891   3.128
 7527SOL    HW123480   4.380   5.952   3.103
 7527SOL    HW223481   4.236   5.943   3.179
 7528SOL     OW23482   4.654   1.562   6.850
 7528SOL    HW123483   4.697   1.514   6.774
 7528SOL    HW223484   4.641   1.658   6.826
 7529SOL     OW23485   6.156   0.379   4.441
 7529SOL    HW123486   6.135   0.392   4.538
 7529SOL    HW223487   6.113   0.452   4.387
 7530SOL     OW23488   0.036   4.009   2.090
 7530SOL    HW123489   0.039   3.909   2.085
 7530SOL    HW223490   6.992   4.036   2.162
 7531SOL     OW23491   4.342   2.000   3.958
 7531SOL    HW123492   4.327   1.926   4.023
 7531SOL    HW223493   4.274   1.995   3.885
 7532SOL     OW23494   5.675   4.975   1.542
 7532SOL    HW123495   5.630   4.945   1.458
 7532SOL    HW223496   5.616   5.042   1.589
 7533SOL     OW23497   2.775   1.505   2.611
 7533SOL    HW123498   2.747   1.509   2.707
 7533SOL    HW223499   2.854   1.444   2.602
 7534SOL     OW23500   4.200   6.574   5.925
 7534SOL    HW123501   4.264   6.626   5.868
 7534SOL    HW223502   4.154   6.506   5.868
 7535SOL     OW23503   2.751   0.214   5.892
 7535SOL    HW123504   2.668   0.173   5.855
 7535SOL    HW223505   2.777   0.293   5.836
 7536SOL     OW23506   5.219   5.009   5.175
 7536SOL    HW123507   5.212   5.103   5.141
 7536SOL    HW223508   5.128   4.975   5.198
 7537SOL     OW23509   2.637   5.264   3.201
 7537SOL    HW123510   2.735   5.281   3.195
 7537SOL    HW223511   2.605   5.285   3.294
 7538SOL     OW23512   3.532   3.336   1.915
 7538SOL    HW123513   3.596   3.274   1.869
 7538SOL    HW223514   3.513   3.302   2.007
 7539SOL     OW23515   1.465   2.774   3.858
 7539SOL    HW123516   1.397   2.837   3.895
 7539SOL    HW223517   1.421   2.709   3.797
 7540SOL     OW23518   3.401   6.322   5.938
 7540SOL    HW123519   3.407   6.234   5.891
 7540SOL    HW223520   3.486   6.339   5.988
 7541SOL     OW23521   6.954   4.305   4.405
 7541SOL    HW123522   6.886   4.232   4.397
 7541SOL    HW223523   6.909   4.390   4.432
 7542SOL     OW23524   0.667   5.674   0.029
 7542SOL    HW123525   0.669   5.770   7.020
 7542SOL    HW223526   0.723   5.663   0.111
 7543SOL     OW23527   3.946   2.068   1.173
 7543SOL    HW123528   3.885   1.992   1.194
 7543SOL    HW223529   4.028   2.063   1.230
 7544SOL     OW23530   0.454   2.631   3.122
 7544SOL    HW123531   0.396   2.697   3.170
 7544SOL    HW223532   0.486   2.562   3.186
 7545SOL     OW23533   5.709   6.283   2.402
 7545SOL    HW123534   5.643   6.355   2.382
 7545SOL    HW223535   5.788   6.292   2.342
 7546SOL     OW23536   3.250   0.950   2.387
 7546SOL    HW123537   3.313   0.894   2.335
 7546SOL    HW223538   3.220   1.028   2.331
 7547SOL     OW23539   4.699   0.338   0.403
 7547SOL    HW123540   4.790   0.355   0.441
 7547SOL    HW223541   4.670   0.417   0.349
 7548SOL     OW23542   3.469   2.232   0.354
 7548SOL    HW123543   3.470   2.318   0.406
 7548SOL    HW223544   3.479   2.252   0.257
 7549SOL     OW23545   5.610   2.054   0.875
 7549SOL    HW123546   5.545   1.983   0.905
 7549SOL    HW223547   5.593   2.074   0.778
 7550SOL     OW23548   2.361   4.267   2.102
 7550SOL    HW123549   2.420   4.305   2.174
 7550SOL    HW223550   2.277   4.322   2.095
 7551SOL     OW23551   4.809   3.713   6.728
 7551SOL    HW123552   4.853   3.719   6.639
 7551SOL    HW223553   4.756   3.628   6.734
 7552SOL     OW23554   1.574   5.916   3.527
 7552SOL    HW123555   1.543   5.836   3.476
 7552SOL    HW223556   1.664   5.898   3.566
 7553SOL     OW23557   4.865   5.053   5.894
 7553SOL    HW123558   4.881   5.138   5.944
 7553SOL    HW223559   4.925   4.982   5.930
 7554SOL     OW23560   4.436   1.101   1.548
 7554SOL    HW123561   4.367   1.131   1.614
 7554SOL    HW223562   4.410   1.132   1.456
 7555SOL     OW23563   1.953   4.656   5.537
 7555SOL    HW123564   2.035   4.603   5.559
 7555SOL    HW223565   1.905   4.612   5.461
 7556SOL     OW23566   0.922   3.267   5.481
 7556SOL    HW123567   0.998   3.202   5.483
 7556SOL    HW223568   0.841   3.224   5.521
 7557SOL     OW23569   5.297   2.373   5.795
 7557SOL    HW123570   5.372   2.345   5.855
 7557SOL    HW223571   5.211   2.337   5.831
 7558SOL     OW23572   1.813   2.795   4.385
 7558SOL    HW123573   1.761   2.838   4.458
 7558SOL    HW223574   1.760   2.717   4.348
 7559SOL     OW23575   6.514   5.120   0.122
 7559SOL    HW123576   6.428   5.092   0.079
 7559SOL    HW223577   6.533   5.060   0.199
 7560SOL     OW23578   5.210   6.638   0.964
 7560SOL    HW123579   5.129   6.594   0.926
 7560SOL    HW223580   5.183   6.699   1.038
 7561SOL     OW23581   0.923   3.339   6.684
 7561SOL    HW123582   0.922   3.401   6.606
 7561SOL    HW223583   0.995   3.270   6.671
 7562SOL     OW23584   5.841   5.899   5.103
 7562SOL    HW123585   5.783   5.823   5.133
 7562SOL    HW223586   5.792   5.985   5.118
 7563SOL     OW23587   2.582   6.247   0.757
 7563SOL    HW123588   2.645   6.170   0.765
 7563SOL    HW223589   2.489   6.213   0.747
 7564SOL     OW23590   5.023   1.723   2.844
 7564SOL    HW123591   5.074   1.645   2.808
 7564SOL    HW223592   4.943   1.740   2.787
 7565SOL     OW23593   5.645   4.049   0.238
 7565SOL    HW123594   5.655   4.147   0.227
 7565SOL    HW223595   5.673   4.023   0.331
 7566SOL     OW23596   6.815   4.479   3.799
 7566SOL    HW123597   6.753   4.549   3.834
 7566SOL    HW223598   6.907   4.494   3.835
 7567SOL     OW23599   1.936   1.933   4.983
 7567SOL    HW123600   1.944   1.833   4.980
 7567SOL    HW223601   1.952   1.971   4.892
 7568SOL     OW23602   5.505   6.232   3.186
 7568SOL    HW123603   5.440   6.283   3.130
 7568SOL    HW223604   5.577   6.195   3.129
 7569SOL     OW23605   3.987   5.079   6.075
 7569SOL    HW123606   3.945   5.123   6.155
 7569SOL    HW223607   4.056   5.013   6.105
 7570SOL     OW23608   5.408   4.405   5.558
 7570SOL    HW123609   5.403   4.440   5.465
 7570SOL    HW223610   5.488   4.444   5.604
 7571SOL     OW23611   4.974   5.566   3.484
 7571SOL    HW123612   5.042   5.618   3.432
 7571SOL    HW223613   4.980   5.591   3.581
 7572SOL     OW23614   4.282   0.837   2.705
 7572SOL    HW123615   4.227   0.906   2.658
 7572SOL    HW223616   4.232   0.803   2.784
 7573SOL     OW23617   6.770   6.647   4.824
 7573SOL    HW123618   6.786   6.565   4.880
 7573SOL    HW223619   6.717   6.621   4.743
 7574SOL     OW23620   6.352   1.089   4.432
 7574SOL    HW123621   6.270   1.140   4.459
 7574SOL    HW223622   6.327   0.995   4.408
 7575SOL     OW23623   4.092   0.601   5.978
 7575SOL    HW123624   4.083   0.503   5.998
 7575SOL    HW223625   4.117   0.613   5.882
 7576SOL     OW23626   5.707   4.806   0.113
 7576SOL    HW123627   5.618   4.852   0.115
 7576SOL    HW223628   5.729   4.781   0.019
 7577SOL     OW23629   7.010   6.543   5.455
 7577SOL    HW123630   0.085   6.544   5.425
 7577SOL    HW223631   7.001   6.484   5.535
 7578SOL     OW23632   2.513   5.708   2.239
 7578SOL    HW123633   2.436   5.662   2.282
 7578SOL    HW223634   2.545   5.654   2.161
 7579SOL     OW23635   6.021   2.327   1.874
 7579SOL    HW123636   5.923   2.307   1.862
 7579SOL    HW223637   6.075   2.252   1.836
 7580SOL     OW23638   1.489   3.974   3.932
 7580SOL    HW123639   1.430   3.900   3.965
 7580SOL    HW223640   1.575   3.973   3.983
 7581SOL     OW23641   0.221   0.238   1.359
 7581SOL    HW123642   0.229   0.155   1.304
 7581SOL    HW223643   0.308   0.288   1.356
 7582SOL     OW23644   2.655   0.955   0.402
 7582SOL    HW123645   2.699   0.866   0.407
 7582SOL    HW223646   2.638   0.979   0.306
 7583SOL     OW23647   6.335   3.204   0.685
 7583SOL    HW123648   6.320   3.129   0.750
 7583SOL    HW223649   6.413   3.259   0.714
 7584SOL     OW23650   2.434   6.879   1.377
 7584SOL    HW123651   2.486   6.887   1.292
 7584SOL    HW223652   2.350   6.828   1.360
 7585SOL     OW23653   2.286   2.732   5.840
 7585SOL    HW123654   2.350   2.791   5.889
 7585SOL    HW223655   2.308   2.636   5.859
 7586SOL     OW23656   4.097   1.082   3.850
 7586SOL    HW123657   4.017   1.029   3.880
 7586SOL    HW223658   4.086   1.177   3.878
 7587SOL     OW23659   2.495   2.046   6.390
 7587SOL    HW123660   2.513   1.948   6.397
 7587SOL    HW223661   2.512   2.090   6.478
 7588SOL     OW23662   1.167   3.249   2.741
 7588SOL    HW123663   1.215   3.337   2.734
 7588SOL    HW223664   1.121   3.229   2.655
 7589SOL     OW23665   6.969   6.881   1.885
 7589SOL    HW123666   7.016   6.838   1.808
 7589SOL    HW223667   6.886   6.925   1.853
 7590SOL     OW23668   4.684   1.775   6.626
 7590SOL    HW123669   4.659   1.686   6.587
 7590SOL    HW223670   4.608   1.839   6.616
 7591SOL     OW23671   0.041   4.450   0.450
 7591SOL    HW123672   0.116   4.404   0.403
 7591SOL    HW223673   7.004   4.498   0.384
 7592SOL     OW23674   6.537   4.345   6.686
 7592SOL    HW123675   6.542   4.372   6.782
 7592SOL    HW223676   6.472   4.270   6.676
 7593SOL     OW23677   5.397   2.319   1.030
 7593SOL    HW123678   5.324   2.259   0.998
 7593SOL    HW223679   5.357   2.404   1.064
 7594SOL     OW23680   0.451   5.245   2.142
 7594SOL    HW123681   0.509   5.250   2.223
 7594SOL    HW223682   0.453   5.152   2.105
 7595SOL     OW23683   0.111   2.726   5.765
 7595SOL    HW123684   0.136   2.753   5.672
 7595SOL    HW223685   0.179   2.661   5.800
 7596SOL     OW23686   4.858   5.844   3.838
 7596SOL    HW123687   4.800   5.871   3.761
 7596SOL    HW223688   4.836   5.901   3.917
 7597SOL     OW23689   3.571   6.172   2.757
 7597SOL    HW123690   3.641   6.186   2.687
 7597SOL    HW223691   3.543   6.261   2.794
 7598SOL     OW23692   0.151   1.518   3.637
 7598SOL    HW123693   0.249   1.518   3.620
 7598SOL    HW223694   0.135   1.536   3.734
 7599SOL     OW23695   5.873   1.888   2.306
 7599SOL    HW123696   5.934   1.859   2.232
 7599SOL    HW223697   5.779   1.859   2.284
 7600SOL     OW23698   1.701   1.105   2.751
 7600SOL    HW123699   1.772   1.173   2.771
 7600SOL    HW223700   1.719   1.063   2.662
 7601SOL     OW23701   2.204   5.170   2.599
 7601SOL    HW123702   2.106   5.189   2.597
 7601SOL    HW223703   2.233   5.133   2.511
 7602SOL     OW23704   0.468   4.407   0.053
 7602SOL    HW123705   0.446   4.381   6.979
 7602SOL    HW223706   0.479   4.324   0.109
 7603SOL     OW23707   2.087   4.980   6.100
 7603SOL    HW123708   2.019   4.949   6.166
 7603SOL    HW223709   2.126   4.901   6.052
 7604SOL     OW23710   1.448   4.725   4.296
 7604SOL    HW123711   1.425   4.799   4.359
 7604SOL    HW223712   1.485   4.648   4.348
 7605SOL     OW23713   0.446   6.970   0.860
 7605SOL    HW123714   0.508   0.018   0.822
 7605SOL    HW223715   0.410   6.912   0.787
 7606SOL     OW23716   6.836   3.374   3.664
 7606SOL    HW123717   6.884   3.359   3.577
 7606SOL    HW223718   6.869   3.458   3.706
 7607SOL     OW23719   4.412   4.830   0.333
 7607SOL    HW123720   4.448   4.921   0.315
 7607SOL    HW223721   4.341   4.836   0.403
 7608SOL     OW23722   3.369   3.887   2.929
 7608SOL    HW123723   3.325   3.850   3.011
 7608SOL    HW223724   3.419   3.814   2.883
 7609SOL     OW23725   0.692   3.787   4.002
 7609SOL    HW123726   0.651   3.743   4.083
 7609SOL    HW223727   0.646   3.755   3.920
 7610SOL     OW23728   6.119   6.115   0.500
 7610SOL    HW123729   6.208   6.161   0.501
 7610SOL    HW223730   6.061   6.155   0.429
 7611SOL     OW23731   0.282   1.815   0.232
 7611SOL    HW123732   0.282   1.898   0.176
 7611SOL    HW223733   0.370   1.770   0.225
 7612SOL     OW23734   5.183   3.143   4.907
 7612SOL    HW123735   5.158   3.226   4.858
 7612SOL    HW223736   5.121   3.131   4.985
 7613SOL     OW23737   6.185   3.416   1.223
 7613SOL    HW123738   6.156   3.497   1.274
 7613SOL    HW223739   6.272   3.433   1.178
 7614SOL     OW23740   4.979   3.626   0.926
 7614SOL    HW123741   4.890   3.583   0.935
 7614SOL    HW223742   5.006   3.666   1.014
 7615SOL     OW23743   3.995   3.716   6.648
 7615SOL    HW123744   3.954   3.760   6.728
 7615SOL    HW223745   3.991   3.779   6.570
 7616SOL     OW23746   6.488   5.133   5.604
 7616SOL    HW123747   6.490   5.203   5.532
 7616SOL    HW223748   6.404   5.143   5.657
 7617SOL     OW23749   4.038   5.739   2.894
 7617SOL    HW123750   4.098   5.818   2.885
 7617SOL    HW223751   3.951   5.768   2.935
 7618SOL     OW23752   0.447   1.524   5.746
 7618SOL    HW123753   0.441   1.523   5.846
 7618SOL    HW223754   0.410   1.439   5.709
 7619SOL     OW23755   5.604   3.033   5.369
 7619SOL    HW123756   5.526   3.025   5.307
 7619SOL    HW223757   5.666   3.104   5.335
 7620SOL     OW23758   4.255   5.588   0.617
 7620SOL    HW123759   4.338   5.537   0.639
 7620SOL    HW223760   4.203   5.538   0.548
 7621SOL     OW23761   0.151   1.849   0.512
 7621SOL    HW123762   0.202   1.811   0.435
 7621SOL    HW223763   0.133   1.946   0.495
 7622SOL     OW23764   5.388   5.566   1.515
 7622SOL    HW123765   5.378   5.467   1.523
 7622SOL    HW223766   5.442   5.600   1.592
 7623SOL     OW23767   4.473   3.668   6.760
 7623SOL    HW123768   4.488   3.767   6.768
 7623SOL    HW223769   4.481   3.625   6.850
 7624SOL     OW23770   6.973   2.884   4.782
 7624SOL    HW123771   6.916   2.931   4.849
 7624SOL    HW223772   0.050   2.899   4.805
 7625SOL     OW23773   4.763   1.148   1.229
 7625SOL    HW123774   4.666   1.126   1.219
 7625SOL    HW223775   4.815   1.065   1.249
 7626SOL     OW23776   5.901   6.808   4.418
 7626SOL    HW123777   5.949   6.721   4.427
 7626SOL    HW223778   5.844   6.823   4.499
 7627SOL     OW23779   5.394   2.552   0.071
 7627SOL    HW123780   5.412   2.566   6.993
 7627SOL    HW223781   5.477   2.520   0.116
 7628SOL     OW23782   4.020   0.424   2.840
 7628SOL    HW123783   4.053   0.398   2.749
 7628SOL    HW223784   4.088   0.481   2.885
 7629SOL     OW23785   6.725   6.743   3.069
 7629SOL    HW123786   6.736   6.774   3.164
 7629SOL    HW223787   6.814   6.719   3.032
 7630SOL     OW23788   6.369   0.174   1.711
 7630SOL    HW123789   6.413   0.264   1.718
 7630SOL    HW223790   6.291   0.179   1.649
 7631SOL     OW23791   1.002   0.753   6.102
 7631SOL    HW123792   0.912   0.709   6.094
 7631SOL    HW223793   0.991   0.852   6.095
 7632SOL     OW23794   3.675   2.844   2.123
 7632SOL    HW123795   3.602   2.880   2.182
 7632SOL    HW223796   3.714   2.762   2.165
 7633SOL     OW23797   4.954   1.496   1.408
 7633SOL    HW123798   4.894   1.428   1.450
 7633SOL    HW223799   5.041   1.453   1.384
 7634SOL     OW23800   0.726   2.035   2.783
 7634SOL    HW123801   0.670   1.953   2.796
 7634SOL    HW223802   0.731   2.085   2.869
 7635SOL     OW23803   3.605   5.604   4.620
 7635SOL    HW123804   3.636   5.700   4.621
 7635SOL    HW223805   3.616   5.566   4.712
 7636SOL     OW23806   1.128   2.446   4.139
 7636SOL    HW123807   1.098   2.374   4.076
 7636SOL    HW223808   1.142   2.531   4.088
 7637SOL     OW23809   2.591   4.932   2.282
 7637SOL    HW123810   2.523   4.875   2.236
 7637SOL    HW223811   2.673   4.877   2.299
 7638SOL     OW23812   3.802   6.408   0.604
 7638SOL    HW123813   3.765   6.325   0.563
 7638SOL    HW223814   3.902   6.406   0.601
 7639SOL     OW23815   1.278   2.130   0.095
 7639SOL    HW123816   1.197   2.097   0.048
 7639SOL    HW223817   1.256   2.150   0.190
 7640SOL     OW23818   3.039   1.659   6.806
 7640SOL    HW123819   3.095   1.719   6.749
 7640SOL    HW223820   2.959   1.710   6.838
 7641SOL     OW23821   1.460   4.497   1.980
 7641SOL    HW123822   1.484   4.515   2.076
 7641SOL    HW223823   1.414   4.408   1.974
 7642SOL     OW23824   3.892   0.778   3.258
 7642SOL    HW123825   3.991   0.769   3.271
 7642SOL    HW223826   3.874   0.852   3.192
 7643SOL     OW23827   4.943   3.273   4.344
 7643SOL    HW123828   4.892   3.211   4.285
 7643SOL    HW223829   5.040   3.268   4.322
 7644SOL     OW23830   5.824   2.796   2.612
 7644SOL    HW123831   5.819   2.826   2.707
 7644SOL    HW223832   5.857   2.701   2.609
 7645SOL     OW23833   4.111   4.214   5.538
 7645SOL    HW123834   4.086   4.274   5.462
 7645SOL    HW223835   4.028   4.174   5.577
 7646SOL     OW23836   1.599   3.309   2.641
 7646SOL    HW123837   1.551   3.236   2.593
 7646SOL    HW223838   1.606   3.286   2.738
 7647SOL     OW23839   6.893   3.894   2.421
 7647SOL    HW123840   6.988   3.913   2.448
 7647SOL    HW223841   6.870   3.950   2.341
 7648SOL     OW23842   3.095   1.508   3.409
 7648SOL    HW123843   3.105   1.471   3.316
 7648SOL    HW223844   3.079   1.432   3.473
 7649SOL     OW23845   0.449   0.660   2.995
 7649SOL    HW123846   0.415   0.754   2.993
 7649SOL    HW223847   0.549   0.661   3.003
 7650SOL     OW23848   4.351   2.706   1.381
 7650SOL    HW123849   4.355   2.686   1.479
 7650SOL    HW223850   4.421   2.774   1.358
 7651SOL     OW23851   2.552   0.894   4.753
 7651SOL    HW123852   2.595   0.906   4.842
 7651SOL    HW223853   2.614   0.927   4.681
 7652SOL     OW23854   6.464   3.670   4.318
 7652SOL    HW123855   6.543   3.647   4.260
 7652SOL    HW223856   6.395   3.716   4.262
 7653SOL     OW23857   2.539   2.218   7.002
 7653SOL    HW123858   2.487   2.164   0.048
 7653SOL    HW223859   2.546   2.168   6.916
 7654SOL     OW23860   4.907   3.238   3.331
 7654SOL    HW123861   4.948   3.159   3.375
 7654SOL    HW223862   4.920   3.319   3.388
 7655SOL     OW23863   4.560   0.494   3.412
 7655SOL    HW123864   4.477   0.442   3.434
 7655SOL    HW223865   4.556   0.583   3.457
 7656SOL     OW23866   2.098   5.347   6.166
 7656SOL    HW123867   2.066   5.440   6.150
 7656SOL    HW223868   2.019   5.285   6.165
 7657SOL     OW23869   1.975   2.968   3.865
 7657SOL    HW123870   2.058   3.020   3.844
 7657SOL    HW223871   1.991   2.871   3.845
 7658SOL     OW23872   3.738   0.033   5.805
 7658SOL    HW123873   3.785   0.075   5.883
 7658SOL    HW223874   3.664   0.093   5.774
 7659SOL     OW23875   5.866   5.247   0.351
 7659SOL    HW123876   5.942   5.183   0.349
 7659SOL    HW223877   5.798   5.220   0.282
 7660SOL     OW23878   0.862   6.319   3.817
 7660SOL    HW123879   0.863   6.255   3.894
 7660SOL    HW223880   0.773   6.364   3.813
 7661SOL     OW23881   6.189   2.846   4.280
 7661SOL    HW123882   6.227   2.858   4.188
 7661SOL    HW223883   6.195   2.932   4.330
 7662SOL     OW23884   1.195   2.814   2.660
 7662SOL    HW123885   1.214   2.718   2.680
 7662SOL    HW223886   1.236   2.872   2.730
 7663SOL     OW23887   1.367   6.078   6.211
 7663SOL    HW123888   1.459   6.102   6.240
 7663SOL    HW223889   1.350   5.981   6.232
 7664SOL     OW23890   3.457   0.250   1.403
 7664SOL    HW123891   3.500   0.172   1.357
 7664SOL    HW223892   3.441   0.228   1.499
 7665SOL     OW23893   4.586   6.994   5.130
 7665SOL    HW123894   4.504   0.024   5.157
 7665SOL    HW223895   4.664   0.036   5.127
 7666SOL     OW23896   0.447   6.457   1.371
 7666SOL    HW123897   0.427   6.482   1.466
 7666SOL    HW223898   0.375   6.493   1.311
 7667SOL     OW23899   5.069   5.517   2.163
 7667SOL    HW123900   5.031   5.542   2.074
 7667SOL    HW223901   5.046   5.422   2.183
 7668SOL     OW23902   3.001   4.645   0.760
 7668SOL    HW123903   3.018   4.731   0.808
 7668SOL    HW223904   3.035   4.569   0.814
 7669SOL     OW23905   5.687   1.782   5.488
 7669SOL    HW123906   5.600   1.832   5.496
 7669SOL    HW223907   5.719   1.787   5.393
 7670SOL     OW23908   0.716   5.113   6.803
 7670SOL    HW123909   0.680   5.096   6.711
 7670SOL    HW223910   0.724   5.026   6.852
 7671SOL     OW23911   4.205   1.210   3.216
 7671SOL    HW123912   4.234   1.240   3.306
 7671SOL    HW223913   4.178   1.289   3.161
 7672SOL     OW23914   6.758   6.452   2.975
 7672SOL    HW123915   6.674   6.505   2.981
 7672SOL    HW223916   6.836   6.514   2.968
 7673SOL     OW23917   1.741   5.435   0.359
 7673SOL    HW123918   1.808   5.379   0.311
 7673SOL    HW223919   1.655   5.384   0.369
 7674SOL     OW23920   5.440   1.543   3.498
 7674SOL    HW123921   5.345   1.561   3.471
 7674SOL    HW223922   5.442   1.473   3.569
 7675SOL     OW23923   5.996   6.809   2.495
 7675SOL    HW123924   5.991   6.710   2.506
 7675SOL    HW223925   6.088   6.835   2.466
 7676SOL     OW23926   1.634   2.082   0.738
 7676SOL    HW123927   1.610   2.175   0.710
 7676SOL    HW223928   1.682   2.037   0.663
 7677SOL     OW23929   0.400   5.001   2.017
 7677SOL    HW123930   0.488   4.969   1.982
 7677SOL    HW223931   0.358   5.063   1.951
 7678SOL     OW23932   2.282   1.922   4.354
 7678SOL    HW123933   2.336   1.950   4.274
 7678SOL    HW223934   2.267   2.001   4.414
 7679SOL     OW23935   2.966   5.385   6.479
 7679SOL    HW123936   2.877   5.353   6.513
 7679SOL    HW223937   2.999   5.322   6.409
 7680SOL     OW23938   1.742   2.107   0.391
 7680SOL    HW123939   1.770   2.110   0.295
 7680SOL    HW223940   1.642   2.104   0.397
 7681SOL     OW23941   2.405   0.108   0.758
 7681SOL    HW123942   2.356   0.112   0.845
 7681SOL    HW223943   2.357   0.048   0.694
 7682SOL     OW23944   3.181   0.198   2.555
 7682SOL    HW123945   3.201   0.253   2.637
 7682SOL    HW223946   3.239   0.117   2.555
 7683SOL     OW23947   6.187   1.412   3.411
 7683SOL    HW123948   6.093   1.434   3.387
 7683SOL    HW223949   6.219   1.473   3.484
 7684SOL     OW23950   3.783   2.152   2.432
 7684SOL    HW123951   3.783   2.250   2.408
 7684SOL    HW223952   3.738   2.100   2.360
 7685SOL     OW23953   3.171   2.209   0.122
 7685SOL    HW123954   3.268   2.199   0.101
 7685SOL    HW223955   3.129   2.274   0.059
 7686SOL     OW23956   6.563   0.086   2.881
 7686SOL    HW123957   6.590   0.162   2.822
 7686SOL    HW223958   6.496   0.028   2.834
 7687SOL     OW23959   5.683   4.688   3.996
 7687SOL    HW123960   5.671   4.593   3.968
 7687SOL    HW223961   5.609   4.714   4.059
 7688SOL     OW23962   0.870   6.085   5.726
 7688SOL    HW123963   0.946   6.095   5.789
 7688SOL    HW223964   0.872   6.159   5.658
 7689SOL     OW23965   5.272   6.362   3.085
 7689SOL    HW123966   5.218   6.382   3.004
 7689SOL    HW223967   5.220   6.385   3.167
 7690SOL     OW23968   5.910   5.239   0.830
 7690SOL    HW123969   5.995   5.289   0.813
 7690SOL    HW223970   5.876   5.201   0.744
 7691SOL     OW23971   5.321   2.333   5.144
 7691SOL    HW123972   5.351   2.422   5.108
 7691SOL    HW223973   5.378   2.307   5.222
 7692SOL     OW23974   0.301   6.380   1.856
 7692SOL    HW123975   0.383   6.323   1.868
 7692SOL    HW223976   0.249   6.383   1.941
 7693SOL     OW23977   3.849   0.356   1.194
 7693SOL    HW123978   3.908   0.412   1.135
 7693SOL    HW223979   3.804   0.286   1.139
 7694SOL     OW23980   0.245   4.781   5.291
 7694SOL    HW123981   0.295   4.727   5.223
 7694SOL    HW223982   0.148   4.781   5.269
 7695SOL     OW23983   4.230   6.783   0.592
 7695SOL    HW123984   4.286   6.777   0.674
 7695SOL    HW223985   4.268   6.723   0.521
 7696SOL     OW23986   6.703   1.226   5.137
 7696SOL    HW123987   6.651   1.311   5.144
 7696SOL    HW223988   6.748   1.221   5.047
 7697SOL     OW23989   3.057   6.268   2.236
 7697SOL    HW123990   3.018   6.183   2.201
 7697SOL    HW223991   3.152   6.252   2.265
 7698SOL     OW23992   6.709   2.047   3.249
 7698SOL    HW123993   6.681   2.069   3.342
 7698SOL    HW223994   6.631   2.013   3.197
 7699SOL     OW23995   3.937   5.713   6.976
 7699SOL    HW123996   4.022   5.756   6.944
 7699SOL    HW223997   3.863   5.733   6.912
 7700SOL     OW23998   4.769   6.200   4.429
 7700SOL    HW123999   4.775   6.178   4.526
 7700SOL    HW224000   4.695   6.146   4.387
 7701SOL     OW24001   6.671   1.672   0.233
 7701SOL    HW124002   6.639   1.631   0.318
 7701SOL    HW224003   6.745   1.617   0.194
 7702SOL     OW24004   3.583   5.863   5.969
 7702SOL    HW124005   3.566   5.921   6.049
 7702SOL    HW224006   3.665   5.895   5.922
 7703SOL     OW24007   6.185   0.720   5.422
 7703SOL    HW124008   6.283   0.739   5.433
 7703SOL    HW224009   6.148   0.687   5.509
 7704SOL     OW24010   5.283   5.393   5.586
 7704SOL    HW124011   5.258   5.487   5.561
 7704SOL    HW224012   5.245   5.330   5.518
 7705SOL     OW24013   3.882   5.184   6.332
 7705SOL    HW124014   3.798   5.238   6.342
 7705SOL    HW224015   3.961   5.243   6.347
 7706SOL     OW24016   4.288   3.189   5.379
 7706SOL    HW124017   4.377   3.145   5.365
 7706SOL    HW224018   4.222   3.121   5.411
 7707SOL     OW24019   0.600   5.744   6.124
 7707SOL    HW124020   0.685   5.741   6.070
 7707SOL    HW224021   0.564   5.652   6.134
 7708SOL     OW24022   6.265   0.407   6.131
 7708SOL    HW124023   6.300   0.420   6.224
 7708SOL    HW224024   6.268   0.310   6.107
 7709SOL     OW24025   5.389   4.525   1.812
 7709SOL    HW124026   5.379   4.610   1.761
 7709SOL    HW224027   5.457   4.467   1.767
 7710SOL     OW24028   2.777   0.326   0.881
 7710SOL    HW124029   2.729   0.410   0.855
 7710SOL    HW224030   2.711   0.260   0.916
 7711SOL     OW24031   6.492   6.070   5.264
 7711SOL    HW124032   6.485   6.170   5.253
 7711SOL    HW224033   6.511   6.048   5.360
 7712SOL     OW24034   5.377   5.843   2.507
 7712SOL    HW124035   5.436   5.920   2.484
 7712SOL    HW224036   5.285   5.876   2.526
 7713SOL     OW24037   1.521   4.585   0.745
 7713SOL    HW124038   1.434   4.560   0.702
 7713SOL    HW224039   1.521   4.683   0.766
 7714SOL     OW24040   6.492   4.291   5.601
 7714SOL    HW124041   6.439   4.228   5.658
 7714SOL    HW224042   6.546   4.351   5.659
 7715SOL     OW24043   4.122   2.040   6.771
 7715SOL    HW124044   4.084   2.121   6.816
 7715SOL    HW224045   4.124   1.964   6.835
 7716SOL     OW24046   6.351   4.422   3.743
 7716SOL    HW124047   6.443   4.397   3.716
 7716SOL    HW224048   6.302   4.340   3.775
 7717SOL     OW24049   1.564   0.978   5.074
 7717SOL    HW124050   1.660   0.953   5.058
 7717SOL    HW224051   1.555   1.078   5.073
 7718SOL     OW24052   1.408   2.215   3.009
 7718SOL    HW124053   1.409   2.136   2.948
 7718SOL    HW224054   1.426   2.185   3.103
 7719SOL     OW24055   6.510   4.295   4.684
 7719SOL    HW124056   6.501   4.309   4.783
 7719SOL    HW224057   6.446   4.223   4.655
 7720SOL     OW24058   0.202   0.979   0.071
 7720SOL    HW124059   0.156   1.063   0.099
 7720SOL    HW224060   0.242   0.934   0.151
 7721SOL     OW24061   0.298   5.194   2.432
 7721SOL    HW124062   0.198   5.193   2.428
 7721SOL    HW224063   0.330   5.118   2.488
 7722SOL     OW24064   0.875   6.050   3.039
 7722SOL    HW124065   0.809   5.976   3.056
 7722SOL    HW224066   0.944   6.051   3.111
 7723SOL     OW24067   4.973   3.124   0.045
 7723SOL    HW124068   4.975   3.057   0.119
 7723SOL    HW224069   5.043   3.100   6.997
 7724SOL     OW24070   3.070   4.265   1.172
 7724SOL    HW124071   3.033   4.326   1.242
 7724SOL    HW224072   3.093   4.319   1.090
 7725SOL     OW24073   6.093   2.263   3.409
 7725SOL    HW124074   6.014   2.284   3.466
 7725SOL    HW224075   6.093   2.165   3.388
 7726SOL     OW24076   1.936   6.159   5.119
 7726SOL    HW124077   1.882   6.081   5.086
 7726SOL    HW224078   1.929   6.164   5.219
 7727SOL     OW24079   0.298   0.814   2.432
 7727SOL    HW124080   0.297   0.814   2.532
 7727SOL    HW224081   0.353   0.890   2.399
 7728SOL     OW24082   1.100   4.770   3.310
 7728SOL    HW124083   1.098   4.867   3.282
 7728SOL    HW224084   1.181   4.753   3.366
 7729SOL     OW24085   5.991   2.857   1.092
 7729SOL    HW124086   5.937   2.929   1.048
 7729SOL    HW224087   5.935   2.811   1.161
 7730SOL     OW24088   6.141   6.126   1.365
 7730SOL    HW124089   6.162   6.223   1.375
 7730SOL    HW224090   6.070   6.114   1.295
 7731SOL     OW24091   6.616   0.676   6.998
 7731SOL    HW124092   6.646   0.748   0.040
 7731SOL    HW224093   6.583   0.718   6.913
 7732SOL     OW24094   4.550   6.193   0.604
 7732SOL    HW124095   4.452   6.173   0.596
 7732SOL    HW224096   4.580   6.246   0.525
 7733SOL     OW24097   4.488   6.490   2.562
 7733SOL    HW124098   4.534   6.578   2.550
 7733SOL    HW224099   4.556   6.417   2.564
 7734SOL     OW24100   2.644   4.909   2.917
 7734SOL    HW124101   2.689   4.949   2.837
 7734SOL    HW224102   2.552   4.947   2.925
 7735SOL     OW24103   4.947   6.201   6.800
 7735SOL    HW124104   4.909   6.188   6.709
 7735SOL    HW224105   5.042   6.233   6.793
 7736SOL     OW24106   3.282   3.994   7.018
 7736SOL    HW124107   3.288   3.923   6.947
 7736SOL    HW224108   3.201   3.977   0.054
 7737SOL     OW24109   3.156   0.629   2.566
 7737SOL    HW124110   3.154   0.585   2.655
 7737SOL    HW224111   3.083   0.697   2.561
 7738SOL     OW24112   3.239   6.190   0.491
 7738SOL    HW124113   3.270   6.103   0.451
 7738SOL    HW224114   3.306   6.262   0.470
 7739SOL     OW24115   0.660   2.281   0.806
 7739SOL    HW124116   0.595   2.313   0.737
 7739SOL    HW224117   0.694   2.191   0.780
 7740SOL     OW24118   1.957   0.882   3.466
 7740SOL    HW124119   2.048   0.848   3.491
 7740SOL    HW224120   1.936   0.857   3.372
 7741SOL     OW24121   0.589   4.691   5.988
 7741SOL    HW124122   0.535   4.718   5.909
 7741SOL    HW224123   0.580   4.760   6.060
 7742SOL     OW24124   5.682   1.745   3.184
 7742SOL    HW124125   5.654   1.716   3.275
 7742SOL    HW224126   5.605   1.736   3.121
 7743SOL     OW24127   5.767   1.174   0.267
 7743SOL    HW124128   5.765   1.154   0.365
 7743SOL    HW224129   5.860   1.162   0.232
 7744SOL     OW24130   0.860   5.932   3.500
 7744SOL    HW124131   0.920   5.951   3.422
 7744SOL    HW224132   0.765   5.943   3.471
 7745SOL     OW24133   3.670   1.010   5.864
 7745SOL    HW124134   3.599   1.080   5.859
 7745SOL    HW224135   3.688   0.974   5.773
 7746SOL     OW24136   2.887   6.344   7.016
 7746SOL    HW124137   2.798   6.375   0.029
 7746SOL    HW224138   2.958   6.370   0.062
 7747SOL     OW24139   4.675   5.738   1.664
 7747SOL    HW124140   4.749   5.804   1.650
 7747SOL    HW224141   4.609   5.747   1.590
 7748SOL     OW24142   2.869   3.619   4.879
 7748SOL    HW124143   2.967   3.624   4.900
 7748SOL    HW224144   2.823   3.564   4.949
 7749SOL     OW24145   2.603   2.562   5.469
 7749SOL    HW124146   2.561   2.530   5.384
 7749SOL    HW224147   2.633   2.657   5.457
 7750SOL     OW24148   0.024   6.551   1.433
 7750SOL    HW124149   7.012   6.500   1.353
 7750SOL    HW224150   0.073   6.633   1.402
 7751SOL     OW24151   1.510   2.258   2.154
 7751SOL    HW124152   1.519   2.357   2.144
 7751SOL    HW224153   1.425   2.237   2.203
 7752SOL     OW24154   5.302   0.475   6.098
 7752SOL    HW124155   5.368   0.468   6.022
 7752SOL    HW224156   5.349   0.508   6.179
 7753SOL     OW24157   2.752   1.536   4.248
 7753SOL    HW124158   2.800   1.568   4.330
 7753SOL    HW224159   2.819   1.498   4.184
 7754SOL     OW24160   3.415   6.018   1.106
 7754SOL    HW124161   3.487   6.085   1.088
 7754SOL    HW224162   3.382   6.029   1.200
 7755SOL     OW24163   2.122   2.365   5.690
 7755SOL    HW124164   2.128   2.404   5.598
 7755SOL    HW224165   2.057   2.289   5.691
 7756SOL     OW24166   2.587   6.923   2.583
 7756SOL    HW124167   2.551   6.958   2.497
 7756SOL    HW224168   2.538   6.966   2.659
 7757SOL     OW24169   6.054   4.810   0.943
 7757SOL    HW124170   6.065   4.784   0.847
 7757SOL    HW224171   6.080   4.906   0.954
 7758SOL     OW24172   2.228   6.981   6.325
 7758SOL    HW124173   2.232   0.023   6.246
 7758SOL    HW224174   2.161   7.015   6.391
 7759SOL     OW24175   1.827   1.471   5.412
 7759SOL    HW124176   1.864   1.447   5.502
 7759SOL    HW224177   1.902   1.491   5.349
 7760SOL     OW24178   5.912   3.558   2.475
 7760SOL    HW124179   5.890   3.487   2.542
 7760SOL    HW224180   5.998   3.603   2.500
 7761SOL     OW24181   6.544   6.663   4.622
 7761SOL    HW124182   6.448   6.664   4.652
 7761SOL    HW224183   6.580   6.757   4.622
 7762SOL     OW24184   2.366   0.464   4.103
 7762SOL    HW124185   2.460   0.428   4.097
 7762SOL    HW224186   2.312   0.405   4.162
 7763SOL     OW24187   2.501   7.014   6.426
 7763SOL    HW124188   2.413   6.966   6.421
 7763SOL    HW224189   2.522   0.013   6.522
 7764SOL     OW24190   3.429   3.622   5.545
 7764SOL    HW124191   3.420   3.721   5.536
 7764SOL    HW224192   3.338   3.581   5.555
 7765SOL     OW24193   5.917   2.908   4.949
 7765SOL    HW124194   5.903   2.955   4.862
 7765SOL    HW224195   5.829   2.890   4.993
 7766SOL     OW24196   6.598   3.958   0.590
 7766SOL    HW124197   6.696   3.951   0.609
 7766SOL    HW224198   6.557   4.026   0.650
 7767SOL     OW24199   4.505   6.119   2.393
 7767SOL    HW124200   4.467   6.052   2.457
 7767SOL    HW224201   4.544   6.072   2.314
 7768SOL     OW24202   5.073   4.266   3.029
 7768SOL    HW124203   5.133   4.222   3.096
 7768SOL    HW224204   5.128   4.315   2.962
 7769SOL     OW24205   4.710   1.583   4.273
 7769SOL    HW124206   4.614   1.572   4.298
 7769SOL    HW224207   4.728   1.531   4.189
 7770SOL     OW24208   0.737   3.431   4.973
 7770SOL    HW124209   0.765   3.391   5.060
 7770SOL    HW224210   0.689   3.517   4.990
 7771SOL     OW24211   3.249   1.520   5.409
 7771SOL    HW124212   3.187   1.526   5.331
 7771SOL    HW224213   3.337   1.484   5.378
 7772SOL     OW24214   4.968   6.511   1.929
 7772SOL    HW124215   4.984   6.431   1.987
 7772SOL    HW224216   4.949   6.480   1.835
 7773SOL     OW24217   1.403   4.863   5.628
 7773SOL    HW124218   1.442   4.794   5.690
 7773SOL    HW224219   1.468   4.882   5.554
 7774SOL     OW24220   4.988   2.433   4.254
 7774SOL    HW124221   5.051   2.406   4.181
 7774SOL    HW224222   5.015   2.522   4.290
 7775SOL     OW24223   4.496   0.100   7.010
 7775SOL    HW124224   4.438   0.029   0.030
 7775SOL    HW224225   4.497   0.180   0.050
 7776SOL     OW24226   0.920   5.928   6.723
 7776SOL    HW124227   1.017   5.935   6.750
 7776SOL    HW224228   0.878   6.019   6.727
 7777SOL     OW24229   6.050   5.591   3.855
 7777SOL    HW124230   6.145   5.560   3.845
 7777SOL    HW224231   5.991   5.539   3.793
 7778SOL     OW24232   5.660   3.985   2.050
 7778SOL    HW124233   5.718   3.910   2.083
 7778SOL    HW224234   5.564   3.957   2.053
 7779SOL     OW24235   2.719   1.066   2.067
 7779SOL    HW124236   2.709   1.155   2.023
 7779SOL    HW224237   2.711   0.994   1.998
 7780SOL     OW24238   0.951   5.076   5.743
 7780SOL    HW124239   0.971   4.992   5.692
 7780SOL    HW224240   0.988   5.154   5.693
 7781SOL     OW24241   2.198   4.342   1.665
 7781SOL    HW124242   2.211   4.368   1.760
 7781SOL    HW224243   2.120   4.392   1.627
 7782SOL     OW24244   4.911   5.119   4.363
 7782SOL    HW124245   4.855   5.141   4.443
 7782SOL    HW224246   4.873   5.165   4.283
 7783SOL     OW24247   0.947   0.004   5.728
 7783SOL    HW124248   0.924   6.979   5.642
 7783SOL    HW224249   1.038   6.996   5.757
 7784SOL     OW24250   3.451   2.399   1.439
 7784SOL    HW124251   3.539   2.352   1.443
 7784SOL    HW224252   3.424   2.427   1.531
 7785SOL     OW24253   2.234   6.132   4.096
 7785SOL    HW124254   2.305   6.182   4.148
 7785SOL    HW224255   2.266   6.039   4.079
 7786SOL     OW24256   3.659   6.954   0.268
 7786SOL    HW124257   3.663   6.898   0.185
 7786SOL    HW224258   3.564   6.983   0.283
 7787SOL     OW24259   2.248   3.077   0.173
 7787SOL    HW124260   2.233   3.009   0.245
 7787SOL    HW224261   2.237   3.169   0.211
 7788SOL     OW24262   1.566   5.059   1.618
 7788SOL    HW124263   1.521   5.009   1.693
 7788SOL    HW224264   1.663   5.038   1.618
 7789SOL     OW24265   3.198   0.050   6.245
 7789SOL    HW124266   3.197   6.982   6.291
 7789SOL    HW224267   3.182   0.036   6.147
 7790SOL     OW24268   5.232   5.620   2.896
 7790SOL    HW124269   5.325   5.656   2.893
 7790SOL    HW224270   5.166   5.694   2.886
 7791SOL     OW24271   1.969   4.992   2.313
 7791SOL    HW124272   1.916   5.031   2.388
 7791SOL    HW224273   2.063   5.024   2.317
 7792SOL     OW24274   1.311   5.986   4.057
 7792SOL    HW124275   1.410   5.999   4.045
 7792SOL    HW224276   1.277   5.924   3.985
 7793SOL     OW24277   3.747   0.439   0.261
 7793SOL    HW124278   3.709   0.488   0.339
 7793SOL    HW224279   3.673   0.403   0.204
 7794SOL     OW24280   0.259   4.129   1.942
 7794SOL    HW124281   0.279   4.077   1.858
 7794SOL    HW224282   0.170   4.102   1.978
 7795SOL     OW24283   2.563   5.043   5.278
 7795SOL    HW124284   2.610   4.983   5.213
 7795SOL    HW224285   2.542   5.130   5.233
 7796SOL     OW24286   3.549   2.736   5.317
 7796SOL    HW124287   3.588   2.810   5.372
 7796SOL    HW224288   3.604   2.654   5.329
 7797SOL     OW24289   0.804   6.851   1.189
 7797SOL    HW124290   0.868   6.928   1.192
 7797SOL    HW224291   0.826   6.792   1.112
 7798SOL     OW24292   0.961   2.467   3.084
 7798SOL    HW124293   1.016   2.406   3.027
 7798SOL    HW224294   0.941   2.551   3.033
 7799SOL     OW24295   1.971   5.192   2.064
 7799SOL    HW124296   1.963   5.130   2.142
 7799SOL    HW224297   1.879   5.217   2.032
 7800SOL     OW24298   1.016   5.471   3.054
 7800SOL    HW124299   1.054   5.383   3.025
 7800SOL    HW224300   1.010   5.474   3.153
 7801SOL     OW24301   1.816   1.529   2.554
 7801SOL    HW124302   1.822   1.610   2.496
 7801SOL    HW224303   1.903   1.480   2.552
 7802SOL     OW24304   6.395   3.037   0.229
 7802SOL    HW124305   6.343   2.956   0.253
 7802SOL    HW224306   6.384   3.106   0.301
 7803SOL     OW24307   4.310   2.003   0.312
 7803SOL    HW124308   4.216   2.032   0.329
 7803SOL    HW224309   4.372   2.058   0.368
 7804SOL     OW24310   4.710   2.127   4.763
 7804SOL    HW124311   4.620   2.103   4.800
 7804SOL    HW224312   4.702   2.210   4.708
 7805SOL     OW24313   5.191   3.362   2.390
 7805SOL    HW124314   5.236   3.420   2.458
 7805SOL    HW224315   5.255   3.341   2.316
 7806SOL     OW24316   5.435   1.393   6.108
 7806SOL    HW124317   5.441   1.314   6.047
 7806SOL    HW224318   5.356   1.382   6.169
 7807SOL     OW24319   0.811   4.723   5.388
 7807SOL    HW124320   0.765   4.677   5.312
 7807SOL    HW224321   0.743   4.769   5.445
 7808SOL     OW24322   6.106   3.378   3.541
 7808SOL    HW124323   6.115   3.477   3.545
 7808SOL    HW224324   6.186   3.336   3.585
 7809SOL     OW24325   5.212   5.284   5.172
 7809SOL    HW124326   5.115   5.303   5.183
 7809SOL    HW224327   5.257   5.285   5.262
 7810SOL     OW24328   2.966   6.649   5.417
 7810SOL    HW124329   2.943   6.577   5.483
 7810SOL    HW224330   2.882   6.689   5.382
 7811SOL     OW24331   1.248   5.373   1.444
 7811SOL    HW124332   1.231   5.380   1.346
 7811SOL    HW224333   1.345   5.389   1.463
 7812SOL     OW24334   1.755   2.729   4.004
 7812SOL    HW124335   1.842   2.774   4.024
 7812SOL    HW224336   1.679   2.790   4.026
 7813SOL     OW24337   4.179   2.115   1.293
 7813SOL    HW124338   4.191   2.086   1.199
 7813SOL    HW224339   4.238   2.061   1.353
 7814SOL     OW24340   6.976   2.969   3.181
 7814SOL    HW124341   6.930   3.033   3.118
 7814SOL    HW224342   0.054   2.967   3.160
 7815SOL     OW24343   5.828   2.231   3.994
 7815SOL    HW124344   5.776   2.301   3.946
 7815SOL    HW224345   5.800   2.140   3.961
 7816SOL     OW24346   0.456   2.287   6.701
 7816SOL    HW124347   0.470   2.205   6.645
 7816SOL    HW224348   0.525   2.356   6.678
 7817SOL     OW24349   4.943   4.493   4.772
 7817SOL    HW124350   4.949   4.466   4.676
 7817SOL    HW224351   4.852   4.474   4.807
 7818SOL     OW24352   4.961   1.218   2.632
 7818SOL    HW124353   4.878   1.163   2.630
 7818SOL    HW224354   4.991   1.231   2.726
 7819SOL     OW24355   0.305   3.741   3.668
 7819SOL    HW124356   0.315   3.838   3.645
 7819SOL    HW224357   0.208   3.717   3.673
 7820SOL     OW24358   1.446   1.110   5.684
 7820SOL    HW124359   1.542   1.137   5.682
 7820SOL    HW224360   1.415   1.092   5.590
 7821SOL     OW24361   5.709   6.164   0.992
 7821SOL    HW124362   5.802   6.161   1.029
 7821SOL    HW224363   5.684   6.259   0.975
 7822SOL     OW24364   1.259   1.293   0.216
 7822SOL    HW124365   1.168   1.291   0.256
 7822SOL    HW224366   1.253   1.287   0.116
 7823SOL     OW24367   2.376   3.811   6.066
 7823SOL    HW124368   2.442   3.736   6.076
 7823SOL    HW224369   2.423   3.894   6.037
 7824SOL     OW24370   5.988   0.768   4.517
 7824SOL    HW124371   6.048   0.742   4.592
 7824SOL    HW224372   5.913   0.702   4.509
 7825SOL     OW24373   1.013   3.479   0.815
 7825SOL    HW124374   1.100   3.468   0.768
 7825SOL    HW224375   0.938   3.466   0.749
 7826SOL     OW24376   5.733   1.914   6.634
 7826SOL    HW124377   5.686   1.837   6.592
 7826SOL    HW224378   5.667   1.987   6.653
 7827SOL     OW24379   2.634   4.451   0.580
 7827SOL    HW124380   2.642   4.397   0.664
 7827SOL    HW224381   2.639   4.390   0.501
 7828SOL     OW24382   0.630   5.251   1.188
 7828SOL    HW124383   0.699   5.323   1.197
 7828SOL    HW224384   0.630   5.194   1.271
 7829SOL     OW24385   1.925   2.907   0.565
 7829SOL    HW124386   1.874   2.921   0.650
 7829SOL    HW224387   1.936   2.994   0.518
 7830SOL     OW24388   4.246   3.716   6.400
 7830SOL    HW124389   4.319   3.649   6.410
 7830SOL    HW224390   4.186   3.690   6.325
 7831SOL     OW24391   1.295   5.560   0.831
 7831SOL    HW124392   1.202   5.576   0.865
 7831SOL    HW224393   1.299   5.472   0.784
 7832SOL     OW24394   3.331   1.341   4.141
 7832SOL    HW124395   3.423   1.305   4.123
 7832SOL    HW224396   3.264   1.267   4.133
 7833SOL     OW24397   0.401   0.502   6.785
 7833SOL    HW124398   0.334   0.558   6.735
 7833SOL    HW224399   0.452   0.560   6.849
 7834SOL     OW24400   0.430   1.515   3.592
 7834SOL    HW124401   0.423   1.440   3.526
 7834SOL    HW224402   0.525   1.525   3.622
 7835SOL     OW24403   2.342   2.646   4.835
 7835SOL    HW124404   2.288   2.600   4.905
 7835SOL    HW224405   2.294   2.730   4.807
 7836SOL     OW24406   3.683   2.697   5.654
 7836SOL    HW124407   3.782   2.695   5.666
 7836SOL    HW224408   3.661   2.672   5.560
 7837SOL     OW24409   6.595   6.160   1.831
 7837SOL    HW124410   6.537   6.241   1.822
 7837SOL    HW224411   6.651   6.150   1.749
 7838SOL     OW24412   4.338   6.225   0.376
 7838SOL    HW124413   4.394   6.281   0.314
 7838SOL    HW224414   4.242   6.240   0.355
 7839SOL     OW24415   6.103   4.847   5.337
 7839SOL    HW124416   6.189   4.797   5.321
 7839SOL    HW224417   6.104   4.932   5.284
 7840SOL     OW24418   4.910   3.035   4.555
 7840SOL    HW124419   4.898   3.059   4.651
 7840SOL    HW224420   4.917   3.118   4.500
 7841SOL     OW24421   5.592   1.597   6.694
 7841SOL    HW124422   5.549   1.518   6.652
 7841SOL    HW224423   5.674   1.568   6.744
 7842SOL     OW24424   2.201   1.522   3.053
 7842SOL    HW124425   2.217   1.534   3.151
 7842SOL    HW224426   2.103   1.526   3.034
 7843SOL     OW24427   5.130   4.559   2.244
 7843SOL    HW124428   5.185   4.618   2.303
 7843SOL    HW224429   5.175   4.551   2.155
 7844SOL     OW24430   4.360   0.712   4.112
 7844SOL    HW124431   4.380   0.805   4.080
 7844SOL    HW224432   4.440   0.654   4.098
 7845SOL     OW24433   6.072   1.414   3.810
 7845SOL    HW124434   6.078   1.321   3.773
 7845SOL    HW224435   6.086   1.411   3.909
 7846SOL     OW24436   1.975   0.525   1.559
 7846SOL    HW124437   1.902   0.592   1.575
 7846SOL    HW224438   2.038   0.561   1.490
 7847SOL     OW24439   6.392   1.987   1.932
 7847SOL    HW124440   6.307   1.950   1.893
 7847SOL    HW224441   6.454   1.912   1.954
 7848SOL     OW24442   2.960   3.474   1.264
 7848SOL    HW124443   2.995   3.431   1.347
 7848SOL    HW224444   3.025   3.461   1.189
 7849SOL     OW24445   5.580   3.779   3.624
 7849SOL    HW124446   5.620   3.750   3.537
 7849SOL    HW224447   5.609   3.872   3.644
 7850SOL     OW24448   0.243   1.830   3.990
 7850SOL    HW124449   0.239   1.731   3.975
 7850SOL    HW224450   0.326   1.853   4.040
 7851SOL     OW24451   0.020   6.873   0.568
 7851SOL    HW124452   0.040   6.865   0.666
 7851SOL    HW224453   0.015   6.970   0.543
 7852SOL     OW24454   2.817   0.389   5.456
 7852SOL    HW124455   2.905   0.345   5.444
 7852SOL    HW224456   2.798   0.449   5.378
 7853SOL     OW24457   4.176   1.733   1.735
 7853SOL    HW124458   4.142   1.754   1.826
 7853SOL    HW224459   4.161   1.635   1.716
 7854SOL     OW24460   3.318   3.408   0.797
 7854SOL    HW124461   3.262   3.344   0.744
 7854SOL    HW224462   3.378   3.358   0.858
 7855SOL     OW24463   2.841   5.944   5.669
 7855SOL    HW124464   2.915   5.919   5.732
 7855SOL    HW224465   2.865   5.913   5.577
 7856SOL     OW24466   5.649   5.091   4.099
 7856SOL    HW124467   5.618   5.011   4.047
 7856SOL    HW224468   5.570   5.144   4.129
 7857SOL     OW24469   5.891   2.502   5.261
 7857SOL    HW124470   5.938   2.505   5.173
 7857SOL    HW224471   5.913   2.584   5.314
 7858SOL     OW24472   4.453   5.593   3.787
 7858SOL    HW124473   4.552   5.597   3.799
 7858SOL    HW224474   4.409   5.665   3.841
 7859SOL     OW24475   6.280   4.133   5.749
 7859SOL    HW124476   6.295   4.103   5.844
 7859SOL    HW224477   6.253   4.055   5.694
 7860SOL     OW24478   4.266   0.513   2.946
 7860SOL    HW124479   4.243   0.610   2.948
 7860SOL    HW224480   4.276   0.479   3.039
 7861SOL     OW24481   3.834   5.322   1.760
 7861SOL    HW124482   3.802   5.407   1.801
 7861SOL    HW224483   3.812   5.322   1.662
 7862SOL     OW24484   3.012   4.715   1.732
 7862SOL    HW124485   2.947   4.665   1.789
 7862SOL    HW224486   3.092   4.658   1.716
 7863SOL     OW24487   6.541   6.223   3.955
 7863SOL    HW124488   6.445   6.233   3.980
 7863SOL    HW224489   6.556   6.132   3.916
 7864SOL     OW24490   0.251   6.522   5.363
 7864SOL    HW124491   0.268   6.438   5.416
 7864SOL    HW224492   0.331   6.541   5.305
 7865SOL     OW24493   4.462   6.681   4.385
 7865SOL    HW124494   4.437   6.604   4.445
 7865SOL    HW224495   4.492   6.646   4.296
 7866SOL     OW24496   2.564   1.800   6.688
 7866SOL    HW124497   2.489   1.780   6.750
 7866SOL    HW224498   2.546   1.756   6.600
 7867SOL     OW24499   4.886   6.505   2.694
 7867SOL    HW124500   4.874   6.412   2.660
 7867SOL    HW224501   4.803   6.534   2.743
 7868SOL     OW24502   5.457   6.787   2.142
 7868SOL    HW124503   5.368   6.747   2.122
 7868SOL    HW224504   5.452   6.886   2.133
 7869SOL     OW24505   5.795   3.395   0.291
 7869SOL    HW124506   5.842   3.447   0.220
 7869SOL    HW224507   5.818   3.298   0.284
 7870SOL     OW24508   4.982   5.345   4.589
 7870SOL    HW124509   4.968   5.442   4.572
 7870SOL    HW224510   4.929   5.291   4.523
 7871SOL     OW24511   5.580   3.861   2.760
 7871SOL    HW124512   5.657   3.919   2.788
 7871SOL    HW224513   5.509   3.864   2.829
 7872SOL     OW24514   2.169   4.447   2.574
 7872SOL    HW124515   2.081   4.478   2.537
 7872SOL    HW224516   2.177   4.476   2.670
 7873SOL     OW24517   5.349   0.727   5.483
 7873SOL    HW124518   5.388   0.777   5.561
 7873SOL    HW224519   5.317   0.792   5.414
 7874SOL     OW24520   4.823   1.435   0.411
 7874SOL    HW124521   4.763   1.358   0.435
 7874SOL    HW224522   4.821   1.502   0.486
 7875SOL     OW24523   4.634   2.454   6.722
 7875SOL    HW124524   4.614   2.379   6.785
 7875SOL    HW224525   4.548   2.499   6.697
 7876SOL     OW24526   6.702   0.358   4.999
 7876SOL    HW124527   6.770   0.336   4.928
 7876SOL    HW224528   6.679   0.455   4.993
 7877SOL     OW24529   6.995   2.883   2.562
 7877SOL    HW124530   6.994   2.789   2.596
 7877SOL    HW224531   0.018   2.885   2.472
 7878SOL     OW24532   4.426   4.941   4.148
 7878SOL    HW124533   4.369   4.949   4.230
 7878SOL    HW224534   4.369   4.951   4.067
 7879SOL     OW24535   5.018   5.666   3.719
 7879SOL    HW124536   4.960   5.735   3.762
 7879SOL    HW224537   5.027   5.587   3.779
 7880SOL     OW24538   1.037   5.271   0.791
 7880SOL    HW124539   1.006   5.366   0.797
 7880SOL    HW224540   1.026   5.238   0.697
 7881SOL     OW24541   5.514   3.666   4.697
 7881SOL    HW124542   5.602   3.714   4.694
 7881SOL    HW224543   5.471   3.670   4.606
 7882SOL     OW24544   1.504   2.896   3.177
 7882SOL    HW124545   1.586   2.906   3.119
 7882SOL    HW224546   1.423   2.891   3.119
 7883SOL     OW24547   1.618   6.905   1.280
 7883SOL    HW124548   1.663   6.994   1.279
 7883SOL    HW224549   1.568   6.894   1.366
 7884SOL     OW24550   1.805   3.803   3.720
 7884SOL    HW124551   1.852   3.799   3.808
 7884SOL    HW224552   1.871   3.814   3.646
 7885SOL     OW24553   6.281   6.517   2.003
 7885SOL    HW124554   6.371   6.474   2.006
 7885SOL    HW224555   6.210   6.446   2.001
 7886SOL     OW24556   4.355   4.522   1.078
 7886SOL    HW124557   4.266   4.555   1.049
 7886SOL    HW224558   4.374   4.433   1.036
 7887SOL     OW24559   3.365   2.571   5.465
 7887SOL    HW124560   3.437   2.615   5.411
 7887SOL    HW224561   3.359   2.474   5.438
 7888SOL     OW24562   0.285   0.685   5.134
 7888SOL    HW124563   0.288   0.742   5.216
 7888SOL    HW224564   0.377   0.678   5.095
 7889SOL     OW24565   0.740   4.884   6.957
 7889SOL    HW124566   0.670   4.817   6.979
 7889SOL    HW224567   0.831   4.845   6.973
 7890SOL     OW24568   0.587   3.528   4.124
 7890SOL    HW124569   0.523   3.494   4.193
 7890SOL    HW224570   0.626   3.450   4.075
 7891SOL     OW24571   1.668   3.996   4.759
 7891SOL    HW124572   1.688   4.077   4.705
 7891SOL    HW224573   1.724   3.996   4.842
 7892SOL     OW24574   1.612   2.399   4.070
 7892SOL    HW124575   1.676   2.393   3.994
 7892SOL    HW224576   1.519   2.385   4.036
 7893SOL     OW24577   5.961   0.217   2.171
 7893SOL    HW124578   6.037   0.153   2.180
 7893SOL    HW224579   5.916   0.204   2.082
 7894SOL     OW24580   3.063   0.896   1.540
 7894SOL    HW124581   3.161   0.910   1.530
 7894SOL    HW224582   3.046   0.838   1.620
 7895SOL     OW24583   4.838   0.115   5.167
 7895SOL    HW124584   4.904   0.160   5.107
 7895SOL    HW224585   4.886   0.058   5.233
 7896SOL     OW24586   5.373   2.949   1.119
 7896SOL    HW124587   5.371   2.982   1.025
 7896SOL    HW224588   5.285   2.906   1.140
 7897SOL     OW24589   3.670   2.636   1.157
 7897SOL    HW124590   3.607   2.714   1.163
 7897SOL    HW224591   3.635   2.570   1.091
 7898SOL     OW24592   3.669   0.274   3.746
 7898SOL    HW124593   3.721   0.353   3.778
 7898SOL    HW224594   3.677   0.200   3.812
 7899SOL     OW24595   5.898   6.767   1.745
 7899SOL    HW124596   5.887   6.783   1.843
 7899SOL    HW224597   5.826   6.705   1.713
 7900SOL     OW24598   0.851   5.455   1.631
 7900SOL    HW124599   0.943   5.479   1.661
 7900SOL    HW224600   0.854   5.373   1.575
 7901SOL     OW24601   5.177   1.029   6.590
 7901SOL    HW124602   5.179   0.938   6.548
 7901SOL    HW224603   5.117   1.028   6.670
 7902SOL     OW24604   5.943   5.949   2.813
 7902SOL    HW124605   5.845   5.932   2.800
 7902SOL    HW224606   5.987   5.865   2.846
 7903SOL     OW24607   4.734   1.899   2.454
 7903SOL    HW124608   4.808   1.913   2.519
 7903SOL    HW224609   4.652   1.867   2.502
 7904SOL     OW24610   5.446   0.047   2.951
 7904SOL    HW124611   5.523   0.073   2.893
 7904SOL    HW224612   5.430   6.969   2.943
 7905SOL     OW24613   5.532   2.434   0.308
 7905SOL    HW124614   5.504   2.522   0.345
 7905SOL    HW224615   5.453   2.374   0.299
 7906SOL     OW24616   0.564   5.746   0.653
 7906SOL    HW124617   0.503   5.825   0.647
 7906SOL    HW224618   0.592   5.719   0.561
 7907SOL     OW24619   6.409   1.749   3.552
 7907SOL    HW124620   6.326   1.697   3.531
 7907SOL    HW224621   6.447   1.787   3.468
 7908SOL     OW24622   0.640   1.407   6.048
 7908SOL    HW124623   0.726   1.454   6.067
 7908SOL    HW224624   0.570   1.474   6.025
 7909SOL     OW24625   4.757   4.176   3.900
 7909SOL    HW124626   4.683   4.237   3.929
 7909SOL    HW224627   4.745   4.152   3.804
 7910SOL     OW24628   1.892   3.449   0.300
 7910SOL    HW124629   1.928   3.388   0.371
 7910SOL    HW224630   1.951   3.530   0.294
 7911SOL     OW24631   1.133   4.885   0.814
 7911SOL    HW124632   1.058   4.913   0.875
 7911SOL    HW224633   1.099   4.816   0.750
 7912SOL     OW24634   6.036   4.543   1.049
 7912SOL    HW124635   5.940   4.519   1.064
 7912SOL    HW224636   6.042   4.639   1.021
 7913SOL     OW24637   1.682   3.931   2.047
 7913SOL    HW124638   1.631   3.847   2.025
 7913SOL    HW224639   1.745   3.951   1.972
 7914SOL     OW24640   6.972   4.687   1.040
 7914SOL    HW124641   6.989   4.773   0.992
 7914SOL    HW224642   6.887   4.646   1.007
 7915SOL     OW24643   5.112   2.168   2.414
 7915SOL    HW124644   5.195   2.212   2.448
 7915SOL    HW224645   5.034   2.230   2.426
 7916SOL     OW24646   0.078   6.387   5.669
 7916SOL    HW124647   0.106   6.430   5.755
 7916SOL    HW224648   0.159   6.372   5.613
 7917SOL     OW24649   3.945   3.166   5.755
 7917SOL    HW124650   3.884   3.245   5.753
 7917SOL    HW224651   4.037   3.196   5.783
 7918SOL     OW24652   6.549   1.206   4.287
 7918SOL    HW124653   6.470   1.167   4.334
 7918SOL    HW224654   6.612   1.132   4.260
 7919SOL     OW24655   1.453   4.699   3.071
 7919SOL    HW124656   1.533   4.651   3.107
 7919SOL    HW224657   1.428   4.773   3.133
 7920SOL     OW24658   6.377   6.827   0.981
 7920SOL    HW124659   6.403   6.919   1.010
 7920SOL    HW224660   6.459   6.777   0.954
 7921SOL     OW24661   5.640   5.665   2.319
 7921SOL    HW124662   5.571   5.682   2.249
 7921SOL    HW224663   5.731   5.680   2.282
 7922SOL     OW24664   0.598   6.371   0.064
 7922SOL    HW124665   0.619   6.307   7.010
 7922SOL    HW224666   0.507   6.410   0.050
 7923SOL     OW24667   3.871   0.965   6.511
 7923SOL    HW124668   3.787   0.923   6.546
 7923SOL    HW224669   3.915   0.903   6.446
 7924SOL     OW24670   4.744   0.257   1.322
 7924SOL    HW124671   4.740   0.298   1.413
 7924SOL    HW224672   4.705   0.165   1.325
 7925SOL     OW24673   0.791   0.098   0.238
 7925SOL    HW124674   0.775   0.190   0.203
 7925SOL    HW224675   0.769   0.031   0.167
 7926SOL     OW24676   5.166   1.974   5.885
 7926SOL    HW124677   5.146   1.983   5.787
 7926SOL    HW224678   5.164   1.877   5.911
 7927SOL     OW24679   4.610   6.776   2.546
 7927SOL    HW124680   4.608   6.875   2.556
 7927SOL    HW224681   4.662   6.752   2.464
 7928SOL     OW24682   1.353   2.050   3.894
 7928SOL    HW124683   1.449   2.053   3.865
 7928SOL    HW224684   1.317   1.958   3.879
 7929SOL     OW24685   3.843   3.450   5.911
 7929SOL    HW124686   3.895   3.530   5.941
 7929SOL    HW224687   3.821   3.458   5.814
 7930SOL     OW24688   4.599   4.917   6.050
 7930SOL    HW124689   4.685   4.924   5.999
 7930SOL    HW224690   4.571   4.822   6.056
 7931SOL     OW24691   3.324   3.452   0.507
 7931SOL    HW124692   3.358   3.447   0.601
 7931SOL    HW224693   3.242   3.510   0.504
 7932SOL     OW24694   1.463   5.919   6.485
 7932SOL    HW124695   1.523   5.841   6.498
 7932SOL    HW224696   1.394   5.897   6.416
 7933SOL     OW24697   6.585   0.717   6.437
 7933SOL    HW124698   6.560   0.799   6.489
 7933SOL    HW224699   6.681   0.724   6.408
 7934SOL     OW24700   1.536   5.409   6.634
 7934SOL    HW124701   1.533   5.355   6.718
 7934SOL    HW224702   1.535   5.348   6.555
 7935SOL     OW24703   6.106   6.569   1.246
 7935SOL    HW124704   6.028   6.547   1.305
 7935SOL    HW224705   6.085   6.545   1.152
 7936SOL     OW24706   3.197   6.196   2.559
 7936SOL    HW124707   3.202   6.215   2.657
 7936SOL    HW224708   3.229   6.276   2.508
 7937SOL     OW24709   6.982   5.646   4.061
 7937SOL    HW124710   6.961   5.628   4.157
 7937SOL    HW224711   0.056   5.618   4.042
 7938SOL     OW24712   6.455   6.398   4.523
 7938SOL    HW124713   6.501   6.483   4.551
 7938SOL    HW224714   6.386   6.374   4.592
 7939SOL     OW24715   1.695   2.072   5.654
 7939SOL    HW124716   1.628   2.080   5.580
 7939SOL    HW224717   1.786   2.093   5.620
 7940SOL     OW24718   2.488   2.498   2.311
 7940SOL    HW124719   2.496   2.469   2.215
 7940SOL    HW224720   2.535   2.432   2.369
 7941SOL     OW24721   5.596   6.107   2.189
 7941SOL    HW124722   5.506   6.114   2.232
 7941SOL    HW224723   5.666   6.110   2.260
 7942SOL     OW24724   0.381   4.245   2.876
 7942SOL    HW124725   0.301   4.218   2.823
 7942SOL    HW224726   0.454   4.177   2.864
 7943SOL     OW24727   0.750   4.500   6.093
 7943SOL    HW124728   0.684   4.565   6.056
 7943SOL    HW224729   0.840   4.543   6.099
 7944SOL     OW24730   0.777   2.521   0.609
 7944SOL    HW124731   0.832   2.562   0.681
 7944SOL    HW224732   0.833   2.455   0.558
 7945SOL     OW24733   6.420   5.715   1.632
 7945SOL    HW124734   6.479   5.782   1.676
 7945SOL    HW224735   6.368   5.760   1.559
 7946SOL     OW24736   3.437   0.385   5.235
 7946SOL    HW124737   3.428   0.484   5.243
 7946SOL    HW224738   3.396   0.340   5.314
 7947SOL     OW24739   2.916   1.532   5.561
 7947SOL    HW124740   2.951   1.487   5.479
 7947SOL    HW224741   2.855   1.607   5.535
 7948SOL     OW24742   1.032   6.059   0.954
 7948SOL    HW124743   0.951   6.015   0.992
 7948SOL    HW224744   1.038   6.153   0.986
 7949SOL     OW24745   4.772   3.961   5.903
 7949SOL    HW124746   4.797   3.897   5.976
 7949SOL    HW224747   4.734   3.909   5.826
 7950SOL     OW24748   4.943   5.624   4.525
 7950SOL    HW124749   4.911   5.718   4.538
 7950SOL    HW224750   5.039   5.617   4.553
 7951SOL     OW24751   2.059   4.635   2.325
 7951SOL    HW124752   1.963   4.648   2.346
 7951SOL    HW224753   2.115   4.678   2.396
 7952SOL     OW24754   0.241   3.144   6.795
 7952SOL    HW124755   0.304   3.095   6.734
 7952SOL    HW224756   0.270   3.133   6.890
 7953SOL     OW24757   3.983   2.081   2.626
 7953SOL    HW124758   4.007   2.086   2.529
 7953SOL    HW224759   3.891   2.117   2.639
 7954SOL     OW24760   2.876   4.335   5.970
 7954SOL    HW124761   2.833   4.269   6.031
 7954SOL    HW224762   2.966   4.302   5.943
 7955SOL     OW24763   2.225   1.071   6.499
 7955SOL    HW124764   2.314   1.094   6.539
 7955SOL    HW224765   2.181   1.155   6.466
 7956SOL     OW24766   5.014   0.331   1.852
 7956SOL    HW124767   5.021   0.368   1.760
 7956SOL    HW224768   4.959   0.392   1.909
 7957SOL     OW24769   1.501   0.569   0.533
 7957SOL    HW124770   1.502   0.603   0.439
 7957SOL    HW224771   1.467   0.474   0.534
 7958SOL     OW24772   4.355   4.995   6.478
 7958SOL    HW124773   4.363   5.084   6.432
 7958SOL    HW224774   4.259   4.973   6.493
 7959SOL     OW24775   5.220   6.613   1.417
 7959SOL    HW124776   5.138   6.660   1.383
 7959SOL    HW224777   5.294   6.623   1.351
 7960SOL     OW24778   1.959   0.663   5.866
 7960SOL    HW124779   2.005   0.651   5.778
 7960SOL    HW224780   1.949   0.761   5.884
 7961SOL     OW24781   6.928   0.872   0.814
 7961SOL    HW124782   0.000   0.858   0.778
 7961SOL    HW224783   6.862   0.863   0.739
 7962SOL     OW24784   1.297   1.249   5.441
 7962SOL    HW124785   1.220   1.274   5.500
 7962SOL    HW224786   1.287   1.154   5.411
 7963SOL     OW24787   5.616   6.162   4.644
 7963SOL    HW124788   5.696   6.146   4.701
 7963SOL    HW224789   5.535   6.124   4.688
 7964SOL     OW24790   0.145   4.075   2.903
 7964SOL    HW124791   0.131   4.042   2.996
 7964SOL    HW224792   0.080   4.148   2.883
 7965SOL     OW24793   4.271   2.225   6.069
 7965SOL    HW124794   4.351   2.240   6.127
 7965SOL    HW224795   4.257   2.304   6.010
 7966SOL     OW24796   2.911   2.833   5.611
 7966SOL    HW124797   2.833   2.803   5.665
 7966SOL    HW224798   2.994   2.787   5.644
 7967SOL     OW24799   3.417   6.166   2.024
 7967SOL    HW124800   3.375   6.225   2.093
 7967SOL    HW224801   3.498   6.122   2.062
 7968SOL     OW24802   6.884   2.260   4.062
 7968SOL    HW124803   6.816   2.257   4.135
 7968SOL    HW224804   6.974   2.280   4.100
 7969SOL     OW24805   5.529   5.680   0.902
 7969SOL    HW124806   5.621   5.695   0.866
 7969SOL    HW224807   5.465   5.668   0.826
 7970SOL     OW24808   6.530   2.761   2.007
 7970SOL    HW124809   6.470   2.800   1.938
 7970SOL    HW224810   6.564   2.835   2.067
 7971SOL     OW24811   3.545   1.700   1.220
 7971SOL    HW124812   3.495   1.711   1.306
 7971SOL    HW224813   3.567   1.603   1.207
 7972SOL     OW24814   2.444   3.039   0.586
 7972SOL    HW124815   2.508   3.048   0.662
 7972SOL    HW224816   2.435   2.942   0.561
 7973SOL     OW24817   4.282   4.703   4.468
 7973SOL    HW124818   4.313   4.784   4.519
 7973SOL    HW224819   4.184   4.709   4.454
 7974SOL     OW24820   5.961   1.106   5.261
 7974SOL    HW124821   5.938   1.008   5.256
 7974SOL    HW224822   5.989   1.129   5.354
 7975SOL     OW24823   6.505   0.833   1.535
 7975SOL    HW124824   6.424   0.865   1.584
 7975SOL    HW224825   6.587   0.850   1.591
 7976SOL     OW24826   1.297   0.456   5.688
 7976SOL    HW124827   1.232   0.520   5.728
 7976SOL    HW224828   1.248   0.389   5.633
 7977SOL     OW24829   4.424   5.651   3.024
 7977SOL    HW124830   4.451   5.584   3.093
 7977SOL    HW224831   4.364   5.719   3.065
 7978SOL     OW24832   6.410   1.996   6.066
 7978SOL    HW124833   6.367   2.000   6.156
 7978SOL    HW224834   6.506   2.023   6.074
 7979SOL     OW24835   3.675   5.086   5.526
 7979SOL    HW124836   3.617   5.109   5.604
 7979SOL    HW224837   3.658   5.150   5.452
 7980SOL     OW24838   3.236   5.406   6.515
 7980SOL    HW124839   3.278   5.326   6.472
 7980SOL    HW224840   3.136   5.398   6.508
 7981SOL     OW24841   0.858   5.211   1.468
 7981SOL    HW124842   0.928   5.150   1.432
 7981SOL    HW224843   0.768   5.169   1.459
 7982SOL     OW24844   1.313   0.872   0.145
 7982SOL    HW124845   1.397   0.830   0.180
 7982SOL    HW224846   1.335   0.924   0.062
 7983SOL     OW24847   5.817   2.483   0.284
 7983SOL    HW124848   5.825   2.583   0.291
 7983SOL    HW224849   5.725   2.455   0.312
 7984SOL     OW24850   1.277   1.131   0.741
 7984SOL    HW124851   1.265   1.108   0.838
 7984SOL    HW224852   1.346   1.072   0.701
 7985SOL     OW24853   2.897   1.438   4.664
 7985SOL    HW124854   2.891   1.506   4.591
 7985SOL    HW224855   2.817   1.447   4.724
 7986SOL     OW24856   2.451   1.007   6.216
 7986SOL    HW124857   2.533   0.987   6.164
 7986SOL    HW224858   2.459   0.966   6.307
 7987SOL     OW24859   2.011   2.708   0.092
 7987SOL    HW124860   1.962   2.726   0.177
 7987SOL    HW224861   2.076   2.633   0.107
 7988SOL     OW24862   0.991   1.866   2.999
 7988SOL    HW124863   0.909   1.828   3.042
 7988SOL    HW224864   0.985   1.857   2.900
 7989SOL     OW24865   2.601   3.230   0.205
 7989SOL    HW124866   2.570   3.324   0.221
 7989SOL    HW224867   2.653   3.225   0.121
 7990SOL     OW24868   1.630   5.100   4.897
 7990SOL    HW124869   1.711   5.041   4.888
 7990SOL    HW224870   1.550   5.051   4.865
 7991SOL     OW24871   6.425   0.855   3.385
 7991SOL    HW124872   6.331   0.886   3.373
 7991SOL    HW224873   6.483   0.933   3.411
 7992SOL     OW24874   1.232   0.283   0.340
 7992SOL    HW124875   1.270   0.244   0.256
 7992SOL    HW224876   1.197   0.375   0.321
 7993SOL     OW24877   0.011   6.982   0.838
 7993SOL    HW124878   7.013   6.923   0.916
 7993SOL    HW224879   0.090   0.020   0.857
 7994SOL     OW24880   3.759   0.076   3.502
 7994SOL    HW124881   3.755   0.140   3.579
 7994SOL    HW224882   3.697   0.108   3.430
 7995SOL     OW24883   6.111   5.347   3.416
 7995SOL    HW124884   6.080   5.431   3.372
 7995SOL    HW224885   6.179   5.302   3.359
 7996SOL     OW24886   3.242   6.513   4.317
 7996SOL    HW124887   3.288   6.598   4.292
 7996SOL    HW224888   3.286   6.474   4.398
 7997SOL     OW24889   0.191   1.348   0.924
 7997SOL    HW124890   0.187   1.420   0.994
 7997SOL    HW224891   0.201   1.259   0.969
 7998SOL     OW24892   2.592   0.466   0.478
 7998SOL    HW124893   2.543   0.447   0.563
 7998SOL    HW224894   2.609   0.381   0.429
 7999SOL     OW24895   1.008   1.027   6.063
 7999SOL    HW124896   1.072   1.094   6.026
 7999SOL    HW224897   0.937   1.008   5.995
 8000SOL     OW24898   5.065   0.183   6.633
 8000SOL    HW124899   5.122   0.261   6.606
 8000SOL    HW224900   5.123   0.111   6.672
 8001SOL     OW24901   4.238   6.616   1.663
 8001SOL    HW124902   4.140   6.628   1.646
 8001SOL    HW224903   4.287   6.697   1.634
 8002SOL     OW24904   1.897   0.770   6.595
 8002SOL    HW124905   1.818   0.832   6.596
 8002SOL    HW224906   1.928   0.757   6.501
 8003SOL     OW24907   2.793   5.514   1.996
 8003SOL    HW124908   2.854   5.443   2.033
 8003SOL    HW224909   2.703   5.506   2.038
 8004SOL     OW24910   2.189   2.817   3.176
 8004SOL    HW124911   2.275   2.829   3.127
 8004SOL    HW224912   2.193   2.733   3.229
 8005SOL     OW24913   3.094   1.257   3.540
 8005SOL    HW124914   3.096   1.254   3.640
 8005SOL    HW224915   3.179   1.220   3.504
 8006SOL     OW24916   2.172   6.381   5.553
 8006SOL    HW124917   2.253   6.421   5.510
 8006SOL    HW224918   2.110   6.453   5.582
 8007SOL     OW24919   5.961   1.456   5.924
 8007SOL    HW124920   6.016   1.534   5.952
 8007SOL    HW224921   6.022   1.380   5.900
 8008SOL     OW24922   4.172   6.021   6.608
 8008SOL    HW124923   4.090   6.050   6.559
 8008SOL    HW224924   4.225   6.102   6.635
 8009SOL     OW24925   5.717   0.722   1.328
 8009SOL    HW124926   5.769   0.646   1.367
 8009SOL    HW224927   5.642   0.745   1.390
 8010SOL     OW24928   2.242   0.996   5.396
 8010SOL    HW124929   2.251   0.897   5.387
 8010SOL    HW224930   2.195   1.033   5.315
 8011SOL     OW24931   2.947   2.650   1.011
 8011SOL    HW124932   2.908   2.573   1.061
 8011SOL    HW224933   2.880   2.686   0.947
 8012SOL     OW24934   2.237   3.350   0.016
 8012SOL    HW124935   2.270   3.394   6.953
 8012SOL    HW224936   2.152   3.301   7.017
 8013SOL     OW24937   1.405   5.408   2.988
 8013SOL    HW124938   1.439   5.501   2.980
 8013SOL    HW224939   1.307   5.407   2.970
 8014SOL     OW24940   1.241   6.513   4.347
 8014SOL    HW124941   1.316   6.448   4.355
 8014SOL    HW224942   1.268   6.601   4.387
 8015SOL     OW24943   2.691   0.130   6.263
 8015SOL    HW124944   2.664   0.226   6.261
 8015SOL    HW224945   2.620   0.077   6.311
 8016SOL     OW24946   4.023   0.328   5.808
 8016SOL    HW124947   4.107   0.275   5.823
 8016SOL    HW224948   3.991   0.313   5.714
 8017SOL     OW24949   5.585   0.026   0.541
 8017SOL    HW124950   5.579   6.959   0.491
 8017SOL    HW224951   5.636   0.012   0.626
 8018SOL     OW24952   3.038   1.920   6.982
 8018SOL    HW124953   2.973   1.908   0.037
 8018SOL    HW224954   3.122   1.868   7.003
 8019SOL     OW24955   2.629   4.840   1.014
 8019SOL    HW124956   2.623   4.800   1.105
 8019SOL    HW224957   2.616   4.769   0.945
 8020SOL     OW24958   6.365   0.032   6.956
 8020SOL    HW124959   6.299   0.042   6.881
 8020SOL    HW224960   6.317   0.003   0.019
 8021SOL     OW24961   1.207   2.747   0.824
 8021SOL    HW124962   1.242   2.833   0.862
 8021SOL    HW224963   1.262   2.722   0.744
 8022SOL     OW24964   5.731   0.796   2.331
 8022SOL    HW124965   5.692   0.788   2.239
 8022SOL    HW224966   5.805   0.730   2.341
 8023SOL     OW24967   6.486   4.832   3.120
 8023SOL    HW124968   6.454   4.915   3.073
 8023SOL    HW224969   6.433   4.819   3.204
 8024SOL     OW24970   1.200   4.816   5.475
 8024SOL    HW124971   1.125   4.836   5.538
 8024SOL    HW224972   1.287   4.819   5.525
 8025SOL     OW24973   2.209   5.683   0.814
 8025SOL    HW124974   2.177   5.592   0.843
 8025SOL    HW224975   2.242   5.678   0.720
 8026SOL     OW24976   6.993   4.183   0.331
 8026SOL    HW124977   7.012   4.087   0.352
 8026SOL    HW224978   7.000   4.238   0.414
 8027SOL     OW24979   4.037   0.213   5.284
 8027SOL    HW124980   4.001   0.168   5.203
 8027SOL    HW224981   4.136   0.201   5.287
 8028SOL     OW24982   4.153   5.736   5.681
 8028SOL    HW124983   4.071   5.717   5.628
 8028SOL    HW224984   4.231   5.748   5.619
 8029SOL     OW24985   5.646   3.241   1.215
 8029SOL    HW124986   5.723   3.269   1.272
 8029SOL    HW224987   5.650   3.291   1.128
 8030SOL     OW24988   4.975   5.111   0.289
 8030SOL    HW124989   4.928   5.023   0.300
 8030SOL    HW224990   4.921   5.183   0.333
 8031SOL     OW24991   6.239   6.885   2.370
 8031SOL    HW124992   6.259   6.802   2.317
 8031SOL    HW224993   6.312   6.900   2.437
 8032SOL     OW24994   6.417   4.557   1.713
 8032SOL    HW124995   6.488   4.599   1.770
 8032SOL    HW224996   6.436   4.459   1.703
 8033SOL     OW24997   4.375   2.176   6.673
 8033SOL    HW124998   4.291   2.134   6.707
 8033SOL    HW224999   4.427   2.214   6.750
 8034SOL     OW25000   4.494   0.578   4.990
 8034SOL    HW125001   4.480   0.480   5.002
 8034SOL    HW225002   4.474   0.603   4.896
 8035SOL     OW25003   5.403   1.372   2.679
 8035SOL    HW125004   5.479   1.435   2.699
 8035SOL    HW225005   5.412   1.338   2.586
 8036SOL     OW25006   6.550   4.137   3.991
 8036SOL    HW125007   6.564   4.127   3.893
 8036SOL    HW225008   6.517   4.051   4.029
 8037SOL     OW25009   2.004   3.212   6.954
 8037SOL    HW125010   1.929   3.247   7.010
 8037SOL    HW225011   2.017   3.115   6.974
 8038SOL     OW25012   4.629   0.623   2.358
 8038SOL    HW125013   4.589   0.676   2.283
 8038SOL    HW225014   4.602   0.664   2.445
 8039SOL     OW25015   0.460   1.354   5.326
 8039SOL    HW125016   0.515   1.379   5.246
 8039SOL    HW225017   0.392   1.287   5.300
 8040SOL     OW25018   1.550   5.625   0.480
 8040SOL    HW125019   1.628   5.580   0.437
 8040SOL    HW225020   1.465   5.584   0.446
 8041SOL     OW25021   3.139   0.743   3.213
 8041SOL    HW125022   3.085   0.825   3.195
 8041SOL    HW225023   3.216   0.739   3.150
 8042SOL     OW25024   3.872   2.927   4.914
 8042SOL    HW125025   3.890   3.000   4.848
 8042SOL    HW225026   3.921   2.845   4.885
 8043SOL     OW25027   3.603   6.209   1.009
 8043SOL    HW125028   3.640   6.301   0.995
 8043SOL    HW225029   3.571   6.172   0.921
 8044SOL     OW25030   4.751   2.824   0.807
 8044SOL    HW125031   4.653   2.836   0.794
 8044SOL    HW225032   4.788   2.900   0.860
 8045SOL     OW25033   6.782   1.980   2.453
 8045SOL    HW125034   6.851   1.933   2.507
 8045SOL    HW225035   6.826   2.052   2.398
 8046SOL     OW25036   1.056   4.347   1.633
 8046SOL    HW125037   1.014   4.282   1.569
 8046SOL    HW225038   0.987   4.381   1.697
 8047SOL     OW25039   4.189   5.710   6.165
 8047SOL    HW125040   4.142   5.797   6.154
 8047SOL    HW225041   4.196   5.664   6.076
 8048SOL     OW25042   4.075   1.612   0.129
 8048SOL    HW125043   4.102   1.659   0.044
 8048SOL    HW225044   3.976   1.619   0.141
 8049SOL     OW25045   0.706   0.235   6.560
 8049SOL    HW125046   0.722   0.173   6.637
 8049SOL    HW225047   0.667   0.321   6.594
 8050SOL     OW25048   1.966   3.740   3.432
 8050SOL    HW125049   1.886   3.689   3.403
 8050SOL    HW225050   1.991   3.807   3.362
 8051SOL     OW25051   4.431   6.256   4.076
 8051SOL    HW125052   4.409   6.308   4.159
 8051SOL    HW225053   4.519   6.211   4.087
 8052SOL     OW25054   3.222   1.696   1.068
 8052SOL    HW125055   3.276   1.616   1.045
 8052SOL    HW225056   3.164   1.722   0.991
 8053SOL     OW25057   3.624   2.909   4.770
 8053SOL    HW125058   3.540   2.862   4.797
 8053SOL    HW225059   3.699   2.882   4.831
 8054SOL     OW25060   6.669   4.599   5.060
 8054SOL    HW125061   6.611   4.675   5.089
 8054SOL    HW225062   6.690   4.609   4.962
 8055SOL     OW25063   0.404   0.516   5.407
 8055SOL    HW125064   0.419   0.614   5.391
 8055SOL    HW225065   0.448   0.464   5.333
 8056SOL     OW25066   2.901   0.703   4.548
 8056SOL    HW125067   2.897   0.781   4.486
 8056SOL    HW225068   2.971   0.718   4.617
 8057SOL     OW25069   2.423   1.906   3.196
 8057SOL    HW125070   2.420   1.862   3.107
 8057SOL    HW225071   2.508   1.958   3.204
 8058SOL     OW25072   3.503   6.850   3.367
 8058SOL    HW125073   3.578   6.879   3.307
 8058SOL    HW225074   3.527   6.869   3.462
 8059SOL     OW25075   2.579   1.977   4.505
 8059SOL    HW125076   2.527   2.059   4.483
 8059SOL    HW225077   2.517   1.898   4.510
 8060SOL     OW25078   6.633   2.117   6.224
 8060SOL    HW125079   6.586   2.206   6.217
 8060SOL    HW225080   6.727   2.128   6.193
 8061SOL     OW25081   0.003   0.057   2.998
 8061SOL    HW125082   6.943   0.048   2.938
 8061SOL    HW225083   6.993   0.083   3.090
 8062SOL     OW25084   3.432   5.060   4.427
 8062SOL    HW125085   3.348   5.114   4.417
 8062SOL    HW225086   3.424   5.001   4.507
 8063SOL     OW25087   2.298   1.800   2.641
 8063SOL    HW125088   2.395   1.824   2.643
 8063SOL    HW225089   2.265   1.789   2.735
 8064SOL     OW25090   6.780   2.656   0.671
 8064SOL    HW125091   6.747   2.599   0.746
 8064SOL    HW225092   6.701   2.693   0.621
 8065SOL     OW25093   2.422   5.621   3.899
 8065SOL    HW125094   2.388   5.528   3.900
 8065SOL    HW225095   2.349   5.683   3.870
 8066SOL     OW25096   0.580   1.223   5.620
 8066SOL    HW125097   0.629   1.282   5.685
 8066SOL    HW225098   0.482   1.240   5.628
 8067SOL     OW25099   5.246   2.882   3.040
 8067SOL    HW125100   5.248   2.966   3.094
 8067SOL    HW225101   5.244   2.905   2.943
 8068SOL     OW25102   6.944   4.754   1.542
 8068SOL    HW125103   6.984   4.670   1.504
 8068SOL    HW225104   7.015   4.807   1.589
 8069SOL     OW25105   2.394   5.287   0.937
 8069SOL    HW125106   2.415   5.204   0.989
 8069SOL    HW225107   2.479   5.338   0.920
 8070SOL     OW25108   4.259   3.224   0.711
 8070SOL    HW125109   4.350   3.190   0.688
 8070SOL    HW225110   4.202   3.223   0.629
 8071SOL     OW25111   3.499   6.250   5.052
 8071SOL    HW125112   3.455   6.337   5.030
 8071SOL    HW225113   3.508   6.195   4.969
 8072SOL     OW25114   3.724   1.115   0.439
 8072SOL    HW125115   3.768   1.178   0.374
 8072SOL    HW225116   3.793   1.079   0.501
 8073SOL     OW25117   2.805   5.386   4.815
 8073SOL    HW125118   2.857   5.380   4.730
 8073SOL    HW225119   2.865   5.363   4.892
 8074SOL     OW25120   2.873   3.058   0.792
 8074SOL    HW125121   2.943   2.996   0.755
 8074SOL    HW225122   2.863   3.137   0.731
 8075SOL     OW25123   6.528   6.758   0.214
 8075SOL    HW125124   6.534   6.828   0.142
 8075SOL    HW225125   6.580   6.678   0.187
 8076SOL     OW25126   5.956   0.835   5.270
 8076SOL    HW125127   6.004   0.768   5.327
 8076SOL    HW225128   5.870   0.795   5.238
 8077SOL     OW25129   3.528   6.330   2.484
 8077SOL    HW125130   3.492   6.382   2.561
 8077SOL    HW225131   3.614   6.287   2.509
 8078SOL     OW25132   6.816   1.913   0.523
 8078SOL    HW125133   6.847   1.819   0.536
 8078SOL    HW225134   6.784   1.924   0.429
 8079SOL     OW25135   6.477   1.454   3.618
 8079SOL    HW125136   6.430   1.537   3.648
 8079SOL    HW225137   6.566   1.478   3.580
 8080SOL     OW25138   0.800   2.900   2.353
 8080SOL    HW125139   0.831   2.891   2.258
 8080SOL    HW225140   0.700   2.906   2.355
 8081SOL     OW25141   6.187   5.673   5.991
 8081SOL    HW125142   6.282   5.692   6.015
 8081SOL    HW225143   6.138   5.758   5.978
 8082SOL     OW25144   4.010   0.823   2.014
 8082SOL    HW125145   4.091   0.858   2.061
 8082SOL    HW225146   4.037   0.752   1.948
 8083SOL     OW25147   5.043   3.220   3.080
 8083SOL    HW125148   5.012   3.169   2.999
 8083SOL    HW225149   4.987   3.193   3.159
 8084SOL     OW25150   3.871   6.341   0.104
 8084SOL    HW125151   3.840   6.259   0.152
 8084SOL    HW225152   3.806   6.364   0.031
 8085SOL     OW25153   5.913   6.501   2.019
 8085SOL    HW125154   5.823   6.511   1.976
 8085SOL    HW225155   5.962   6.588   2.015
 8086SOL     OW25156   6.657   0.425   2.233
 8086SOL    HW125157   6.642   0.482   2.315
 8086SOL    HW225158   6.688   0.483   2.158
 8087SOL     OW25159   1.998   0.336   0.087
 8087SOL    HW125160   1.999   0.264   0.018
 8087SOL    HW225161   2.018   0.297   0.177
 8088SOL     OW25162   6.318   1.194   1.534
 8088SOL    HW125163   6.303   1.128   1.608
 8088SOL    HW225164   6.373   1.151   1.462
 8089SOL     OW25165   5.931   2.628   0.714
 8089SOL    HW125166   5.925   2.629   0.614
 8089SOL    HW225167   5.848   2.668   0.753
 8090SOL     OW25168   3.914   1.469   6.917
 8090SOL    HW125169   3.866   1.407   6.855
 8090SOL    HW225170   3.854   1.546   6.940
 8091SOL     OW25171   1.832   3.938   4.983
 8091SOL    HW125172   1.816   3.839   4.982
 8091SOL    HW225173   1.927   3.956   5.007
 8092SOL     OW25174   6.075   1.856   5.322
 8092SOL    HW125175   6.006   1.916   5.282
 8092SOL    HW225176   6.030   1.786   5.378
 8093SOL     OW25177   3.598   4.933   2.869
 8093SOL    HW125178   3.666   4.912   2.798
 8093SOL    HW225179   3.635   4.911   2.959
 8094SOL     OW25180   0.457   3.810   4.846
 8094SOL    HW125181   0.540   3.825   4.791
 8094SOL    HW225182   0.385   3.871   4.813
 8095SOL     OW25183   0.162   4.643   4.387
 8095SOL    HW125184   0.208   4.568   4.434
 8095SOL    HW225185   0.063   4.634   4.397
 8096SOL     OW25186   1.962   6.559   2.952
 8096SOL    HW125187   1.978   6.552   2.854
 8096SOL    HW225188   1.940   6.653   2.976
 8097SOL     OW25189   3.881   6.726   4.459
 8097SOL    HW125190   3.948   6.713   4.385
 8097SOL    HW225191   3.924   6.776   4.534
 8098SOL     OW25192   1.889   6.473   3.201
 8098SOL    HW125193   1.848   6.541   3.262
 8098SOL    HW225194   1.899   6.511   3.110
 8099SOL     OW25195   4.088   5.820   4.916
 8099SOL    HW125196   4.013   5.882   4.895
 8099SOL    HW225197   4.174   5.872   4.916
 8100SOL     OW25198   0.398   0.212   6.667
 8100SOL    HW125199   0.404   0.186   6.571
 8100SOL    HW225200   0.311   0.259   6.683
 8101SOL     OW25201   1.795   6.090   2.291
 8101SOL    HW125202   1.857   6.168   2.291
 8101SOL    HW225203   1.743   6.088   2.376
 8102SOL     OW25204   0.747   3.854   3.598
 8102SOL    HW125205   0.720   3.816   3.686
 8102SOL    HW225206   0.715   3.949   3.592
 8103SOL     OW25207   3.163   0.078   1.530
 8103SOL    HW125208   3.182   0.085   1.432
 8103SOL    HW225209   3.170   0.169   1.572
 8104SOL     OW25210   1.979   0.271   5.829
 8104SOL    HW125211   1.913   0.334   5.789
 8104SOL    HW225212   1.935   0.183   5.848
 8105SOL     OW25213   0.494   3.025   3.088
 8105SOL    HW125214   0.520   3.026   2.992
 8105SOL    HW225215   0.550   2.957   3.136
 8106SOL     OW25216   3.211   6.251   2.822
 8106SOL    HW125217   3.218   6.156   2.853
 8106SOL    HW225218   3.228   6.312   2.898
 8107SOL     OW25219   1.273   5.126   4.279
 8107SOL    HW125220   1.224   5.107   4.364
 8107SOL    HW225221   1.269   5.046   4.219
 8108SOL     OW25222   6.327   2.695   5.854
 8108SOL    HW125223   6.319   2.725   5.950
 8108SOL    HW225224   6.256   2.739   5.799
 8109SOL     OW25225   0.385   4.151   5.424
 8109SOL    HW125226   0.302   4.127   5.473
 8109SOL    HW225227   0.414   4.074   5.367
 8110SOL     OW25228   3.881   6.187   2.133
 8110SOL    HW125229   3.923   6.239   2.058
 8110SOL    HW225230   3.952   6.156   2.196
 8111SOL     OW25231   5.098   1.324   4.237
 8111SOL    HW125232   5.039   1.326   4.318
 8111SOL    HW225233   5.168   1.395   4.245
 8112SOL     OW25234   2.530   2.329   4.516
 8112SOL    HW125235   2.511   2.269   4.594
 8112SOL    HW225236   2.530   2.424   4.546
 8113SOL     OW25237   1.914   3.873   0.199
 8113SOL    HW125238   2.009   3.845   0.213
 8113SOL    HW225239   1.889   3.859   0.103
 8114SOL     OW25240   1.498   4.356   3.112
 8114SOL    HW125241   1.572   4.323   3.052
 8114SOL    HW225242   1.410   4.335   3.070
 8115SOL     OW25243   3.676   0.331   6.829
 8115SOL    HW125244   3.705   0.413   6.879
 8115SOL    HW225245   3.585   0.303   6.862
 8116SOL     OW25246   4.361   4.583   6.895
 8116SOL    HW125247   4.434   4.527   6.855
 8116SOL    HW225248   4.286   4.593   6.830
 8117SOL     OW25249   2.176   6.885   3.470
 8117SOL    HW125250   2.108   6.907   3.401
 8117SOL    HW225251   2.267   6.914   3.438
 8118SOL     OW25252   5.053   4.592   0.118
 8118SOL    HW125253   5.039   4.577   0.020
 8118SOL    HW225254   4.966   4.580   0.166
 8119SOL     OW25255   5.258   5.559   6.753
 8119SOL    HW125256   5.222   5.482   6.806
 8119SOL    HW225257   5.251   5.539   6.656
 8120SOL     OW25258   2.956   4.843   0.951
 8120SOL    HW125259   2.863   4.880   0.957
 8120SOL    HW225260   2.972   4.784   1.030
 8121SOL     OW25261   0.017   5.140   2.386
 8121SOL    HW125262   7.005   5.190   2.306
 8121SOL    HW225263   0.038   5.045   2.360
 8122SOL     OW25264   0.305   5.231   3.520
 8122SOL    HW125265   0.321   5.142   3.477
 8122SOL    HW225266   0.393   5.275   3.539
 8123SOL     OW25267   6.927   1.898   6.910
 8123SOL    HW125268   6.914   1.925   6.815
 8123SOL    HW225269   6.861   1.944   6.968
 8124SOL     OW25270   5.614   6.138   1.597
 8124SOL    HW125271   5.567   6.078   1.661
 8124SOL    HW225272   5.558   6.149   1.515
 8125SOL     OW25273   1.191   1.551   3.018
 8125SOL    HW125274   1.168   1.630   2.961
 8125SOL    HW225275   1.247   1.487   2.966
 8126SOL     OW25276   4.685   4.282   2.622
 8126SOL    HW125277   4.774   4.320   2.599
 8126SOL    HW225278   4.687   4.248   2.716
 8127SOL     OW25279   2.571   4.403   6.673
 8127SOL    HW125280   2.523   4.476   6.624
 8127SOL    HW225281   2.629   4.352   6.609
 8128SOL     OW25282   2.992   2.096   2.191
 8128SOL    HW125283   2.953   2.164   2.128
 8128SOL    HW225284   3.090   2.085   2.172
 8129SOL     OW25285   4.056   0.610   6.506
 8129SOL    HW125286   4.136   0.563   6.468
 8129SOL    HW225287   4.013   0.665   6.435
 8130SOL     OW25288   0.388   3.722   6.649
 8130SOL    HW125289   0.474   3.672   6.649
 8130SOL    HW225290   0.319   3.671   6.700
 8131SOL     OW25291   2.654   1.894   1.344
 8131SOL    HW125292   2.573   1.954   1.343
 8131SOL    HW225293   2.724   1.932   1.284
 8132SOL     OW25294   6.016   0.062   6.250
 8132SOL    HW125295   6.106   0.073   6.292
 8132SOL    HW225296   5.962   0.145   6.264
 8133SOL     OW25297   3.444   6.051   1.398
 8133SOL    HW125298   3.407   6.014   1.483
 8133SOL    HW225299   3.470   6.147   1.412
 8134SOL     OW25300   6.867   2.644   5.865
 8134SOL    HW125301   6.827   2.602   5.783
 8134SOL    HW225302   6.943   2.703   5.837
 8135SOL     OW25303   3.004   6.546   1.474
 8135SOL    HW125304   2.951   6.491   1.410
 8135SOL    HW225305   2.951   6.560   1.558
 8136SOL     OW25306   4.462   5.435   3.292
 8136SOL    HW125307   4.405   5.446   3.374
 8136SOL    HW225308   4.557   5.451   3.316
 8137SOL     OW25309   3.670   1.997   5.038
 8137SOL    HW125310   3.580   2.032   5.065
 8137SOL    HW225311   3.742   2.048   5.085
 8138SOL     OW25312   4.886   0.920   0.814
 8138SOL    HW125313   4.912   1.000   0.759
 8138SOL    HW225314   4.959   0.899   0.879
 8139SOL     OW25315   0.185   1.127   2.234
 8139SOL    HW125316   0.094   1.116   2.274
 8139SOL    HW225317   0.243   1.177   2.298
 8140SOL     OW25318   5.472   0.450   0.218
 8140SOL    HW125319   5.484   0.361   0.263
 8140SOL    HW225320   5.377   0.460   0.188
 8141SOL     OW25321   4.152   6.303   4.773
 8141SOL    HW125322   4.247   6.296   4.744
 8141SOL    HW225323   4.120   6.397   4.763
 8142SOL     OW25324   0.682   5.165   0.278
 8142SOL    HW125325   0.621   5.088   0.260
 8142SOL    HW225326   0.777   5.137   0.264
 8143SOL     OW25327   5.746   4.677   1.422
 8143SOL    HW125328   5.821   4.727   1.379
 8143SOL    HW225329   5.722   4.598   1.365
 8144SOL     OW25330   6.221   5.953   6.497
 8144SOL    HW125331   6.219   5.935   6.595
 8144SOL    HW225332   6.316   5.965   6.467
 8145SOL     OW25333   5.870   5.847   1.863
 8145SOL    HW125334   5.950   5.788   1.850
 8145SOL    HW225335   5.860   5.908   1.785
 8146SOL     OW25336   4.349   0.704   4.486
 8146SOL    HW125337   4.409   0.624   4.493
 8146SOL    HW225338   4.273   0.683   4.424
 8147SOL     OW25339   6.170   1.829   1.868
 8147SOL    HW125340   6.125   1.827   1.958
 8147SOL    HW225341   6.193   1.736   1.841
 8148SOL     OW25342   5.112   4.491   1.092
 8148SOL    HW125343   5.201   4.474   1.135
 8148SOL    HW225344   5.040   4.448   1.147
 8149SOL     OW25345   2.818   5.997   2.178
 8149SOL    HW125346   2.848   5.960   2.090
 8149SOL    HW225347   2.828   5.927   2.249
 8150SOL     OW25348   1.534   4.063   0.790
 8150SOL    HW125349   1.535   3.967   0.760
 8150SOL    HW225350   1.625   4.088   0.824
 8151SOL     OW25351   6.023   2.271   1.315
 8151SOL    HW125352   6.036   2.358   1.267
 8151SOL    HW225353   5.964   2.211   1.260
 8152SOL     OW25354   6.992   1.612   2.754
 8152SOL    HW125355   0.002   1.619   2.850
 8152SOL    HW225356   0.052   1.618   2.694
 8153SOL     OW25357   1.970   0.106   3.962
 8153SOL    HW125358   1.992   0.170   3.888
 8153SOL    HW225359   1.899   0.043   3.932
 8154SOL     OW25360   3.192   4.827   2.442
 8154SOL    HW125361   3.154   4.858   2.529
 8154SOL    HW225362   3.169   4.730   2.428
 8155SOL     OW25363   1.830   3.627   1.970
 8155SOL    HW125364   1.816   3.652   1.874
 8155SOL    HW225365   1.912   3.571   1.978
 8156SOL     OW25366   5.037   6.997   0.539
 8156SOL    HW125367   5.000   0.062   0.503
 8156SOL    HW225368   5.030   6.925   0.470
 8157SOL     OW25369   0.055   5.468   6.461
 8157SOL    HW125370   0.108   5.386   6.487
 8157SOL    HW225371   0.105   5.550   6.488
 8158SOL     OW25372   5.125   5.160   0.637
 8158SOL    HW125373   5.200   5.196   0.693
 8158SOL    HW225374   5.048   5.136   0.697
 8159SOL     OW25375   3.105   5.945   2.264
 8159SOL    HW125376   3.103   5.846   2.258
 8159SOL    HW225377   3.180   5.973   2.324
 8160SOL     OW25378   5.268   1.001   3.334
 8160SOL    HW125379   5.272   0.917   3.281
 8160SOL    HW225380   5.237   0.980   3.427
 8161SOL     OW25381   5.153   2.068   6.262
 8161SOL    HW125382   5.185   2.088   6.170
 8161SOL    HW225383   5.224   2.090   6.328
 8162SOL     OW25384   6.100   6.378   5.795
 8162SOL    HW125385   6.138   6.360   5.885
 8162SOL    HW225386   6.126   6.305   5.732
 8163SOL     OW25387   2.678   4.146   5.323
 8163SOL    HW125388   2.699   4.104   5.411
 8163SOL    HW225389   2.614   4.089   5.272
 8164SOL     OW25390   5.777   3.515   0.534
 8164SOL    HW125391   5.796   3.486   0.440
 8164SOL    HW225392   5.695   3.468   0.567
 8165SOL     OW25393   0.936   4.743   6.657
 8165SOL    HW125394   1.006   4.722   6.589
 8165SOL    HW225395   0.956   4.832   6.699
 8166SOL     OW25396   1.461   0.250   1.969
 8166SOL    HW125397   1.390   0.250   2.040
 8166SOL    HW225398   1.506   0.160   1.967
 8167SOL     OW25399   6.242   0.027   5.099
 8167SOL    HW125400   6.233   0.116   5.055
 8167SOL    HW225401   6.300   0.036   5.180
 8168SOL     OW25402   2.712   1.433   3.801
 8168SOL    HW125403   2.652   1.494   3.852
 8168SOL    HW225404   2.660   1.353   3.770
 8169SOL     OW25405   4.679   2.446   1.920
 8169SOL    HW125406   4.662   2.530   1.971
 8169SOL    HW225407   4.652   2.458   1.825
 8170SOL     OW25408   1.615   5.642   2.291
 8170SOL    HW125409   1.690   5.639   2.224
 8170SOL    HW225410   1.542   5.700   2.256
 8171SOL     OW25411   1.550   1.345   0.182
 8171SOL    HW125412   1.456   1.370   0.204
 8171SOL    HW225413   1.569   1.253   0.216
 8172SOL     OW25414   1.175   1.566   1.797
 8172SOL    HW125415   1.266   1.567   1.757
 8172SOL    HW225416   1.121   1.641   1.759
 8173SOL     OW25417   4.260   0.748   1.887
 8173SOL    HW125418   4.293   0.657   1.912
 8173SOL    HW225419   4.304   0.816   1.946
 8174SOL     OW25420   6.046   2.231   0.741
 8174SOL    HW125421   6.016   2.269   0.829
 8174SOL    HW225422   6.142   2.253   0.726
 8175SOL     OW25423   0.042   3.339   6.148
 8175SOL    HW125424   7.002   3.260   6.156
 8175SOL    HW225425   0.107   3.339   6.224
 8176SOL     OW25426   2.979   5.448   2.387
 8176SOL    HW125427   2.999   5.394   2.305
 8176SOL    HW225428   2.883   5.476   2.386
 8177SOL     OW25429   2.527   6.175   3.535
 8177SOL    HW125430   2.611   6.158   3.586
 8177SOL    HW225431   2.530   6.266   3.494
 8178SOL     OW25432   3.252   6.188   6.536
 8178SOL    HW125433   3.179   6.180   6.469
 8178SOL    HW225434   3.257   6.104   6.591
 8179SOL     OW25435   4.183   2.492   5.926
 8179SOL    HW125436   4.094   2.489   5.972
 8179SOL    HW225437   4.226   2.580   5.942
 8180SOL     OW25438   6.277   0.076   4.780
 8180SOL    HW125439   6.187   0.040   4.758
 8180SOL    HW225440   6.337   0.001   4.809
 8181SOL     OW25441   2.056   1.603   1.850
 8181SOL    HW125442   2.153   1.626   1.854
 8181SOL    HW225443   2.025   1.600   1.755
 8182SOL     OW25444   3.329   2.532   6.411
 8182SOL    HW125445   3.419   2.493   6.394
 8182SOL    HW225446   3.302   2.589   6.334
 8183SOL     OW25447   0.143   2.817   4.075
 8183SOL    HW125448   0.219   2.753   4.065
 8183SOL    HW225449   0.117   2.822   4.172
 8184SOL     OW25450   5.548   2.327   5.934
 8184SOL    HW125451   5.637   2.373   5.936
 8184SOL    HW225452   5.524   2.296   6.026
 8185SOL     OW25453   2.848   6.128   0.222
 8185SOL    HW125454   2.828   6.118   0.124
 8185SOL    HW225455   2.763   6.151   0.271
 8186SOL     OW25456   3.452   5.106   6.652
 8186SOL    HW125457   3.432   5.014   6.618
 8186SOL    HW225458   3.370   5.162   6.648
 8187SOL     OW25459   1.671   1.746   5.440
 8187SOL    HW125460   1.677   1.652   5.406
 8187SOL    HW225461   1.686   1.747   5.539
 8188SOL     OW25462   5.303   2.392   2.285
 8188SOL    HW125463   5.349   2.320   2.232
 8188SOL    HW225464   5.219   2.419   2.237
 8189SOL     OW25465   4.864   4.993   2.624
 8189SOL    HW125466   4.795   4.928   2.595
 8189SOL    HW225467   4.877   5.062   2.553
 8190SOL     OW25468   4.587   5.376   4.587
 8190SOL    HW125469   4.518   5.393   4.657
 8190SOL    HW225470   4.616   5.463   4.547
 8191SOL     OW25471   3.324   5.665   3.069
 8191SOL    HW125472   3.378   5.683   3.151
 8191SOL    HW225473   3.245   5.608   3.092
 8192SOL     OW25474   3.769   5.353   0.495
 8192SOL    HW125475   3.814   5.442   0.502
 8192SOL    HW225476   3.758   5.328   0.398
 8193SOL     OW25477   6.744   6.890   4.304
 8193SOL    HW125478   6.841   6.915   4.307
 8193SOL    HW225479   6.688   6.973   4.310
 8194SOL     OW25480   6.281   2.580   0.518
 8194SOL    HW125481   6.354   2.514   0.533
 8194SOL    HW225482   6.210   2.539   0.460
 8195SOL     OW25483   0.599   0.131   0.750
 8195SOL    HW125484   0.636   0.218   0.782
 8195SOL    HW225485   0.600   0.130   0.650
 8196SOL     OW25486   3.625   0.196   5.589
 8196SOL    HW125487   3.528   0.214   5.573
 8196SOL    HW225488   3.665   0.150   5.509
 8197SOL     OW25489   4.054   1.006   5.869
 8197SOL    HW125490   3.989   0.940   5.906
 8197SOL    HW225491   4.006   1.078   5.819
 8198SOL     OW25492   3.005   6.073   3.009
 8198SOL    HW125493   2.995   6.027   2.921
 8198SOL    HW225494   3.074   6.025   3.063
 8199SOL     OW25495   6.925   3.117   6.225
 8199SOL    HW125496   6.990   3.077   6.290
 8199SOL    HW225497   6.860   3.047   6.197
 8200SOL     OW25498   4.402   3.489   1.556
 8200SOL    HW125499   4.455   3.411   1.523
 8200SOL    HW225500   4.320   3.500   1.500
 8201SOL     OW25501   5.602   0.944   4.350
 8201SOL    HW125502   5.666   0.924   4.424
 8201SOL    HW225503   5.599   1.043   4.334
 8202SOL     OW25504   0.339   5.687   4.198
 8202SOL    HW125505   0.281   5.741   4.259
 8202SOL    HW225506   0.282   5.628   4.141
 8203SOL     OW25507   4.823   2.427   0.442
 8203SOL    HW125508   4.842   2.412   0.345
 8203SOL    HW225509   4.882   2.369   0.497
 8204SOL     OW25510   3.162   5.574   0.777
 8204SOL    HW125511   3.118   5.603   0.862
 8204SOL    HW225512   3.132   5.482   0.753
 8205SOL     OW25513   6.717   4.800   1.202
 8205SOL    HW125514   6.768   4.713   1.206
 8205SOL    HW225515   6.752   4.856   1.126
 8206SOL     OW25516   3.863   2.900   6.073
 8206SOL    HW125517   3.794   2.829   6.091
 8206SOL    HW225518   3.850   2.935   5.980
 8207SOL     OW25519   3.791   4.361   5.334
 8207SOL    HW125520   3.697   4.341   5.305
 8207SOL    HW225521   3.811   4.313   5.419
 8208SOL     OW25522   2.485   6.188   1.603
 8208SOL    HW125523   2.490   6.092   1.574
 8208SOL    HW225524   2.423   6.196   1.681
 8209SOL     OW25525   0.639   1.980   5.348
 8209SOL    HW125526   0.610   1.951   5.439
 8209SOL    HW225527   0.690   2.066   5.355
 8210SOL     OW25528   2.746   0.915   1.807
 8210SOL    HW125529   2.724   0.828   1.763
 8210SOL    HW225530   2.710   0.990   1.752
 8211SOL     OW25531   3.408   3.920   3.501
 8211SOL    HW125532   3.380   3.999   3.555
 8211SOL    HW225533   3.484   3.945   3.441
 8212SOL     OW25534   3.660   1.318   1.568
 8212SOL    HW125535   3.597   1.281   1.500
 8212SOL    HW225536   3.621   1.402   1.607
 8213SOL     OW25537   5.262   4.717   2.735
 8213SOL    HW125538   5.299   4.807   2.714
 8213SOL    HW225539   5.173   4.706   2.690
 8214SOL     OW25540   1.810   5.506   3.967
 8214SOL    HW125541   1.784   5.573   3.897
 8214SOL    HW225542   1.822   5.553   4.055
 8215SOL     OW25543   4.169   4.952   6.820
 8215SOL    HW125544   4.154   5.030   6.760
 8215SOL    HW225545   4.091   4.889   6.815
 8216SOL     OW25546   4.567   0.159   3.195
 8216SOL    HW125547   4.478   0.114   3.205
 8216SOL    HW225548   4.627   0.131   3.269
 8217SOL     OW25549   2.047   3.873   2.011
 8217SOL    HW125550   2.038   3.795   1.948
 8217SOL    HW225551   2.122   3.932   1.981
 8218SOL     OW25552   1.755   6.984   3.918
 8218SOL    HW125553   1.695   6.986   3.839
 8218SOL    HW225554   1.807   6.899   3.919
 8219SOL     OW25555   4.000   3.734   1.572
 8219SOL    HW125556   3.997   3.802   1.646
 8219SOL    HW225557   3.988   3.781   1.485
 8220SOL     OW25558   3.324   4.100   5.380
 8220SOL    HW125559   3.341   4.105   5.478
 8220SOL    HW225560   3.293   4.189   5.347
 8221SOL     OW25561   6.543   4.536   3.510
 8221SOL    HW125562   6.574   4.457   3.562
 8221SOL    HW225563   6.621   4.579   3.465
 8222SOL     OW25564   5.024   2.543   1.072
 8222SOL    HW125565   5.119   2.533   1.103
 8222SOL    HW225566   5.021   2.539   0.972
 8223SOL     OW25567   0.202   4.680   5.966
 8223SOL    HW125568   0.272   4.628   5.918
 8223SOL    HW225569   0.120   4.624   5.976
 8224SOL     OW25570   4.946   1.910   1.510
 8224SOL    HW125571   5.044   1.902   1.532
 8224SOL    HW225572   4.894   1.917   1.595
 8225SOL     OW25573   3.516   0.888   0.970
 8225SOL    HW125574   3.485   0.815   0.910
 8225SOL    HW225575   3.612   0.908   0.951
 8226SOL     OW25576   3.164   0.512   0.792
 8226SOL    HW125577   3.143   0.417   0.769
 8226SOL    HW225578   3.094   0.547   0.854
 8227SOL     OW25579   0.422   1.794   2.452
 8227SOL    HW125580   0.396   1.831   2.363
 8227SOL    HW225581   0.502   1.735   2.442
 8228SOL     OW25582   0.844   1.791   6.175
 8228SOL    HW125583   0.877   1.697   6.165
 8228SOL    HW225584   0.918   1.855   6.157
 8229SOL     OW25585   4.177   3.937   1.156
 8229SOL    HW125586   4.252   3.962   1.095
 8229SOL    HW225587   4.173   4.001   1.233
 8230SOL     OW25588   3.639   6.463   5.425
 8230SOL    HW125589   3.717   6.507   5.471
 8230SOL    HW225590   3.558   6.521   5.435
 8231SOL     OW25591   3.469   2.022   1.994
 8231SOL    HW125592   3.454   1.988   1.901
 8231SOL    HW225593   3.520   2.108   1.990
 8232SOL     OW25594   5.667   2.111   2.465
 8232SOL    HW125595   5.714   2.095   2.552
 8232SOL    HW225596   5.594   2.044   2.454
 8233SOL     OW25597   1.370   6.870   6.266
 8233SOL    HW125598   1.393   6.965   6.286
 8233SOL    HW225599   1.324   6.829   6.345
 8234SOL     OW25600   2.860   3.559   0.095
 8234SOL    HW125601   2.895   3.466   0.093
 8234SOL    HW225602   2.775   3.564   0.042
 8235SOL     OW25603   0.795   3.746   0.104
 8235SOL    HW125604   0.773   3.662   0.154
 8235SOL    HW225605   0.714   3.803   0.098
 8236SOL     OW25606   0.475   5.286   6.038
 8236SOL    HW125607   0.502   5.371   6.083
 8236SOL    HW225608   0.539   5.267   5.963
 8237SOL     OW25609   4.535   6.261   6.593
 8237SOL    HW125610   4.450   6.256   6.646
 8237SOL    HW225611   4.518   6.310   6.507
 8238SOL     OW25612   0.268   6.143   6.852
 8238SOL    HW125613   0.170   6.120   6.848
 8238SOL    HW225614   0.284   6.231   6.807
 8239SOL     OW25615   0.416   0.610   4.809
 8239SOL    HW125616   0.385   0.549   4.883
 8239SOL    HW225617   0.448   0.555   4.732
 8240SOL     OW25618   2.972   3.628   3.286
 8240SOL    HW125619   2.952   3.695   3.214
 8240SOL    HW225620   2.966   3.672   3.375
 8241SOL     OW25621   2.298   5.130   6.193
 8241SOL    HW125622   2.318   5.228   6.188
 8241SOL    HW225623   2.209   5.112   6.151
 8242SOL     OW25624   0.695   3.852   4.704
 8242SOL    HW125625   0.761   3.822   4.772
 8242SOL    HW225626   0.714   3.807   4.617
 8243SOL     OW25627   0.287   4.373   0.371
 8243SOL    HW125628   0.342   4.305   0.323
 8243SOL    HW225629   0.316   4.378   0.467
 8244SOL     OW25630   0.288   0.112   3.957
 8244SOL    HW125631   0.340   0.106   4.042
 8244SOL    HW225632   0.323   0.186   3.901
 8245SOL     OW25633   3.619   1.240   3.277
 8245SOL    HW125634   3.710   1.208   3.302
 8245SOL    HW225635   3.626   1.300   3.197
 8246SOL     OW25636   0.192   4.610   6.756
 8246SOL    HW125637   0.141   4.643   6.677
 8246SOL    HW225638   0.281   4.655   6.760
 8247SOL     OW25639   2.389   6.293   3.890
 8247SOL    HW125640   2.417   6.203   3.856
 8247SOL    HW225641   2.394   6.294   3.990
 8248SOL     OW25642   0.660   5.141   5.201
 8248SOL    HW125643   0.649   5.089   5.116
 8248SOL    HW225644   0.570   5.158   5.241
 8249SOL     OW25645   2.553   0.855   5.485
 8249SOL    HW125646   2.526   0.787   5.416
 8249SOL    HW225647   2.475   0.874   5.545
 8250SOL     OW25648   3.451   2.194   1.165
 8250SOL    HW125649   3.470   2.259   1.239
 8250SOL    HW225650   3.420   2.244   1.084
 8251SOL     OW25651   6.399   0.955   4.124
 8251SOL    HW125652   6.362   0.935   4.215
 8251SOL    HW225653   6.370   1.046   4.096
 8252SOL     OW25654   3.635   1.367   0.606
 8252SOL    HW125655   3.555   1.347   0.663
 8252SOL    HW225656   3.647   1.295   0.538
 8253SOL     OW25657   3.969   5.723   0.250
 8253SOL    HW125658   4.066   5.747   0.257
 8253SOL    HW225659   3.946   5.708   0.154
 8254SOL     OW25660   5.579   4.359   6.360
 8254SOL    HW125661   5.585   4.289   6.289
 8254SOL    HW225662   5.655   4.423   6.351
 8255SOL     OW25663   1.160   0.122   6.016
 8255SOL    HW125664   1.187   0.112   6.112
 8255SOL    HW225665   1.066   0.154   6.011
 8256SOL     OW25666   6.562   0.177   3.153
 8256SOL    HW125667   6.573   0.275   3.138
 8256SOL    HW225668   6.583   0.127   3.069
 8257SOL     OW25669   5.951   4.673   4.050
 8257SOL    HW125670   5.854   4.668   4.027
 8257SOL    HW225671   5.963   4.655   4.147
 8258SOL     OW25672   5.066   3.350   1.320
 8258SOL    HW125673   5.094   3.392   1.407
 8258SOL    HW225674   5.111   3.396   1.244
 8259SOL     OW25675   3.648   1.952   5.370
 8259SOL    HW125676   3.621   1.961   5.465
 8259SOL    HW225677   3.670   1.857   5.349
 8260SOL     OW25678   2.118   5.890   1.586
 8260SOL    HW125679   2.104   5.879   1.685
 8260SOL    HW225680   2.125   5.988   1.565
 8261SOL     OW25681   5.039   6.950   3.513
 8261SOL    HW125682   5.097   6.870   3.494
 8261SOL    HW225683   4.983   6.933   3.593
 8262SOL     OW25684   0.723   4.476   0.858
 8262SOL    HW125685   0.708   4.484   0.759
 8262SOL    HW225686   0.795   4.408   0.875
 8263SOL     OW25687   7.017   2.907   6.908
 8263SOL    HW125688   0.064   2.921   6.835
 8263SOL    HW225689   0.037   2.932   6.996
 8264SOL     OW25690   1.394   0.104   1.607
 8264SOL    HW125691   1.314   0.143   1.654
 8264SOL    HW225692   1.471   0.167   1.615
 8265SOL     OW25693   4.964   0.512   1.626
 8265SOL    HW125694   4.905   0.560   1.691
 8265SOL    HW225695   5.038   0.572   1.596
 8266SOL     OW25696   3.211   0.120   5.171
 8266SOL    HW125697   3.251   0.191   5.112
 8266SOL    HW225698   3.194   0.038   5.116
 8267SOL     OW25699   1.800   4.949   1.591
 8267SOL    HW125700   1.736   4.894   1.538
 8267SOL    HW225701   1.892   4.909   1.585
 8268SOL     OW25702   3.171   4.524   5.577
 8268SOL    HW125703   3.073   4.526   5.596
 8268SOL    HW225704   3.215   4.603   5.620
 8269SOL     OW25705   4.584   2.146   3.005
 8269SOL    HW125706   4.638   2.079   2.954
 8269SOL    HW225707   4.490   2.146   2.972
 8270SOL     OW25708   3.502   5.429   5.836
 8270SOL    HW125709   3.511   5.343   5.785
 8270SOL    HW225710   3.566   5.496   5.799
 8271SOL     OW25711   6.713   6.431   3.944
 8271SOL    HW125712   6.686   6.487   4.022
 8271SOL    HW225713   6.659   6.346   3.944
 8272SOL     OW25714   0.284   1.408   2.156
 8272SOL    HW125715   0.337   1.347   2.214
 8272SOL    HW225716   0.309   1.395   2.060
 8273SOL     OW25717   2.787   1.369   7.013
 8273SOL    HW125718   2.850   1.314   0.047
 8273SOL    HW225719   2.763   1.452   0.042
 8274SOL     OW25720   4.291   4.514   6.088
 8274SOL    HW125721   4.281   4.427   6.039
 8274SOL    HW225722   4.374   4.511   6.144
 8275SOL     OW25723   5.672   0.363   4.704
 8275SOL    HW125724   5.666   0.420   4.787
 8275SOL    HW225725   5.725   0.412   4.634
 8276SOL     OW25726   6.692   2.036   5.675
 8276SOL    HW125727   6.708   2.027   5.773
 8276SOL    HW225728   6.705   2.131   5.648
 8277SOL     OW25729   2.546   6.057   5.387
 8277SOL    HW125730   2.472   6.122   5.371
 8277SOL    HW225731   2.508   5.965   5.398
 8278SOL     OW25732   2.909   1.466   6.395
 8278SOL    HW125733   2.852   1.443   6.316
 8278SOL    HW225734   2.923   1.565   6.398
 8279SOL     OW25735   5.886   5.651   6.084
 8279SOL    HW125736   5.974   5.647   6.132
 8279SOL    HW225737   5.894   5.707   6.002
 8280SOL     OW25738   4.626   2.315   0.627
 8280SOL    HW125739   4.691   2.311   0.702
 8280SOL    HW225740   4.670   2.357   0.547
 8281SOL     OW25741   2.283   4.681   1.276
 8281SOL    HW125742   2.330   4.764   1.305
 8281SOL    HW225743   2.333   4.601   1.308
 8282SOL     OW25744   2.631   3.205   0.476
 8282SOL    HW125745   2.549   3.155   0.503
 8282SOL    HW225746   2.632   3.218   0.377
 8283SOL     OW25747   1.053   4.429   3.969
 8283SOL    HW125748   0.965   4.392   3.999
 8283SOL    HW225749   1.104   4.359   3.919
 8284SOL     OW25750   1.475   3.710   2.336
 8284SOL    HW125751   1.420   3.780   2.291
 8284SOL    HW225752   1.414   3.642   2.378
 8285SOL     OW25753   3.355   3.300   5.322
 8285SOL    HW125754   3.387   3.211   5.287
 8285SOL    HW225755   3.332   3.359   5.245
 8286SOL     OW25756   5.290   2.010   5.110
 8286SOL    HW125757   5.252   2.038   5.022
 8286SOL    HW225758   5.229   2.039   5.183
 8287SOL     OW25759   1.459   6.334   3.741
 8287SOL    HW125760   1.498   6.423   3.717
 8287SOL    HW225761   1.359   6.338   3.735
 8288SOL     OW25762   1.163   2.384   2.353
 8288SOL    HW125763   1.165   2.333   2.267
 8288SOL    HW225764   1.086   2.353   2.408
 8289SOL     OW25765   6.100   0.708   6.298
 8289SOL    HW125766   6.003   0.734   6.298
 8289SOL    HW225767   6.114   0.632   6.361
 8290SOL     OW25768   4.353   2.247   1.811
 8290SOL    HW125769   4.311   2.156   1.817
 8290SOL    HW225770   4.423   2.246   1.740
 8291SOL     OW25771   5.853   5.825   6.527
 8291SOL    HW125772   5.916   5.765   6.477
 8291SOL    HW225773   5.832   5.905   6.471
 8292SOL     OW25774   2.083   5.616   5.998
 8292SOL    HW125775   2.042   5.694   5.951
 8292SOL    HW225776   2.072   5.534   5.942
 8293SOL     OW25777   1.614   4.069   1.631
 8293SOL    HW125778   1.610   3.979   1.587
 8293SOL    HW225779   1.536   4.124   1.601
 8294SOL     OW25780   5.963   3.495   4.704
 8294SOL    HW125781   5.937   3.578   4.753
 8294SOL    HW225782   5.974   3.420   4.769
 8295SOL     OW25783   5.287   3.522   2.595
 8295SOL    HW125784   5.281   3.616   2.628
 8295SOL    HW225785   5.377   3.484   2.618
 8296SOL     OW25786   3.856   4.860   0.092
 8296SOL    HW125787   3.926   4.859   0.164
 8296SOL    HW225788   3.766   4.851   0.133
 8297SOL     OW25789   6.985   3.412   2.075
 8297SOL    HW125790   6.958   3.417   2.171
 8297SOL    HW225791   6.914   3.364   2.024
 8298SOL     OW25792   0.116   0.310   6.696
 8298SOL    HW125793   0.085   0.388   6.641
 8298SOL    HW225794   0.065   0.309   6.782
 8299SOL     OW25795   0.754   2.978   1.235
 8299SOL    HW125796   0.727   3.038   1.311
 8299SOL    HW225797   0.814   3.029   1.172
 8300SOL     OW25798   6.057   6.867   5.015
 8300SOL    HW125799   6.109   6.942   5.056
 8300SOL    HW225800   6.034   6.799   5.085
 8301SOL     OW25801   4.401   0.169   6.724
 8301SOL    HW125802   4.445   0.150   6.812
 8301SOL    HW225803   4.304   0.147   6.730
 8302SOL     OW25804   3.944   6.819   5.256
 8302SOL    HW125805   3.930   6.894   5.192
 8302SOL    HW225806   4.019   6.841   5.318
 8303SOL     OW25807   0.003   0.085   3.419
 8303SOL    HW125808   7.000   7.014   3.451
 8303SOL    HW225809   6.947   0.124   3.369
 8304SOL     OW25810   5.598   5.208   1.892
 8304SOL    HW125811   5.548   5.256   1.963
 8304SOL    HW225812   5.541   5.200   1.810
 8305SOL     OW25813   4.053   5.274   4.519
 8305SOL    HW125814   4.014   5.327   4.444
 8305SOL    HW225815   4.003   5.295   4.604
 8306SOL     OW25816   6.508   1.396   2.595
 8306SOL    HW125817   6.474   1.490   2.585
 8306SOL    HW225818   6.511   1.373   2.693
 8307SOL     OW25819   3.238   4.916   1.557
 8307SOL    HW125820   3.305   4.889   1.488
 8307SOL    HW225821   3.168   4.974   1.514
 8308SOL     OW25822   1.735   4.250   0.488
 8308SOL    HW125823   1.796   4.189   0.539
 8308SOL    HW225824   1.756   4.246   0.391
 8309SOL     OW25825   6.107   5.006   3.414
 8309SOL    HW125826   6.040   4.932   3.424
 8309SOL    HW225827   6.098   5.048   3.324
 8310SOL     OW25828   1.111   5.665   0.498
 8310SOL    HW125829   1.015   5.648   0.521
 8310SOL    HW225830   1.116   5.711   0.409
 8311SOL     OW25831   5.303   0.270   4.355
 8311SOL    HW125832   5.279   0.203   4.426
 8311SOL    HW225833   5.387   0.317   4.382
 8312SOL     OW25834   5.464   1.198   0.500
 8312SOL    HW125835   5.481   1.217   0.403
 8312SOL    HW225836   5.457   1.285   0.550
 8313SOL     OW25837   4.079   6.722   5.603
 8313SOL    HW125838   4.061   6.771   5.689
 8313SOL    HW225839   4.117   6.786   5.536
 8314SOL     OW25840   5.886   6.738   6.644
 8314SOL    HW125841   5.787   6.727   6.633
 8314SOL    HW225842   5.907   6.829   6.679
 8315SOL     OW25843   3.655   4.074   2.674
 8315SOL    HW125844   3.659   4.052   2.576
 8315SOL    HW225845   3.745   4.058   2.715
 8316SOL     OW25846   1.792   3.382   0.048
 8316SOL    HW125847   1.823   3.402   0.141
 8316SOL    HW225848   1.694   3.400   0.042
 8317SOL     OW25849   2.929   2.112   3.834
 8317SOL    HW125850   2.851   2.170   3.858
 8317SOL    HW225851   2.980   2.088   3.917
 8318SOL     OW25852   4.557   0.738   5.527
 8318SOL    HW125853   4.466   0.774   5.548
 8318SOL    HW225854   4.622   0.814   5.520
 8319SOL     OW25855   1.931   6.908   6.965
 8319SOL    HW125856   2.031   6.916   6.962
 8319SOL    HW225857   1.890   6.999   6.962
 8320SOL     OW25858   3.688   3.871   3.435
 8320SOL    HW125859   3.684   3.883   3.534
 8320SOL    HW225860   3.733   3.950   3.393
 8321SOL     OW25861   0.441   0.058   6.097
 8321SOL    HW125862   0.459   6.993   6.145
 8321SOL    HW225863   0.361   0.102   6.136
 8322SOL     OW25864   0.114   1.426   0.284
 8322SOL    HW125865   0.084   1.330   0.294
 8322SOL    HW225866   0.205   1.436   0.324
 8323SOL     OW25867   3.654   4.609   1.368
 8323SOL    HW125868   3.727   4.659   1.321
 8323SOL    HW225869   3.566   4.653   1.349
 8324SOL     OW25870   5.678   0.613   0.321
 8324SOL    HW125871   5.680   0.585   0.417
 8324SOL    HW225872   5.618   0.552   0.270
 8325SOL     OW25873   1.201   4.196   5.046
 8325SOL    HW125874   1.223   4.196   5.143
 8325SOL    HW225875   1.127   4.130   5.029
 8326SOL     OW25876   4.293   3.318   6.886
 8326SOL    HW125877   4.316   3.368   6.970
 8326SOL    HW225878   4.229   3.372   6.832
 8327SOL     OW25879   0.877   6.933   5.477
 8327SOL    HW125880   0.851   0.006   5.454
 8327SOL    HW225881   0.916   6.888   5.397
 8328SOL     OW25882   1.962   6.473   5.983
 8328SOL    HW125883   1.884   6.450   6.041
 8328SOL    HW225884   2.047   6.464   6.036
 8329SOL     OW25885   7.020   2.516   4.878
 8329SOL    HW125886   6.962   2.532   4.798
 8329SOL    HW225887   0.032   2.604   4.913
 8330SOL     OW25888   3.210   1.143   6.612
 8330SOL    HW125889   3.208   1.193   6.526
 8330SOL    HW225890   3.120   1.103   6.630
 8331SOL     OW25891   2.623   0.972   1.103
 8331SOL    HW125892   2.686   1.021   1.042
 8331SOL    HW225893   2.635   1.005   1.197
 8332SOL     OW25894   5.462   5.348   2.094
 8332SOL    HW125895   5.453   5.444   2.120
 8332SOL    HW225896   5.469   5.292   2.176
 8333SOL     OW25897   2.178   4.795   0.229
 8333SOL    HW125898   2.168   4.706   0.272
 8333SOL    HW225899   2.275   4.820   0.225
 8334SOL     OW25900   2.574   2.465   6.246
 8334SOL    HW125901   2.606   2.507   6.161
 8334SOL    HW225902   2.618   2.510   6.324
 8335SOL     OW25903   4.073   2.721   6.965
 8335SOL    HW125904   4.066   2.776   6.882
 8335SOL    HW225905   3.986   2.725   7.015
 8336SOL     OW25906   1.130   3.715   3.295
 8336SOL    HW125907   1.227   3.729   3.276
 8336SOL    HW225908   1.113   3.727   3.393
 8337SOL     OW25909   0.523   6.806   4.226
 8337SOL    HW125910   0.470   6.745   4.285
 8337SOL    HW225911   0.619   6.806   4.256
 8338SOL     OW25912   3.916   5.765   1.884
 8338SOL    HW125913   3.852   5.824   1.934
 8338SOL    HW225914   4.008   5.801   1.893
 8339SOL     OW25915   0.105   1.161   1.577
 8339SOL    HW125916   0.079   1.099   1.650
 8339SOL    HW225917   0.089   1.255   1.605
 8340SOL     OW25918   5.175   4.093   0.360
 8340SOL    HW125919   5.094   4.074   0.304
 8340SOL    HW225920   5.249   4.030   0.333
 8341SOL     OW25921   3.421   0.269   6.960
 8341SOL    HW125922   3.356   0.341   6.938
 8341SOL    HW225923   3.446   0.275   0.036
 8342SOL     OW25924   3.989   6.994   0.295
 8342SOL    HW125925   3.974   0.070   0.319
 8342SOL    HW225926   3.907   6.941   0.318
 8343SOL     OW25927   6.019   5.808   3.702
 8343SOL    HW125928   6.037   5.739   3.772
 8343SOL    HW225929   6.023   5.899   3.743
 8344SOL     OW25930   6.630   4.629   4.773
 8344SOL    HW125931   6.559   4.700   4.774
 8344SOL    HW225932   6.622   4.575   4.690
 8345SOL     OW25933   4.819   2.035   3.798
 8345SOL    HW125934   4.857   2.108   3.855
 8345SOL    HW225935   4.719   2.038   3.800
 8346SOL     OW25936   3.538   3.097   6.056
 8346SOL    HW125937   3.592   3.048   5.988
 8346SOL    HW225938   3.574   3.190   6.066
 8347SOL     OW25939   3.603   6.438   6.648
 8347SOL    HW125940   3.541   6.460   6.573
 8347SOL    HW225941   3.677   6.380   6.613
 8348SOL     OW25942   2.493   7.015   1.617
 8348SOL    HW125943   2.405   0.003   1.665
 8348SOL    HW225944   2.476   6.990   1.522
 8349SOL     OW25945   1.109   6.347   1.503
 8349SOL    HW125946   1.167   6.303   1.434
 8349SOL    HW225947   1.141   6.322   1.595
 8350SOL     OW25948   3.019   6.223   5.952
 8350SOL    HW125949   3.090   6.164   5.992
 8350SOL    HW225950   3.054   6.316   5.943
 8351SOL     OW25951   5.676   5.651   3.982
 8351SOL    HW125952   5.629   5.604   4.056
 8351SOL    HW225953   5.710   5.583   3.916
 8352SOL     OW25954   1.696   0.238   2.981
 8352SOL    HW125955   1.789   0.272   2.994
 8352SOL    HW225956   1.686   0.201   2.889
 8353SOL     OW25957   0.999   4.461   1.086
 8353SOL    HW125958   1.081   4.404   1.098
 8353SOL    HW225959   1.016   4.551   1.126
 8354SOL     OW25960   3.357   6.580   3.993
 8354SOL    HW125961   3.388   6.505   4.051
 8354SOL    HW225962   3.419   6.659   4.004
 8355SOL     OW25963   2.255   0.723   5.402
 8355SOL    HW125964   2.210   0.655   5.345
 8355SOL    HW225965   2.250   0.695   5.498
 8356SOL     OW25966   0.454   5.360   1.477
 8356SOL    HW125967   0.423   5.455   1.480
 8356SOL    HW225968   0.471   5.328   1.570
 8357SOL     OW25969   3.505   5.756   5.653
 8357SOL    HW125970   3.431   5.753   5.720
 8357SOL    HW225971   3.485   5.692   5.579
 8358SOL     OW25972   0.641   3.129   4.944
 8358SOL    HW125973   0.573   3.068   4.905
 8358SOL    HW225974   0.660   3.203   4.880
 8359SOL     OW25975   2.102   1.463   4.466
 8359SOL    HW125976   2.012   1.464   4.509
 8359SOL    HW225977   2.107   1.535   4.397
 8360SOL     OW25978   4.663   6.972   1.167
 8360SOL    HW125979   4.619   6.903   1.226
 8360SOL    HW225980   4.729   6.927   1.108
 8361SOL     OW25981   3.176   0.759   7.000
 8361SOL    HW125982   3.226   0.833   6.956
 8361SOL    HW225983   3.087   0.747   6.955
 8362SOL     OW25984   5.626   2.208   1.101
 8362SOL    HW125985   5.548   2.269   1.093
 8362SOL    HW225986   5.635   2.154   1.017
 8363SOL     OW25987   4.899   1.304   0.780
 8363SOL    HW125988   4.891   1.388   0.727
 8363SOL    HW225989   4.836   1.235   0.744
 8364SOL     OW25990   0.419   3.369   4.302
 8364SOL    HW125991   0.429   3.430   4.381
 8364SOL    HW225992   0.325   3.337   4.296
 8365SOL     OW25993   1.724   2.600   3.011
 8365SOL    HW125994   1.781   2.552   2.945
 8365SOL    HW225995   1.637   2.625   2.969
 8366SOL     OW25996   3.939   4.993   0.817
 8366SOL    HW125997   3.920   4.928   0.744
 8366SOL    HW225998   3.896   5.081   0.794
 8367SOL     OW25999   3.351   5.206   5.181
 8367SOL    HW126000   3.284   5.146   5.225
 8367SOL    HW226001   3.437   5.156   5.168
 8368SOL     OW26002   1.348   5.948   0.368
 8368SOL    HW126003   1.392   5.923   0.454
 8368SOL    HW226004   1.351   5.870   0.306
 8369SOL     OW26005   0.848   0.985   6.648
 8369SOL    HW126006   0.776   0.919   6.672
 8369SOL    HW226007   0.827   1.027   6.560
 8370SOL     OW26008   2.257   0.702   5.956
 8370SOL    HW126009   2.263   0.612   5.999
 8370SOL    HW226010   2.162   0.731   5.954
 8371SOL     OW26011   1.987   3.364   6.434
 8371SOL    HW126012   2.006   3.370   6.532
 8371SOL    HW226013   1.937   3.280   6.414
 8372SOL     OW26014   1.644   6.040   1.445
 8372SOL    HW126015   1.607   5.956   1.484
 8372SOL    HW226016   1.608   6.053   1.353
 8373SOL     OW26017   1.893   1.241   5.054
 8373SOL    HW126018   1.820   1.257   5.121
 8373SOL    HW226019   1.892   1.313   4.985
 8374SOL     OW26020   0.080   0.603   4.910
 8374SOL    HW126021   0.109   0.686   4.862
 8374SOL    HW226022   0.139   0.587   4.989
 8375SOL     OW26023   3.939   6.941   6.215
 8375SOL    HW126024   3.943   6.970   6.119
 8375SOL    HW226025   4.003   6.866   6.230
 8376SOL     OW26026   1.313   1.517   3.818
 8376SOL    HW126027   1.377   1.459   3.769
 8376SOL    HW226028   1.318   1.497   3.916
 8377SOL     OW26029   5.907   5.969   0.641
 8377SOL    HW126030   5.818   6.007   0.666
 8377SOL    HW226031   5.967   6.043   0.611
 8378SOL     OW26032   3.878   5.123   3.981
 8378SOL    HW126033   3.830   5.206   3.953
 8378SOL    HW226034   3.939   5.093   3.908
 8379SOL     OW26035   4.715   2.644   2.345
 8379SOL    HW126036   4.715   2.559   2.294
 8379SOL    HW226037   4.796   2.648   2.404
 8380SOL     OW26038   0.028   6.948   6.703
 8380SOL    HW126039   0.121   6.975   6.729
 8380SOL    HW226040   0.017   6.960   6.604
 8381SOL     OW26041   0.017   2.600   3.115
 8381SOL    HW126042   6.996   2.579   3.203
 8381SOL    HW226043   0.017   2.518   3.058
 8382SOL     OW26044   2.447   6.776   0.866
 8382SOL    HW126045   2.467   6.697   0.924
 8382SOL    HW226046   2.351   6.802   0.876
 8383SOL     OW26047   2.926   0.110   5.597
 8383SOL    HW126048   2.872   0.051   5.538
 8383SOL    HW226049   3.012   0.133   5.552
 8384SOL     OW26050   6.945   1.389   0.496
 8384SOL    HW126051   7.001   1.455   0.446
 8384SOL    HW226052   6.959   1.401   0.595
 8385SOL     OW26053   4.144   1.973   0.820
 8385SOL    HW126054   4.225   2.032   0.812
 8385SOL    HW226055   4.142   1.909   0.743
 8386SOL     OW26056   2.289   5.467   1.116
 8386SOL    HW126057   2.331   5.410   1.045
 8386SOL    HW226058   2.334   5.556   1.118
 8387SOL     OW26059   1.784   2.178   1.459
 8387SOL    HW126060   1.847   2.178   1.537
 8387SOL    HW226061   1.770   2.085   1.427
 8388SOL     OW26062   1.557   6.878   0.584
 8388SOL    HW126063   1.502   6.854   0.664
 8388SOL    HW226064   1.621   6.803   0.564
 8389SOL     OW26065   0.447   3.600   4.465
 8389SOL    HW126066   0.360   3.559   4.490
 8389SOL    HW226067   0.432   3.693   4.430
 8390SOL     OW26068   4.062   6.687   0.069
 8390SOL    HW126069   4.128   6.632   0.017
 8390SOL    HW226070   4.038   6.769   0.016
 8391SOL     OW26071   4.815   5.076   1.545
 8391SOL    HW126072   4.901   5.063   1.595
 8391SOL    HW226073   4.751   5.128   1.602
 8392SOL     OW26074   6.851   5.450   5.867
 8392SOL    HW126075   6.808   5.504   5.940
 8392SOL    HW226076   6.783   5.433   5.795
 8393SOL     OW26077   7.002   6.437   3.880
 8393SOL    HW126078   6.904   6.418   3.877
 8393SOL    HW226079   7.019   6.530   3.848
 8394SOL     OW26080   6.921   2.837   1.725
 8394SOL    HW126081   6.855   2.904   1.692
 8394SOL    HW226082   6.881   2.786   1.801
 8395SOL     OW26083   1.614   6.073   4.346
 8395SOL    HW126084   1.689   6.074   4.279
 8395SOL    HW226085   1.539   6.018   4.312
 8396SOL     OW26086   4.539   4.411   2.284
 8396SOL    HW126087   4.630   4.386   2.316
 8396SOL    HW226088   4.535   4.399   2.184
 8397SOL     OW26089   2.390   0.661   3.696
 8397SOL    HW126090   2.425   0.685   3.605
 8397SOL    HW226091   2.382   0.744   3.751
 8398SOL     OW26092   4.279   1.517   6.415
 8398SOL    HW126093   4.366   1.563   6.396
 8398SOL    HW226094   4.290   1.456   6.493
 8399SOL     OW26095   6.450   0.314   6.978
 8399SOL    HW126096   6.456   0.347   0.052
 8399SOL    HW226097   6.440   0.214   6.979
 8400SOL     OW26098   1.096   0.041   3.756
 8400SOL    HW126099   1.092   0.132   3.797
 8400SOL    HW226100   1.125   6.995   3.825
 8401SOL     OW26101   3.342   2.231   6.611
 8401SOL    HW126102   3.412   2.292   6.576
 8401SOL    HW226103   3.268   2.224   6.544
 8402SOL     OW26104   4.146   1.650   5.796
 8402SOL    HW126105   4.109   1.557   5.798
 8402SOL    HW226106   4.149   1.683   5.701
 8403SOL     OW26107   0.782   1.715   3.123
 8403SOL    HW126108   0.804   1.626   3.083
 8403SOL    HW226109   0.804   1.713   3.221
 8404SOL     OW26110   5.283   5.762   6.995
 8404SOL    HW126111   5.197   5.715   7.014
 8404SOL    HW226112   5.269   5.861   7.002
 8405SOL     OW26113   1.897   1.125   6.645
 8405SOL    HW126114   1.973   1.066   6.670
 8405SOL    HW226115   1.825   1.071   6.601
 8406SOL     OW26116   4.243   0.319   0.994
 8406SOL    HW126117   4.292   0.266   1.063
 8406SOL    HW226118   4.230   0.262   0.912
 8407SOL     OW26119   4.858   6.502   3.621
 8407SOL    HW126120   4.887   6.435   3.553
 8407SOL    HW226121   4.821   6.583   3.575
 8408SOL     OW26122   4.989   2.703   2.791
 8408SOL    HW126123   4.968   2.763   2.868
 8408SOL    HW226124   5.088   2.697   2.780
 8409SOL     OW26125   5.942   3.095   2.959
 8409SOL    HW126126   6.017   3.045   2.915
 8409SOL    HW226127   5.947   3.082   3.058
 8410SOL     OW26128   4.493   0.855   1.457
 8410SOL    HW126129   4.492   0.932   1.520
 8410SOL    HW226130   4.515   0.771   1.507
 8411SOL     OW26131   1.113   5.645   5.153
 8411SOL    HW126132   1.176   5.571   5.178
 8411SOL    HW226133   1.129   5.723   5.212
 8412SOL     OW26134   4.402   1.971   2.090
 8412SOL    HW126135   4.487   2.001   2.046
 8412SOL    HW226136   4.350   2.051   2.121
 8413SOL     OW26137   4.939   4.817   0.785
 8413SOL    HW126138   5.023   4.763   0.795
 8413SOL    HW226139   4.869   4.782   0.847
 8414SOL     OW26140   4.386   5.846   2.466
 8414SOL    HW126141   4.293   5.828   2.495
 8414SOL    HW226142   4.435   5.759   2.454
 8415SOL     OW26143   6.701   5.622   4.067
 8415SOL    HW126144   6.794   5.634   4.033
 8415SOL    HW226145   6.674   5.527   4.057
 8416SOL     OW26146   5.850   4.308   3.664
 8416SOL    HW126147   5.807   4.231   3.712
 8416SOL    HW226148   5.916   4.273   3.598
 8417SOL     OW26149   0.986   5.241   6.030
 8417SOL    HW126150   1.085   5.244   6.021
 8417SOL    HW226151   0.954   5.146   6.019
 8418SOL     OW26152   6.297   5.473   1.729
 8418SOL    HW126153   6.347   5.397   1.688
 8418SOL    HW226154   6.332   5.559   1.692
 8419SOL     OW26155   5.151   1.512   2.705
 8419SOL    HW126156   5.096   1.484   2.626
 8419SOL    HW226157   5.243   1.473   2.697
 8420SOL     OW26158   4.201   0.224   0.716
 8420SOL    HW126159   4.225   0.137   0.675
 8420SOL    HW226160   4.266   0.294   0.686
 8421SOL     OW26161   2.802   5.908   1.187
 8421SOL    HW126162   2.899   5.889   1.201
 8421SOL    HW226163   2.778   5.888   1.092
 8422SOL     OW26164   4.620   0.446   1.506
 8422SOL    HW126165   4.632   0.511   1.431
 8422SOL    HW226166   4.571   0.490   1.581
 8423SOL     OW26167   4.059   4.015   6.207
 8423SOL    HW126168   4.004   4.044   6.128
 8423SOL    HW226169   4.151   3.991   6.175
 8424SOL     OW26170   2.533   2.353   3.037
 8424SOL    HW126171   2.602   2.361   3.110
 8424SOL    HW226172   2.570   2.392   2.953
 8425SOL     OW26173   5.753   5.994   1.397
 8425SOL    HW126174   5.739   5.902   1.361
 8425SOL    HW226175   5.780   5.988   1.494
 8426SOL     OW26176   3.351   2.882   4.089
 8426SOL    HW126177   3.370   2.895   4.186
 8426SOL    HW226178   3.265   2.929   4.065
 8427SOL     OW26179   2.780   3.782   5.639
 8427SOL    HW126180   2.847   3.719   5.602
 8427SOL    HW226181   2.720   3.734   5.704
 8428SOL     OW26182   6.888   4.423   1.529
 8428SOL    HW126183   6.823   4.354   1.559
 8428SOL    HW226184   6.840   4.496   1.480
 8429SOL     OW26185   2.005   4.215   3.766
 8429SOL    HW126186   2.069   4.142   3.745
 8429SOL    HW226187   2.040   4.302   3.731
 8430SOL     OW26188   3.673   5.779   3.559
 8430SOL    HW126189   3.646   5.798   3.464
 8430SOL    HW226190   3.735   5.701   3.560
 8431SOL     OW26191   3.091   5.284   0.706
 8431SOL    HW126192   3.062   5.218   0.775
 8431SOL    HW226193   3.014   5.305   0.645
 8432SOL     OW26194   5.624   6.826   6.014
 8432SOL    HW126195   5.564   6.848   5.936
 8432SOL    HW226196   5.650   6.910   6.061
 8433SOL     OW26197   6.578   2.355   0.068
 8433SOL    HW126198   6.632   2.318   0.144
 8433SOL    HW226199   6.589   2.455   0.065
 8434SOL     OW26200   2.860   6.422   5.538
 8434SOL    HW126201   2.932   6.388   5.599
 8434SOL    HW226202   2.828   6.348   5.480
 8435SOL     OW26203   5.087   0.784   0.959
 8435SOL    HW126204   5.050   0.711   1.017
 8435SOL    HW226205   5.185   0.794   0.976
 8436SOL     OW26206   3.291   6.459   4.614
 8436SOL    HW126207   3.382   6.489   4.643
 8436SOL    HW226208   3.250   6.401   4.684
 8437SOL     OW26209   1.535   0.183   3.206
 8437SOL    HW126210   1.574   0.218   3.121
 8437SOL    HW226211   1.600   0.120   3.249
 8438SOL     OW26212   2.902   4.953   2.224
 8438SOL    HW126213   2.831   4.995   2.167
 8438SOL    HW226214   2.889   4.853   2.224
 8439SOL     OW26215   6.352   5.400   1.452
 8439SOL    HW126216   6.382   5.365   1.364
 8439SOL    HW226217   6.270   5.456   1.440
 8440SOL     OW26218   0.514   1.920   4.038
 8440SOL    HW126219   0.549   1.966   4.119
 8440SOL    HW226220   0.563   1.835   4.023
 8441SOL     OW26221   5.950   6.798   6.990
 8441SOL    HW126222   5.939   6.729   6.918
 8441SOL    HW226223   5.860   6.821   0.006
 8442SOL     OW26224   3.309   2.567   5.925
 8442SOL    HW126225   3.274   2.592   6.015
 8442SOL    HW226226   3.371   2.638   5.892
 8443SOL     OW26227   1.145   6.405   3.367
 8443SOL    HW126228   1.048   6.389   3.385
 8443SOL    HW226229   1.177   6.483   3.420
 8444SOL     OW26230   3.267   5.716   3.533
 8444SOL    HW126231   3.183   5.691   3.484
 8444SOL    HW226232   3.263   5.679   3.626
 8445SOL     OW26233   3.505   5.170   1.746
 8445SOL    HW126234   3.588   5.146   1.695
 8445SOL    HW226235   3.529   5.196   1.840
 8446SOL     OW26236   4.515   4.896   0.853
 8446SOL    HW126237   4.445   4.884   0.924
 8446SOL    HW226238   4.575   4.816   0.852
 8447SOL     OW26239   5.861   2.376   2.321
 8447SOL    HW126240   5.896   2.398   2.230
 8447SOL    HW226241   5.765   2.404   2.327
 8448SOL     OW26242   5.464   4.933   4.481
 8448SOL    HW126243   5.555   4.972   4.497
 8448SOL    HW226244   5.407   4.947   4.562
 8449SOL     OW26245   6.404   3.244   3.934
 8449SOL    HW126246   6.492   3.235   3.887
 8449SOL    HW226247   6.395   3.171   4.002
 8450SOL     OW26248   1.841   5.643   2.126
 8450SOL    HW126249   1.927   5.605   2.091
 8450SOL    HW226250   1.860   5.725   2.179
 8451SOL     OW26251   4.883   2.952   0.416
 8451SOL    HW126252   4.820   2.960   0.339
 8451SOL    HW226253   4.900   3.043   0.454
 8452SOL     OW26254   0.287   0.921   2.075
 8452SOL    HW126255   0.367   0.942   2.018
 8452SOL    HW226256   0.247   1.007   2.109
 8453SOL     OW26257   6.662   4.128   0.031
 8453SOL    HW126258   6.648   4.227   0.032
 8453SOL    HW226259   6.660   4.093   0.124
 8454SOL     OW26260   0.482   6.504   0.527
 8454SOL    HW126261   0.466   6.476   0.621
 8454SOL    HW226262   0.569   6.553   0.521
 8455SOL     OW26263   5.270   2.016   1.264
 8455SOL    HW126264   5.272   2.112   1.290
 8455SOL    HW226265   5.196   2.001   1.198
 8456SOL     OW26266   4.675   4.261   3.088
 8456SOL    HW126267   4.747   4.196   3.067
 8456SOL    HW226268   4.715   4.352   3.099
 8457SOL     OW26269   0.105   6.354   5.046
 8457SOL    HW126270   0.109   6.261   5.082
 8457SOL    HW226271   0.150   6.358   4.957
 8458SOL     OW26272   2.063   1.565   6.709
 8458SOL    HW126273   2.139   1.522   6.759
 8458SOL    HW226274   2.090   1.657   6.680
 8459SOL     OW26275   3.174   6.492   1.820
 8459SOL    HW126276   3.158   6.403   1.861
 8459SOL    HW226277   3.190   6.481   1.722
 8460SOL     OW26278   4.354   2.568   5.694
 8460SOL    HW126279   4.270   2.525   5.727
 8460SOL    HW226280   4.337   2.614   5.607
 8461SOL     OW26281   0.519   3.670   2.495
 8461SOL    HW126282   0.530   3.680   2.594
 8461SOL    HW226283   0.432   3.625   2.476
 8462SOL     OW26284   3.581   2.467   0.461
 8462SOL    HW126285   3.680   2.469   0.478
 8462SOL    HW226286   3.534   2.514   0.536
 8463SOL     OW26287   6.354   0.269   0.323
 8463SOL    HW126288   6.336   0.367   0.318
 8463SOL    HW226289   6.267   0.220   0.333
 8464SOL     OW26290   6.010   3.800   5.942
 8464SOL    HW126291   5.974   3.730   5.880
 8464SOL    HW226292   6.108   3.812   5.926
 8465SOL     OW26293   2.491   2.436   0.525
 8465SOL    HW126294   2.401   2.455   0.484
 8465SOL    HW226295   2.499   2.337   0.541
 8466SOL     OW26296   6.580   6.956   5.556
 8466SOL    HW126297   6.664   6.969   5.504
 8466SOL    HW226298   6.589   6.876   5.615
 8467SOL     OW26299   3.748   0.699   1.471
 8467SOL    HW126300   3.665   0.723   1.521
 8467SOL    HW226301   3.735   0.610   1.426
 8468SOL     OW26302   4.934   2.657   0.238
 8468SOL    HW126303   4.975   2.669   0.329
 8468SOL    HW226304   4.912   2.561   0.223
 8469SOL     OW26305   2.739   1.746   5.414
 8469SOL    HW126306   2.808   1.778   5.350
 8469SOL    HW226307   2.703   1.823   5.466
 8470SOL     OW26308   0.746   4.693   0.351
 8470SOL    HW126309   0.755   4.622   0.281
 8470SOL    HW226310   0.823   4.756   0.345
 8471SOL     OW26311   4.223   0.260   5.024
 8471SOL    HW126312   4.187   0.342   4.980
 8471SOL    HW226313   4.317   0.277   5.053
 8472SOL     OW26314   6.319   0.458   5.734
 8472SOL    HW126315   6.396   0.521   5.738
 8472SOL    HW226316   6.316   0.402   5.817
 8473SOL     OW26317   6.720   5.499   0.946
 8473SOL    HW126318   6.680   5.530   1.033
 8473SOL    HW226319   6.762   5.409   0.958
 8474SOL     OW26320   3.689   3.669   2.141
 8474SOL    HW126321   3.754   3.604   2.181
 8474SOL    HW226322   3.615   3.686   2.206
 8475SOL     OW26323   0.170   2.806   2.923
 8475SOL    HW126324   0.194   2.804   3.020
 8475SOL    HW226325   0.131   2.717   2.897
 8476SOL     OW26326   6.029   1.081   1.171
 8476SOL    HW126327   5.979   1.150   1.117
 8476SOL    HW226328   6.127   1.097   1.161
 8477SOL     OW26329   4.322   6.602   3.072
 8477SOL    HW126330   4.362   6.691   3.051
 8477SOL    HW226331   4.224   6.612   3.086
 8478SOL     OW26332   1.625   6.668   5.717
 8478SOL    HW126333   1.644   6.704   5.626
 8478SOL    HW226334   1.709   6.667   5.772
 8479SOL     OW26335   1.250   2.968   1.018
 8479SOL    HW126336   1.183   2.941   1.088
 8479SOL    HW226337   1.233   3.063   0.992
 8480SOL     OW26338   5.140   2.938   0.274
 8480SOL    HW126339   5.189   2.853   0.253
 8480SOL    HW226340   5.081   2.923   0.354
 8481SOL     OW26341   4.454   2.643   5.181
 8481SOL    HW126342   4.510   2.596   5.113
 8481SOL    HW226343   4.376   2.686   5.137
 8482SOL     OW26344   4.616   0.021   2.544
 8482SOL    HW126345   4.680   0.097   2.543
 8482SOL    HW226346   4.523   0.055   2.557
 8483SOL     OW26347   3.562   5.819   2.118
 8483SOL    HW126348   3.630   5.878   2.074
 8483SOL    HW226349   3.557   5.841   2.215
 8484SOL     OW26350   6.716   6.027   3.806
 8484SOL    HW126351   6.691   5.965   3.880
 8484SOL    HW226352   6.778   5.979   3.743
 8485SOL     OW26353   3.507   2.542   0.194
 8485SOL    HW126354   3.489   2.527   0.291
 8485SOL    HW226355   3.595   2.503   0.169
 8486SOL     OW26356   2.338   1.372   2.279
 8486SOL    HW126357   2.418   1.340   2.330
 8486SOL    HW226358   2.296   1.447   2.329
 8487SOL     OW26359   5.978   1.652   5.511
 8487SOL    HW126360   5.887   1.650   5.552
 8487SOL    HW226361   6.017   1.560   5.512
 8488SOL     OW26362   5.532   6.385   1.757
 8488SOL    HW126363   5.521   6.303   1.814
 8488SOL    HW226364   5.461   6.385   1.687
 8489SOL     OW26365   6.413   1.802   1.562
 8489SOL    HW126366   6.319   1.833   1.544
 8489SOL    HW226367   6.477   1.867   1.523
 8490SOL     OW26368   3.668   6.230   5.258
 8490SOL    HW126369   3.617   6.251   5.175
 8490SOL    HW226370   3.746   6.171   5.235
 8491SOL     OW26371   2.344   6.055   1.817
 8491SOL    HW126372   2.366   5.965   1.853
 8491SOL    HW226373   2.246   6.071   1.823
 8492SOL     OW26374   5.248   4.267   5.723
 8492SOL    HW126375   5.283   4.185   5.770
 8492SOL    HW226376   5.314   4.295   5.653
 8493SOL     OW26377   2.266   2.218   5.315
 8493SOL    HW126378   2.322   2.297   5.292
 8493SOL    HW226379   2.289   2.186   5.407
 8494SOL     OW26380   4.154   5.086   0.935
 8494SOL    HW126381   4.137   5.184   0.940
 8494SOL    HW226382   4.083   5.042   0.881
 8495SOL     OW26383   6.714   5.089   2.048
 8495SOL    HW126384   6.786   5.097   2.117
 8495SOL    HW226385   6.657   5.009   2.068
 8496SOL     OW26386   1.486   1.558   2.846
 8496SOL    HW126387   1.521   1.564   2.753
 8496SOL    HW226388   1.480   1.462   2.874
 8497SOL     OW26389   6.840   0.931   3.813
 8497SOL    HW126390   6.760   0.895   3.861
 8497SOL    HW226391   6.856   0.877   3.730
 8498SOL     OW26392   6.279   6.437   3.318
 8498SOL    HW126393   6.278   6.504   3.244
 8498SOL    HW226394   6.244   6.479   3.402
 8499SOL     OW26395   2.083   4.165   6.320
 8499SOL    HW126396   2.094   4.218   6.404
 8499SOL    HW226397   2.074   4.068   6.342
 8500SOL     OW26398   1.504   5.891   5.499
 8500SOL    HW126399   1.544   5.800   5.487
 8500SOL    HW226400   1.574   5.961   5.488
 8501SOL     OW26401   0.185   3.018   5.905
 8501SOL    HW126402   0.183   2.934   5.851
 8501SOL    HW226403   0.172   3.096   5.845
 8502SOL     OW26404   0.266   3.423   1.612
 8502SOL    HW126405   0.232   3.359   1.681
 8502SOL    HW226406   0.198   3.494   1.596
 8503SOL     OW26407   0.524   5.218   4.713
 8503SOL    HW126408   0.447   5.265   4.756
 8503SOL    HW226409   0.490   5.136   4.666
 8504SOL     OW26410   2.219   5.105   2.278
 8504SOL    HW126411   2.261   5.018   2.304
 8504SOL    HW226412   2.286   5.162   2.231
 8505SOL     OW26413   6.634   3.581   2.961
 8505SOL    HW126414   6.706   3.572   2.893
 8505SOL    HW226415   6.547   3.553   2.922
 8506SOL     OW26416   0.993   1.297   0.257
 8506SOL    HW126417   0.906   1.333   0.291
 8506SOL    HW226418   0.976   1.223   0.192
 8507SOL     OW26419   3.442   6.832   4.756
 8507SOL    HW126420   3.492   6.816   4.841
 8507SOL    HW226421   3.348   6.799   4.764
 8508SOL     OW26422   4.951   1.861   4.317
 8508SOL    HW126423   4.854   1.888   4.312
 8508SOL    HW226424   5.006   1.929   4.268
 8509SOL     OW26425   4.852   1.448   3.488
 8509SOL    HW126426   4.794   1.526   3.512
 8509SOL    HW226427   4.804   1.363   3.511
 8510SOL     OW26428   5.884   4.606   2.861
 8510SOL    HW126429   5.801   4.602   2.917
 8510SOL    HW226430   5.959   4.646   2.915
 8511SOL     OW26431   6.317   4.221   2.558
 8511SOL    HW126432   6.274   4.259   2.476
 8511SOL    HW226433   6.333   4.294   2.624
 8512SOL     OW26434   2.680   0.874   2.914
 8512SOL    HW126435   2.607   0.877   2.846
 8512SOL    HW226436   2.768   0.879   2.868
 8513SOL     OW26437   6.751   5.567   0.662
 8513SOL    HW126438   6.710   5.530   0.745
 8513SOL    HW226439   6.833   5.619   0.685
 8514SOL     OW26440   1.901   1.599   3.669
 8514SOL    HW126441   1.860   1.526   3.615
 8514SOL    HW226442   1.898   1.684   3.617
 8515SOL     OW26443   4.828   2.654   1.215
 8515SOL    HW126444   4.757   2.669   1.146
 8515SOL    HW226445   4.907   2.610   1.172
 8516SOL     OW26446   0.581   1.683   1.901
 8516SOL    HW126447   0.523   1.682   1.819
 8516SOL    HW226448   0.523   1.690   1.982
 8517SOL     OW26449   0.614   2.988   5.418
 8517SOL    HW126450   0.699   2.944   5.392
 8517SOL    HW226451   0.628   3.042   5.501
 8518SOL     OW26452   4.784   3.741   0.221
 8518SOL    HW126453   4.866   3.724   0.275
 8518SOL    HW226454   4.708   3.688   0.259
 8519SOL     OW26455   1.755   5.243   1.887
 8519SOL    HW126456   1.718   5.326   1.929
 8519SOL    HW226457   1.782   5.262   1.793
 8520SOL     OW26458   3.628   1.449   1.165
 8520SOL    HW126459   3.704   1.436   1.101
 8520SOL    HW226460   3.597   1.359   1.197
 8521SOL     OW26461   1.882   5.106   5.891
 8521SOL    HW126462   1.911   5.102   5.796
 8521SOL    HW226463   1.948   5.055   5.947
 8522SOL     OW26464   1.253   6.091   1.633
 8522SOL    HW126465   1.189   6.154   1.678
 8522SOL    HW226466   1.340   6.137   1.617
 8523SOL     OW26467   3.460   6.507   6.402
 8523SOL    HW126468   3.511   6.590   6.378
 8523SOL    HW226469   3.413   6.473   6.320
 8524SOL     OW26470   1.162   1.801   4.863
 8524SOL    HW126471   1.072   1.794   4.906
 8524SOL    HW226472   1.154   1.848   4.775
 8525SOL     OW26473   6.243   4.192   2.885
 8525SOL    HW126474   6.157   4.238   2.866
 8525SOL    HW226475   6.304   4.254   2.935
 8526SOL     OW26476   3.311   4.278   0.903
 8526SOL    HW126477   3.270   4.187   0.889
 8526SOL    HW226478   3.367   4.277   0.986
 8527SOL     OW26479   3.112   6.947   5.008
 8527SOL    HW126480   3.024   6.949   5.056
 8527SOL    HW226481   3.108   7.007   4.928
 8528SOL     OW26482   5.150   2.815   5.935
 8528SOL    HW126483   5.168   2.777   6.025
 8528SOL    HW226484   5.209   2.770   5.867
 8529SOL     OW26485   0.970   0.187   7.000
 8529SOL    HW126486   0.956   0.087   7.000
 8529SOL    HW226487   0.892   0.231   0.025
 8530SOL     OW26488   1.972   3.889   5.600
 8530SOL    HW126489   1.895   3.843   5.556
 8530SOL    HW226490   2.022   3.943   5.533
 8531SOL     OW26491   5.800   4.262   2.419
 8531SOL    HW126492   5.806   4.307   2.330
 8531SOL    HW226493   5.759   4.171   2.407
 8532SOL     OW26494   4.014   4.905   4.544
 8532SOL    HW126495   4.114   4.917   4.549
 8532SOL    HW226496   3.975   4.974   4.484
 8533SOL     OW26497   1.993   6.861   6.027
 8533SOL    HW126498   2.085   6.897   6.010
 8533SOL    HW226499   1.992   6.814   6.116
 8534SOL     OW26500   0.045   3.735   3.741
 8534SOL    HW126501   7.010   3.818   3.753
 8534SOL    HW226502   0.011   3.664   3.804
 8535SOL     OW26503   0.389   1.806   5.298
 8535SOL    HW126504   0.474   1.763   5.269
 8535SOL    HW226505   0.360   1.871   5.228
 8536SOL     OW26506   5.873   1.666   4.670
 8536SOL    HW126507   5.851   1.756   4.632
 8536SOL    HW226508   5.917   1.611   4.599
 8537SOL     OW26509   5.685   1.153   2.011
 8537SOL    HW126510   5.708   1.056   2.014
 8537SOL    HW226511   5.587   1.164   1.990
 8538SOL     OW26512   0.688   1.411   5.110
 8538SOL    HW126513   0.786   1.407   5.129
 8538SOL    HW226514   0.666   1.353   5.032
 8539SOL     OW26515   6.721   2.094   2.038
 8539SOL    HW126516   6.683   2.004   2.015
 8539SOL    HW226517   6.687   2.124   2.127
 8540SOL     OW26518   3.401   1.445   0.219
 8540SOL    HW126519   3.325   1.399   0.265
 8540SOL    HW226520   3.380   1.543   0.212
 8541SOL     OW26521   3.062   1.990   4.321
 8541SOL    HW126522   2.970   1.954   4.338
 8541SOL    HW226523   3.129   1.916   4.332
 8542SOL     OW26524   2.896   4.551   6.152
 8542SOL    HW126525   2.877   4.478   6.087
 8542SOL    HW226526   2.850   4.635   6.122
 8543SOL     OW26527   2.865   1.394   6.100
 8543SOL    HW126528   2.785   1.443   6.064
 8543SOL    HW226529   2.839   1.300   6.122
 8544SOL     OW26530   5.462   2.678   4.577
 8544SOL    HW126531   5.513   2.696   4.493
 8544SOL    HW226532   5.380   2.735   4.578
 8545SOL     OW26533   4.008   6.863   4.663
 8545SOL    HW126534   4.038   6.952   4.700
 8545SOL    HW226535   3.953   6.816   4.732
 8546SOL     OW26536   6.888   6.961   2.175
 8546SOL    HW126537   6.836   6.949   2.091
 8546SOL    HW226538   6.983   6.985   2.152
 8547SOL     OW26539   0.989   6.839   6.078
 8547SOL    HW126540   0.944   6.917   6.122
 8547SOL    HW226541   0.929   6.802   6.007
 8548SOL     OW26542   6.698   3.729   5.594
 8548SOL    HW126543   6.631   3.684   5.653
 8548SOL    HW226544   6.779   3.672   5.585
 8549SOL     OW26545   0.891   2.628   4.632
 8549SOL    HW126546   0.857   2.667   4.718
 8549SOL    HW226547   0.957   2.556   4.652
 8550SOL     OW26548   1.395   4.691   0.140
 8550SOL    HW126549   1.434   4.779   0.114
 8550SOL    HW226550   1.450   4.649   0.212
 8551SOL     OW26551   2.773   2.909   0.007
 8551SOL    HW126552   2.830   2.943   0.081
 8551SOL    HW226553   2.827   2.848   6.969
 8552SOL     OW26554   1.906   0.549   3.072
 8552SOL    HW126555   1.839   0.536   2.998
 8552SOL    HW226556   1.861   0.591   3.150
 8553SOL     OW26557   4.449   4.086   6.699
 8553SOL    HW126558   4.413   4.178   6.716
 8553SOL    HW226559   4.376   4.027   6.666
 8554SOL     OW26560   0.118   5.649   0.781
 8554SOL    HW126561   0.174   5.579   0.736
 8554SOL    HW226562   0.092   5.616   0.872
 8555SOL     OW26563   3.880   1.543   3.506
 8555SOL    HW126564   3.809   1.496   3.453
 8555SOL    HW226565   3.940   1.475   3.548
 8556SOL     OW26566   2.206   6.212   5.154
 8556SOL    HW126567   2.112   6.196   5.126
 8556SOL    HW226568   2.263   6.225   5.073
 8557SOL     OW26569   6.613   0.219   2.073
 8557SOL    HW126570   6.633   0.279   2.150
 8557SOL    HW226571   6.520   0.236   2.040
 8558SOL     OW26572   2.072   5.389   2.985
 8558SOL    HW126573   2.031   5.426   3.068
 8558SOL    HW226574   2.148   5.448   2.955
 8559SOL     OW26575   2.034   6.720   2.561
 8559SOL    HW126576   2.058   6.679   2.473
 8559SOL    HW226577   2.090   6.802   2.575
 8560SOL     OW26578   1.189   5.474   2.014
 8560SOL    HW126579   1.117   5.518   1.961
 8560SOL    HW226580   1.216   5.533   2.090
 8561SOL     OW26581   3.243   6.989   3.381
 8561SOL    HW126582   3.324   6.932   3.368
 8561SOL    HW226583   3.212   0.004   3.293
 8562SOL     OW26584   3.414   6.381   6.878
 8562SOL    HW126585   3.418   6.458   6.941
 8562SOL    HW226586   3.423   6.414   6.784
 8563SOL     OW26587   0.899   5.205   1.970
 8563SOL    HW126588   0.969   5.249   2.026
 8563SOL    HW226589   0.942   5.146   1.902
 8564SOL     OW26590   3.305   6.631   5.692
 8564SOL    HW126591   3.319   6.639   5.791
 8564SOL    HW226592   3.248   6.706   5.660
 8565SOL     OW26593   3.391   4.819   1.248
 8565SOL    HW126594   3.336   4.791   1.169
 8565SOL    HW226595   3.379   4.754   1.322
 8566SOL     OW26596   1.076   0.423   1.513
 8566SOL    HW126597   1.034   0.440   1.602
 8566SOL    HW226598   1.021   0.466   1.441
 8567SOL     OW26599   0.953   2.111   1.933
 8567SOL    HW126600   0.922   2.080   2.023
 8567SOL    HW226601   1.033   2.057   1.905
 8568SOL     OW26602   5.399   2.089   0.459
 8568SOL    HW126603   5.479   2.034   0.438
 8568SOL    HW226604   5.425   2.185   0.466
 8569SOL     OW26605   5.464   1.692   5.317
 8569SOL    HW126606   5.544   1.667   5.371
 8569SOL    HW226607   5.491   1.750   5.240
 8570SOL     OW26608   1.118   1.429   4.247
 8570SOL    HW126609   1.164   1.345   4.217
 8570SOL    HW226610   1.028   1.435   4.204
 8571SOL     OW26611   0.837   6.377   5.321
 8571SOL    HW126612   0.880   6.301   5.272
 8571SOL    HW226613   0.752   6.346   5.364
 8572SOL     OW26614   1.593   4.391   5.418
 8572SOL    HW126615   1.622   4.298   5.396
 8572SOL    HW226616   1.623   4.416   5.510
 8573SOL     OW26617   3.311   5.807   6.174
 8573SOL    HW126618   3.283   5.785   6.268
 8573SOL    HW226619   3.236   5.854   6.128
 8574SOL     OW26620   5.866   0.284   6.285
 8574SOL    HW126621   5.839   0.356   6.222
 8574SOL    HW226622   5.807   0.285   6.365
 8575SOL     OW26623   2.841   1.989   3.518
 8575SOL    HW126624   2.869   2.028   3.606
 8575SOL    HW226625   2.765   2.042   3.481
 8576SOL     OW26626   1.722   4.820   4.162
 8576SOL    HW126627   1.622   4.813   4.164
 8576SOL    HW226628   1.761   4.768   4.237
 8577SOL     OW26629   1.601   0.260   6.019
 8577SOL    HW126630   1.650   0.226   5.939
 8577SOL    HW226631   1.504   0.271   5.997
 8578SOL     OW26632   6.733   5.105   5.398
 8578SOL    HW126633   6.779   5.113   5.486
 8578SOL    HW226634   6.635   5.124   5.410
 8579SOL     OW26635   1.608   6.297   2.159
 8579SOL    HW126636   1.705   6.321   2.166
 8579SOL    HW226637   1.563   6.310   2.247
 8580SOL     OW26638   1.718   5.837   0.825
 8580SOL    HW126639   1.644   5.790   0.776
 8580SOL    HW226640   1.736   5.925   0.781
 8581SOL     OW26641   3.341   4.434   1.346
 8581SOL    HW126642   3.424   4.397   1.389
 8581SOL    HW226643   3.261   4.402   1.398
 8582SOL     OW26644   4.793   4.654   5.222
 8582SOL    HW126645   4.856   4.593   5.174
 8582SOL    HW226646   4.700   4.640   5.188
 8583SOL     OW26647   3.898   6.874   3.522
 8583SOL    HW126648   3.839   6.797   3.547
 8583SOL    HW226649   3.841   6.951   3.493
 8584SOL     OW26650   1.140   6.273   5.509
 8584SOL    HW126651   1.098   6.361   5.533
 8584SOL    HW226652   1.098   6.237   5.426
 8585SOL     OW26653   6.019   1.062   0.721
 8585SOL    HW126654   5.951   1.030   0.787
 8585SOL    HW226655   6.079   0.986   0.695
 8586SOL     OW26656   3.387   6.968   1.338
 8586SOL    HW126657   3.330   0.029   1.328
 8586SOL    HW226658   3.482   6.995   1.348
 8587SOL     OW26659   0.900   1.219   4.758
 8587SOL    HW126660   0.810   1.264   4.761
 8587SOL    HW226661   0.925   1.190   4.850
 8588SOL     OW26662   4.570   1.166   6.839
 8588SOL    HW126663   4.643   1.231   6.818
 8588SOL    HW226664   4.486   1.216   6.860
 8589SOL     OW26665   6.338   2.840   4.816
 8589SOL    HW126666   6.395   2.758   4.822
 8589SOL    HW226667   6.342   2.877   4.723
 8590SOL     OW26668   0.691   0.491   2.411
 8590SOL    HW126669   0.729   0.582   2.397
 8590SOL    HW226670   0.594   0.491   2.385
 8591SOL     OW26671   0.211   4.084   0.218
 8591SOL    HW126672   0.237   4.078   0.122
 8591SOL    HW226673   0.114   4.105   0.225
 8592SOL     OW26674   5.802   1.814   0.113
 8592SOL    HW126675   5.757   1.852   0.033
 8592SOL    HW226676   5.806   1.883   0.185
 8593SOL     OW26677   3.024   0.935   6.663
 8593SOL    HW126678   3.122   0.922   6.682
 8593SOL    HW226679   2.974   0.854   6.694
 8594SOL     OW26680   5.781   2.032   5.760
 8594SOL    HW126681   5.818   2.003   5.672
 8594SOL    HW226682   5.844   2.096   5.803
 8595SOL     OW26683   6.352   1.228   4.052
 8595SOL    HW126684   6.256   1.257   4.046
 8595SOL    HW226685   6.411   1.308   4.051
 8596SOL     OW26686   1.304   4.934   2.881
 8596SOL    HW126687   1.274   4.943   2.975
 8596SOL    HW226688   1.384   4.874   2.877
 8597SOL     OW26689   5.393   2.291   1.828
 8597SOL    HW126690   5.355   2.382   1.843
 8597SOL    HW226691   5.345   2.246   1.752
 8598SOL     OW26692   5.622   0.282   6.478
 8598SOL    HW126693   5.621   0.320   6.570
 8598SOL    HW226694   5.632   0.183   6.483
 8599SOL     OW26695   1.849   2.657   4.888
 8599SOL    HW126696   1.828   2.583   4.825
 8599SOL    HW226697   1.840   2.625   4.983
 8600SOL     OW26698   5.150   3.885   0.132
 8600SOL    HW126699   5.129   3.847   0.042
 8600SOL    HW226700   5.102   3.834   0.202
 8601SOL     OW26701   0.708   2.084   3.810
 8601SOL    HW126702   0.631   2.112   3.867
 8601SOL    HW226703   0.756   2.165   3.776
 8602SOL     OW26704   2.548   7.018   2.312
 8602SOL    HW126705   2.480   0.034   2.249
 8602SOL    HW226706   2.552   6.918   2.304
 8603SOL     OW26707   5.084   0.051   1.126
 8603SOL    HW126708   5.169   0.033   1.076
 8603SOL    HW226709   5.090   0.011   1.218
 8604SOL     OW26710   1.511   2.274   6.218
 8604SOL    HW126711   1.492   2.370   6.199
 8604SOL    HW226712   1.426   2.225   6.235
 8605SOL     OW26713   2.369   5.339   3.664
 8605SOL    HW126714   2.276   5.306   3.650
 8605SOL    HW226715   2.401   5.310   3.755
 8606SOL     OW26716   2.108   2.949   0.002
 8606SOL    HW126717   2.157   3.014   0.059
 8606SOL    HW226718   2.109   2.859   0.045
 8607SOL     OW26719   2.734   4.789   6.058
 8607SOL    HW126720   2.681   4.873   6.073
 8607SOL    HW226721   2.674   4.719   6.018
 8608SOL     OW26722   2.275   4.738   2.692
 8608SOL    HW126723   2.321   4.662   2.738
 8608SOL    HW226724   2.285   4.821   2.747
 8609SOL     OW26725   4.866   0.916   3.208
 8609SOL    HW126726   4.871   1.000   3.262
 8609SOL    HW226727   4.944   0.913   3.145
 8610SOL     OW26728   0.402   1.113   2.559
 8610SOL    HW126729   0.428   1.042   2.624
 8610SOL    HW226730   0.307   1.139   2.573
 8611SOL     OW26731   2.933   1.410   4.077
 8611SOL    HW126732   2.937   1.364   3.988
 8611SOL    HW226733   3.006   1.478   4.084
 8612SOL     OW26734   3.096   3.142   1.376
 8612SOL    HW126735   3.010   3.114   1.333
 8612SOL    HW226736   3.084   3.232   1.418
 8613SOL     OW26737   2.934   1.823   1.939
 8613SOL    HW126738   2.880   1.888   1.885
 8613SOL    HW226739   2.896   1.817   2.031
 8614SOL     OW26740   0.954   3.089   3.665
 8614SOL    HW126741   1.013   3.071   3.586
 8614SOL    HW226742   0.979   3.177   3.706
 8615SOL     OW26743   4.226   1.870   5.074
 8615SOL    HW126744   4.199   1.844   5.166
 8615SOL    HW226745   4.183   1.957   5.050
 8616SOL     OW26746   3.074   4.842   2.007
 8616SOL    HW126747   3.031   4.909   2.067
 8616SOL    HW226748   3.020   4.758   2.007
 8617SOL     OW26749   5.878   1.188   4.237
 8617SOL    HW126750   5.900   1.161   4.144
 8617SOL    HW226751   5.944   1.149   4.300
 8618SOL     OW26752   6.422   5.099   1.401
 8618SOL    HW126753   6.491   5.027   1.395
 8618SOL    HW226754   6.411   5.143   1.311
 8619SOL     OW26755   4.410   5.269   2.360
 8619SOL    HW126756   4.340   5.341   2.367
 8619SOL    HW226757   4.388   5.195   2.423
 8620SOL     OW26758   1.875   5.853   3.377
 8620SOL    HW126759   1.829   5.844   3.289
 8620SOL    HW226760   1.869   5.948   3.408
 8621SOL     OW26761   5.037   2.712   2.262
 8621SOL    HW126762   4.963   2.750   2.207
 8621SOL    HW226763   5.027   2.742   2.357
 8622SOL     OW26764   4.975   4.181   1.346
 8622SOL    HW126765   4.919   4.200   1.426
 8622SOL    HW226766   4.982   4.263   1.290
 8623SOL     OW26767   1.113   4.255   5.551
 8623SOL    HW126768   1.030   4.307   5.528
 8623SOL    HW226769   1.152   4.216   5.468
 8624SOL     OW26770   1.990   3.738   5.247
 8624SOL    HW126771   1.982   3.647   5.205
 8624SOL    HW226772   2.085   3.753   5.275
 8625SOL     OW26773   5.030   1.030   5.566
 8625SOL    HW126774   4.984   1.119   5.559
 8625SOL    HW226775   5.125   1.040   5.536
 8626SOL     OW26776   3.967   2.249   6.895
 8626SOL    HW126777   3.892   2.315   6.883
 8626SOL    HW226778   3.936   2.174   6.954
 8627SOL     OW26779   2.036   1.597   2.123
 8627SOL    HW126780   1.995   1.676   2.168
 8627SOL    HW226781   2.036   1.611   2.024
 8628SOL     OW26782   6.064   6.457   0.691
 8628SOL    HW126783   6.115   6.375   0.667
 8628SOL    HW226784   6.084   6.529   0.624
 8629SOL     OW26785   1.622   6.483   5.241
 8629SOL    HW126786   1.610   6.384   5.250
 8629SOL    HW226787   1.535   6.524   5.213
 8630SOL     OW26788   5.082   3.127   3.611
 8630SOL    HW126789   4.995   3.077   3.606
 8630SOL    HW226790   5.070   3.210   3.665
 8631SOL     OW26791   0.937   5.492   6.191
 8631SOL    HW126792   0.930   5.414   6.129
 8631SOL    HW226793   1.030   5.496   6.229
 8632SOL     OW26794   4.160   4.972   5.344
 8632SOL    HW126795   4.212   4.917   5.279
 8632SOL    HW226796   4.115   4.912   5.410
 8633SOL     OW26797   5.859   2.702   6.262
 8633SOL    HW126798   5.882   2.763   6.338
 8633SOL    HW226799   5.759   2.702   6.249
 8634SOL     OW26800   5.010   4.094   6.898
 8634SOL    HW126801   4.961   4.010   6.924
 8634SOL    HW226802   5.085   4.110   6.963
 8635SOL     OW26803   5.379   2.973   6.772
 8635SOL    HW126804   5.409   3.064   6.741
 8635SOL    HW226805   5.420   2.954   6.861
 8636SOL     OW26806   5.668   6.418   0.873
 8636SOL    HW126807   5.721   6.371   0.803
 8636SOL    HW226808   5.664   6.515   0.852
 8637SOL     OW26809   1.766   1.638   6.614
 8637SOL    HW126810   1.762   1.545   6.576
 8637SOL    HW226811   1.685   1.654   6.670
 8638SOL     OW26812   4.153   2.139   4.969
 8638SOL    HW126813   4.122   2.095   4.885
 8638SOL    HW226814   4.212   2.216   4.946
 8639SOL     OW26815   5.366   2.947   0.043
 8639SOL    HW126816   5.284   2.959   0.099
 8639SOL    HW226817   5.411   2.861   0.067
 8640SOL     OW26818   3.810   3.307   6.878
 8640SOL    HW126819   3.818   3.236   6.809
 8640SOL    HW226820   3.767   3.388   6.837
 8641SOL     OW26821   3.981   4.809   4.211
 8641SOL    HW126822   3.943   4.897   4.240
 8641SOL    HW226823   3.943   4.736   4.267
 8642SOL     OW26824   1.131   6.540   4.081
 8642SOL    HW126825   1.165   6.457   4.037
 8642SOL    HW226826   1.158   6.541   4.177
 8643SOL     OW26827   1.849   0.774   7.012
 8643SOL    HW126828   1.831   0.747   0.087
 8643SOL    HW226829   1.800   0.712   6.950
 8644SOL     OW26830   5.787   2.415   6.017
 8644SOL    HW126831   5.821   2.370   6.100
 8644SOL    HW226832   5.858   2.410   5.946
 8645SOL     OW26833   4.349   4.706   1.324
 8645SOL    HW126834   4.448   4.717   1.327
 8645SOL    HW226835   4.325   4.648   1.247
 8646SOL     OW26836   0.194   2.210   6.721
 8646SOL    HW126837   0.288   2.242   6.722
 8646SOL    HW226838   0.139   2.263   6.785
 8647SOL     OW26839   2.714   4.454   6.902
 8647SOL    HW126840   2.761   4.538   6.875
 8647SOL    HW226841   2.659   4.420   6.825
 8648SOL     OW26842   6.881   0.192   2.653
 8648SOL    HW126843   6.880   0.201   2.553
 8648SOL    HW226844   6.971   0.218   2.688
 8649SOL     OW26845   5.709   5.734   6.884
 8649SOL    HW126846   5.675   5.824   6.911
 8649SOL    HW226847   5.651   5.696   6.812
 8650SOL     OW26848   1.580   6.225   5.288
 8650SOL    HW126849   1.561   6.192   5.196
 8650SOL    HW226850   1.616   6.151   5.344
 8651SOL     OW26851   4.010   0.511   0.565
 8651SOL    HW126852   4.021   0.593   0.622
 8651SOL    HW226853   3.917   0.476   0.575
 8652SOL     OW26854   1.106   5.017   3.100
 8652SOL    HW126855   1.088   5.054   3.191
 8652SOL    HW226856   1.025   4.968   3.067
 8653SOL     OW26857   0.123   0.949   6.578
 8653SOL    HW126858   0.127   0.982   6.483
 8653SOL    HW226859   0.070   1.013   6.634
 8654SOL     OW26860   0.641   5.080   1.428
 8654SOL    HW126861   0.622   4.990   1.388
 8654SOL    HW226862   0.574   5.098   1.501
 8655SOL     OW26863   5.839   0.469   4.492
 8655SOL    HW126864   5.914   0.454   4.556
 8655SOL    HW226865   5.875   0.464   4.398
 8656SOL     OW26866   6.722   0.627   2.049
 8656SOL    HW126867   6.718   0.618   1.950
 8656SOL    HW226868   6.754   0.719   2.073
 8657SOL     OW26869   5.360   6.028   0.126
 8657SOL    HW126870   5.357   5.955   0.194
 8657SOL    HW226871   5.274   6.032   0.077
 8658SOL     OW26872   6.282   6.325   0.306
 8658SOL    HW126873   6.333   6.380   0.239
 8658SOL    HW226874   6.296   6.363   0.397
 8659SOL     OW26875   4.876   2.633   2.555
 8659SOL    HW126876   4.899   2.683   2.638
 8659SOL    HW226877   4.936   2.553   2.546
 8660SOL     OW26878   6.578   3.943   1.774
 8660SOL    HW126879   6.486   3.905   1.774
 8660SOL    HW226880   6.610   3.954   1.679
 8661SOL     OW26881   6.395   3.913   1.311
 8661SOL    HW126882   6.388   3.842   1.381
 8661SOL    HW226883   6.398   3.870   1.221
 8662SOL     OW26884   4.357   5.610   1.700
 8662SOL    HW126885   4.398   5.547   1.766
 8662SOL    HW226886   4.264   5.581   1.680
 8663SOL     OW26887   2.267   5.596   2.100
 8663SOL    HW126888   2.228   5.654   2.171
 8663SOL    HW226889   2.193   5.546   2.054
 8664SOL     OW26890   2.366   4.947   1.370
 8664SOL    HW126891   2.395   5.011   1.298
 8664SOL    HW226892   2.308   4.995   1.435
 8665SOL     OW26893   5.708   5.437   5.051
 8665SOL    HW126894   5.795   5.433   5.000
 8665SOL    HW226895   5.632   5.420   4.988
 8666SOL     OW26896   5.673   0.928   3.836
 8666SOL    HW126897   5.746   0.918   3.904
 8666SOL    HW226898   5.713   0.952   3.747
 8667SOL     OW26899   4.663   1.986   4.318
 8667SOL    HW126900   4.649   1.939   4.231
 8667SOL    HW226901   4.614   1.937   4.391
 8668SOL     OW26902   5.397   3.776   3.939
 8668SOL    HW126903   5.463   3.743   3.872
 8668SOL    HW226904   5.425   3.866   3.972
 8669SOL     OW26905   0.358   6.377   6.705
 8669SOL    HW126906   0.457   6.385   6.712
 8669SOL    HW226907   0.321   6.457   6.658
 8670SOL     OW26908   4.068   5.401   6.349
 8670SOL    HW126909   4.063   5.486   6.402
 8670SOL    HW226910   4.161   5.363   6.356
 8671SOL     OW26911   0.123   1.382   3.359
 8671SOL    HW126912   0.126   1.381   3.459
 8671SOL    HW226913   0.064   1.457   3.328
 8672SOL     OW26914   0.579   5.869   3.763
 8672SOL    HW126915   0.485   5.875   3.797
 8672SOL    HW226916   0.641   5.907   3.831
 8673SOL     OW26917   5.861   1.445   0.452
 8673SOL    HW126918   5.839   1.369   0.514
 8673SOL    HW226919   5.788   1.453   0.383
 8674SOL     OW26920   5.544   5.435   3.179
 8674SOL    HW126921   5.564   5.365   3.110
 8674SOL    HW226922   5.576   5.404   3.268
 8675SOL     OW26923   4.063   1.385   5.053
 8675SOL    HW126924   4.113   1.348   5.131
 8675SOL    HW226925   4.073   1.484   5.051
 8676SOL     OW26926   4.872   6.634   3.277
 8676SOL    HW126927   4.828   6.686   3.351
 8676SOL    HW226928   4.968   6.619   3.301
 8677SOL     OW26929   1.935   5.718   5.780
 8677SOL    HW126930   2.003   5.662   5.731
 8677SOL    HW226931   1.847   5.670   5.781
 8678SOL     OW26932   1.135   7.017   0.594
 8678SOL    HW126933   1.077   7.015   0.676
 8678SOL    HW226934   1.078   7.004   0.513
 8679SOL     OW26935   1.110   1.257   3.467
 8679SOL    HW126936   1.105   1.162   3.437
 8679SOL    HW226937   1.193   1.300   3.431
 8680SOL     OW26938   6.410   3.886   0.085
 8680SOL    HW126939   6.415   3.971   0.137
 8680SOL    HW226940   6.350   3.821   0.132
 8681SOL     OW26941   4.786   5.504   1.479
 8681SOL    HW126942   4.757   5.513   1.575
 8681SOL    HW226943   4.715   5.539   1.419
 8682SOL     OW26944   6.040   0.088   2.751
 8682SOL    HW126945   6.104   0.047   2.816
 8682SOL    HW226946   5.954   0.037   2.753
 8683SOL     OW26947   1.586   2.028   5.390
 8683SOL    HW126948   1.657   2.083   5.345
 8683SOL    HW226949   1.589   1.935   5.355
 8684SOL     OW26950   5.826   3.234   4.240
 8684SOL    HW126951   5.761   3.174   4.195
 8684SOL    HW226952   5.853   3.308   4.178
 8685SOL     OW26953   6.315   3.029   6.489
 8685SOL    HW126954   6.215   3.029   6.490
 8685SOL    HW226955   6.349   3.001   6.578
 8686SOL     OW26956   0.111   0.796   1.926
 8686SOL    HW126957   0.189   0.830   1.978
 8686SOL    HW226958   0.026   0.824   1.971
 8687SOL     OW26959   5.108   5.413   3.078
 8687SOL    HW126960   5.139   5.492   3.025
 8687SOL    HW226961   5.161   5.406   3.162
 8688SOL     OW26962   1.321   5.299   6.856
 8688SOL    HW126963   1.357   5.205   6.855
 8688SOL    HW226964   1.282   5.319   6.946
 8689SOL     OW26965   4.126   2.359   0.471
 8689SOL    HW126966   4.115   2.366   0.570
 8689SOL    HW226967   4.181   2.435   0.438
 8690SOL     OW26968   1.319   3.631   4.469
 8690SOL    HW126969   1.372   3.548   4.486
 8690SOL    HW226970   1.243   3.610   4.407
 8691SOL     OW26971   4.154   1.995   5.981
 8691SOL    HW126972   4.187   2.078   6.027
 8691SOL    HW226973   4.201   1.915   6.019
 8692SOL     OW26974   3.399   0.753   4.372
 8692SOL    HW126975   3.484   0.711   4.342
 8692SOL    HW226976   3.417   0.813   4.451
 8693SOL     OW26977   5.850   0.350   0.287
 8693SOL    HW126978   5.833   0.278   0.355
 8693SOL    HW226979   5.807   0.435   0.317
 8694SOL     OW26980   5.528   1.522   4.566
 8694SOL    HW126981   5.527   1.489   4.661
 8694SOL    HW226982   5.474   1.460   4.509
 8695SOL     OW26983   4.373   3.154   6.400
 8695SOL    HW126984   4.317   3.169   6.482
 8695SOL    HW226985   4.314   3.124   6.325
 8696SOL     OW26986   2.871   5.525   5.411
 8696SOL    HW126987   2.900   5.598   5.349
 8696SOL    HW226988   2.916   5.440   5.385
 8697SOL     OW26989   0.636   4.377   6.644
 8697SOL    HW126990   0.665   4.297   6.696
 8697SOL    HW226991   0.548   4.409   6.678
 8698SOL     OW26992   4.598   5.939   4.764
 8698SOL    HW126993   4.582   5.943   4.863
 8698SOL    HW226994   4.696   5.928   4.747
 8699SOL     OW26995   1.532   3.191   4.860
 8699SOL    HW126996   1.585   3.232   4.934
 8699SOL    HW226997   1.588   3.125   4.810
 8700SOL     OW26998   0.768   0.478   4.799
 8700SOL    HW126999   0.799   0.557   4.850
 8700SOL    HW227000   0.846   0.433   4.756
 8701SOL     OW27001   1.798   1.141   0.621
 8701SOL    HW127002   1.870   1.154   0.689
 8701SOL    HW227003   1.733   1.217   0.627
 8702SOL     OW27004   5.469   5.128   1.669
 8702SOL    HW127005   5.424   5.063   1.731
 8702SOL    HW227006   5.402   5.164   1.604
 8703SOL     OW27007   3.081   4.497   6.821
 8703SOL    HW127008   3.080   4.400   6.844
 8703SOL    HW227009   2.990   4.537   6.839
 8704SOL     OW27010   0.415   4.500   3.449
 8704SOL    HW127011   0.350   4.482   3.376
 8704SOL    HW227012   0.504   4.462   3.424
 8705SOL     OW27013   4.941   1.907   6.292
 8705SOL    HW127014   5.010   1.975   6.269
 8705SOL    HW227015   4.949   1.883   6.389
 8706SOL     OW27016   4.635   2.144   0.215
 8706SOL    HW127017   4.724   2.163   0.256
 8706SOL    HW227018   4.637   2.056   0.169
 8707SOL     OW27019   0.860   2.164   4.682
 8707SOL    HW127020   0.875   2.150   4.584
 8707SOL    HW227021   0.948   2.185   4.726
 8708SOL     OW27022   3.995   1.994   3.502
 8708SOL    HW127023   4.065   2.044   3.451
 8708SOL    HW227024   3.990   1.900   3.469
 8709SOL     OW27025   6.398   6.664   6.788
 8709SOL    HW127026   6.489   6.704   6.799
 8709SOL    HW227027   6.337   6.731   6.745
 8710SOL     OW27028   2.044   2.716   3.724
 8710SOL    HW127029   1.960   2.676   3.762
 8710SOL    HW227030   2.104   2.643   3.693
 8711SOL     OW27031   2.230   6.254   2.995
 8711SOL    HW127032   2.314   6.205   2.974
 8711SOL    HW227033   2.247   6.320   3.068
 8712SOL     OW27034   3.374   1.635   4.407
 8712SOL    HW127035   3.450   1.583   4.369
 8712SOL    HW227036   3.407   1.724   4.440
 8713SOL     OW27037   6.858   3.353   1.653
 8713SOL    HW127038   6.870   3.271   1.708
 8713SOL    HW227039   6.823   3.427   1.710
 8714SOL     OW27040   1.537   0.558   5.608
 8714SOL    HW127041   1.445   0.532   5.638
 8714SOL    HW227042   1.587   0.596   5.686
 8715SOL     OW27043   3.650   0.845   0.298
 8715SOL    HW127044   3.637   0.944   0.305
 8715SOL    HW227045   3.597   0.800   0.370
 8716SOL     OW27046   0.313   6.405   0.006
 8716SOL    HW127047   0.263   6.488   7.003
 8716SOL    HW227048   0.307   6.340   6.950
 8717SOL     OW27049   2.734   3.570   5.321
 8717SOL    HW127050   2.647   3.616   5.339
 8717SOL    HW227051   2.792   3.577   5.402
 8718SOL     OW27052   1.387   2.549   6.263
 8718SOL    HW127053   1.468   2.572   6.317
 8718SOL    HW227054   1.354   2.631   6.216
 8719SOL     OW27055   3.496   7.016   6.929
 8719SOL    HW127056   3.580   0.002   6.983
 8719SOL    HW227057   3.448   0.083   6.933
 8720SOL     OW27058   1.155   6.582   5.857
 8720SOL    HW127059   1.199   6.646   5.921
 8720SOL    HW227060   1.225   6.527   5.812
 8721SOL     OW27061   6.434   1.538   1.024
 8721SOL    HW127062   6.409   1.610   0.959
 8721SOL    HW227063   6.351   1.500   1.065
 8722SOL     OW27064   3.343   0.943   1.528
 8722SOL    HW127065   3.317   1.025   1.580
 8722SOL    HW227066   3.376   0.970   1.437
 8723SOL     OW27067   4.956   0.059   1.730
 8723SOL    HW127068   4.960   0.157   1.747
 8723SOL    HW227069   4.924   0.043   1.636
 8724SOL     OW27070   6.024   0.037   4.427
 8724SOL    HW127071   5.984   6.965   4.427
 8724SOL    HW227072   5.964   0.099   4.376
 8725SOL     OW27073   1.369   5.469   5.629
 8725SOL    HW127074   1.412   5.551   5.591
 8725SOL    HW227075   1.332   5.488   5.720
 8726SOL     OW27076   0.176   0.524   2.095
 8726SOL    HW127077   0.200   0.610   2.048
 8726SOL    HW227078   0.078   0.508   2.086
 8727SOL     OW27079   6.038   0.262   1.334
 8727SOL    HW127080   6.044   0.168   1.301
 8727SOL    HW227081   6.103   0.319   1.284
 8728SOL     OW27082   5.775   1.056   2.397
 8728SOL    HW127083   5.765   0.958   2.383
 8728SOL    HW227084   5.704   1.088   2.460
 8729SOL     OW27085   3.435   4.775   5.267
 8729SOL    HW127086   3.366   4.741   5.203
 8729SOL    HW227087   3.510   4.709   5.274
 8730SOL     OW27088   5.336   4.024   2.858
 8730SOL    HW127089   5.252   3.978   2.888
 8730SOL    HW227090   5.317   4.077   2.775
 8731SOL     OW27091   0.756   3.717   3.253
 8731SOL    HW127092   0.811   3.798   3.234
 8731SOL    HW227093   0.730   3.716   3.350
 8732SOL     OW27094   5.936   4.818   2.455
 8732SOL    HW127095   5.945   4.800   2.357
 8732SOL    HW227096   6.019   4.790   2.502
 8733SOL     OW27097   1.275   5.832   0.680
 8733SOL    HW127098   1.232   5.782   0.606
 8733SOL    HW227099   1.244   5.795   0.768
 8734SOL     OW27100   0.516   2.968   3.467
 8734SOL    HW127101   0.553   2.973   3.374
 8734SOL    HW227102   0.416   2.966   3.463
 8735SOL     OW27103   0.942   2.889   5.602
 8735SOL    HW127104   1.026   2.841   5.626
 8735SOL    HW227105   0.945   2.914   5.505
 8736SOL     OW27106   6.772   5.546   2.058
 8736SOL    HW127107   6.717   5.626   2.035
 8736SOL    HW227108   6.869   5.569   2.050
 8737SOL     OW27109   2.203   6.882   6.853
 8737SOL    HW127110   2.278   6.822   6.826
 8737SOL    HW227111   2.240   6.972   6.879
 8738SOL     OW27112   2.666   5.685   3.278
 8738SOL    HW127113   2.689   5.740   3.197
 8738SOL    HW227114   2.571   5.654   3.271
 8739SOL     OW27115   5.619   5.648   6.194
 8739SOL    HW127116   5.599   5.658   6.291
 8739SOL    HW227117   5.708   5.686   6.173
 8740SOL     OW27118   4.037   1.755   3.397
 8740SOL    HW127119   3.993   1.680   3.446
 8740SOL    HW227120   4.134   1.734   3.385
 8741SOL     OW27121   2.120   0.699   2.943
 8741SOL    HW127122   2.177   0.626   2.904
 8741SOL    HW227123   2.051   0.659   3.002
 8742SOL     OW27124   4.758   0.565   1.832
 8742SOL    HW127125   4.786   0.569   1.928
 8742SOL    HW227126   4.685   0.498   1.821
 8743SOL     OW27127   1.416   0.201   1.226
 8743SOL    HW127128   1.377   0.282   1.269
 8743SOL    HW227129   1.369   0.120   1.260
 8744SOL     OW27130   4.302   2.782   0.520
 8744SOL    HW127131   4.251   2.841   0.458
 8744SOL    HW227132   4.251   2.773   0.606
 8745SOL     OW27133   5.869   2.301   6.269
 8745SOL    HW127134   5.873   2.234   6.344
 8745SOL    HW227135   5.815   2.380   6.297
 8746SOL     OW27136   5.135   5.802   3.946
 8746SOL    HW127137   5.072   5.857   3.890
 8746SOL    HW227138   5.202   5.863   3.989
 8747SOL     OW27139   0.543   1.335   2.639
 8747SOL    HW127140   0.485   1.261   2.604
 8747SOL    HW227141   0.597   1.373   2.564
 8748SOL     OW27142   0.407   2.298   4.567
 8748SOL    HW127143   0.391   2.231   4.640
 8748SOL    HW227144   0.498   2.337   4.579
 8749SOL     OW27145   1.702   0.054   5.593
 8749SOL    HW127146   1.763   0.062   5.672
 8749SOL    HW227147   1.624   0.116   5.604
 8750SOL     OW27148   3.494   3.549   5.838
 8750SOL    HW127149   3.574   3.605   5.819
 8750SOL    HW227150   3.415   3.608   5.854
 8751SOL     OW27151   6.629   1.323   2.123
 8751SOL    HW127152   6.547   1.366   2.161
 8751SOL    HW227153   6.710   1.371   2.156
 8752SOL     OW27154   3.326   2.683   0.057
 8752SOL    HW127155   3.304   2.647   6.986
 8752SOL    HW227156   3.417   2.650   0.084
 8753SOL     OW27157   2.339   2.415   6.333
 8753SOL    HW127158   2.319   2.459   6.421
 8753SOL    HW227159   2.428   2.446   6.300
 8754SOL     OW27160   2.382   4.562   5.688
 8754SOL    HW127161   2.474   4.523   5.697
 8754SOL    HW227162   2.379   4.649   5.738
 8755SOL     OW27163   2.049   0.412   0.985
 8755SOL    HW127164   1.981   0.340   0.966
 8755SOL    HW227165   2.002   0.498   1.005
 8756SOL     OW27166   1.882   3.121   3.223
 8756SOL    HW127167   1.944   3.097   3.149
 8756SOL    HW227168   1.933   3.165   3.297
 8757SOL     OW27169   4.751   5.735   0.002
 8757SOL    HW127170   4.777   5.825   6.986
 8757SOL    HW227171   4.707   5.682   6.950
 8758SOL     OW27172   4.798   6.161   2.805
 8758SOL    HW127173   4.859   6.181   2.882
 8758SOL    HW227174   4.707   6.198   2.824
 8759SOL     OW27175   5.501   3.184   0.003
 8759SOL    HW127176   5.466   3.231   0.085
 8759SOL    HW227177   5.447   3.101   7.007
 8760SOL     OW27178   2.817   0.172   4.868
 8760SOL    HW127179   2.786   0.187   4.962
 8760SOL    HW227180   2.750   0.210   4.804
 8761SOL     OW27181   5.989   1.912   1.048
 8761SOL    HW127182   6.023   1.819   1.060
 8761SOL    HW227183   6.066   1.976   1.049
 8762SOL     OW27184   0.330   5.385   4.443
 8762SOL    HW127185   0.416   5.436   4.442
 8762SOL    HW227186   0.348   5.287   4.450
 8763SOL     OW27187   5.986   0.185   5.779
 8763SOL    HW127188   5.935   0.108   5.815
 8763SOL    HW227189   5.999   0.253   5.851
 8764SOL     OW27190   4.388   6.695   5.767
 8764SOL    HW127191   4.411   6.786   5.801
 8764SOL    HW227192   4.412   6.688   5.670
 8765SOL     OW27193   5.104   0.822   4.538
 8765SOL    HW127194   5.037   0.812   4.464
 8765SOL    HW227195   5.186   0.868   4.504
 8766SOL     OW27196   4.379   4.243   5.259
 8766SOL    HW127197   4.315   4.314   5.232
 8766SOL    HW227198   4.329   4.158   5.279
 8767SOL     OW27199   4.681   6.449   3.221
 8767SOL    HW127200   4.744   6.521   3.248
 8767SOL    HW227201   4.649   6.465   3.127
 8768SOL     OW27202   0.802   3.003   0.795
 8768SOL    HW127203   0.794   3.100   0.817
 8768SOL    HW227204   0.851   2.956   0.868
 8769SOL     OW27205   0.053   1.105   2.686
 8769SOL    HW127206   0.045   1.016   2.640
 8769SOL    HW227207   7.012   1.107   2.765
 8770SOL     OW27208   4.810   4.435   2.374
 8770SOL    HW127209   4.882   4.400   2.434
 8770SOL    HW227210   4.800   4.373   2.296
 8771SOL     OW27211   1.088   2.466   6.034
 8771SOL    HW127212   1.160   2.442   5.969
 8771SOL    HW227213   1.123   2.459   6.128
 8772SOL     OW27214   4.588   0.372   6.442
 8772SOL    HW127215   4.534   0.296   6.406
 8772SOL    HW227216   4.661   0.336   6.500
 8773SOL     OW27217   5.881   2.463   3.382
 8773SOL    HW127218   5.822   2.437   3.307
 8773SOL    HW227219   5.848   2.421   3.467
 8774SOL     OW27220   1.273   0.100   0.048
 8774SOL    HW127221   1.174   0.108   0.057
 8774SOL    HW227222   1.301   0.133   6.978
 8775SOL     OW27223   5.549   1.073   5.566
 8775SOL    HW127224   5.553   1.034   5.658
 8775SOL    HW227225   5.536   1.172   5.572
 8776SOL     OW27226   4.694   3.573   0.874
 8776SOL    HW127227   4.609   3.548   0.920
 8776SOL    HW227228   4.675   3.599   0.780
 8777SOL     OW27229   6.556   4.201   3.227
 8777SOL    HW127230   6.549   4.164   3.134
 8777SOL    HW227231   6.635   4.161   3.273
 8778SOL     OW27232   5.325   2.670   5.751
 8778SOL    HW127233   5.240   2.666   5.699
 8778SOL    HW227234   5.341   2.583   5.798
 8779SOL     OW27235   2.203   5.997   2.430
 8779SOL    HW127236   2.169   5.904   2.440
 8779SOL    HW227237   2.267   6.002   2.354
 8780SOL     OW27238   0.439   0.013   2.792
 8780SOL    HW127239   0.461   0.062   2.876
 8780SOL    HW227240   0.522   0.007   2.735
 8781SOL     OW27241   5.039   0.634   3.916
 8781SOL    HW127242   5.037   0.671   3.823
 8781SOL    HW227243   5.077   0.542   3.915
 8782SOL     OW27244   6.686   0.522   1.546
 8782SOL    HW127245   6.751   0.446   1.540
 8782SOL    HW227246   6.690   0.562   1.638
 8783SOL     OW27247   6.804   4.100   3.316
 8783SOL    HW127248   6.843   4.008   3.323
 8783SOL    HW227249   6.869   4.159   3.268
 8784SOL     OW27250   6.321   6.539   6.158
 8784SOL    HW127251   6.343   6.611   6.092
 8784SOL    HW227252   6.295   6.581   6.246
 8785SOL     OW27253   6.587   5.368   6.552
 8785SOL    HW127254   6.667   5.427   6.559
 8785SOL    HW227255   6.516   5.401   6.615
 8786SOL     OW27256   3.197   1.539   1.457
 8786SOL    HW127257   3.125   1.583   1.512
 8786SOL    HW227258   3.164   1.451   1.425
 8787SOL     OW27259   3.296   0.537   2.320
 8787SOL    HW127260   3.213   0.502   2.277
 8787SOL    HW227261   3.296   0.513   2.417
 8788SOL     OW27262   0.241   1.182   5.308
 8788SOL    HW127263   0.232   1.133   5.395
 8788SOL    HW227264   0.162   1.162   5.251
 8789SOL     OW27265   6.415   4.900   5.451
 8789SOL    HW127266   6.450   4.987   5.486
 8789SOL    HW227267   6.352   4.918   5.375
 8790SOL     OW27268   6.103   1.108   6.175
 8790SOL    HW127269   6.109   1.207   6.180
 8790SOL    HW227270   6.158   1.067   6.248
 8791SOL     OW27271   4.646   6.752   4.767
 8791SOL    HW127272   4.633   6.831   4.707
 8791SOL    HW227273   4.579   6.754   4.841
 8792SOL     OW27274   3.570   5.378   3.010
 8792SOL    HW127275   3.647   5.318   2.989
 8792SOL    HW227276   3.484   5.329   2.991
 8793SOL     OW27277   0.744   5.039   2.628
 8793SOL    HW127278   0.698   5.126   2.609
 8793SOL    HW227279   0.707   4.968   2.567
 8794SOL     OW27280   5.921   0.838   3.167
 8794SOL    HW127281   5.823   0.818   3.174
 8794SOL    HW227282   5.962   0.782   3.095
 8795SOL     OW27283   0.932   4.470   5.487
 8795SOL    HW127284   0.880   4.555   5.482
 8795SOL    HW227285   1.030   4.490   5.489
 8796SOL     OW27286   5.896   2.565   2.894
 8796SOL    HW127287   5.814   2.508   2.884
 8796SOL    HW227288   5.885   2.625   2.973
 8797SOL     OW27289   0.082   0.180   5.702
 8797SOL    HW127290   0.136   0.241   5.644
 8797SOL    HW227291   0.140   0.107   5.737
 8798SOL     OW27292   4.303   6.332   6.723
 8798SOL    HW127293   4.316   6.422   6.764
 8798SOL    HW227294   4.331   6.261   6.788
 8799SOL     OW27295   2.635   5.006   3.325
 8799SOL    HW127296   2.579   5.066   3.382
 8799SOL    HW227297   2.683   5.060   3.257
 8800SOL     OW27298   5.263   5.304   6.564
 8800SOL    HW127299   5.249   5.393   6.522
 8800SOL    HW227300   5.326   5.250   6.508
 8801SOL     OW27301   5.914   1.810   4.402
 8801SOL    HW127302   6.004   1.789   4.363
 8801SOL    HW227303   5.852   1.734   4.387
 8802SOL     OW27304   1.593   5.665   6.002
 8802SOL    HW127305   1.573   5.660   5.904
 8802SOL    HW227306   1.645   5.584   6.029
 8803SOL     OW27307   0.204   0.130   0.031
 8803SOL    HW127308   0.179   0.122   0.127
 8803SOL    HW227309   0.213   0.227   0.007
 8804SOL     OW27310   2.573   6.028   1.286
 8804SOL    HW127311   2.530   6.084   1.215
 8804SOL    HW227312   2.656   5.985   1.248
 8805SOL     OW27313   4.123   5.463   2.888
 8805SOL    HW127314   4.044   5.402   2.885
 8805SOL    HW227315   4.093   5.556   2.907
 8806SOL     OW27316   2.670   5.061   0.683
 8806SOL    HW127317   2.644   5.131   0.617
 8806SOL    HW227318   2.593   5.001   0.701
 8807SOL     OW27319   4.303   1.471   0.471
 8807SOL    HW127320   4.374   1.520   0.420
 8807SOL    HW227321   4.282   1.520   0.555
 8808SOL     OW27322   6.861   2.311   5.973
 8808SOL    HW127323   6.887   2.239   6.038
 8808SOL    HW227324   6.764   2.302   5.950
 8809SOL     OW27325   2.560   4.676   3.530
 8809SOL    HW127326   2.566   4.704   3.434
 8809SOL    HW227327   2.536   4.579   3.535
 8810SOL     OW27328   5.596   0.607   4.986
 8810SOL    HW127329   5.590   0.676   5.058
 8810SOL    HW227330   5.529   0.628   4.914
 8811SOL     OW27331   2.856   0.402   3.251
 8811SOL    HW127332   2.836   0.315   3.297
 8811SOL    HW227333   2.929   0.449   3.300
 8812SOL     OW27334   2.217   0.543   0.808
 8812SOL    HW127335   2.139   0.596   0.774
 8812SOL    HW227336   2.187   0.485   0.884
 8813SOL     OW27337   1.716   5.016   2.908
 8813SOL    HW127338   1.799   4.961   2.917
 8813SOL    HW227339   1.679   5.007   2.816
 8814SOL     OW27340   5.966   0.082   0.688
 8814SOL    HW127341   6.055   0.044   0.712
 8814SOL    HW227342   5.933   0.140   0.763
 8815SOL     OW27343   5.321   0.006   1.445
 8815SOL    HW127344   5.287   6.987   1.531
 8815SOL    HW227345   5.340   6.952   1.380
 8816SOL     OW27346   0.956   6.395   6.476
 8816SOL    HW127347   1.009   6.385   6.392
 8816SOL    HW227348   0.872   6.340   6.470
 8817SOL     OW27349   0.196   4.119   3.675
 8817SOL    HW127350   0.213   4.051   3.604
 8817SOL    HW227351   0.254   4.199   3.658
 8818SOL     OW27352   1.151   5.826   3.889
 8818SOL    HW127353   1.059   5.801   3.920
 8818SOL    HW227354   1.143   5.894   3.816
 8819SOL     OW27355   6.292   4.752   5.669
 8819SOL    HW127356   6.255   4.687   5.603
 8819SOL    HW227357   6.347   4.820   5.622
 8820SOL     OW27358   2.966   1.230   5.195
 8820SOL    HW127359   2.876   1.202   5.161
 8820SOL    HW227360   3.027   1.151   5.198
 8821SOL     OW27361   1.298   5.978   1.040
 8821SOL    HW127362   1.305   5.879   1.049
 8821SOL    HW227363   1.204   6.003   1.015
 8822SOL     OW27364   0.629   0.716   3.502
 8822SOL    HW127365   0.617   0.671   3.591
 8822SOL    HW227366   0.540   0.738   3.464
 8823SOL     OW27367   1.911   1.347   2.225
 8823SOL    HW127368   1.971   1.268   2.221
 8823SOL    HW227369   1.965   1.430   2.212
 8824SOL     OW27370   1.556   0.933   0.423
 8824SOL    HW127371   1.561   0.840   0.387
 8824SOL    HW227372   1.643   0.980   0.407
 8825SOL     OW27373   1.416   1.302   1.776
 8825SOL    HW127374   1.514   1.302   1.761
 8825SOL    HW227375   1.368   1.315   1.689
 8826SOL     OW27376   0.883   3.843   1.253
 8826SOL    HW127377   0.788   3.826   1.226
 8826SOL    HW227378   0.910   3.778   1.323
 8827SOL     OW27379   4.259   0.451   3.210
 8827SOL    HW127380   4.231   0.533   3.259
 8827SOL    HW227381   4.286   0.380   3.275
 8828SOL     OW27382   3.929   4.799   6.842
 8828SOL    HW127383   3.889   4.825   6.930
 8828SOL    HW227384   3.930   4.700   6.834
 8829SOL     OW27385   5.612   1.569   1.248
 8829SOL    HW127386   5.544   1.515   1.199
 8829SOL    HW227387   5.641   1.518   1.329
 8830SOL     OW27388   2.058   1.356   2.569
 8830SOL    HW127389   2.120   1.403   2.506
 8830SOL    HW227390   2.095   1.266   2.591
 8831SOL     OW27391   5.889   2.506   2.581
 8831SOL    HW127392   5.798   2.481   2.612
 8831SOL    HW227393   5.904   2.470   2.488
 8832SOL     OW27394   5.995   6.029   3.843
 8832SOL    HW127395   6.002   6.128   3.830
 8832SOL    HW227396   6.066   5.999   3.907
 8833SOL     OW27397   3.738   4.420   6.091
 8833SOL    HW127398   3.694   4.481   6.157
 8833SOL    HW227399   3.749   4.329   6.131
 8834SOL     OW27400   5.484   3.912   4.507
 8834SOL    HW127401   5.448   3.873   4.422
 8834SOL    HW227402   5.420   3.980   4.542
 8835SOL     OW27403   5.244   0.805   6.129
 8835SOL    HW127404   5.242   0.904   6.138
 8835SOL    HW227405   5.155   0.767   6.151
 8836SOL     OW27406   4.886   1.851   1.250
 8836SOL    HW127407   4.914   1.839   1.345
 8836SOL    HW227408   4.918   1.773   1.196
 8837SOL     OW27409   0.196   0.067   2.683
 8837SOL    HW127410   0.137   7.007   2.675
 8837SOL    HW227411   0.282   0.040   2.726
 8838SOL     OW27412   1.824   4.139   3.557
 8838SOL    HW127413   1.878   4.148   3.640
 8838SOL    HW227414   1.884   4.147   3.477
 8839SOL     OW27415   4.128   6.601   2.226
 8839SOL    HW127416   4.206   6.541   2.243
 8839SOL    HW227417   4.159   6.687   2.186
 8840SOL     OW27418   0.136   0.550   2.380
 8840SOL    HW127419   0.179   0.515   2.297
 8840SOL    HW227420   0.188   0.519   2.460
 8841SOL     OW27421   6.195   1.589   3.619
 8841SOL    HW127422   6.188   1.515   3.686
 8841SOL    HW227423   6.166   1.675   3.661
 8842SOL     OW27424   3.237   3.686   3.452
 8842SOL    HW127425   3.307   3.756   3.470
 8842SOL    HW227426   3.146   3.726   3.465
 8843SOL     OW27427   1.650   3.510   3.855
 8843SOL    HW127428   1.708   3.589   3.876
 8843SOL    HW227429   1.566   3.541   3.810
 8844SOL     OW27430   6.431   1.244   4.909
 8844SOL    HW127431   6.407   1.152   4.938
 8844SOL    HW227432   6.347   1.296   4.890
 8845SOL     OW27433   2.480   4.206   0.723
 8845SOL    HW127434   2.400   4.238   0.774
 8845SOL    HW227435   2.477   4.106   0.716
 8846SOL     OW27436   3.636   5.152   4.267
 8846SOL    HW127437   3.622   5.178   4.171
 8846SOL    HW227438   3.552   5.111   4.303
 8847SOL     OW27439   2.411   1.153   3.594
 8847SOL    HW127440   2.473   1.165   3.672
 8847SOL    HW227441   2.460   1.106   3.520
 8848SOL     OW27442   2.933   1.938   2.746
 8848SOL    HW127443   2.871   1.874   2.792
 8848SOL    HW227444   2.881   1.998   2.686
 8849SOL     OW27445   3.774   5.124   3.039
 8849SOL    HW127446   3.803   5.169   3.124
 8849SOL    HW227447   3.756   5.027   3.056
 8850SOL     OW27448   2.676   0.996   0.065
 8850SOL    HW127449   2.645   0.906   0.034
 8850SOL    HW227450   2.764   1.017   0.023
 8851SOL     OW27451   1.099   5.056   1.817
 8851SOL    HW127452   1.099   4.957   1.802
 8851SOL    HW227453   1.151   5.100   1.744
 8852SOL     OW27454   4.147   3.647   5.974
 8852SOL    HW127455   4.118   3.651   5.878
 8852SOL    HW227456   4.245   3.630   5.979
 8853SOL     OW27457   3.315   0.206   5.867
 8853SOL    HW127458   3.231   0.234   5.820
 8853SOL    HW227459   3.381   0.282   5.864
 8854SOL     OW27460   3.120   1.276   6.370
 8854SOL    HW127461   3.196   1.304   6.311
 8854SOL    HW227462   3.061   1.355   6.388
 8855SOL     OW27463   6.638   6.105   0.372
 8855SOL    HW127464   6.652   6.201   0.349
 8855SOL    HW227465   6.676   6.047   0.299
 8856SOL     OW27466   6.578   0.696   5.990
 8856SOL    HW127467   6.642   0.671   6.064
 8856SOL    HW227468   6.534   0.783   6.012
 8857SOL     OW27469   6.448   2.002   4.021
 8857SOL    HW127470   6.457   2.046   4.111
 8857SOL    HW227471   6.380   1.929   4.026
 8858SOL     OW27472   0.967   2.082   5.790
 8858SOL    HW127473   0.929   2.056   5.702
 8858SOL    HW227474   1.063   2.109   5.778
 8859SOL     OW27475   6.992   0.650   4.403
 8859SOL    HW127476   6.969   0.735   4.356
 8859SOL    HW227477   6.909   0.596   4.416
 8860SOL     OW27478   1.127   3.812   3.001
 8860SOL    HW127479   1.030   3.827   3.021
 8860SOL    HW227480   1.153   3.719   3.028
 8861SOL     OW27481   3.407   1.719   6.113
 8861SOL    HW127482   3.329   1.744   6.056
 8861SOL    HW227483   3.490   1.720   6.057
 8862SOL     OW27484   6.273   0.414   2.999
 8862SOL    HW127485   6.307   0.435   2.907
 8862SOL    HW227486   6.261   0.500   3.049
 8863SOL     OW27487   1.638   5.553   4.389
 8863SOL    HW127488   1.615   5.645   4.420
 8863SOL    HW227489   1.560   5.492   4.405
 8864SOL     OW27490   2.087   2.925   6.291
 8864SOL    HW127491   2.186   2.931   6.302
 8864SOL    HW227492   2.042   2.936   6.379
 8865SOL     OW27493   3.295   1.413   5.884
 8865SOL    HW127494   3.290   1.507   5.851
 8865SOL    HW227495   3.246   1.353   5.821
 8866SOL     OW27496   4.982   6.878   3.777
 8866SOL    HW127497   4.999   6.779   3.777
 8866SOL    HW227498   5.032   6.921   3.851
 8867SOL     OW27499   5.316   3.773   2.694
 8867SOL    HW127500   5.260   3.802   2.772
 8867SOL    HW227501   5.412   3.791   2.715
 8868SOL     OW27502   6.725   3.620   0.664
 8868SOL    HW127503   6.721   3.674   0.747
 8868SOL    HW227504   6.638   3.628   0.615
 8869SOL     OW27505   4.382   5.842   4.367
 8869SOL    HW127506   4.398   5.800   4.277
 8869SOL    HW227507   4.470   5.854   4.413
 8870SOL     OW27508   4.515   0.313   0.607
 8870SOL    HW127509   4.425   0.346   0.578
 8870SOL    HW227510   4.583   0.333   0.535
 8871SOL     OW27511   1.131   0.788   3.640
 8871SOL    HW127512   1.131   0.771   3.739
 8871SOL    HW227513   1.047   0.749   3.601
 8872SOL     OW27514   1.504   4.706   5.187
 8872SOL    HW127515   1.466   4.621   5.222
 8872SOL    HW227516   1.449   4.738   5.109
 8873SOL     OW27517   0.178   5.306   2.115
 8873SOL    HW127518   0.126   5.221   2.107
 8873SOL    HW227519   0.271   5.285   2.144
 8874SOL     OW27520   2.912   6.509   1.781
 8874SOL    HW127521   2.876   6.416   1.771
 8874SOL    HW227522   3.003   6.505   1.821
 8875SOL     OW27523   5.704   3.528   4.462
 8875SOL    HW127524   5.733   3.606   4.517
 8875SOL    HW227525   5.761   3.522   4.380
 8876SOL     OW27526   1.838   0.298   4.200
 8876SOL    HW127527   1.915   0.235   4.195
 8876SOL    HW227528   1.810   0.324   4.107
 8877SOL     OW27529   2.223   1.668   4.231
 8877SOL    HW127530   2.281   1.591   4.258
 8877SOL    HW227531   2.273   1.753   4.240
 8878SOL     OW27532   6.975   5.767   0.574
 8878SOL    HW127533   0.012   5.741   0.652
 8878SOL    HW227534   6.975   5.694   0.506
 8879SOL     OW27535   5.125   4.837   1.862
 8879SOL    HW127536   5.082   4.786   1.788
 8879SOL    HW227537   5.058   4.898   1.904
 8880SOL     OW27538   6.033   5.316   4.594
 8880SOL    HW127539   6.073   5.328   4.503
 8880SOL    HW227540   5.934   5.334   4.589
 8881SOL     OW27541   6.425   6.704   4.965
 8881SOL    HW127542   6.351   6.758   5.005
 8881SOL    HW227543   6.506   6.761   4.952
 8882SOL     OW27544   5.425   1.693   0.822
 8882SOL    HW127545   5.427   1.738   0.911
 8882SOL    HW227546   5.341   1.639   0.814
 8883SOL     OW27547   1.805   6.803   5.279
 8883SOL    HW127548   1.877   6.869   5.305
 8883SOL    HW227549   1.721   6.827   5.327
 8884SOL     OW27550   5.924   4.678   6.502
 8884SOL    HW127551   5.840   4.729   6.523
 8884SOL    HW227552   5.985   4.735   6.448
 8885SOL     OW27553   0.302   3.099   0.949
 8885SOL    HW127554   0.393   3.060   0.935
 8885SOL    HW227555   0.298   3.145   1.038
 8886SOL     OW27556   3.714   5.850   5.275
 8886SOL    HW127557   3.721   5.755   5.246
 8886SOL    HW227558   3.800   5.897   5.256
 8887SOL     OW27559   3.061   1.735   1.630
 8887SOL    HW127560   3.021   1.770   1.715
 8887SOL    HW227561   3.136   1.794   1.601
 8888SOL     OW27562   1.412   1.606   0.593
 8888SOL    HW127563   1.474   1.684   0.583
 8888SOL    HW227564   1.356   1.618   0.675
 8889SOL     OW27565   5.806   0.194   5.365
 8889SOL    HW127566   5.834   0.117   5.422
 8889SOL    HW227567   5.880   0.262   5.362
 8890SOL     OW27568   6.234   5.342   3.734
 8890SOL    HW127569   6.137   5.349   3.715
 8890SOL    HW227570   6.263   5.246   3.730
 8891SOL     OW27571   5.070   3.647   5.480
 8891SOL    HW127572   5.155   3.696   5.459
 8891SOL    HW227573   5.036   3.676   5.570
 8892SOL     OW27574   3.895   5.784   3.294
 8892SOL    HW127575   3.808   5.825   3.320
 8892SOL    HW227576   3.881   5.688   3.271
 8893SOL     OW27577   0.841   0.003   2.372
 8893SOL    HW127578   0.884   6.965   2.441
 8893SOL    HW227579   0.742   7.007   2.371
 8894SOL     OW27580   4.156   2.303   5.730
 8894SOL    HW127581   4.169   2.356   5.814
 8894SOL    HW227582   4.076   2.337   5.681
 8895SOL     OW27583   6.490   1.589   1.398
 8895SOL    HW127584   6.443   1.651   1.462
 8895SOL    HW227585   6.523   1.642   1.320
 8896SOL     OW27586   1.404   3.187   5.462
 8896SOL    HW127587   1.436   3.216   5.372
 8896SOL    HW227588   1.477   3.199   5.529
 8897SOL     OW27589   1.800   2.870   3.321
 8897SOL    HW127590   1.865   2.941   3.347
 8897SOL    HW227591   1.780   2.878   3.223
 8898SOL     OW27592   5.570   3.575   4.033
 8898SOL    HW127593   5.540   3.505   4.098
 8898SOL    HW227594   5.496   3.598   3.971
 8899SOL     OW27595   2.280   4.961   6.957
 8899SOL    HW127596   2.192   4.917   6.972
 8899SOL    HW227597   2.351   4.912   7.007
 8900SOL     OW27598   5.755   2.708   2.125
 8900SOL    HW127599   5.819   2.783   2.109
 8900SOL    HW227600   5.719   2.714   2.218
 8901SOL     OW27601   1.869   1.479   4.574
 8901SOL    HW127602   1.791   1.420   4.553
 8901SOL    HW227603   1.876   1.492   4.673
 8902SOL     OW27604   2.924   6.780   0.764
 8902SOL    HW127605   3.003   6.767   0.704
 8902SOL    HW227606   2.845   6.732   0.726
 8903SOL     OW27607   0.723   1.526   4.588
 8903SOL    HW127608   0.722   1.459   4.513
 8903SOL    HW227609   0.806   1.514   4.642
 8904SOL     OW27610   5.852   5.696   3.518
 8904SOL    HW127611   5.777   5.632   3.533
 8904SOL    HW227612   5.906   5.704   3.602
 8905SOL     OW27613   2.045   4.250   4.225
 8905SOL    HW127614   2.003   4.338   4.246
 8905SOL    HW227615   2.121   4.234   4.288
 8906SOL     OW27616   6.653   6.776   6.813
 8906SOL    HW127617   6.618   6.856   6.862
 8906SOL    HW227618   6.706   6.720   6.876
 8907SOL     OW27619   3.136   2.115   4.570
 8907SOL    HW127620   3.075   2.193   4.586
 8907SOL    HW227621   3.089   2.048   4.513
 8908SOL     OW27622   1.279   3.554   6.927
 8908SOL    HW127623   1.274   3.537   6.829
 8908SOL    HW227624   1.188   3.543   6.968
 8909SOL     OW27625   1.756   0.392   5.719
 8909SOL    HW127626   1.725   0.383   5.624
 8909SOL    HW227627   1.740   0.486   5.750
 8910SOL     OW27628   1.122   2.537   5.714
 8910SOL    HW127629   1.081   2.600   5.780
 8910SOL    HW227630   1.052   2.505   5.651
 8911SOL     OW27631   4.398   2.310   4.884
 8911SOL    HW127632   4.359   2.382   4.942
 8911SOL    HW227633   4.397   2.341   4.788
 8912SOL     OW27634   4.140   2.403   0.772
 8912SOL    HW127635   4.207   2.463   0.817
 8912SOL    HW227636   4.069   2.378   0.838
 8913SOL     OW27637   4.941   5.127   0.017
 8913SOL    HW127638   4.953   5.129   0.117
 8913SOL    HW227639   4.955   5.034   7.004
 8914SOL     OW27640   3.839   0.940   4.976
 8914SOL    HW127641   3.788   0.980   5.052
 8914SOL    HW227642   3.798   0.969   4.890
 8915SOL     OW27643   0.919   2.815   3.654
 8915SOL    HW127644   0.880   2.760   3.581
 8915SOL    HW227645   0.935   2.909   3.621
 8916SOL     OW27646   6.946   4.210   0.630
 8916SOL    HW127647   6.904   4.122   0.651
 8916SOL    HW227648   0.023   4.206   0.650
 8917SOL     OW27649   6.405   4.418   6.398
 8917SOL    HW127650   6.435   4.342   6.341
 8917SOL    HW227651   6.438   4.405   6.491
 8918SOL     OW27652   6.783   3.848   0.885
 8918SOL    HW127653   6.701   3.852   0.941
 8918SOL    HW227654   6.846   3.781   0.923
 8919SOL     OW27655   4.053   3.414   0.988
 8919SOL    HW127656   4.077   3.480   0.917
 8919SOL    HW227657   4.008   3.461   1.064
 8920SOL     OW27658   1.041   6.620   6.829
 8920SOL    HW127659   1.057   6.540   6.772
 8920SOL    HW227660   1.129   6.663   6.852
 8921SOL     OW27661   2.234   2.059   2.942
 8921SOL    HW127662   2.244   1.962   2.919
 8921SOL    HW227663   2.309   2.110   2.901
 8922SOL     OW27664   3.633   5.174   1.071
 8922SOL    HW127665   3.564   5.200   1.003
 8922SOL    HW227666   3.588   5.149   1.156
 8923SOL     OW27667   1.440   3.385   6.256
 8923SOL    HW127668   1.383   3.305   6.237
 8923SOL    HW227669   1.518   3.387   6.193
 8924SOL     OW27670   3.270   5.772   5.786
 8924SOL    HW127671   3.193   5.800   5.844
 8924SOL    HW227672   3.244   5.693   5.731
 8925SOL     OW27673   0.784   1.060   2.593
 8925SOL    HW127674   0.784   1.084   2.496
 8925SOL    HW227675   0.742   1.134   2.645
 8926SOL     OW27676   5.469   3.926   6.436
 8926SOL    HW127677   5.476   4.017   6.478
 8926SOL    HW227678   5.554   3.875   6.453
 8927SOL     OW27679   1.002   1.634   4.472
 8927SOL    HW127680   0.934   1.601   4.538
 8927SOL    HW227681   0.998   1.577   4.390
 8928SOL     OW27682   6.879   0.766   5.779
 8928SOL    HW127683   6.891   0.681   5.727
 8928SOL    HW227684   6.784   0.795   5.773
 8929SOL     OW27685   6.742   3.610   4.103
 8929SOL    HW127686   6.756   3.709   4.115
 8929SOL    HW227687   6.798   3.561   4.169
 8930SOL     OW27688   1.899   4.022   4.550
 8930SOL    HW127689   1.997   3.999   4.545
 8930SOL    HW227690   1.886   4.096   4.616
 8931SOL     OW27691   2.887   2.795   1.380
 8931SOL    HW127692   2.930   2.853   1.311
 8931SOL    HW227693   2.803   2.755   1.343
 8932SOL     OW27694   5.511   0.262   0.424
 8932SOL    HW127695   5.481   0.318   0.501
 8932SOL    HW227696   5.560   0.181   0.458
 8933SOL     OW27697   1.319   2.782   6.126
 8933SOL    HW127698   1.412   2.812   6.148
 8933SOL    HW227699   1.302   2.796   6.028
 8934SOL     OW27700   2.993   5.070   4.248
 8934SOL    HW127701   3.048   4.987   4.243
 8934SOL    HW227702   2.914   5.054   4.308
 8935SOL     OW27703   5.645   3.624   1.634
 8935SOL    HW127704   5.579   3.692   1.667
 8935SOL    HW227705   5.648   3.547   1.697
 8936SOL     OW27706   1.116   3.667   1.160
 8936SOL    HW127707   1.200   3.682   1.211
 8936SOL    HW227708   1.054   3.745   1.174
 8937SOL     OW27709   0.278   0.436   4.518
 8937SOL    HW127710   0.376   0.432   4.540
 8937SOL    HW227711   0.252   0.531   4.502
 8938SOL     OW27712   6.845   1.028   0.383
 8938SOL    HW127713   6.882   0.936   0.373
 8938SOL    HW227714   6.832   1.049   0.480
 8939SOL     OW27715   5.814   3.539   4.211
 8939SOL    HW127716   5.901   3.588   4.220
 8939SOL    HW227717   5.741   3.603   4.189
 8940SOL     OW27718   5.894   1.648   1.435
 8940SOL    HW127719   5.826   1.704   1.387
 8940SOL    HW227720   5.848   1.595   1.507
 8941SOL     OW27721   6.302   2.451   2.684
 8941SOL    HW127722   6.273   2.401   2.765
 8941SOL    HW227723   6.240   2.431   2.608
 8942SOL     OW27724   0.755   5.734   4.823
 8942SOL    HW127725   0.794   5.721   4.914
 8942SOL    HW227726   0.829   5.734   4.754
 8943SOL     OW27727   4.097   5.299   0.097
 8943SOL    HW127728   4.152   5.381   0.117
 8943SOL    HW227729   4.006   5.327   0.065
 8944SOL     OW27730   4.859   5.826   4.876
 8944SOL    HW127731   4.873   5.731   4.903
 8944SOL    HW227732   4.869   5.886   4.956
 8945SOL     OW27733   6.946   2.537   4.303
 8945SOL    HW127734   7.018   2.475   4.274
 8945SOL    HW227735   6.908   2.585   4.224
 8946SOL     OW27736   3.551   1.012   4.230
 8946SOL    HW127737   3.544   0.938   4.163
 8946SOL    HW227738   3.459   1.046   4.251
 8947SOL     OW27739   1.815   3.244   5.774
 8947SOL    HW127740   1.742   3.241   5.706
 8947SOL    HW227741   1.831   3.339   5.800
 8948SOL     OW27742   5.758   5.997   3.334
 8948SOL    HW127743   5.824   6.072   3.331
 8948SOL    HW227744   5.796   5.917   3.287
 8949SOL     OW27745   4.115   5.989   0.605
 8949SOL    HW127746   4.089   5.923   0.675
 8949SOL    HW227747   4.209   5.971   0.576
 8950SOL     OW27748   4.161   2.993   0.994
 8950SOL    HW127749   4.171   2.921   1.063
 8950SOL    HW227750   4.149   3.082   1.040
 8951SOL     OW27751   2.077   0.826   5.054
 8951SOL    HW127752   2.081   0.734   5.092
 8951SOL    HW227753   2.153   0.839   4.989
 8952SOL     OW27754   0.731   5.045   3.591
 8952SOL    HW127755   0.787   5.088   3.521
 8952SOL    HW227756   0.783   4.973   3.637
 8953SOL     OW27757   0.623   4.876   1.095
 8953SOL    HW127758   0.688   4.833   1.032
 8953SOL    HW227759   0.631   4.835   1.185
 8954SOL     OW27760   0.071   0.132   4.139
 8954SOL    HW127761   7.000   0.159   4.109
 8954SOL    HW227762   0.127   0.109   4.059
 8955SOL     OW27763   6.786   4.616   3.385
 8955SOL    HW127764   6.856   4.674   3.427
 8955SOL    HW227765   6.762   4.651   3.295
 8956SOL     OW27766   1.461   1.316   5.887
 8956SOL    HW127767   1.430   1.231   5.844
 8956SOL    HW227768   1.492   1.380   5.817
 8957SOL     OW27769   2.352   4.515   1.028
 8957SOL    HW127770   2.371   4.574   0.950
 8957SOL    HW227771   2.316   4.570   1.104
 8958SOL     OW27772   0.754   2.239   5.458
 8958SOL    HW127773   0.785   2.287   5.376
 8958SOL    HW227774   0.820   2.168   5.482
 8959SOL     OW27775   1.914   4.134   3.135
 8959SOL    HW127776   1.880   4.063   3.073
 8959SOL    HW227777   2.014   4.134   3.134
 8960SOL     OW27778   5.423   5.428   3.972
 8960SOL    HW127779   5.398   5.509   4.026
 8960SOL    HW227780   5.519   5.435   3.945
 8961SOL     OW27781   3.601   1.254   4.110
 8961SOL    HW127782   3.615   1.169   4.160
 8961SOL    HW227783   3.681   1.271   4.052
 8962SOL     OW27784   6.381   5.213   1.666
 8962SOL    HW127785   6.384   5.113   1.671
 8962SOL    HW227786   6.361   5.241   1.572
 8963SOL     OW27787   3.787   6.256   4.831
 8963SOL    HW127788   3.792   6.331   4.765
 8963SOL    HW227789   3.692   6.238   4.855
 8964SOL     OW27790   6.147   2.935   2.865
 8964SOL    HW127791   6.150   2.841   2.831
 8964SOL    HW227792   6.232   2.982   2.841
 8965SOL     OW27793   2.852   5.232   0.068
 8965SOL    HW127794   2.912   5.311   0.076
 8965SOL    HW227795   2.907   5.148   0.064
 8966SOL     OW27796   6.795   4.428   0.655
 8966SOL    HW127797   6.787   4.498   0.584
 8966SOL    HW227798   6.847   4.351   0.619
 8967SOL     OW27799   3.985   1.345   2.445
 8967SOL    HW127800   4.078   1.329   2.411
 8967SOL    HW227801   3.980   1.317   2.541
 8968SOL     OW27802   4.104   6.279   2.534
 8968SOL    HW127803   4.145   6.256   2.446
 8968SOL    HW227804   4.061   6.198   2.574
 8969SOL     OW27805   0.305   0.323   3.259
 8969SOL    HW127806   0.212   0.308   3.291
 8969SOL    HW227807   0.355   0.380   3.325
 8970SOL     OW27808   1.763   2.220   6.325
 8970SOL    HW127809   1.676   2.254   6.291
 8970SOL    HW227810   1.837   2.251   6.266
 8971SOL     OW27811   5.328   6.393   1.548
 8971SOL    HW127812   5.296   6.483   1.518
 8971SOL    HW227813   5.369   6.345   1.471
 8972SOL     OW27814   4.952   3.780   0.657
 8972SOL    HW127815   4.870   3.735   0.623
 8972SOL    HW227816   4.969   3.749   0.751
 8973SOL     OW27817   6.687   2.552   2.633
 8973SOL    HW127818   6.689   2.602   2.547
 8973SOL    HW227819   6.613   2.587   2.690
 8974SOL     OW27820   1.799   3.411   3.633
 8974SOL    HW127821   1.739   3.440   3.707
 8974SOL    HW227822   1.746   3.364   3.563
 8975SOL     OW27823   0.586   5.950   6.643
 8975SOL    HW127824   0.645   5.973   6.566
 8975SOL    HW227825   0.626   5.986   6.728
 8976SOL     OW27826   0.008   5.581   0.393
 8976SOL    HW127827   0.070   5.504   0.376
 8976SOL    HW227828   6.947   5.572   0.335
 8977SOL     OW27829   6.735   3.857   6.593
 8977SOL    HW127830   6.715   3.918   6.669
 8977SOL    HW227831   6.834   3.844   6.585
 8978SOL     OW27832   5.902   0.199   4.859
 8978SOL    HW127833   5.818   0.211   4.913
 8978SOL    HW227834   5.980   0.237   4.910
 8979SOL     OW27835   1.339   4.749   6.066
 8979SOL    HW127836   1.270   4.736   5.994
 8979SOL    HW227837   1.400   4.670   6.068
 8980SOL     OW27838   5.532   2.833   5.694
 8980SOL    HW127839   5.592   2.809   5.618
 8980SOL    HW227840   5.440   2.798   5.676
 8981SOL     OW27841   4.885   1.909   5.579
 8981SOL    HW127842   4.830   1.993   5.581
 8981SOL    HW227843   4.981   1.932   5.593
 8982SOL     OW27844   0.026   1.956   0.896
 8982SOL    HW127845   6.956   1.979   0.858
 8982SOL    HW227846   0.052   1.864   0.865
 8983SOL     OW27847   0.705   5.538   0.773
 8983SOL    HW127848   0.637   5.609   0.759
 8983SOL    HW227849   0.698   5.503   0.866
 8984SOL     OW27850   6.686   6.223   4.291
 8984SOL    HW127851   6.748   6.231   4.213
 8984SOL    HW227852   6.592   6.234   4.261
 8985SOL     OW27853   2.490   1.793   1.143
 8985SOL    HW127854   2.517   1.818   1.236
 8985SOL    HW227855   2.568   1.752   1.096
 8986SOL     OW27856   4.335   5.328   3.048
 8986SOL    HW127857   4.351   5.359   3.141
 8986SOL    HW227858   4.253   5.372   3.012
 8987SOL     OW27859   2.849   0.318   1.700
 8987SOL    HW127860   2.880   0.391   1.760
 8987SOL    HW227861   2.901   0.320   1.614
 8988SOL     OW27862   2.190   4.520   0.354
 8988SOL    HW127863   2.244   4.481   0.429
 8988SOL    HW227864   2.123   4.584   0.390
 8989SOL     OW27865   4.994   3.957   2.313
 8989SOL    HW127866   5.031   3.995   2.229
 8989SOL    HW227867   5.050   3.984   2.391
 8990SOL     OW27868   2.441   5.165   1.657
 8990SOL    HW127869   2.429   5.083   1.713
 8990SOL    HW227870   2.454   5.244   1.717
 8991SOL     OW27871   2.576   1.342   1.017
 8991SOL    HW127872   2.659   1.357   0.964
 8991SOL    HW227873   2.600   1.318   1.111
 8992SOL     OW27874   6.819   2.611   6.650
 8992SOL    HW127875   6.903   2.574   6.690
 8992SOL    HW227876   6.823   2.601   6.551
 8993SOL     OW27877   4.529   2.560   2.976
 8993SOL    HW127878   4.504   2.485   2.916
 8993SOL    HW227879   4.536   2.645   2.923
 8994SOL     OW27880   1.127   6.074   4.458
 8994SOL    HW127881   1.152   5.981   4.487
 8994SOL    HW227882   1.034   6.095   4.488
 8995SOL     OW27883   1.269   2.426   5.401
 8995SOL    HW127884   1.196   2.470   5.454
 8995SOL    HW227885   1.314   2.356   5.457
 8996SOL     OW27886   0.340   4.652   1.679
 8996SOL    HW127887   0.355   4.582   1.749
 8996SOL    HW227888   0.266   4.712   1.707
 8997SOL     OW27889   4.198   1.271   6.588
 8997SOL    HW127890   4.130   1.199   6.602
 8997SOL    HW227891   4.161   1.342   6.528
 8998SOL     OW27892   0.767   2.512   4.072
 8998SOL    HW127893   0.728   2.496   3.982
 8998SOL    HW227894   0.783   2.425   4.118
 8999SOL     OW27895   3.938   0.329   0.006
 8999SOL    HW127896   3.892   0.239   0.007
 8999SOL    HW227897   3.869   0.401   7.018
 9000SOL     OW27898   2.810   3.946   6.451
 9000SOL    HW127899   2.764   3.881   6.512
 9000SOL    HW227900   2.831   4.030   6.501
 9001SOL     OW27901   1.872   5.481   2.823
 9001SOL    HW127902   1.939   5.412   2.851
 9001SOL    HW227903   1.880   5.560   2.884
 9002SOL     OW27904   0.335   4.955   4.916
 9002SOL    HW127905   0.247   4.969   4.959
 9002SOL    HW227906   0.397   5.030   4.940
 9003SOL     OW27907   5.669   2.936   1.203
 9003SOL    HW127908   5.709   2.974   1.119
 9003SOL    HW227909   5.571   2.953   1.204
 9004SOL     OW27910   4.162   6.666   1.910
 9004SOL    HW127911   4.070   6.689   1.941
 9004SOL    HW227912   4.159   6.584   1.852
 9005SOL     OW27913   6.191   1.875   4.292
 9005SOL    HW127914   6.239   1.875   4.380
 9005SOL    HW227915   6.193   1.967   4.253
 9006SOL     OW27916   1.412   6.188   0.821
 9006SOL    HW127917   1.353   6.145   0.889
 9006SOL    HW227918   1.483   6.124   0.793
 9007SOL     OW27919   3.546   5.458   3.663
 9007SOL    HW127920   3.547   5.441   3.762
 9007SOL    HW227921   3.635   5.495   3.635
 9008SOL     OW27922   6.841   5.438   2.905
 9008SOL    HW127923   6.854   5.483   2.993
 9008SOL    HW227924   6.845   5.506   2.831
 9009SOL     OW27925   2.713   6.370   0.531
 9009SOL    HW127926   2.802   6.323   0.526
 9009SOL    HW227927   2.657   6.327   0.602
 9010SOL     OW27928   1.027   6.824   4.691
 9010SOL    HW127929   1.098   6.871   4.639
 9010SOL    HW227930   0.944   6.879   4.691
 9011SOL     OW27931   3.989   1.848   1.399
 9011SOL    HW127932   3.998   1.915   1.472
 9011SOL    HW227933   3.896   1.849   1.363
 9012SOL     OW27934   2.869   4.963   1.409
 9012SOL    HW127935   2.795   5.025   1.434
 9012SOL    HW227936   2.933   5.010   1.347
 9013SOL     OW27937   6.019   5.885   4.893
 9013SOL    HW127938   5.972   5.894   4.981
 9013SOL    HW227939   6.060   5.794   4.886
 9014SOL     OW27940   0.879   1.429   0.519
 9014SOL    HW127941   0.972   1.424   0.555
 9014SOL    HW227942   0.831   1.507   0.561
 9015SOL     OW27943   5.946   0.631   0.829
 9015SOL    HW127944   6.016   0.591   0.770
 9015SOL    HW227945   5.970   0.617   0.925
 9016SOL     OW27946   6.843   6.587   6.270
 9016SOL    HW127947   6.804   6.670   6.310
 9016SOL    HW227948   6.892   6.535   6.340
 9017SOL     OW27949   5.618   2.480   2.685
 9017SOL    HW127950   5.558   2.435   2.618
 9017SOL    HW227951   5.570   2.556   2.728
 9018SOL     OW27952   4.203   1.636   5.513
 9018SOL    HW127953   4.281   1.583   5.545
 9018SOL    HW227954   4.235   1.724   5.478
 9019SOL     OW27955   0.951   7.006   0.790
 9019SOL    HW127956   0.911   6.932   0.845
 9019SOL    HW227957   0.942   0.072   0.840
 9020SOL     OW27958   1.521   3.713   1.989
 9020SOL    HW127959   1.553   3.646   1.921
 9020SOL    HW227960   1.525   3.672   2.080
 9021SOL     OW27961   6.252   0.237   4.237
 9021SOL    HW127962   6.225   0.144   4.213
 9021SOL    HW227963   6.233   0.255   4.333
 9022SOL     OW27964   2.611   0.278   1.563
 9022SOL    HW127965   2.582   0.185   1.585
 9022SOL    HW227966   2.700   0.296   1.605
 9023SOL     OW27967   4.020   3.169   2.804
 9023SOL    HW127968   4.006   3.124   2.716
 9023SOL    HW227969   4.092   3.238   2.795
 9024SOL     OW27970   1.617   5.700   6.523
 9024SOL    HW127971   1.654   5.708   6.430
 9024SOL    HW227972   1.615   5.604   6.549
 9025SOL     OW27973   6.703   5.896   0.975
 9025SOL    HW127974   6.673   5.817   0.923
 9025SOL    HW227975   6.710   5.976   0.914
 9026SOL     OW27976   3.865   3.399   2.859
 9026SOL    HW127977   3.928   3.330   2.823
 9026SOL    HW227978   3.777   3.390   2.812
 9027SOL     OW27979   2.674   1.693   3.670
 9027SOL    HW127980   2.621   1.643   3.738
 9027SOL    HW227981   2.746   1.745   3.715
 9028SOL     OW27982   2.487   3.899   5.759
 9028SOL    HW127983   2.538   3.984   5.774
 9028SOL    HW227984   2.391   3.913   5.781
 9029SOL     OW27985   3.200   5.427   5.161
 9029SOL    HW127986   3.271   5.356   5.166
 9029SOL    HW227987   3.125   5.403   5.222
 9030SOL     OW27988   2.323   0.813   3.081
 9030SOL    HW127989   2.383   0.886   3.049
 9030SOL    HW227990   2.242   0.808   3.022
 9031SOL     OW27991   4.895   5.354   5.964
 9031SOL    HW127992   4.798   5.371   5.952
 9031SOL    HW227993   4.946   5.440   5.956
 9032SOL     OW27994   3.934   2.630   0.743
 9032SOL    HW127995   3.937   2.579   0.829
 9032SOL    HW227996   3.840   2.658   0.724
 9033SOL     OW27997   1.734   3.897   3.313
 9033SOL    HW127998   1.798   3.973   3.302
 9033SOL    HW227999   1.749   3.853   3.401
 9034SOL     OW28000   3.171   6.709   4.841
 9034SOL    HW128001   3.141   6.724   4.747
 9034SOL    HW228002   3.128   6.778   4.900
 9035SOL     OW28003   1.142   6.247   5.109
 9035SOL    HW128004   1.220   6.234   5.048
 9035SOL    HW228005   1.122   6.345   5.117
 9036SOL     OW28006   1.215   1.417   4.587
 9036SOL    HW128007   1.146   1.359   4.544
 9036SOL    HW228008   1.205   1.511   4.554
 9037SOL     OW28009   1.357   4.707   6.590
 9037SOL    HW128010   1.307   4.793   6.597
 9037SOL    HW228011   1.296   4.631   6.612
 9038SOL     OW28012   4.618   0.322   4.837
 9038SOL    HW128013   4.626   0.241   4.779
 9038SOL    HW228014   4.662   0.399   4.792
 9039SOL     OW28015   1.726   4.539   4.667
 9039SOL    HW128016   1.673   4.553   4.751
 9039SOL    HW228017   1.797   4.609   4.660
 9040SOL     OW28018   2.728   1.303   3.163
 9040SOL    HW128019   2.790   1.311   3.240
 9040SOL    HW228020   2.723   1.390   3.114
 9041SOL     OW28021   0.627   2.089   1.803
 9041SOL    HW128022   0.530   2.096   1.782
 9041SOL    HW228023   0.640   2.040   1.889
 9042SOL     OW28024   3.202   5.924   3.876
 9042SOL    HW128025   3.167   5.844   3.827
 9042SOL    HW228026   3.135   5.998   3.870
 9043SOL     OW28027   2.138   1.027   6.117
 9043SOL    HW128028   2.221   1.005   6.169
 9043SOL    HW228029   2.132   1.126   6.104
 9044SOL     OW28030   6.470   1.138   1.276
 9044SOL    HW128031   6.505   1.045   1.276
 9044SOL    HW228032   6.547   1.202   1.271
 9045SOL     OW28033   3.688   1.945   2.287
 9045SOL    HW128034   3.709   1.918   2.193
 9045SOL    HW228035   3.757   1.908   2.349
 9046SOL     OW28036   3.177   3.432   4.206
 9046SOL    HW128037   3.152   3.345   4.249
 9046SOL    HW228038   3.271   3.456   4.231
 9047SOL     OW28039   1.516   3.119   5.725
 9047SOL    HW128040   1.484   3.148   5.816
 9047SOL    HW228041   1.510   3.020   5.718
 9048SOL     OW28042   6.214   3.280   6.336
 9048SOL    HW128043   6.245   3.240   6.422
 9048SOL    HW228044   6.114   3.276   6.332
 9049SOL     OW28045   4.500   6.765   6.286
 9049SOL    HW128046   4.509   6.668   6.267
 9049SOL    HW228047   4.416   6.800   6.244
 9050SOL     OW28048   0.400   5.380   5.703
 9050SOL    HW128049   0.320   5.349   5.754
 9050SOL    HW228050   0.383   5.371   5.605
 9051SOL     OW28051   4.490   6.342   1.255
 9051SOL    HW128052   4.539   6.428   1.246
 9051SOL    HW228053   4.523   6.278   1.186
 9052SOL     OW28054   2.035   3.373   3.742
 9052SOL    HW128055   1.950   3.385   3.691
 9052SOL    HW228056   2.025   3.411   3.834
 9053SOL     OW28057   2.391   1.519   3.339
 9053SOL    HW128058   2.476   1.483   3.379
 9053SOL    HW228059   2.326   1.539   3.412
 9054SOL     OW28060   1.214   0.238   2.161
 9054SOL    HW128061   1.194   0.325   2.207
 9054SOL    HW228062   1.220   0.165   2.229
 9055SOL     OW28063   0.394   3.961   3.509
 9055SOL    HW128064   0.400   3.971   3.409
 9055SOL    HW228065   0.474   4.002   3.551
 9056SOL     OW28066   5.471   0.307   2.209
 9056SOL    HW128067   5.460   0.208   2.207
 9056SOL    HW228068   5.388   0.350   2.175
 9057SOL     OW28069   5.703   5.385   6.118
 9057SOL    HW128070   5.792   5.341   6.105
 9057SOL    HW228071   5.715   5.484   6.121
 9058SOL     OW28072   1.959   1.435   3.881
 9058SOL    HW128073   1.933   1.503   3.812
 9058SOL    HW228074   1.891   1.434   3.954
 9059SOL     OW28075   0.152   1.152   4.126
 9059SOL    HW128076   0.131   1.103   4.041
 9059SOL    HW228077   0.246   1.186   4.122
 9060SOL     OW28078   0.225   3.745   1.804
 9060SOL    HW128079   0.150   3.745   1.737
 9060SOL    HW228080   0.192   3.782   1.891
 9061SOL     OW28081   4.018   6.032   2.530
 9061SOL    HW128082   3.970   5.982   2.458
 9061SOL    HW228083   4.081   5.970   2.577
 9062SOL     OW28084   1.572   5.025   2.343
 9062SOL    HW128085   1.668   5.002   2.328
 9062SOL    HW228086   1.559   5.056   2.437
 9063SOL     OW28087   2.599   0.559   2.864
 9063SOL    HW128088   2.568   0.571   2.958
 9063SOL    HW228089   2.685   0.608   2.850
 9064SOL     OW28090   5.925   4.139   4.193
 9064SOL    HW128091   5.999   4.183   4.244
 9064SOL    HW228092   5.894   4.201   4.121
 9065SOL     OW28093   3.597   5.339   6.718
 9065SOL    HW128094   3.554   5.392   6.791
 9065SOL    HW228095   3.542   5.258   6.698
 9066SOL     OW28096   5.846   0.715   6.727
 9066SOL    HW128097   5.776   0.742   6.662
 9066SOL    HW228098   5.805   0.657   6.798
 9067SOL     OW28099   5.686   6.398   5.470
 9067SOL    HW128100   5.646   6.410   5.379
 9067SOL    HW228101   5.614   6.396   5.539
 9068SOL     OW28102   3.065   0.306   5.334
 9068SOL    HW128103   3.123   0.229   5.308
 9068SOL    HW228104   3.053   0.366   5.255
 9069SOL     OW28105   3.246   2.232   1.701
 9069SOL    HW128106   3.200   2.176   1.770
 9069SOL    HW228107   3.344   2.217   1.706
 9070SOL     OW28108   0.858   3.425   5.779
 9070SOL    HW128109   0.795   3.373   5.721
 9070SOL    HW228110   0.920   3.478   5.721
 9071SOL     OW28111   4.731   6.405   0.676
 9071SOL    HW128112   4.759   6.374   0.585
 9071SOL    HW228113   4.665   6.339   0.714
 9072SOL     OW28114   5.186   0.661   1.921
 9072SOL    HW128115   5.213   0.618   2.007
 9072SOL    HW228116   5.149   0.753   1.940
 9073SOL     OW28117   3.683   6.626   1.274
 9073SOL    HW128118   3.637   6.594   1.357
 9073SOL    HW228119   3.623   6.688   1.224
 9074SOL     OW28120   1.845   0.818   1.200
 9074SOL    HW128121   1.779   0.768   1.256
 9074SOL    HW228122   1.802   0.900   1.164
 9075SOL     OW28123   0.685   0.224   1.353
 9075SOL    HW128124   0.659   0.174   1.271
 9075SOL    HW228125   0.626   0.196   1.429
 9076SOL     OW28126   5.480   1.398   5.179
 9076SOL    HW128127   5.553   1.449   5.224
 9076SOL    HW228128   5.497   1.394   5.081
 9077SOL     OW28129   5.525   1.373   6.540
 9077SOL    HW128130   5.474   1.288   6.551
 9077SOL    HW228131   5.592   1.363   6.466
 9078SOL     OW28132   5.001   3.400   0.374
 9078SOL    HW128133   5.078   3.428   0.432
 9078SOL    HW228134   5.030   3.400   0.278
 9079SOL     OW28135   1.762   6.148   4.121
 9079SOL    HW128136   1.691   6.118   4.057
 9079SOL    HW228137   1.805   6.231   4.086
 9080SOL     OW28138   5.587   2.864   6.616
 9080SOL    HW128139   5.546   2.853   6.525
 9080SOL    HW228140   5.526   2.918   6.674
 9081SOL     OW28141   3.296   6.984   2.529
 9081SOL    HW128142   3.225   6.915   2.541
 9081SOL    HW228143   3.379   6.941   2.492
 9082SOL     OW28144   2.626   6.400   5.734
 9082SOL    HW128145   2.698   6.454   5.778
 9082SOL    HW228146   2.661   6.308   5.716
 9083SOL     OW28147   3.782   4.202   5.553
 9083SOL    HW128148   3.715   4.239   5.617
 9083SOL    HW228149   3.762   4.106   5.537
 9084SOL     OW28150   2.530   2.807   6.098
 9084SOL    HW128151   2.499   2.891   6.054
 9084SOL    HW228152   2.554   2.739   6.029
 9085SOL     OW28153   1.377   5.307   0.686
 9085SOL    HW128154   1.474   5.303   0.709
 9085SOL    HW228155   1.347   5.218   0.651
 9086SOL     OW28156   6.593   4.356   1.028
 9086SOL    HW128157   6.601   4.438   1.086
 9086SOL    HW228158   6.532   4.290   1.073
 9087SOL     OW28159   4.676   2.813   1.746
 9087SOL    HW128160   4.650   2.900   1.789
 9087SOL    HW228161   4.746   2.768   1.802
 9088SOL     OW28162   6.731   6.336   0.990
 9088SOL    HW128163   6.708   6.243   1.018
 9088SOL    HW228164   6.828   6.353   1.007
 9089SOL     OW28165   4.652   5.976   5.743
 9089SOL    HW128166   4.637   5.879   5.763
 9089SOL    HW228167   4.577   6.030   5.782
 9090SOL     OW28168   6.374   6.763   3.519
 9090SOL    HW128169   6.358   6.804   3.429
 9090SOL    HW228170   6.457   6.708   3.516
 9091SOL     OW28171   2.689   3.688   0.522
 9091SOL    HW128172   2.742   3.772   0.516
 9091SOL    HW228173   2.665   3.657   0.429
 9092SOL     OW28174   0.068   1.136   0.619
 9092SOL    HW128175   0.045   1.134   0.717
 9092SOL    HW228176   0.003   1.194   0.571
 9093SOL     OW28177   1.966   6.051   6.524
 9093SOL    HW128178   1.909   5.986   6.575
 9093SOL    HW228179   1.909   6.101   6.459
 9094SOL     OW28180   6.963   4.984   3.168
 9094SOL    HW128181   0.021   4.933   3.131
 9094SOL    HW228182   6.937   5.056   3.104
 9095SOL     OW28183   4.371   3.479   6.551
 9095SOL    HW128184   4.387   3.535   6.632
 9095SOL    HW228185   4.439   3.405   6.547
 9096SOL     OW28186   5.638   4.306   1.909
 9096SOL    HW128187   5.654   4.213   1.876
 9096SOL    HW228188   5.643   4.370   1.833
 9097SOL     OW28189   1.175   2.848   6.981
 9097SOL    HW128190   1.093   2.898   7.010
 9097SOL    HW228191   1.209   2.887   6.896
 9098SOL     OW28192   3.698   2.354   6.853
 9098SOL    HW128193   3.609   2.308   6.849
 9098SOL    HW228194   3.703   2.423   6.780
 9099SOL     OW28195   3.475   3.281   0.091
 9099SOL    HW128196   3.496   3.317   0.182
 9099SOL    HW228197   3.498   3.349   0.022
 9100SOL     OW28198   0.802   3.098   4.209
 9100SOL    HW128199   0.726   3.099   4.273
 9100SOL    HW228200   0.781   3.038   4.132
 9101SOL     OW28201   2.755   2.325   3.238
 9101SOL    HW128202   2.849   2.312   3.206
 9101SOL    HW228203   2.752   2.313   3.337
 9102SOL     OW28204   2.795   0.146   2.352
 9102SOL    HW128205   2.708   0.099   2.347
 9102SOL    HW228206   2.815   0.189   2.263
 9103SOL     OW28207   6.679   3.427   6.768
 9103SOL    HW128208   6.689   3.361   6.842
 9103SOL    HW228209   6.660   3.379   6.682
 9104SOL     OW28210   5.661   6.419   2.960
 9104SOL    HW128211   5.734   6.381   3.016
 9104SOL    HW228212   5.602   6.477   3.016
 9105SOL     OW28213   1.615   1.567   0.357
 9105SOL    HW128214   1.601   1.475   0.320
 9105SOL    HW228215   1.601   1.566   0.456
 9106SOL     OW28216   6.660   3.763   0.050
 9106SOL    HW128217   6.729   3.833   0.035
 9106SOL    HW228218   6.574   3.805   0.078
 9107SOL     OW28219   3.282   0.638   5.995
 9107SOL    HW128220   3.378   0.664   5.982
 9107SOL    HW228221   3.278   0.542   6.024
 9108SOL     OW28222   4.638   3.807   5.717
 9108SOL    HW128223   4.547   3.848   5.715
 9108SOL    HW228224   4.663   3.778   5.625
 9109SOL     OW28225   0.684   2.728   2.645
 9109SOL    HW128226   0.770   2.774   2.667
 9109SOL    HW228227   0.682   2.706   2.547
 9110SOL     OW28228   1.547   3.870   3.698
 9110SOL    HW128229   1.638   3.830   3.702
 9110SOL    HW228230   1.521   3.902   3.789
 9111SOL     OW28231   4.307   1.621   0.821
 9111SOL    HW128232   4.347   1.645   0.910
 9111SOL    HW228233   4.263   1.531   0.828
 9112SOL     OW28234   0.533   4.881   4.266
 9112SOL    HW128235   0.610   4.834   4.309
 9112SOL    HW228236   0.552   4.895   4.169
 9113SOL     OW28237   5.399   1.298   2.410
 9113SOL    HW128238   5.463   1.340   2.345
 9113SOL    HW228239   5.348   1.226   2.365
 9114SOL     OW28240   0.824   4.482   1.711
 9114SOL    HW128241   0.831   4.533   1.797
 9114SOL    HW228242   0.747   4.418   1.717
 9115SOL     OW28243   6.824   4.589   5.291
 9115SOL    HW128244   6.754   4.577   5.220
 9115SOL    HW228245   6.891   4.515   5.285
 9116SOL     OW28246   6.656   1.364   1.272
 9116SOL    HW128247   6.612   1.453   1.285
 9116SOL    HW228248   6.755   1.377   1.264
 9117SOL     OW28249   6.126   2.554   0.056
 9117SOL    HW128250   6.217   2.591   0.038
 9117SOL    HW228251   6.063   2.582   7.004
 9118SOL     OW28252   6.398   3.817   0.432
 9118SOL    HW128253   6.421   3.722   0.450
 9118SOL    HW228254   6.469   3.877   0.469
 9119SOL     OW28255   4.868   0.913   1.673
 9119SOL    HW128256   4.848   0.841   1.606
 9119SOL    HW228257   4.782   0.945   1.713
 9120SOL     OW28258   6.110   1.673   5.983
 9120SOL    HW128259   6.053   1.708   6.058
 9120SOL    HW228260   6.125   1.745   5.916
 9121SOL     OW28261   2.897   1.443   5.311
 9121SOL    HW128262   2.802   1.449   5.281
 9121SOL    HW228263   2.937   1.358   5.279
 9122SOL     OW28264   1.669   4.115   2.419
 9122SOL    HW128265   1.592   4.133   2.480
 9122SOL    HW228266   1.643   4.137   2.325
 9123SOL     OW28267   1.952   0.818   4.258
 9123SOL    HW128268   1.969   0.810   4.159
 9123SOL    HW228269   1.960   0.728   4.300
 9124SOL     OW28270   5.688   6.503   0.120
 9124SOL    HW128271   5.614   6.446   0.086
 9124SOL    HW228272   5.658   6.599   0.122
 9125SOL     OW28273   4.804   3.891   1.027
 9125SOL    HW128274   4.854   3.806   1.010
 9125SOL    HW228275   4.757   3.884   1.115
 9126SOL     OW28276   5.893   3.367   1.801
 9126SOL    HW128277   5.887   3.402   1.895
 9126SOL    HW228278   5.938   3.435   1.743
 9127SOL     OW28279   6.962   1.372   6.113
 9127SOL    HW128280   6.881   1.396   6.060
 9127SOL    HW228281   6.997   1.454   6.160
 9128SOL     OW28282   5.234   1.400   5.337
 9128SOL    HW128283   5.329   1.393   5.306
 9128SOL    HW228284   5.172   1.394   5.258
 9129SOL     OW28285   0.928   2.153   0.155
 9129SOL    HW128286   0.989   2.102   0.215
 9129SOL    HW228287   0.833   2.129   0.176
 9130SOL     OW28288   6.856   3.517   6.441
 9130SOL    HW128289   6.900   3.544   6.355
 9130SOL    HW228290   6.797   3.592   6.472
 9131SOL     OW28291   6.034   2.481   5.029
 9131SOL    HW128292   6.094   2.401   5.024
 9131SOL    HW228293   6.083   2.562   4.995
 9132SOL     OW28294   0.731   5.388   4.780
 9132SOL    HW128295   0.788   5.414   4.702
 9132SOL    HW228296   0.670   5.314   4.754
 9133SOL     OW28297   3.487   6.311   1.495
 9133SOL    HW128298   3.544   6.355   1.425
 9133SOL    HW228299   3.545   6.280   1.570
 9134SOL     OW28300   4.759   5.497   0.918
 9134SOL    HW128301   4.781   5.451   1.004
 9134SOL    HW228302   4.795   5.444   0.841
 9135SOL     OW28303   6.486   6.947   1.716
 9135SOL    HW128304   6.458   0.010   1.764
 9135SOL    HW228305   6.491   6.872   1.781
 9136SOL     OW28306   4.946   6.220   6.482
 9136SOL    HW128307   4.877   6.171   6.430
 9136SOL    HW228308   4.950   6.315   6.450
 9137SOL     OW28309   5.482   1.437   0.663
 9137SOL    HW128310   5.519   1.530   0.655
 9137SOL    HW228311   5.432   1.428   0.749
 9138SOL     OW28312   0.190   5.676   6.620
 9138SOL    HW128313   0.170   5.771   6.645
 9138SOL    HW228314   0.289   5.663   6.618
 9139SOL     OW28315   2.898   1.773   3.347
 9139SOL    HW128316   2.877   1.688   3.396
 9139SOL    HW228317   2.861   1.851   3.397
 9140SOL     OW28318   7.010   3.439   2.591
 9140SOL    HW128319   0.070   3.456   2.534
 9140SOL    HW228320   6.990   3.341   2.592
 9141SOL     OW28321   5.654   0.857   0.663
 9141SOL    HW128322   5.572   0.801   0.670
 9141SOL    HW228323   5.631   0.945   0.620
 9142SOL     OW28324   0.527   2.538   0.547
 9142SOL    HW128325   0.486   2.588   0.624
 9142SOL    HW228326   0.624   2.525   0.564
 9143SOL     OW28327   6.170   3.688   6.616
 9143SOL    HW128328   6.086   3.635   6.622
 9143SOL    HW228329   6.221   3.680   6.701
 9144SOL     OW28330   2.374   5.180   4.398
 9144SOL    HW128331   2.339   5.162   4.490
 9144SOL    HW228332   2.471   5.158   4.394
 9145SOL     OW28333   0.299   5.736   0.452
 9145SOL    HW128334   0.378   5.679   0.429
 9145SOL    HW228335   0.228   5.724   0.383
 9146SOL     OW28336   5.662   2.948   3.392
 9146SOL    HW128337   5.636   2.972   3.298
 9146SOL    HW228338   5.612   2.867   3.421
 9147SOL     OW28339   6.200   0.532   5.245
 9147SOL    HW128340   6.224   0.562   5.153
 9147SOL    HW228341   6.206   0.609   5.308
 9148SOL     OW28342   5.020   6.039   1.398
 9148SOL    HW128343   4.983   6.131   1.407
 9148SOL    HW228344   5.094   6.026   1.464
 9149SOL     OW28345   5.816   4.024   2.806
 9149SOL    HW128346   5.820   4.096   2.875
 9149SOL    HW228347   5.851   4.059   2.719
 9150SOL     OW28348   3.548   5.690   1.344
 9150SOL    HW128349   3.612   5.749   1.296
 9150SOL    HW228350   3.595   5.643   1.419
 9151SOL     OW28351   2.040   4.170   3.406
 9151SOL    HW128352   2.062   4.152   3.310
 9151SOL    HW228353   2.105   4.236   3.443
 9152SOL     OW28354   2.180   4.080   4.805
 9152SOL    HW128355   2.222   4.053   4.891
 9152SOL    HW228356   2.220   4.167   4.775
 9153SOL     OW28357   0.694   2.896   6.683
 9153SOL    HW128358   0.652   2.879   6.773
 9153SOL    HW228359   0.759   2.971   6.690
 9154SOL     OW28360   4.684   4.515   0.050
 9154SOL    HW128361   4.677   4.499   6.972
 9154SOL    HW228362   4.630   4.595   0.075
 9155SOL     OW28363   1.870   3.508   2.383
 9155SOL    HW128364   1.866   3.409   2.392
 9155SOL    HW228365   1.952   3.534   2.331
 9156SOL     OW28366   0.960   2.514   6.987
 9156SOL    HW128367   0.903   2.492   0.047
 9156SOL    HW228368   1.036   2.573   7.015
 9157SOL     OW28369   1.482   4.112   6.176
 9157SOL    HW128370   1.403   4.084   6.230
 9157SOL    HW228371   1.545   4.165   6.234
 9158SOL     OW28372   5.141   3.443   4.777
 9158SOL    HW128373   5.203   3.506   4.823
 9158SOL    HW228374   5.052   3.444   4.822
 9159SOL     OW28375   1.795   0.994   1.661
 9159SOL    HW128376   1.865   1.033   1.602
 9159SOL    HW228377   1.832   0.982   1.753
 9160SOL     OW28378   6.773   6.172   5.449
 9160SOL    HW128379   6.701   6.104   5.464
 9160SOL    HW228380   6.746   6.234   5.376
 9161SOL     OW28381   5.391   4.560   3.974
 9161SOL    HW128382   5.368   4.636   4.035
 9161SOL    HW228383   5.337   4.566   3.890
 9162SOL     OW28384   4.326   1.259   3.466
 9162SOL    HW128385   4.418   1.227   3.444
 9162SOL    HW228386   4.291   1.209   3.545
 9163SOL     OW28387   1.309   2.486   4.844
 9163SOL    HW128388   1.266   2.466   4.933
 9163SOL    HW228389   1.323   2.585   4.836
 9164SOL     OW28390   2.608   6.820   6.798
 9164SOL    HW128391   2.669   6.825   6.876
 9164SOL    HW228392   2.611   6.907   6.748
 9165SOL     OW28393   6.635   1.106   5.533
 9165SOL    HW128394   6.590   1.039   5.474
 9165SOL    HW228395   6.716   1.142   5.486
 9166SOL     OW28396   4.025   6.202   1.401
 9166SOL    HW128397   3.927   6.183   1.394
 9166SOL    HW228398   4.066   6.198   1.310
 9167SOL     OW28399   2.135   2.380   6.164
 9167SOL    HW128400   2.156   2.282   6.164
 9167SOL    HW228401   2.202   2.428   6.219
 9168SOL     OW28402   0.106   6.551   5.897
 9168SOL    HW128403   0.011   6.532   5.920
 9168SOL    HW228404   0.144   6.615   5.964
 9169SOL     OW28405   6.378   0.441   6.378
 9169SOL    HW128406   6.457   0.501   6.375
 9169SOL    HW228407   6.409   0.346   6.388
 9170SOL     OW28408   1.109   0.246   6.746
 9170SOL    HW128409   1.076   0.257   6.840
 9170SOL    HW228410   1.114   0.149   6.724
 9171SOL     OW28411   4.247   5.060   0.677
 9171SOL    HW128412   4.343   5.085   0.686
 9171SOL    HW228413   4.202   5.065   0.766
 9172SOL     OW28414   5.074   0.958   2.817
 9172SOL    HW128415   5.015   0.877   2.818
 9172SOL    HW228416   5.167   0.933   2.844
 9173SOL     OW28417   5.914   4.218   5.992
 9173SOL    HW128418   5.822   4.247   5.968
 9173SOL    HW228419   5.949   4.276   6.066
 9174SOL     OW28420   6.597   4.453   1.407
 9174SOL    HW128421   6.571   4.520   1.337
 9174SOL    HW228422   6.526   4.383   1.413
 9175SOL     OW28423   1.315   6.380   6.410
 9175SOL    HW128424   1.265   6.459   6.445
 9175SOL    HW228425   1.320   6.310   6.481
 9176SOL     OW28426   2.263   0.813   3.368
 9176SOL    HW128427   2.317   0.880   3.420
 9176SOL    HW228428   2.294   0.812   3.273
 9177SOL     OW28429   0.748   4.745   4.315
 9177SOL    HW128430   0.808   4.771   4.239
 9177SOL    HW228431   0.795   4.678   4.373
 9178SOL     OW28432   1.674   5.405   0.796
 9178SOL    HW128433   1.640   5.349   0.872
 9178SOL    HW228434   1.656   5.501   0.814
 9179SOL     OW28435   1.820   5.093   3.785
 9179SOL    HW128436   1.730   5.127   3.756
 9179SOL    HW228437   1.876   5.170   3.815
 9180SOL     OW28438   6.557   3.012   3.283
 9180SOL    HW128439   6.538   2.921   3.320
 9180SOL    HW228440   6.474   3.049   3.242
 9181SOL     OW28441   6.151   2.640   4.629
 9181SOL    HW128442   6.122   2.646   4.725
 9181SOL    HW228443   6.081   2.680   4.571
 9182SOL     OW28444   2.439   6.887   3.006
 9182SOL    HW128445   2.507   6.945   3.051
 9182SOL    HW228446   2.475   6.794   2.998
 9183SOL     OW28447   4.550   4.269   0.090
 9183SOL    HW128448   4.466   4.323   0.098
 9183SOL    HW228449   4.625   4.327   0.061
 9184SOL     OW28450   4.484   2.062   1.179
 9184SOL    HW128451   4.491   2.132   1.250
 9184SOL    HW228452   4.388   2.033   1.170
 9185SOL     OW28453   4.842   6.733   5.042
 9185SOL    HW128454   4.802   6.814   5.000
 9185SOL    HW228455   4.899   6.685   4.975
 9186SOL     OW28456   6.031   6.545   4.857
 9186SOL    HW128457   6.131   6.547   4.847
 9186SOL    HW228458   6.003   6.618   4.920
 9187SOL     OW28459   3.603   1.643   0.534
 9187SOL    HW128460   3.539   1.657   0.610
 9187SOL    HW228461   3.633   1.548   0.534
 9188SOL     OW28462   1.904   0.312   1.723
 9188SOL    HW128463   1.940   0.395   1.681
 9188SOL    HW228464   1.854   0.259   1.654
 9189SOL     OW28465   3.191   5.473   1.959
 9189SOL    HW128466   3.128   5.492   2.035
 9189SOL    HW228467   3.251   5.552   1.945
 9190SOL     OW28468   1.792   4.188   5.079
 9190SOL    HW128469   1.791   4.091   5.058
 9190SOL    HW228470   1.711   4.231   5.040
 9191SOL     OW28471   5.237   1.284   0.141
 9191SOL    HW128472   5.329   1.258   0.174
 9191SOL    HW228473   5.189   1.333   0.213
 9192SOL     OW28474   0.157   2.652   6.162
 9192SOL    HW128475   0.103   2.711   6.222
 9192SOL    HW228476   0.163   2.560   6.201
 9193SOL     OW28477   3.876   3.508   5.374
 9193SOL    HW128478   3.833   3.598   5.371
 9193SOL    HW228479   3.818   3.442   5.327
 9194SOL     OW28480   3.225   1.194   2.757
 9194SOL    HW128481   3.170   1.276   2.743
 9194SOL    HW228482   3.188   1.120   2.701
 9195SOL     OW28483   0.853   3.670   2.979
 9195SOL    HW128484   0.831   3.578   2.945
 9195SOL    HW228485   0.825   3.677   3.075
 9196SOL     OW28486   5.944   0.394   3.499
 9196SOL    HW128487   6.033   0.349   3.486
 9196SOL    HW228488   5.949   0.455   3.578
 9197SOL     OW28489   2.856   4.947   1.695
 9197SOL    HW128490   2.814   4.950   1.604
 9197SOL    HW228491   2.919   4.870   1.699
 9198SOL     OW28492   6.171   4.523   6.882
 9198SOL    HW128493   6.165   4.492   6.787
 9198SOL    HW228494   6.139   4.617   6.889
 9199SOL     OW28495   6.689   3.226   5.623
 9199SOL    HW128496   6.646   3.210   5.534
 9199SOL    HW228497   6.705   3.138   5.668
 9200SOL     OW28498   3.366   6.130   6.303
 9200SOL    HW128499   3.360   6.148   6.401
 9200SOL    HW228500   3.393   6.214   6.255
 9201SOL     OW28501   0.027   3.646   0.147
 9201SOL    HW128502   0.031   3.720   0.080
 9201SOL    HW228503   6.966   3.590   0.130
 9202SOL     OW28504   0.956   6.044   3.736
 9202SOL    HW128505   0.938   5.994   3.651
 9202SOL    HW228506   0.901   6.128   3.738
 9203SOL     OW28507   6.247   2.752   6.091
 9203SOL    HW128508   6.157   2.793   6.106
 9203SOL    HW228509   6.289   2.731   6.180
 9204SOL     OW28510   4.837   3.104   4.808
 9204SOL    HW128511   4.774   3.059   4.871
 9204SOL    HW228512   4.880   3.182   4.854
 9205SOL     OW28513   5.362   5.672   3.838
 9205SOL    HW128514   5.269   5.710   3.839
 9205SOL    HW228515   5.361   5.582   3.881
 9206SOL     OW28516   3.196   5.294   3.162
 9206SOL    HW128517   3.266   5.260   3.226
 9206SOL    HW228518   3.106   5.278   3.201
 9207SOL     OW28519   4.871   4.008   0.274
 9207SOL    HW128520   4.805   3.934   0.260
 9207SOL    HW228521   4.935   4.010   0.198
 9208SOL     OW28522   5.426   4.686   3.185
 9208SOL    HW128523   5.356   4.757   3.186
 9208SOL    HW228524   5.392   4.604   3.232
 9209SOL     OW28525   4.822   0.982   0.193
 9209SOL    HW128526   4.909   1.013   0.155
 9209SOL    HW228527   4.797   0.895   0.151
 9210SOL     OW28528   1.446   1.750   1.635
 9210SOL    HW128529   1.488   1.691   1.703
 9210SOL    HW228530   1.356   1.713   1.611
 9211SOL     OW28531   6.051   2.978   6.194
 9211SOL    HW128532   6.018   2.993   6.287
 9211SOL    HW228533   6.130   3.037   6.177
 9212SOL     OW28534   4.693   5.574   4.425
 9212SOL    HW128535   4.790   5.593   4.441
 9212SOL    HW228536   4.683   5.527   4.337
 9213SOL     OW28537   5.607   4.704   4.963
 9213SOL    HW128538   5.526   4.761   4.977
 9213SOL    HW228539   5.654   4.691   5.051
 9214SOL     OW28540   6.924   3.360   5.720
 9214SOL    HW128541   6.996   3.290   5.728
 9214SOL    HW228542   6.856   3.331   5.653
 9215SOL     OW28543   2.091   3.283   2.208
 9215SOL    HW128544   2.124   3.354   2.147
 9215SOL    HW228545   2.136   3.291   2.297
 9216SOL     OW28546   2.650   6.734   3.385
 9216SOL    HW128547   2.728   6.680   3.354
 9216SOL    HW228548   2.598   6.683   3.453
 9217SOL     OW28549   6.221   3.473   6.146
 9217SOL    HW128550   6.148   3.540   6.159
 9217SOL    HW228551   6.211   3.399   6.213
 9218SOL     OW28552   3.009   0.621   0.249
 9218SOL    HW128553   3.011   0.721   0.245
 9218SOL    HW228554   3.101   0.586   0.231
 9219SOL     OW28555   5.226   3.814   6.353
 9219SOL    HW128556   5.290   3.872   6.403
 9219SOL    HW228557   5.168   3.872   6.295
 9220SOL     OW28558   0.790   6.107   1.733
 9220SOL    HW128559   0.817   6.143   1.822
 9220SOL    HW228560   0.720   6.165   1.692
 9221SOL     OW28561   1.738   0.787   2.624
 9221SOL    HW128562   1.651   0.810   2.669
 9221SOL    HW228563   1.734   0.815   2.528
 9222SOL     OW28564   2.486   5.853   5.898
 9222SOL    HW128565   2.455   5.945   5.874
 9222SOL    HW228566   2.574   5.858   5.944
 9223SOL     OW28567   1.307   2.164   4.165
 9223SOL    HW128568   1.301   2.142   4.068
 9223SOL    HW228569   1.310   2.263   4.177
 9224SOL     OW28570   0.775   5.176   4.500
 9224SOL    HW128571   0.772   5.148   4.405
 9224SOL    HW228572   0.819   5.105   4.555
 9225SOL     OW28573   3.206   5.930   6.607
 9225SOL    HW128574   3.246   5.860   6.666
 9225SOL    HW228575   3.152   5.887   6.535
 9226SOL     OW28576   0.220   6.526   1.214
 9226SOL    HW128577   0.229   6.426   1.222
 9226SOL    HW228578   0.132   6.548   1.171
 9227SOL     OW28579   2.036   5.557   1.112
 9227SOL    HW128580   2.036   5.656   1.094
 9227SOL    HW228581   2.128   5.521   1.096
 9228SOL     OW28582   2.915   1.108   6.462
 9228SOL    HW128583   2.988   1.162   6.418
 9228SOL    HW228584   2.957   1.038   6.520
 9229SOL     OW28585   1.174   5.127   5.049
 9229SOL    HW128586   1.232   5.087   5.120
 9229SOL    HW228587   1.092   5.167   5.090
 9230SOL     OW28588   5.292   3.152   3.149
 9230SOL    HW128589   5.240   3.118   3.228
 9230SOL    HW228590   5.230   3.199   3.087
 9231SOL     OW28591   1.054   3.460   4.541
 9231SOL    HW128592   1.137   3.463   4.598
 9231SOL    HW228593   1.031   3.365   4.521
 9232SOL     OW28594   3.656   4.932   6.811
 9232SOL    HW128595   3.577   4.993   6.811
 9232SOL    HW228596   3.740   4.986   6.810
 9233SOL     OW28597   5.720   6.059   1.941
 9233SOL    HW128598   5.681   6.086   2.029
 9233SOL    HW228599   5.771   5.973   1.952
 9234SOL     OW28600   3.829   5.117   6.992
 9234SOL    HW128601   3.857   5.049   0.039
 9234SOL    HW228602   3.734   5.142   7.006
 9235SOL     OW28603   1.743   2.667   3.718
 9235SOL    HW128604   1.746   2.710   3.808
 9235SOL    HW228605   1.703   2.730   3.652
 9236SOL     OW28606   1.963   4.592   6.384
 9236SOL    HW128607   1.953   4.502   6.426
 9236SOL    HW228608   1.910   4.659   6.436
 9237SOL     OW28609   0.092   6.183   3.482
 9237SOL    HW128610   0.028   6.190   3.558
 9237SOL    HW228611   0.046   6.142   3.403
 9238SOL     OW28612   1.644   2.371   6.576
 9238SOL    HW128613   1.730   2.420   6.591
 9238SOL    HW228614   1.655   2.276   6.602
 9239SOL     OW28615   6.974   3.827   6.957
 9239SOL    HW128616   6.941   3.921   6.952
 9239SOL    HW228617   0.037   3.818   6.902
 9240SOL     OW28618   5.278   2.662   2.420
 9240SOL    HW128619   5.263   2.721   2.341
 9240SOL    HW228620   5.283   2.566   2.389
 9241SOL     OW28621   0.880   5.383   5.777
 9241SOL    HW128622   0.928   5.347   5.697
 9241SOL    HW228623   0.913   5.337   5.859
 9242SOL     OW28624   1.374   5.057   0.228
 9242SOL    HW128625   1.380   5.025   0.134
 9242SOL    HW228626   1.411   4.987   0.290
 9243SOL     OW28627   0.501   0.156   1.540
 9243SOL    HW128628   0.515   0.060   1.565
 9243SOL    HW228629   0.438   0.199   1.604
 9244SOL     OW28630   3.887   4.821   6.173
 9244SOL    HW128631   3.824   4.854   6.244
 9244SOL    HW228632   3.955   4.892   6.153
 9245SOL     OW28633   0.991   5.461   4.121
 9245SOL    HW128634   1.003   5.412   4.035
 9245SOL    HW228635   1.058   5.428   4.188
 9246SOL     OW28636   6.214   6.625   2.255
 9246SOL    HW128637   6.302   6.611   2.301
 9246SOL    HW228638   6.219   6.590   2.162
 9247SOL     OW28639   1.898   6.136   3.415
 9247SOL    HW128640   1.897   6.216   3.475
 9247SOL    HW228641   1.879   6.164   3.321
 9248SOL     OW28642   2.502   2.158   4.730
 9248SOL    HW128643   2.526   2.216   4.808
 9248SOL    HW228644   2.538   2.066   4.744
 9249SOL     OW28645   3.681   4.265   1.056
 9249SOL    HW128646   3.721   4.189   1.108
 9249SOL    HW228647   3.591   4.286   1.092
 9250SOL     OW28648   6.051   2.929   3.786
 9250SOL    HW128649   6.058   3.010   3.843
 9250SOL    HW228650   6.122   2.931   3.715
 9251SOL     OW28651   3.682   1.651   2.728
 9251SOL    HW128652   3.745   1.729   2.732
 9251SOL    HW228653   3.615   1.666   2.655
 9252SOL     OW28654   5.355   0.996   4.033
 9252SOL    HW128655   5.301   1.039   4.105
 9252SOL    HW228656   5.322   0.904   4.016
 9253SOL     OW28657   5.499   5.708   5.941
 9253SOL    HW128658   5.495   5.806   5.918
 9253SOL    HW228659   5.538   5.698   6.032
 9254SOL     OW28660   5.835   5.072   3.622
 9254SOL    HW128661   5.820   5.028   3.533
 9254SOL    HW228662   5.851   5.001   3.691
 9255SOL     OW28663   4.489   3.951   0.475
 9255SOL    HW128664   4.427   3.916   0.404
 9255SOL    HW228665   4.541   4.028   0.439
 9256SOL     OW28666   2.903   0.375   2.979
 9256SOL    HW128667   2.840   0.307   2.940
 9256SOL    HW228668   2.889   0.381   3.077
 9257SOL     OW28669   0.589   4.408   3.168
 9257SOL    HW128670   0.490   4.398   3.162
 9257SOL    HW228671   0.618   4.391   3.262
 9258SOL     OW28672   2.961   3.343   3.010
 9258SOL    HW128673   2.918   3.333   3.100
 9258SOL    HW228674   3.009   3.431   3.006
 9259SOL     OW28675   0.809   2.712   6.877
 9259SOL    HW128676   0.848   2.621   6.892
 9259SOL    HW228677   0.872   2.766   6.820
 9260SOL     OW28678   6.068   1.616   4.893
 9260SOL    HW128679   6.085   1.651   4.985
 9260SOL    HW228680   6.056   1.693   4.830
 9261SOL     OW28681   2.509   1.394   0.207
 9261SOL    HW128682   2.568   1.471   0.182
 9261SOL    HW228683   2.494   1.395   0.306
 9262SOL     OW28684   6.768   4.942   5.171
 9262SOL    HW128685   6.679   4.899   5.159
 9262SOL    HW228686   6.770   4.991   5.258
 9263SOL     OW28687   4.731   0.034   1.533
 9263SOL    HW128688   4.724   6.956   1.553
 9263SOL    HW228689   4.641   0.068   1.506
 9264SOL     OW28690   4.808   4.898   0.318
 9264SOL    HW128691   4.781   4.856   0.405
 9264SOL    HW228692   4.786   4.837   0.243
 9265SOL     OW28693   3.677   2.086   0.442
 9265SOL    HW128694   3.612   2.154   0.409
 9265SOL    HW228695   3.645   1.995   0.417
 9266SOL     OW28696   1.532   6.635   1.120
 9266SOL    HW128697   1.450   6.685   1.149
 9266SOL    HW228698   1.546   6.556   1.179
 9267SOL     OW28699   6.860   2.875   4.532
 9267SOL    HW128700   6.784   2.932   4.562
 9267SOL    HW228701   6.927   2.866   4.606
 9268SOL     OW28702   1.332   5.524   2.656
 9268SOL    HW128703   1.312   5.437   2.700
 9268SOL    HW228704   1.373   5.507   2.566
 9269SOL     OW28705   3.755   1.320   6.754
 9269SOL    HW128706   3.776   1.256   6.679
 9269SOL    HW228707   3.660   1.308   6.782
 9270SOL     OW28708   4.473   6.933   5.910
 9270SOL    HW128709   4.573   6.937   5.913
 9270SOL    HW228710   4.436   0.005   5.921
 9271SOL     OW28711   5.557   0.240   0.909
 9271SOL    HW128712   5.539   0.333   0.877
 9271SOL    HW228713   5.621   0.242   0.985
 9272SOL     OW28714   1.134   5.839   4.626
 9272SOL    HW128715   1.129   5.808   4.721
 9272SOL    HW228716   1.054   5.806   4.576
 9273SOL     OW28717   5.466   6.789   2.945
 9273SOL    HW128718   5.461   6.729   3.024
 9273SOL    HW228719   5.504   6.739   2.867
 9274SOL     OW28720   6.268   1.549   6.754
 9274SOL    HW128721   6.201   1.619   6.780
 9274SOL    HW228722   6.352   1.594   6.725
 9275SOL     OW28723   6.185   0.863   0.640
 9275SOL    HW128724   6.191   0.776   0.690
 9275SOL    HW228725   6.186   0.845   0.542
 9276SOL     OW28726   1.728   3.307   1.487
 9276SOL    HW128727   1.711   3.313   1.585
 9276SOL    HW228728   1.642   3.319   1.438
 9277SOL     OW28729   4.646   3.394   0.657
 9277SOL    HW128730   4.550   3.418   0.670
 9277SOL    HW228731   4.691   3.465   0.603
 9278SOL     OW28732   1.976   0.457   6.051
 9278SOL    HW128733   2.002   0.373   6.003
 9278SOL    HW228734   1.965   0.531   5.985
 9279SOL     OW28735   3.837   1.098   2.262
 9279SOL    HW128736   3.820   1.177   2.202
 9279SOL    HW228737   3.766   1.093   2.332
 9280SOL     OW28738   2.207   1.744   2.897
 9280SOL    HW128739   2.159   1.790   2.971
 9280SOL    HW228740   2.182   1.647   2.896
 9281SOL     OW28741   2.317   3.466   6.695
 9281SOL    HW128742   2.336   3.507   6.606
 9281SOL    HW228743   2.399   3.471   6.752
 9282SOL     OW28744   5.111   0.360   3.936
 9282SOL    HW128745   5.170   0.285   3.964
 9282SOL    HW228746   5.100   0.358   3.836
 9283SOL     OW28747   5.244   0.564   3.621
 9283SOL    HW128748   5.190   0.483   3.643
 9283SOL    HW228749   5.188   0.646   3.635
 9284SOL     OW28750   2.897   3.423   5.145
 9284SOL    HW128751   2.871   3.497   5.206
 9284SOL    HW228752   2.889   3.335   5.193
 9285SOL     OW28753   4.622   2.374   1.080
 9285SOL    HW128754   4.539   2.388   1.134
 9285SOL    HW228755   4.657   2.463   1.050
 9286SOL     OW28756   5.128   5.750   1.095
 9286SOL    HW128757   5.146   5.741   1.193
 9286SOL    HW228758   5.199   5.807   1.054
 9287SOL     OW28759   3.067   4.815   0.444
 9287SOL    HW128760   2.985   4.870   0.429
 9287SOL    HW228761   3.054   4.756   0.523
 9288SOL     OW28762   4.660   1.918   2.847
 9288SOL    HW128763   4.597   1.858   2.797
 9288SOL    HW228764   4.753   1.885   2.835
 9289SOL     OW28765   3.429   0.797   2.234
 9289SOL    HW128766   3.415   0.704   2.269
 9289SOL    HW228767   3.450   0.794   2.137
 9290SOL     OW28768   5.923   1.090   2.767
 9290SOL    HW128769   5.862   1.169   2.765
 9290SOL    HW228770   5.939   1.061   2.862
 9291SOL     OW28771   0.974   5.965   4.940
 9291SOL    HW128772   1.065   5.938   4.909
 9291SOL    HW228773   0.913   5.973   4.861
 9292SOL     OW28774   1.673   2.857   6.386
 9292SOL    HW128775   1.646   2.764   6.361
 9292SOL    HW228776   1.619   2.922   6.333
 9293SOL     OW28777   5.202   2.929   6.524
 9293SOL    HW128778   5.262   2.929   6.604
 9293SOL    HW228779   5.108   2.910   6.552
 9294SOL     OW28780   4.187   0.677   5.667
 9294SOL    HW128781   4.269   0.647   5.718
 9294SOL    HW228782   4.212   0.750   5.604
 9295SOL     OW28783   5.274   1.344   4.868
 9295SOL    HW128784   5.211   1.412   4.831
 9295SOL    HW228785   5.366   1.383   4.874
 9296SOL     OW28786   1.741   5.746   0.134
 9296SOL    HW128787   1.789   5.793   0.060
 9296SOL    HW228788   1.758   5.794   0.220
 9297SOL     OW28789   0.119   0.200   2.288
 9297SOL    HW128790   0.084   0.252   2.211
 9297SOL    HW228791   0.205   0.240   2.320
 9298SOL     OW28792   1.047   6.357   6.219
 9298SOL    HW128793   1.137   6.358   6.176
 9298SOL    HW228794   0.983   6.412   6.164
 9299SOL     OW28795   0.680   2.422   4.863
 9299SOL    HW128796   0.594   2.453   4.822
 9299SOL    HW228797   0.735   2.375   4.794
 9300SOL     OW28798   0.055   4.518   5.745
 9300SOL    HW128799   0.154   4.530   5.751
 9300SOL    HW228800   0.017   4.504   5.836
 9301SOL     OW28801   5.430   5.238   4.232
 9301SOL    HW128802   5.395   5.325   4.268
 9301SOL    HW228803   5.372   5.163   4.265
 9302SOL     OW28804   2.186   2.603   4.225
 9302SOL    HW128805   2.089   2.583   4.219
 9302SOL    HW228806   2.222   2.626   4.134
 9303SOL     OW28807   2.380   3.917   0.760
 9303SOL    HW128808   2.433   3.839   0.793
 9303SOL    HW228809   2.319   3.887   0.687
 9304SOL     OW28810   4.086   4.707   1.834
 9304SOL    HW128811   4.095   4.721   1.736
 9304SOL    HW228812   4.177   4.699   1.876
 9305SOL     OW28813   3.463   1.269   0.852
 9305SOL    HW128814   3.547   1.234   0.893
 9305SOL    HW228815   3.430   1.204   0.784
 9306SOL     OW28816   0.343   5.560   5.270
 9306SOL    HW128817   0.435   5.546   5.234
 9306SOL    HW228818   0.310   5.650   5.242
 9307SOL     OW28819   1.425   3.497   1.562
 9307SOL    HW128820   1.407   3.406   1.523
 9307SOL    HW228821   1.345   3.527   1.613
 9308SOL     OW28822   2.384   3.477   0.212
 9308SOL    HW128823   2.313   3.441   0.152
 9308SOL    HW228824   2.342   3.523   0.290
 9309SOL     OW28825   3.744   4.575   5.858
 9309SOL    HW128826   3.758   4.517   5.938
 9309SOL    HW228827   3.771   4.669   5.880
 9310SOL     OW28828   5.046   5.067   6.361
 9310SOL    HW128829   5.004   5.147   6.318
 9310SOL    HW228830   5.144   5.065   6.341
 9311SOL     OW28831   4.669   4.790   1.338
 9311SOL    HW128832   4.640   4.774   1.432
 9311SOL    HW228833   4.763   4.759   1.326
 9312SOL     OW28834   0.987   3.815   0.909
 9312SOL    HW128835   0.953   3.858   0.825
 9312SOL    HW228836   1.018   3.722   0.889
 9313SOL     OW28837   0.359   0.944   0.813
 9313SOL    HW128838   0.375   0.871   0.879
 9313SOL    HW228839   0.441   0.957   0.757
 9314SOL     OW28840   5.772   4.497   6.924
 9314SOL    HW128841   5.867   4.471   6.910
 9314SOL    HW228842   5.713   4.443   6.863
 9315SOL     OW28843   6.039   0.309   5.062
 9315SOL    HW128844   6.040   0.294   5.161
 9315SOL    HW228845   6.117   0.366   5.036
 9316SOL     OW28846   5.828   6.661   6.106
 9316SOL    HW128847   5.897   6.723   6.144
 9316SOL    HW228848   5.759   6.713   6.056
 9317SOL     OW28849   5.459   5.027   3.886
 9317SOL    HW128850   5.376   5.083   3.883
 9317SOL    HW228851   5.536   5.080   3.851
 9318SOL     OW28852   5.773   1.254   5.886
 9318SOL    HW128853   5.823   1.340   5.895
 9318SOL    HW228854   5.832   1.178   5.917
 9319SOL     OW28855   2.635   2.574   6.488
 9319SOL    HW128856   2.569   2.534   6.552
 9319SOL    HW228857   2.625   2.674   6.488
 9320SOL     OW28858   3.284   0.447   4.901
 9320SOL    HW128859   3.205   0.393   4.930
 9320SOL    HW228860   3.268   0.544   4.921
 9321SOL     OW28861   0.682   0.438   4.350
 9321SOL    HW128862   0.594   0.464   4.310
 9321SOL    HW228863   0.756   0.471   4.292
 9322SOL     OW28864   6.914   3.827   5.896
 9322SOL    HW128865   6.884   3.898   5.961
 9322SOL    HW228866   7.014   3.822   5.895
 9323SOL     OW28867   1.354   0.612   5.342
 9323SOL    HW128868   1.417   0.679   5.382
 9323SOL    HW228869   1.370   0.606   5.243
 9324SOL     OW28870   1.440   4.360   1.542
 9324SOL    HW128871   1.454   4.306   1.459
 9324SOL    HW228872   1.469   4.454   1.525
 9325SOL     OW28873   5.482   1.222   0.220
 9325SOL    HW128874   5.580   1.238   0.218
 9325SOL    HW228875   5.460   1.144   0.162
 9326SOL     OW28876   2.497   4.754   0.495
 9326SOL    HW128877   2.443   4.813   0.554
 9326SOL    HW228878   2.498   4.661   0.532
 9327SOL     OW28879   4.947   0.405   2.701
 9327SOL    HW128880   4.975   0.495   2.667
 9327SOL    HW228881   5.026   0.359   2.743
 9328SOL     OW28882   2.691   0.969   4.976
 9328SOL    HW128883   2.654   0.998   5.064
 9328SOL    HW228884   2.773   1.022   4.955
 9329SOL     OW28885   5.899   3.724   0.734
 9329SOL    HW128886   5.840   3.681   0.666
 9329SOL    HW228887   5.878   3.821   0.740
 9330SOL     OW28888   6.550   0.311   5.554
 9330SOL    HW128889   6.554   0.376   5.630
 9330SOL    HW228890   6.501   0.353   5.477
 9331SOL     OW28891   2.245   1.085   6.920
 9331SOL    HW128892   2.183   1.074   6.843
 9331SOL    HW228893   2.212   1.158   6.979
 9332SOL     OW28894   4.086   4.645   0.940
 9332SOL    HW128895   4.074   4.717   0.872
 9332SOL    HW228896   4.047   4.560   0.906
 9333SOL     OW28897   3.877   3.900   6.880
 9333SOL    HW128898   3.819   3.954   6.941
 9333SOL    HW228899   3.949   3.958   6.843
 9334SOL     OW28900   5.176   6.408   3.517
 9334SOL    HW128901   5.208   6.430   3.609
 9334SOL    HW228902   5.247   6.358   3.468
 9335SOL     OW28903   1.103   0.601   6.874
 9335SOL    HW128904   1.016   0.571   6.834
 9335SOL    HW228905   1.143   0.672   6.817
 9336SOL     OW28906   3.532   6.326   5.682
 9336SOL    HW128907   3.435   6.320   5.706
 9336SOL    HW228908   3.584   6.357   5.761
 9337SOL     OW28909   4.147   1.405   4.557
 9337SOL    HW128910   4.155   1.505   4.549
 9337SOL    HW228911   4.131   1.381   4.653
 9338SOL     OW28912   6.078   0.224   1.596
 9338SOL    HW128913   6.042   0.135   1.625
 9338SOL    HW228914   6.054   0.240   1.500
 9339SOL     OW28915   5.990   6.173   1.123
 9339SOL    HW128916   6.015   6.099   1.060
 9339SOL    HW228917   6.045   6.255   1.101
 9340SOL     OW28918   4.842   4.721   3.345
 9340SOL    HW128919   4.823   4.818   3.361
 9340SOL    HW228920   4.930   4.698   3.388
 9341SOL     OW28921   0.000   5.009   1.323
 9341SOL    HW128922   0.069   5.068   1.365
 9341SOL    HW228923   6.939   5.006   1.380
 9342SOL     OW28924   3.183   6.632   3.622
 9342SOL    HW128925   3.114   6.665   3.558
 9342SOL    HW228926   3.157   6.658   3.715
 9343SOL     OW28927   5.190   4.165   1.517
 9343SOL    HW128928   5.103   4.141   1.473
 9343SOL    HW228929   5.177   4.246   1.574
 9344SOL     OW28930   5.243   6.645   2.066
 9344SOL    HW128931   5.179   6.671   2.138
 9344SOL    HW228932   5.193   6.623   1.983
 9345SOL     OW28933   6.794   5.877   1.885
 9345SOL    HW128934   6.743   5.792   1.902
 9345SOL    HW228935   6.848   5.867   1.802
 9346SOL     OW28936   5.532   0.874   1.493
 9346SOL    HW128937   5.495   0.820   1.569
 9346SOL    HW228938   5.550   0.967   1.525
 9347SOL     OW28939   3.629   4.053   0.656
 9347SOL    HW128940   3.629   3.954   0.667
 9347SOL    HW228941   3.536   4.088   0.664
 9348SOL     OW28942   2.097   6.005   3.047
 9348SOL    HW128943   2.068   6.071   3.116
 9348SOL    HW228944   2.169   6.046   2.991
 9349SOL     OW28945   6.638   4.820   2.339
 9349SOL    HW128946   6.630   4.842   2.242
 9349SOL    HW228947   6.709   4.751   2.352
 9350SOL     OW28948   6.839   2.634   5.370
 9350SOL    HW128949   6.923   2.688   5.378
 9350SOL    HW228950   6.824   2.609   5.275
 9351SOL     OW28951   3.559   6.737   6.257
 9351SOL    HW128952   3.626   6.806   6.283
 9351SOL    HW228953   3.525   6.756   6.165
 9352SOL     OW28954   3.729   1.196   6.456
 9352SOL    HW128955   3.651   1.173   6.397
 9352SOL    HW228956   3.788   1.115   6.466
 9353SOL     OW28957   0.834   4.239   0.998
 9353SOL    HW128958   0.909   4.288   1.041
 9353SOL    HW228959   0.860   4.210   0.906
 9354SOL     OW28960   6.881   2.095   6.165
 9354SOL    HW128961   6.875   2.011   6.218
 9354SOL    HW228962   6.977   2.124   6.159
 9355SOL     OW28963   0.155   2.174   4.721
 9355SOL    HW128964   0.080   2.116   4.752
 9355SOL    HW228965   0.121   2.238   4.653
 9356SOL     OW28966   4.567   6.478   2.078
 9356SOL    HW128967   4.533   6.415   2.009
 9356SOL    HW228968   4.525   6.568   2.065
 9357SOL     OW28969   1.594   3.464   6.465
 9357SOL    HW128970   1.526   3.412   6.414
 9357SOL    HW228971   1.643   3.404   6.527
 9358SOL     OW28972   0.146   3.179   2.101
 9358SOL    HW128973   0.222   3.232   2.139
 9358SOL    HW228974   0.071   3.241   2.078
 9359SOL     OW28975   1.949   3.508   5.701
 9359SOL    HW128976   1.864   3.543   5.662
 9359SOL    HW228977   2.027   3.558   5.661
 9360SOL     OW28978   1.335   5.640   6.925
 9360SOL    HW128979   1.306   5.649   6.830
 9360SOL    HW228980   1.288   5.562   6.967
 9361SOL     OW28981   1.468   5.185   2.547
 9361SOL    HW128982   1.494   5.273   2.508
 9361SOL    HW228983   1.472   5.190   2.646
 9362SOL     OW28984   1.925   2.758   2.771
 9362SOL    HW128985   1.992   2.710   2.828
 9362SOL    HW228986   1.954   2.853   2.758
 9363SOL     OW28987   3.658   6.574   2.047
 9363SOL    HW128988   3.676   6.514   2.125
 9363SOL    HW228989   3.569   6.552   2.009
 9364SOL     OW28990   3.489   2.865   6.185
 9364SOL    HW128991   3.504   2.958   6.153
 9364SOL    HW228992   3.539   2.850   6.271
 9365SOL     OW28993   2.393   1.999   4.128
 9365SOL    HW128994   2.423   2.094   4.122
 9365SOL    HW228995   2.395   1.958   4.037
 9366SOL     OW28996   3.580   5.604   6.088
 9366SOL    HW128997   3.487   5.569   6.085
 9366SOL    HW228998   3.580   5.701   6.066
 9367SOL     OW28999   0.358   6.690   3.256
 9367SOL    HW129000   0.377   6.751   3.180
 9367SOL    HW229001   0.272   6.714   3.299
 9368SOL     OW29002   2.758   0.968   2.483
 9368SOL    HW129003   2.702   0.978   2.400
 9368SOL    HW229004   2.786   0.873   2.493
 9369SOL     OW29005   6.481   6.001   4.316
 9369SOL    HW129006   6.399   6.048   4.347
 9369SOL    HW229007   6.562   6.055   4.341
 9370SOL     OW29008   5.566   0.345   3.652
 9370SOL    HW129009   5.475   0.317   3.679
 9370SOL    HW229010   5.586   0.436   3.690
 9371SOL     OW29011   3.069   5.077   0.878
 9371SOL    HW129012   3.022   4.989   0.887
 9371SOL    HW229013   3.154   5.075   0.931
 9372SOL     OW29014   4.897   0.833   1.955
 9372SOL    HW129015   4.920   0.930   1.964
 9372SOL    HW229016   4.895   0.808   1.858
 9373SOL     OW29017   5.076   1.886   1.949
 9373SOL    HW129018   5.168   1.856   1.924
 9373SOL    HW229019   5.081   1.975   1.994
 9374SOL     OW29020   0.303   3.649   0.126
 9374SOL    HW129021   0.306   3.608   0.035
 9374SOL    HW229022   0.218   3.622   0.171
 9375SOL     OW29023   0.936   1.397   1.362
 9375SOL    HW129024   0.882   1.424   1.282
 9375SOL    HW229025   0.932   1.298   1.374
 9376SOL     OW29026   2.510   4.149   1.084
 9376SOL    HW129027   2.570   4.125   1.008
 9376SOL    HW229028   2.565   4.179   1.162
 9377SOL     OW29029   1.766   5.468   3.278
 9377SOL    HW129030   1.751   5.383   3.328
 9377SOL    HW229031   1.862   5.495   3.285
 9378SOL     OW29032   1.669   1.174   3.928
 9378SOL    HW129033   1.609   1.207   4.002
 9378SOL    HW229034   1.617   1.115   3.867
 9379SOL     OW29035   4.900   0.134   5.518
 9379SOL    HW129036   4.929   0.052   5.469
 9379SOL    HW229037   4.838   0.109   5.592
 9380SOL     OW29038   4.501   5.633   5.798
 9380SOL    HW129039   4.406   5.602   5.804
 9380SOL    HW229040   4.561   5.554   5.786
 9381SOL     OW29041   4.474   3.092   5.879
 9381SOL    HW129042   4.533   3.162   5.918
 9381SOL    HW229043   4.523   3.006   5.873
 9382SOL     OW29044   3.158   0.773   4.232
 9382SOL    HW129045   3.238   0.791   4.289
 9382SOL    HW229046   3.168   0.684   4.188
 9383SOL     OW29047   5.822   5.492   4.498
 9383SOL    HW129048   5.883   5.571   4.492
 9383SOL    HW229049   5.793   5.466   4.406
 9384SOL     OW29050   4.349   0.519   2.003
 9384SOL    HW129051   4.318   0.483   1.915
 9384SOL    HW229052   4.397   0.446   2.054
 9385SOL     OW29053   3.986   1.342   3.695
 9385SOL    HW129054   4.036   1.399   3.760
 9385SOL    HW229055   3.921   1.284   3.745
 9386SOL     OW29056   3.249   5.574   4.890
 9386SOL    HW129057   3.154   5.605   4.891
 9386SOL    HW229058   3.260   5.496   4.951
 9387SOL     OW29059   2.743   2.106   0.238
 9387SOL    HW129060   2.774   2.168   0.166
 9387SOL    HW229061   2.651   2.073   0.216
 9388SOL     OW29062   2.814   5.901   3.166
 9388SOL    HW129063   2.870   5.969   3.119
 9388SOL    HW229064   2.773   5.941   3.248
 9389SOL     OW29065   1.953   0.137   3.340
 9389SOL    HW129066   2.012   0.198   3.285
 9389SOL    HW229067   1.995   0.047   3.345
 9390SOL     OW29068   5.472   4.695   6.603
 9390SOL    HW129069   5.480   4.696   6.703
 9390SOL    HW229070   5.553   4.739   6.563
 9391SOL     OW29071   1.513   0.818   5.462
 9391SOL    HW129072   1.600   0.818   5.413
 9391SOL    HW229073   1.513   0.747   5.531
 9392SOL     OW29074   5.526   5.290   5.661
 9392SOL    HW129075   5.430   5.316   5.645
 9392SOL    HW229076   5.555   5.325   5.750
 9393SOL     OW29077   3.359   6.824   6.426
 9393SOL    HW129078   3.423   6.867   6.489
 9393SOL    HW229079   3.407   6.798   6.342
 9394SOL     OW29080   6.782   0.690   1.763
 9394SOL    HW129081   6.875   0.654   1.760
 9394SOL    HW229082   6.775   0.771   1.704
 9395SOL     OW29083   3.466   1.205   1.378
 9395SOL    HW129084   3.388   1.243   1.428
 9395SOL    HW229085   3.436   1.177   1.287
 9396SOL     OW29086   2.350   4.233   3.789
 9396SOL    HW129087   2.446   4.214   3.766
 9396SOL    HW229088   2.292   4.161   3.750
 9397SOL     OW29089   3.648   6.299   6.372
 9397SOL    HW129090   3.576   6.367   6.387
 9397SOL    HW229091   3.620   6.211   6.411
 9398SOL     OW29092   6.177   0.919   5.118
 9398SOL    HW129093   6.219   0.982   5.183
 9398SOL    HW229094   6.089   0.887   5.154
 9399SOL     OW29095   1.289   2.770   5.105
 9399SOL    HW129096   1.256   2.835   5.173
 9399SOL    HW229097   1.368   2.807   5.058
 9400SOL     OW29098   4.993   1.412   1.026
 9400SOL    HW129099   5.067   1.387   1.089
 9400SOL    HW229100   5.011   1.374   0.936
 9401SOL     OW29101   6.561   1.137   2.983
 9401SOL    HW129102   6.572   1.057   2.924
 9401SOL    HW229103   6.493   1.199   2.944
 9402SOL     OW29104   1.496   5.199   2.816
 9402SOL    HW129105   1.548   5.127   2.863
 9402SOL    HW229106   1.457   5.261   2.884
 9403SOL     OW29107   6.433   1.384   1.704
 9403SOL    HW129108   6.410   1.348   1.614
 9403SOL    HW229109   6.510   1.333   1.741
 9404SOL     OW29110   1.113   2.012   0.350
 9404SOL    HW129111   1.144   2.039   0.441
 9404SOL    HW229112   1.087   1.915   0.351
 9405SOL     OW29113   2.204   4.022   3.704
 9405SOL    HW129114   2.188   3.954   3.775
 9405SOL    HW229115   2.212   3.977   3.615
 9406SOL     OW29116   0.572   2.531   6.687
 9406SOL    HW129117   0.586   2.605   6.752
 9406SOL    HW229118   0.661   2.494   6.660
 9407SOL     OW29119   2.503   4.783   3.277
 9407SOL    HW129120   2.405   4.802   3.278
 9407SOL    HW229121   2.554   4.869   3.277
 9408SOL     OW29122   6.688   2.762   6.011
 9408SOL    HW129123   6.754   2.738   5.940
 9408SOL    HW229124   6.598   2.774   5.969
 9409SOL     OW29125   6.444   5.713   0.864
 9409SOL    HW129126   6.410   5.656   0.789
 9409SOL    HW229127   6.415   5.807   0.849
 9410SOL     OW29128   2.089   0.720   2.538
 9410SOL    HW129129   2.028   0.699   2.461
 9410SOL    HW229130   2.050   0.794   2.593
 9411SOL     OW29131   3.973   3.919   2.976
 9411SOL    HW129132   3.873   3.915   2.979
 9411SOL    HW229133   4.007   3.956   3.062
 9412SOL     OW29134   1.733   1.667   2.164
 9412SOL    HW129135   1.746   1.645   2.067
 9412SOL    HW229136   1.689   1.590   2.210
 9413SOL     OW29137   4.074   5.319   3.692
 9413SOL    HW129138   4.093   5.399   3.749
 9413SOL    HW229139   4.077   5.236   3.749
 9414SOL     OW29140   2.794   1.029   3.133
 9414SOL    HW129141   2.779   1.126   3.117
 9414SOL    HW229142   2.751   0.976   3.060
 9415SOL     OW29143   1.981   6.972   2.880
 9415SOL    HW129144   2.076   6.946   2.865
 9415SOL    HW229145   1.977   0.044   2.920
 9416SOL     OW29146   0.384   1.289   6.290
 9416SOL    HW129147   0.339   1.286   6.201
 9416SOL    HW229148   0.474   1.247   6.284
 9417SOL     OW29149   3.575   0.494   0.790
 9417SOL    HW129150   3.510   0.568   0.774
 9417SOL    HW229151   3.668   0.532   0.795
 9418SOL     OW29152   2.938   0.769   1.323
 9418SOL    HW129153   2.952   0.670   1.310
 9418SOL    HW229154   2.955   0.793   1.419
 9419SOL     OW29155   2.523   4.127   6.354
 9419SOL    HW129156   2.589   4.162   6.421
 9419SOL    HW229157   2.479   4.046   6.390
 9420SOL     OW29158   5.594   5.003   1.201
 9420SOL    HW129159   5.643   4.978   1.118
 9420SOL    HW229160   5.543   4.925   1.235
 9421SOL     OW29161   3.073   5.971   4.792
 9421SOL    HW129162   3.067   5.995   4.889
 9421SOL    HW229163   3.137   6.033   4.746
 9422SOL     OW29164   2.942   5.596   2.843
 9422SOL    HW129165   3.015   5.619   2.779
 9422SOL    HW229166   2.864   5.657   2.827
 9423SOL     OW29167   3.589   6.173   3.390
 9423SOL    HW129168   3.542   6.099   3.438
 9423SOL    HW229169   3.591   6.254   3.447
 9424SOL     OW29170   4.498   2.208   4.256
 9424SOL    HW129171   4.410   2.226   4.299
 9424SOL    HW229172   4.544   2.133   4.303
 9425SOL     OW29173   5.335   4.353   1.314
 9425SOL    HW129174   5.381   4.286   1.256
 9425SOL    HW229175   5.257   4.309   1.359
 9426SOL     OW29176   3.417   1.787   6.383
 9426SOL    HW129177   3.386   1.722   6.453
 9426SOL    HW229178   3.413   1.743   6.293
 9427SOL     OW29179   2.886   5.335   3.147
 9427SOL    HW129180   2.931   5.333   3.236
 9427SOL    HW229181   2.901   5.424   3.104
 9428SOL     OW29182   0.218   0.061   0.990
 9428SOL    HW129183   0.301   0.030   0.944
 9428SOL    HW229184   0.202   0.157   0.968
 9429SOL     OW29185   1.702   3.654   3.482
 9429SOL    HW129186   1.616   3.604   3.487
 9429SOL    HW229187   1.761   3.629   3.559
 9430SOL     OW29188   0.177   2.728   4.999
 9430SOL    HW129189   0.198   2.826   4.994
 9430SOL    HW229190   0.251   2.680   5.045
 9431SOL     OW29191   6.236   4.444   0.920
 9431SOL    HW129192   6.224   4.459   0.822
 9431SOL    HW229193   6.157   4.480   0.970
 9432SOL     OW29194   6.414   0.628   3.995
 9432SOL    HW129195   6.403   0.552   4.060
 9432SOL    HW229196   6.429   0.713   4.046
 9433SOL     OW29197   2.787   6.244   2.755
 9433SOL    HW129198   2.861   6.267   2.818
 9433SOL    HW229199   2.821   6.244   2.661
 9434SOL     OW29200   5.669   5.664   1.931
 9434SOL    HW129201   5.731   5.719   1.876
 9434SOL    HW229202   5.715   5.580   1.960
 9435SOL     OW29203   7.005   2.390   3.382
 9435SOL    HW129204   6.929   2.401   3.446
 9435SOL    HW229205   7.002   2.299   3.342
 9436SOL     OW29206   1.395   2.648   1.901
 9436SOL    HW129207   1.304   2.674   1.932
 9436SOL    HW229208   1.402   2.548   1.898
 9437SOL     OW29209   0.388   6.130   2.894
 9437SOL    HW129210   0.373   6.220   2.855
 9437SOL    HW229211   0.417   6.138   2.989
 9438SOL     OW29212   0.943   0.417   1.740
 9438SOL    HW129213   0.857   0.446   1.698
 9438SOL    HW229214   0.923   0.374   1.828
 9439SOL     OW29215   0.416   3.278   0.681
 9439SOL    HW129216   0.411   3.226   0.596
 9439SOL    HW229217   0.347   3.243   0.745
 9440SOL     OW29218   3.816   4.842   3.331
 9440SOL    HW129219   3.792   4.913   3.397
 9440SOL    HW229220   3.904   4.801   3.357
 9441SOL     OW29221   5.962   4.539   5.808
 9441SOL    HW129222   5.967   4.576   5.716
 9441SOL    HW229223   6.016   4.454   5.812
 9442SOL     OW29224   5.701   4.062   1.787
 9442SOL    HW129225   5.729   3.996   1.717
 9442SOL    HW229226   5.717   4.023   1.878
 9443SOL     OW29227   2.695   5.565   0.468
 9443SOL    HW129228   2.717   5.483   0.415
 9443SOL    HW229229   2.664   5.637   0.407
 9444SOL     OW29230   2.103   3.794   0.613
 9444SOL    HW129231   2.091   3.741   0.697
 9444SOL    HW229232   2.024   3.855   0.601
 9445SOL     OW29233   6.164   3.475   3.118
 9445SOL    HW129234   6.140   3.405   3.186
 9445SOL    HW229235   6.261   3.499   3.128
 9446SOL     OW29236   6.196   5.345   5.225
 9446SOL    HW129237   6.144   5.425   5.253
 9446SOL    HW229238   6.220   5.353   5.128
 9447SOL     OW29239   5.396   4.336   3.733
 9447SOL    HW129240   5.391   4.430   3.697
 9447SOL    HW229241   5.388   4.339   3.832
 9448SOL     OW29242   6.656   0.242   5.851
 9448SOL    HW129243   6.658   0.241   5.951
 9448SOL    HW229244   6.741   0.204   5.815
 9449SOL     OW29245   5.623   6.813   0.382
 9449SOL    HW129246   5.531   6.814   0.345
 9449SOL    HW229247   5.650   6.719   0.402
 9450SOL     OW29248   2.360   5.932   3.282
 9450SOL    HW129249   2.289   6.001   3.296
 9450SOL    HW229250   2.441   5.974   3.242
 9451SOL     OW29251   4.911   5.971   5.926
 9451SOL    HW129252   4.885   5.881   5.891
 9451SOL    HW229253   4.872   6.042   5.868
 9452SOL     OW29254   1.564   4.299   6.982
 9452SOL    HW129255   1.576   4.217   6.927
 9452SOL    HW229256   1.654   4.335   7.009
 9453SOL     OW29257   2.824   5.341   2.847
 9453SOL    HW129258   2.894   5.280   2.883
 9453SOL    HW229259   2.867   5.428   2.820
 9454SOL     OW29260   3.458   3.344   6.641
 9454SOL    HW129261   3.530   3.413   6.649
 9454SOL    HW229262   3.438   3.328   6.544
 9455SOL     OW29263   3.104   2.015   3.436
 9455SOL    HW129264   3.008   2.005   3.461
 9455SOL    HW229265   3.144   1.924   3.422
 9456SOL     OW29266   6.957   3.523   0.607
 9456SOL    HW129267   6.868   3.564   0.627
 9456SOL    HW229268   6.946   3.448   0.541
 9457SOL     OW29269   1.284   4.457   4.117
 9457SOL    HW129270   1.277   4.466   4.217
 9457SOL    HW229271   1.192   4.449   4.078
 9458SOL     OW29272   0.331   3.651   6.185
 9458SOL    HW129273   0.260   3.618   6.122
 9458SOL    HW229274   0.288   3.688   6.267
 9459SOL     OW29275   5.087   4.676   3.898
 9459SOL    HW129276   5.091   4.746   3.827
 9459SOL    HW229277   5.098   4.720   3.988
 9460SOL     OW29278   2.133   3.674   4.652
 9460SOL    HW129279   2.148   3.592   4.597
 9460SOL    HW229280   2.044   3.713   4.628
 9461SOL     OW29281   0.545   2.100   1.154
 9461SOL    HW129282   0.557   2.100   1.253
 9461SOL    HW229283   0.489   2.021   1.127
 9462SOL     OW29284   1.481   3.074   3.377
 9462SOL    HW129285   1.513   2.996   3.324
 9462SOL    HW229286   1.486   3.053   3.475
 9463SOL     OW29287   5.776   0.531   1.503
 9463SOL    HW129288   5.865   0.500   1.537
 9463SOL    HW229289   5.709   0.525   1.576
 9464SOL     OW29290   5.568   0.504   0.823
 9464SOL    HW129291   5.635   0.543   0.886
 9464SOL    HW229292   5.509   0.576   0.787
 9465SOL     OW29293   0.111   4.041   1.545
 9465SOL    HW129294   0.100   4.041   1.446
 9465SOL    HW229295   0.049   3.974   1.586
 9466SOL     OW29296   3.167   4.611   5.302
 9466SOL    HW129297   3.168   4.574   5.395
 9466SOL    HW229298   3.092   4.570   5.250
 9467SOL     OW29299   1.093   3.218   1.161
 9467SOL    HW129300   1.120   3.241   1.068
 9467SOL    HW229301   1.002   3.177   1.161
 9468SOL     OW29302   5.252   4.195   6.553
 9468SOL    HW129303   5.224   4.278   6.601
 9468SOL    HW229304   5.350   4.195   6.538
 9469SOL     OW29305   0.543   5.943   1.764
 9469SOL    HW129306   0.586   6.033   1.759
 9469SOL    HW229307   0.575   5.895   1.846
 9470SOL     OW29308   5.330   3.285   0.202
 9470SOL    HW129309   5.350   3.378   0.235
 9470SOL    HW229310   5.269   3.290   0.123
 9471SOL     OW29311   6.556   2.822   4.369
 9471SOL    HW129312   6.537   2.752   4.299
 9471SOL    HW229313   6.652   2.851   4.361
 9472SOL     OW29314   6.727   2.992   5.223
 9472SOL    HW129315   6.753   2.975   5.128
 9472SOL    HW229316   6.791   3.059   5.263
 9473SOL     OW29317   3.022   4.577   0.200
 9473SOL    HW129318   3.040   4.612   0.292
 9473SOL    HW229319   3.060   4.485   0.191
 9474SOL     OW29320   6.883   3.799   1.220
 9474SOL    HW129321   6.920   3.762   1.135
 9474SOL    HW229322   6.797   3.847   1.202
 9475SOL     OW29323   3.643   3.194   0.517
 9475SOL    HW129324   3.574   3.148   0.573
 9475SOL    HW229325   3.719   3.130   0.500
 9476SOL     OW29326   4.016   3.837   4.340
 9476SOL    HW129327   4.033   3.748   4.296
 9476SOL    HW229328   4.087   3.902   4.313
 9477SOL     OW29329   0.568   3.059   0.986
 9477SOL    HW129330   0.659   3.049   0.946
 9477SOL    HW229331   0.572   3.120   1.065
 9478SOL     OW29332   5.273   3.477   1.436
 9478SOL    HW129333   5.297   3.570   1.465
 9478SOL    HW229334   5.273   3.473   1.336
 9479SOL     OW29335   4.399   6.529   0.313
 9479SOL    HW129336   4.431   6.514   0.407
 9479SOL    HW229337   4.355   6.619   0.307
 9480SOL     OW29338   5.534   5.102   0.384
 9480SOL    HW129339   5.436   5.118   0.372
 9480SOL    HW229340   5.584   5.144   0.309
 9481SOL     OW29341   4.778   2.958   2.732
 9481SOL    HW129342   4.801   3.017   2.654
 9481SOL    HW229343   4.787   3.010   2.816
 9482SOL     OW29344   0.823   0.866   2.868
 9482SOL    HW129345   0.817   0.789   2.931
 9482SOL    HW229346   0.761   0.852   2.791
 9483SOL     OW29347   1.085   0.273   0.551
 9483SOL    HW129348   1.091   0.182   0.592
 9483SOL    HW229349   1.143   0.277   0.469
 9484SOL     OW29350   3.858   0.149   4.571
 9484SOL    HW129351   3.845   0.126   4.668
 9484SOL    HW229352   3.775   0.126   4.520
 9485SOL     OW29353   0.259   1.116   1.038
 9485SOL    HW129354   0.308   1.080   1.118
 9485SOL    HW229355   0.269   1.053   0.962
 9486SOL     OW29356   4.242   6.483   0.721
 9486SOL    HW129357   4.231   6.385   0.740
 9486SOL    HW229358   4.219   6.536   0.802
 9487SOL     OW29359   3.232   3.844   3.876
 9487SOL    HW129360   3.259   3.779   3.948
 9487SOL    HW229361   3.163   3.803   3.818
 9488SOL     OW29362   2.757   6.766   1.483
 9488SOL    HW129363   2.837   6.826   1.477
 9488SOL    HW229364   2.770   6.687   1.423
 9489SOL     OW29365   4.907   4.773   1.693
 9489SOL    HW129366   4.918   4.862   1.648
 9489SOL    HW229367   4.811   4.746   1.690
 9490SOL     OW29368   6.356   5.494   2.932
 9490SOL    HW129369   6.429   5.489   2.863
 9490SOL    HW229370   6.267   5.501   2.886
 9491SOL     OW29371   4.784   4.717   4.020
 9491SOL    HW129372   4.808   4.809   3.989
 9491SOL    HW229373   4.714   4.722   4.091
 9492SOL     OW29374   3.763   3.297   4.652
 9492SOL    HW129375   3.793   3.381   4.605
 9492SOL    HW229376   3.698   3.248   4.594
 9493SOL     OW29377   2.779   5.643   4.290
 9493SOL    HW129378   2.775   5.716   4.358
 9493SOL    HW229379   2.746   5.558   4.331
 9494SOL     OW29380   5.563   3.046   3.125
 9494SOL    HW129381   5.605   3.091   3.046
 9494SOL    HW229382   5.470   3.080   3.138
 9495SOL     OW29383   0.085   1.912   3.230
 9495SOL    HW129384   0.110   1.867   3.316
 9495SOL    HW229385   7.010   1.890   3.208
 9496SOL     OW29386   6.431   3.614   1.747
 9496SOL    HW129387   6.334   3.633   1.763
 9496SOL    HW229388   6.469   3.565   1.825
 9497SOL     OW29389   5.385   6.490   5.611
 9497SOL    HW129390   5.443   6.440   5.675
 9497SOL    HW229391   5.441   6.554   5.559
 9498SOL     OW29392   5.837   5.659   4.763
 9498SOL    HW129393   5.884   5.747   4.759
 9498SOL    HW229394   5.844   5.613   4.674
 9499SOL     OW29395   1.862   5.245   6.197
 9499SOL    HW129396   1.858   5.167   6.134
 9499SOL    HW229397   1.807   5.226   6.278
 9500SOL     OW29398   4.753   0.046   0.328
 9500SOL    HW129399   4.768   0.143   0.347
 9500SOL    HW229400   4.741   7.016   0.414
 9501SOL     OW29401   2.718   1.418   4.870
 9501SOL    HW129402   2.755   1.507   4.893
 9501SOL    HW229403   2.638   1.399   4.928
 9502SOL     OW29404   6.109   2.712   4.930
 9502SOL    HW129405   6.205   2.734   4.913
 9502SOL    HW229406   6.059   2.796   4.955
 9503SOL     OW29407   0.385   1.472   0.323
 9503SOL    HW129408   0.419   1.406   0.255
 9503SOL    HW229409   0.437   1.557   0.316
 9504SOL     OW29410   6.981   3.414   0.869
 9504SOL    HW129411   6.957   3.318   0.885
 9504SOL    HW229412   6.979   3.432   0.770
 9505SOL     OW29413   5.372   4.860   4.995
 9505SOL    HW129414   5.313   4.915   5.054
 9505SOL    HW229415   5.423   4.920   4.934
 9506SOL     OW29416   2.122   2.861   0.298
 9506SOL    HW129417   2.216   2.825   0.299
 9506SOL    HW229418   2.082   2.851   0.389
 9507SOL     OW29419   0.790   1.208   2.001
 9507SOL    HW129420   0.734   1.174   1.925
 9507SOL    HW229421   0.884   1.218   1.970
 9508SOL     OW29422   6.148   2.402   2.153
 9508SOL    HW129423   6.076   2.404   2.083
 9508SOL    HW229424   6.162   2.308   2.183
 9509SOL     OW29425   0.354   0.826   4.206
 9509SOL    HW129426   0.329   0.813   4.110
 9509SOL    HW229427   0.403   0.912   4.216
 9510SOL     OW29428   1.324   3.803   3.569
 9510SOL    HW129429   1.348   3.722   3.516
 9510SOL    HW229430   1.402   3.830   3.625
 9511SOL     OW29431   2.189   0.335   1.583
 9511SOL    HW129432   2.266   0.353   1.521
 9511SOL    HW229433   2.131   0.417   1.587
 9512SOL     OW29434   6.286   1.882   1.238
 9512SOL    HW129435   6.239   1.843   1.318
 9512SOL    HW229436   6.297   1.981   1.251
 9513SOL     OW29437   2.215   3.966   5.753
 9513SOL    HW129438   2.147   3.994   5.685
 9513SOL    HW229439   2.197   4.012   5.840
 9514SOL     OW29440   2.583   5.378   5.831
 9514SOL    HW129441   2.561   5.461   5.780
 9514SOL    HW229442   2.599   5.402   5.927
 9515SOL     OW29443   1.759   5.478   1.130
 9515SOL    HW129444   1.708   5.555   1.091
 9515SOL    HW229445   1.846   5.511   1.165
 9516SOL     OW29446   5.957   5.190   6.719
 9516SOL    HW129447   5.998   5.159   6.634
 9516SOL    HW229448   5.869   5.233   6.700
 9517SOL     OW29449   1.280   3.793   1.358
 9517SOL    HW129450   1.356   3.743   1.316
 9517SOL    HW229451   1.308   3.886   1.380
 9518SOL     OW29452   1.451   2.018   0.432
 9518SOL    HW129453   1.375   2.065   0.476
 9518SOL    HW229454   1.489   1.950   0.495
 9519SOL     OW29455   3.616   2.942   5.100
 9519SOL    HW129456   3.677   2.879   5.148
 9519SOL    HW229457   3.664   3.028   5.082
 9520SOL     OW29458   2.471   1.756   2.982
 9520SOL    HW129459   2.524   1.696   3.041
 9520SOL    HW229460   2.400   1.703   2.934
 9521SOL     OW29461   5.106   5.902   2.573
 9521SOL    HW129462   5.079   5.827   2.633
 9521SOL    HW229463   5.047   5.904   2.492
 9522SOL     OW29464   2.806   5.530   1.020
 9522SOL    HW129465   2.813   5.472   0.939
 9522SOL    HW229466   2.829   5.478   1.101
 9523SOL     OW29467   3.610   5.096   4.942
 9523SOL    HW129468   3.544   5.141   4.881
 9523SOL    HW229469   3.603   5.135   5.034
 9524SOL     OW29470   3.764   2.277   1.184
 9524SOL    HW129471   3.697   2.251   1.114
 9524SOL    HW229472   3.843   2.217   1.178
 9525SOL     OW29473   2.642   2.777   5.783
 9525SOL    HW129474   2.619   2.696   5.836
 9525SOL    HW229475   2.582   2.783   5.703
 9526SOL     OW29476   4.929   5.581   1.926
 9526SOL    HW129477   4.880   5.498   1.901
 9526SOL    HW229478   4.864   5.654   1.944
 9527SOL     OW29479   1.050   0.511   2.716
 9527SOL    HW129480   1.057   0.600   2.760
 9527SOL    HW229481   1.116   0.505   2.642
 9528SOL     OW29482   6.614   0.779   0.427
 9528SOL    HW129483   6.658   0.765   0.516
 9528SOL    HW229484   6.528   0.729   0.424
 9529SOL     OW29485   6.373   3.027   5.562
 9529SOL    HW129486   6.426   2.952   5.599
 9529SOL    HW229487   6.372   3.103   5.627
 9530SOL     OW29488   1.827   3.048   2.714
 9530SOL    HW129489   1.756   2.978   2.714
 9530SOL    HW229490   1.793   3.131   2.758
 9531SOL     OW29491   4.383   6.016   2.707
 9531SOL    HW129492   4.393   5.960   2.625
 9531SOL    HW229493   4.473   6.048   2.736
 9532SOL     OW29494   6.938   6.507   2.362
 9532SOL    HW129495   6.985   6.594   2.374
 9532SOL    HW229496   6.938   6.481   2.266
 9533SOL     OW29497   6.771   0.453   5.284
 9533SOL    HW129498   6.754   0.407   5.197
 9533SOL    HW229499   6.776   0.386   5.358
 9534SOL     OW29500   5.788   3.189   5.285
 9534SOL    HW129501   5.819   3.217   5.194
 9534SOL    HW229502   5.868   3.181   5.346
 9535SOL     OW29503   2.355   1.321   5.767
 9535SOL    HW129504   2.450   1.351   5.769
 9535SOL    HW229505   2.330   1.294   5.674
 9536SOL     OW29506   3.036   4.806   5.151
 9536SOL    HW129507   3.100   4.749   5.203
 9536SOL    HW229508   2.969   4.748   5.105
 9537SOL     OW29509   2.400   6.623   2.679
 9537SOL    HW129510   2.337   6.551   2.710
 9537SOL    HW229511   2.488   6.612   2.725
 9538SOL     OW29512   6.527   2.138   3.776
 9538SOL    HW129513   6.498   2.074   3.847
 9538SOL    HW229514   6.517   2.232   3.810
 9539SOL     OW29515   1.533   3.276   5.217
 9539SOL    HW129516   1.443   3.256   5.179
 9539SOL    HW229517   1.602   3.270   5.145
 9540SOL     OW29518   5.003   3.546   4.309
 9540SOL    HW129519   4.990   3.450   4.335
 9540SOL    HW229520   5.037   3.597   4.389
 9541SOL     OW29521   2.713   1.712   5.836
 9541SOL    HW129522   2.691   1.734   5.931
 9541SOL    HW229523   2.788   1.645   5.834
 9542SOL     OW29524   4.894   3.744   4.579
 9542SOL    HW129525   4.973   3.684   4.568
 9542SOL    HW229526   4.889   3.776   4.673
 9543SOL     OW29527   3.167   0.954   4.533
 9543SOL    HW129528   3.248   0.963   4.591
 9543SOL    HW229529   3.158   0.859   4.503
 9544SOL     OW29530   0.072   1.316   2.911
 9544SOL    HW129531   6.999   1.320   2.875
 9544SOL    HW229532   0.104   1.409   2.928
 9545SOL     OW29533   6.520   4.775   3.659
 9545SOL    HW129534   6.526   4.750   3.755
 9545SOL    HW229535   6.524   4.693   3.603
 9546SOL     OW29536   2.830   2.522   5.618
 9546SOL    HW129537   2.897   2.545   5.547
 9546SOL    HW229538   2.738   2.545   5.586
 9547SOL     OW29539   2.296   5.871   3.802
 9547SOL    HW129540   2.291   5.878   3.901
 9547SOL    HW229541   2.249   5.949   3.760
 9548SOL     OW29542   6.006   6.269   4.919
 9548SOL    HW129543   6.010   6.366   4.947
 9548SOL    HW229544   6.044   6.259   4.828
 9549SOL     OW29545   2.737   3.563   1.345
 9549SOL    HW129546   2.824   3.524   1.314
 9549SOL    HW229547   2.664   3.495   1.333
 9550SOL     OW29548   0.095   1.163   0.281
 9550SOL    HW129549   0.011   1.176   0.228
 9550SOL    HW229550   0.078   1.099   0.356
 9551SOL     OW29551   6.668   0.755   4.319
 9551SOL    HW129552   6.648   0.827   4.253
 9551SOL    HW229553   6.680   0.668   4.272
 9552SOL     OW29554   0.975   5.887   2.491
 9552SOL    HW129555   1.073   5.867   2.486
 9552SOL    HW229556   0.925   5.802   2.510
 9553SOL     OW29557   6.168   3.953   6.575
 9553SOL    HW129558   6.160   3.854   6.587
 9553SOL    HW229559   6.112   3.982   6.497
 9554SOL     OW29560   2.904   6.982   1.477
 9554SOL    HW129561   2.987   0.018   1.477
 9554SOL    HW229562   2.862   6.987   1.568
 9555SOL     OW29563   0.633   0.896   1.085
 9555SOL    HW129564   0.559   0.830   1.073
 9555SOL    HW229565   0.698   0.887   1.009
 9556SOL     OW29566   2.879   2.443   1.199
 9556SOL    HW129567   2.848   2.410   1.289
 9556SOL    HW229568   2.869   2.370   1.132
 9557SOL     OW29569   6.597   0.899   2.809
 9557SOL    HW129570   6.661   0.919   2.734
 9557SOL    HW229571   6.507   0.878   2.772
 9558SOL     OW29572   5.689   5.473   4.271
 9558SOL    HW129573   5.640   5.555   4.242
 9558SOL    HW229574   5.667   5.398   4.209
 9559SOL     OW29575   0.302   3.691   1.425
 9559SOL    HW129576   0.234   3.734   1.366
 9559SOL    HW229577   0.346   3.616   1.375
 9560SOL     OW29578   1.297   1.898   2.474
 9560SOL    HW129579   1.392   1.866   2.476
 9560SOL    HW229580   1.237   1.823   2.448
 9561SOL     OW29581   1.814   6.722   0.511
 9561SOL    HW129582   1.748   6.652   0.481
 9561SOL    HW229583   1.892   6.722   0.449
 9562SOL     OW29584   3.313   6.511   4.959
 9562SOL    HW129585   3.255   6.581   4.916
 9562SOL    HW229586   3.333   6.538   5.053
 9563SOL     OW29587   6.125   6.664   0.503
 9563SOL    HW129588   6.174   6.647   0.418
 9563SOL    HW229589   6.064   6.742   0.491
 9564SOL     OW29590   2.942   6.934   6.533
 9564SOL    HW129591   2.863   6.909   6.477
 9564SOL    HW229592   3.009   6.860   6.532
 9565SOL     OW29593   4.057   6.088   5.443
 9565SOL    HW129594   4.141   6.065   5.491
 9565SOL    HW229595   4.002   6.150   5.500
 9566SOL     OW29596   3.636   4.229   0.365
 9566SOL    HW129597   3.581   4.253   0.445
 9566SOL    HW229598   3.588   4.160   0.311
 9567SOL     OW29599   6.705   5.204   6.373
 9567SOL    HW129600   6.670   5.278   6.431
 9567SOL    HW229601   6.630   5.166   6.319
 9568SOL     OW29602   4.855   2.648   6.761
 9568SOL    HW129603   4.811   2.559   6.755
 9568SOL    HW229604   4.845   2.684   6.854
 9569SOL     OW29605   6.936   0.453   2.087
 9569SOL    HW129606   6.867   0.520   2.114
 9569SOL    HW229607   6.891   0.368   2.057
 9570SOL     OW29608   0.827   2.152   1.611
 9570SOL    HW129609   0.781   2.119   1.693
 9570SOL    HW229610   0.844   2.250   1.619
 9571SOL     OW29611   2.648   3.583   6.967
 9571SOL    HW129612   2.611   3.550   6.879
 9571SOL    HW229613   2.594   3.661   6.998
 9572SOL     OW29614   1.965   5.338   0.941
 9572SOL    HW129615   1.948   5.371   0.849
 9572SOL    HW229616   1.956   5.414   1.006
 9573SOL     OW29617   0.550   1.850   6.673
 9573SOL    HW129618   0.541   1.822   6.769
 9573SOL    HW229619   0.600   1.937   6.669
 9574SOL     OW29620   3.903   3.032   4.476
 9574SOL    HW129621   4.000   3.009   4.468
 9574SOL    HW229622   3.875   3.026   4.572
 9575SOL     OW29623   5.406   0.697   0.726
 9575SOL    HW129624   5.319   0.681   0.680
 9575SOL    HW229625   5.389   0.730   0.819
 9576SOL     OW29626   2.962   0.973   2.856
 9576SOL    HW129627   2.925   1.065   2.873
 9576SOL    HW229628   3.054   0.967   2.895
 9577SOL     OW29629   1.245   0.715   3.169
 9577SOL    HW129630   1.260   0.734   3.266
 9577SOL    HW229631   1.194   0.790   3.128
 9578SOL     OW29632   0.171   3.886   3.108
 9578SOL    HW129633   0.243   3.948   3.139
 9578SOL    HW229634   0.200   3.792   3.121
 9579SOL     OW29635   1.383   6.074   3.032
 9579SOL    HW129636   1.438   6.125   3.098
 9579SOL    HW229637   1.309   6.132   2.998
 9580SOL     OW29638   5.250   3.120   0.639
 9580SOL    HW129639   5.299   3.105   0.553
 9580SOL    HW229640   5.163   3.166   0.619
 9581SOL     OW29641   1.495   5.195   6.451
 9581SOL    HW129642   1.416   5.250   6.422
 9581SOL    HW229643   1.472   5.098   6.443
 9582SOL     OW29644   4.512   4.729   4.871
 9582SOL    HW129645   4.445   4.665   4.908
 9582SOL    HW229646   4.469   4.819   4.860
 9583SOL     OW29647   3.025   3.379   1.496
 9583SOL    HW129648   3.074   3.433   1.565
 9583SOL    HW229649   2.927   3.383   1.514
 9584SOL     OW29650   5.971   5.826   6.806
 9584SOL    HW129651   5.917   5.816   6.722
 9584SOL    HW229652   5.932   5.769   6.878
 9585SOL     OW29653   6.851   1.070   2.866
 9585SOL    HW129654   6.799   1.043   2.785
 9585SOL    HW229655   6.815   1.156   2.901
 9586SOL     OW29656   6.017   4.079   1.752
 9586SOL    HW129657   5.991   4.173   1.774
 9586SOL    HW229658   5.942   4.035   1.703
 9587SOL     OW29659   6.247   0.273   2.349
 9587SOL    HW129660   6.167   0.239   2.397
 9587SOL    HW229661   6.321   0.291   2.414
 9588SOL     OW29662   0.676   1.514   1.667
 9588SOL    HW129663   0.644   1.565   1.747
 9588SOL    HW229664   0.675   1.574   1.587
 9589SOL     OW29665   3.059   5.812   6.356
 9589SOL    HW129666   3.008   5.729   6.332
 9589SOL    HW229667   2.995   5.881   6.389
 9590SOL     OW29668   0.275   4.606   2.628
 9590SOL    HW129669   0.236   4.526   2.581
 9590SOL    HW229670   0.371   4.615   2.603
 9591SOL     OW29671   3.217   5.708   0.109
 9591SOL    HW129672   3.309   5.744   0.097
 9591SOL    HW229673   3.154   5.783   0.129
 9592SOL     OW29674   3.665   5.117   1.989
 9592SOL    HW129675   3.667   5.057   2.069
 9592SOL    HW229676   3.607   5.196   2.007
 9593SOL     OW29677   5.178   1.131   4.565
 9593SOL    HW129678   5.253   1.156   4.503
 9593SOL    HW229679   5.143   1.214   4.609
 9594SOL     OW29680   6.968   5.522   3.765
 9594SOL    HW129681   6.965   5.446   3.831
 9594SOL    HW229682   6.886   5.519   3.707
 9595SOL     OW29683   1.839   4.454   4.201
 9595SOL    HW129684   1.771   4.388   4.233
 9595SOL    HW229685   1.828   4.468   4.102
 9596SOL     OW29686   0.179   5.183   6.922
 9596SOL    HW129687   0.135   5.216   6.839
 9596SOL    HW229688   0.276   5.167   6.904
 9597SOL     OW29689   0.165   4.135   1.165
 9597SOL    HW129690   0.091   4.099   1.108
 9597SOL    HW229691   0.132   4.215   1.215
 9598SOL     OW29692   0.489   4.144   5.094
 9598SOL    HW129693   0.583   4.164   5.064
 9598SOL    HW229694   0.488   4.057   5.143
 9599SOL     OW29695   3.155   0.655   4.592
 9599SOL    HW129696   3.244   0.610   4.583
 9599SOL    HW229697   3.084   0.595   4.557
 9600SOL     OW29698   2.550   6.868   5.955
 9600SOL    HW129699   2.532   6.795   6.020
 9600SOL    HW229700   2.531   6.836   5.862
 9601SOL     OW29701   6.282   4.440   6.058
 9601SOL    HW129702   6.304   4.514   5.994
 9601SOL    HW229703   6.183   4.434   6.068
 9602SOL     OW29704   6.842   4.996   6.517
 9602SOL    HW129705   6.776   5.049   6.463
 9602SOL    HW229706   6.910   5.058   6.556
 9603SOL     OW29707   2.516   0.073   4.292
 9603SOL    HW129708   2.498   0.003   4.361
 9603SOL    HW229709   2.562   0.031   4.214
 9604SOL     OW29710   5.097   0.765   0.674
 9604SOL    HW129711   5.094   0.728   0.767
 9604SOL    HW229712   5.102   0.689   0.609
 9605SOL     OW29713   0.200   4.932   5.875
 9605SOL    HW129714   0.200   4.840   5.916
 9605SOL    HW229715   0.231   4.926   5.780
 9606SOL     OW29716   0.998   6.777   4.205
 9606SOL    HW129717   1.012   6.688   4.162
 9606SOL    HW229718   0.904   6.783   4.239
 9607SOL     OW29719   1.364   2.032   1.483
 9607SOL    HW129720   1.329   1.940   1.469
 9607SOL    HW229721   1.291   2.091   1.517
 9608SOL     OW29722   0.552   6.701   2.536
 9608SOL    HW129723   0.460   6.701   2.577
 9608SOL    HW229724   0.572   6.612   2.497
 9609SOL     OW29725   1.454   3.532   5.266
 9609SOL    HW129726   1.361   3.523   5.300
 9609SOL    HW229727   1.495   3.441   5.257
 9610SOL     OW29728   1.222   3.528   5.422
 9610SOL    HW129729   1.130   3.488   5.423
 9610SOL    HW229730   1.267   3.511   5.510
 9611SOL     OW29731   0.059   6.994   1.194
 9611SOL    HW129732   0.113   0.026   1.128
 9611SOL    HW229733   7.014   6.936   1.146
 9612SOL     OW29734   6.243   2.766   0.268
 9612SOL    HW129735   6.228   2.696   0.337
 9612SOL    HW229736   6.169   2.833   0.272
 9613SOL     OW29737   5.268   6.213   4.540
 9613SOL    HW129738   5.299   6.307   4.556
 9613SOL    HW229739   5.285   6.158   4.621
 9614SOL     OW29740   4.133   3.544   1.440
 9614SOL    HW129741   4.149   3.584   1.350
 9614SOL    HW229742   4.084   3.611   1.497
 9615SOL     OW29743   1.645   6.192   2.850
 9615SOL    HW129744   1.633   6.148   2.761
 9615SOL    HW229745   1.742   6.200   2.871
 9616SOL     OW29746   4.611   3.413   1.173
 9616SOL    HW129747   4.553   3.461   1.107
 9616SOL    HW229748   4.586   3.316   1.175
 9617SOL     OW29749   1.400   3.783   4.127
 9617SOL    HW129750   1.399   3.791   4.227
 9617SOL    HW229751   1.351   3.700   4.100
 9618SOL     OW29752   3.286   0.494   6.631
 9618SOL    HW129753   3.332   0.448   6.556
 9618SOL    HW229754   3.189   0.504   6.610
 9619SOL     OW29755   0.990   0.229   0.934
 9619SOL    HW129756   0.920   0.271   0.992
 9619SOL    HW229757   1.064   0.295   0.917
 9620SOL     OW29758   4.361   2.047   0.048
 9620SOL    HW129759   4.333   2.048   0.144
 9620SOL    HW229760   4.432   1.978   0.034
 9621SOL     OW29761   1.348   1.048   1.781
 9621SOL    HW129762   1.391   1.139   1.781
 9621SOL    HW229763   1.252   1.058   1.809
 9622SOL     OW29764   5.933   1.322   6.531
 9622SOL    HW129765   5.988   1.271   6.599
 9622SOL    HW229766   5.864   1.261   6.492
 9623SOL     OW29767   4.826   4.988   6.764
 9623SOL    HW129768   4.751   5.029   6.712
 9623SOL    HW229769   4.901   5.054   6.771
 9624SOL     OW29770   5.273   4.661   5.410
 9624SOL    HW129771   5.252   4.653   5.312
 9624SOL    HW229772   5.192   4.636   5.463
 9625SOL     OW29773   4.722   4.233   6.749
 9625SOL    HW129774   4.812   4.191   6.756
 9625SOL    HW229775   4.656   4.180   6.804
 9626SOL     OW29776   2.372   5.567   4.353
 9626SOL    HW129777   2.273   5.551   4.349
 9626SOL    HW229778   2.390   5.664   4.337
 9627SOL     OW29779   0.558   4.413   4.590
 9627SOL    HW129780   0.638   4.356   4.574
 9627SOL    HW229781   0.561   4.451   4.682
 9628SOL     OW29782   5.678   3.912   0.782
 9628SOL    HW129783   5.603   3.885   0.843
 9628SOL    HW229784   5.707   4.005   0.803
 9629SOL     OW29785   6.470   6.215   3.142
 9629SOL    HW129786   6.379   6.217   3.102
 9629SOL    HW229787   6.537   6.188   3.073
 9630SOL     OW29788   6.025   5.927   5.344
 9630SOL    HW129789   5.949   5.982   5.309
 9630SOL    HW229790   6.085   5.900   5.269
 9631SOL     OW29791   4.639   1.845   1.113
 9631SOL    HW129792   4.583   1.928   1.120
 9631SOL    HW229793   4.725   1.859   1.161
 9632SOL     OW29794   2.170   5.290   1.312
 9632SOL    HW129795   2.212   5.356   1.250
 9632SOL    HW229796   2.109   5.230   1.261
 9633SOL     OW29797   3.762   3.418   0.953
 9633SOL    HW129798   3.846   3.414   1.007
 9633SOL    HW229799   3.757   3.505   0.905
 9634SOL     OW29800   5.697   5.324   3.377
 9634SOL    HW129801   5.650   5.329   3.465
 9634SOL    HW229802   5.794   5.307   3.392
 9635SOL     OW29803   0.668   4.577   5.203
 9635SOL    HW129804   0.633   4.611   5.115
 9635SOL    HW229805   0.603   4.511   5.241
 9636SOL     OW29806   3.409   1.341   6.377
 9636SOL    HW129807   3.427   1.255   6.424
 9636SOL    HW229808   3.439   1.334   6.281
 9637SOL     OW29809   3.361   3.257   1.263
 9637SOL    HW129810   3.329   3.295   1.349
 9637SOL    HW229811   3.325   3.311   1.187
 9638SOL     OW29812   6.952   3.717   6.261
 9638SOL    HW129813   6.982   3.811   6.277
 9638SOL    HW229814   6.898   3.714   6.176
 9639SOL     OW29815   4.449   2.694   1.686
 9639SOL    HW129816   4.521   2.746   1.732
 9639SOL    HW229817   4.378   2.757   1.654
 9640SOL     OW29818   3.571   1.015   2.414
 9640SOL    HW129819   3.521   0.941   2.369
 9640SOL    HW229820   3.521   1.101   2.404
 9641SOL     OW29821   5.378   6.250   2.333
 9641SOL    HW129822   5.365   6.264   2.431
 9641SOL    HW229823   5.383   6.338   2.287
 9642SOL     OW29824   1.153   6.896   3.986
 9642SOL    HW129825   1.175   6.972   4.048
 9642SOL    HW229826   1.071   6.849   4.019
 9643SOL     OW29827   5.199   3.685   3.748
 9643SOL    HW129828   5.268   3.708   3.817
 9643SOL    HW229829   5.244   3.667   3.661
 9644SOL     OW29830   1.884   5.729   5.307
 9644SOL    HW129831   1.984   5.732   5.308
 9644SOL    HW229832   1.853   5.648   5.258
 9645SOL     OW29833   2.316   4.601   5.398
 9645SOL    HW129834   2.332   4.639   5.489
 9645SOL    HW229835   2.376   4.523   5.383
 9646SOL     OW29836   3.106   5.720   2.645
 9646SOL    HW129837   3.197   5.735   2.608
 9646SOL    HW229838   3.043   5.693   2.572
 9647SOL     OW29839   0.276   0.060   3.373
 9647SOL    HW129840   0.318   0.119   3.305
 9647SOL    HW229841   0.176   0.071   3.369
 9648SOL     OW29842   4.980   3.099   1.234
 9648SOL    HW129843   5.019   3.181   1.277
 9648SOL    HW229844   5.051   3.028   1.228
 9649SOL     OW29845   2.650   3.967   6.728
 9649SOL    HW129846   2.708   4.001   6.802
 9649SOL    HW229847   2.554   3.978   6.752
 9650SOL     OW29848   5.319   4.140   3.547
 9650SOL    HW129849   5.360   4.198   3.618
 9650SOL    HW229850   5.241   4.188   3.506
 9651SOL     OW29851   3.969   0.934   0.957
 9651SOL    HW129852   3.975   0.863   1.028
 9651SOL    HW229853   3.945   1.021   1.000
 9652SOL     OW29854   0.649   5.103   0.924
 9652SOL    HW129855   0.616   5.027   0.981
 9652SOL    HW229856   0.596   5.186   0.945
 9653SOL     OW29857   4.632   4.514   5.841
 9653SOL    HW129858   4.725   4.550   5.831
 9653SOL    HW229859   4.604   4.518   5.937
 9654SOL     OW29860   3.218   3.146   3.252
 9654SOL    HW129861   3.181   3.127   3.162
 9654SOL    HW229862   3.271   3.067   3.284
 9655SOL     OW29863   0.076   1.649   0.131
 9655SOL    HW129864   0.154   1.701   0.164
 9655SOL    HW229865   0.050   1.579   0.198
 9656SOL     OW29866   4.864   2.247   0.828
 9656SOL    HW129867   4.784   2.196   0.861
 9656SOL    HW229868   4.923   2.269   0.906
 9657SOL     OW29869   6.034   4.360   2.801
 9657SOL    HW129870   6.115   4.398   2.756
 9657SOL    HW229871   5.988   4.432   2.852
 9658SOL     OW29872   5.852   2.078   2.688
 9658SOL    HW129873   5.907   2.040   2.613
 9658SOL    HW229874   5.904   2.151   2.734
 9659SOL     OW29875   1.010   2.525   0.335
 9659SOL    HW129876   0.962   2.506   0.249
 9659SOL    HW229877   0.993   2.450   0.400
 9660SOL     OW29878   0.834   0.010   2.041
 9660SOL    HW129879   0.776   0.063   2.103
 9660SOL    HW229880   0.910   0.067   2.010
 9661SOL     OW29881   4.133   6.048   1.164
 9661SOL    HW129882   4.053   5.997   1.131
 9661SOL    HW229883   4.193   6.068   1.087
 9662SOL     OW29884   5.043   3.716   0.338
 9662SOL    HW129885   5.056   3.761   0.426
 9662SOL    HW229886   5.083   3.624   0.342
 9663SOL     OW29887   0.063   6.083   2.686
 9663SOL    HW129888   7.008   6.097   2.750
 9663SOL    HW229889   0.044   6.132   2.601
 9664SOL     OW29890   5.228   4.571   4.231
 9664SOL    HW129891   5.156   4.638   4.243
 9664SOL    HW229892   5.198   4.482   4.264
 9665SOL     OW29893   5.923   6.075   5.635
 9665SOL    HW129894   5.960   6.095   5.726
 9665SOL    HW229895   5.878   5.986   5.636
 9666SOL     OW29896   6.439   3.555   2.035
 9666SOL    HW129897   6.484   3.620   2.095
 9666SOL    HW229898   6.473   3.463   2.054
 9667SOL     OW29899   3.866   3.386   0.661
 9667SOL    HW129900   3.818   3.349   0.582
 9667SOL    HW229901   3.822   3.354   0.745
 9668SOL     OW29902   1.193   0.809   6.701
 9668SOL    HW129903   1.159   0.903   6.693
 9668SOL    HW229904   1.292   0.808   6.684
 9669SOL     OW29905   2.143   6.860   1.582
 9669SOL    HW129906   2.203   6.811   1.520
 9669SOL    HW229907   2.048   6.847   1.555
 9670SOL     OW29908   0.136   5.359   5.375
 9670SOL    HW129909   0.083   5.389   5.454
 9670SOL    HW229910   0.204   5.428   5.352
 9671SOL     OW29911   6.582   4.278   0.777
 9671SOL    HW129912   6.593   4.312   0.871
 9671SOL    HW229913   6.658   4.311   0.721
 9672SOL     OW29914   1.386   4.933   3.176
 9672SOL    HW129915   1.287   4.945   3.176
 9672SOL    HW229916   1.431   5.022   3.165
 9673SOL     OW29917   3.576   3.587   1.412
 9673SOL    HW129918   3.477   3.579   1.425
 9673SOL    HW229919   3.594   3.626   1.322
 9674SOL     OW29920   3.911   6.577   3.330
 9674SOL    HW129921   3.963   6.663   3.324
 9674SOL    HW229922   3.959   6.513   3.390
 9675SOL     OW29923   4.947   2.317   6.791
 9675SOL    HW129924   4.906   2.227   6.782
 9675SOL    HW229925   4.989   2.326   6.882
 9676SOL     OW29926   1.671   3.613   6.037
 9676SOL    HW129927   1.654   3.541   6.104
 9676SOL    HW229928   1.716   3.691   6.082
 9677SOL     OW29929   6.755   4.885   5.723
 9677SOL    HW129930   6.734   4.967   5.671
 9677SOL    HW229931   6.797   4.910   5.810
 9678SOL     OW29932   2.896   3.698   4.102
 9678SOL    HW129933   2.871   3.615   4.151
 9678SOL    HW229934   2.927   3.768   4.167
 9679SOL     OW29935   2.495   0.005   3.840
 9679SOL    HW129936   2.408   7.009   3.888
 9679SOL    HW229937   2.485   0.084   3.780
 9680SOL     OW29938   4.478   0.284   5.068
 9680SOL    HW129939   4.550   0.287   4.998
 9680SOL    HW229940   4.520   0.280   5.159
 9681SOL     OW29941   3.206   2.387   0.719
 9681SOL    HW129942   3.108   2.405   0.730
 9681SOL    HW229943   3.218   2.300   0.671
 9682SOL     OW29944   4.851   4.072   3.654
 9682SOL    HW129945   4.825   4.136   3.582
 9682SOL    HW229946   4.903   3.997   3.614
 9683SOL     OW29947   3.384   6.371   1.145
 9683SOL    HW129948   3.307   6.333   1.196
 9683SOL    HW229949   3.465   6.372   1.204
 9684SOL     OW29950   0.748   4.166   5.009
 9684SOL    HW129951   0.834   4.116   5.005
 9684SOL    HW229952   0.766   4.262   5.031
 9685SOL     OW29953   4.661   4.188   1.048
 9685SOL    HW129954   4.604   4.142   1.117
 9685SOL    HW229955   4.740   4.131   1.027
 9686SOL     OW29956   0.582   2.926   6.409
 9686SOL    HW129957   0.506   2.887   6.357
 9686SOL    HW229958   0.608   2.864   6.483
 9687SOL     OW29959   0.022   1.047   3.441
 9687SOL    HW129960   0.024   0.972   3.507
 9687SOL    HW229961   6.968   1.110   3.464
 9688SOL     OW29962   1.049   3.188   0.683
 9688SOL    HW129963   1.118   3.177   0.612
 9688SOL    HW229964   0.973   3.125   0.664
 9689SOL     OW29965   0.720   4.612   6.434
 9689SOL    HW129966   0.704   4.545   6.506
 9689SOL    HW229967   0.818   4.628   6.424
 9690SOL     OW29968   5.878   6.986   5.918
 9690SOL    HW129969   5.921   6.898   5.898
 9690SOL    HW229970   5.833   6.981   6.007
 9691SOL     OW29971   2.896   3.724   1.514
 9691SOL    HW129972   2.963   3.755   1.446
 9691SOL    HW229973   2.828   3.667   1.469
 9692SOL     OW29974   4.682   5.782   0.908
 9692SOL    HW129975   4.762   5.830   0.874
 9692SOL    HW229976   4.704   5.685   0.922
 9693SOL     OW29977   6.353   3.942   2.841
 9693SOL    HW129978   6.282   4.012   2.834
 9693SOL    HW229979   6.317   3.862   2.888
 9694SOL     OW29980   3.002   0.970   2.097
 9694SOL    HW129981   3.064   1.017   2.159
 9694SOL    HW229982   2.926   1.030   2.073
 9695SOL     OW29983   6.834   2.332   2.950
 9695SOL    HW129984   6.833   2.432   2.954
 9695SOL    HW229985   6.924   2.299   2.978
 9696SOL     OW29986   5.768   2.968   1.443
 9696SOL    HW129987   5.865   2.990   1.435
 9696SOL    HW229988   5.729   2.952   1.352
 9697SOL     OW29989   0.563   6.284   0.352
 9697SOL    HW129990   0.580   6.313   0.258
 9697SOL    HW229991   0.530   6.362   0.405
 9698SOL     OW29992   5.661   2.694   5.928
 9698SOL    HW129993   5.716   2.611   5.920
 9698SOL    HW229994   5.615   2.712   5.841
 9699SOL     OW29995   7.017   5.846   0.145
 9699SOL    HW129996   6.947   5.774   0.144
 9699SOL    HW229997   0.086   5.806   0.127
 9700SOL     OW29998   5.802   4.823   4.823
 9700SOL    HW129999   5.833   4.756   4.756
 9700SOL    HW230000   5.754   4.777   4.897
 9701SOL     OW30001   4.902   4.246   6.012
 9701SOL    HW130002   4.864   4.193   6.087
 9701SOL    HW230003   4.868   4.211   5.925
 9702SOL     OW30004   3.752   2.474   0.071
 9702SOL    HW130005   3.738   2.417   7.010
 9702SOL    HW230006   3.828   2.437   0.125
 9703SOL     OW30007   5.006   3.390   3.741
 9703SOL    HW130008   5.094   3.416   3.781
 9703SOL    HW230009   4.994   3.436   3.653
 9704SOL     OW30010   3.599   5.963   1.809
 9704SOL    HW130011   3.508   5.995   1.834
 9704SOL    HW230012   3.596   5.923   1.717
 9705SOL     OW30013   5.035   4.513   6.396
 9705SOL    HW130014   5.080   4.602   6.386
 9705SOL    HW230015   5.064   4.471   6.482
 9706SOL     OW30016   2.854   2.258   0.908
 9706SOL    HW130017   2.896   2.297   0.826
 9706SOL    HW230018   2.925   2.239   0.976
 9707SOL     OW30019   6.480   4.807   2.564
 9707SOL    HW130020   6.521   4.817   2.474
 9707SOL    HW230021   6.532   4.860   2.631
 9708SOL     OW30022   0.673   1.607   3.721
 9708SOL    HW130023   0.687   1.706   3.719
 9708SOL    HW230024   0.700   1.568   3.633
 9709SOL     OW30025   5.374   5.275   2.654
 9709SOL    HW130026   5.390   5.229   2.567
 9709SOL    HW230027   5.280   5.310   2.657
 9710SOL     OW30028   0.060   1.537   1.395
 9710SOL    HW130029   0.054   1.602   1.470
 9710SOL    HW230030   6.991   1.494   1.382
 9711SOL     OW30031   4.518   5.196   6.311
 9711SOL    HW130032   4.615   5.196   6.335
 9711SOL    HW230033   4.506   5.164   6.217
 9712SOL     OW30034   5.909   3.530   0.090
 9712SOL    HW130035   5.970   3.578   0.027
 9712SOL    HW230036   5.823   3.580   0.098
 9713SOL     OW30037   2.026   4.446   3.642
 9713SOL    HW130038   2.121   4.475   3.650
 9713SOL    HW230039   1.971   4.522   3.607
 9714SOL     OW30040   4.443   6.401   6.385
 9714SOL    HW130041   4.383   6.415   6.306
 9714SOL    HW230042   4.539   6.412   6.357
 9715SOL     OW30043   5.993   3.869   6.990
 9715SOL    HW130044   6.058   3.925   6.939
 9715SOL    HW230045   5.925   3.928   0.013
 9716SOL     OW30046   3.218   4.216   6.578
 9716SOL    HW130047   3.267   4.180   6.498
 9716SOL    HW230048   3.239   4.159   6.657
 9717SOL     OW30049   5.166   6.921   6.063
 9717SOL    HW130050   5.087   6.982   6.058
 9717SOL    HW230051   5.250   6.975   6.065
 9718SOL     OW30052   5.262   3.442   1.158
 9718SOL    HW130053   5.244   3.420   1.062
 9718SOL    HW230054   5.361   3.434   1.175
 9719SOL     OW30055   5.892   0.626   5.876
 9719SOL    HW130056   5.811   0.606   5.820
 9719SOL    HW230057   5.879   0.712   5.924
 9720SOL     OW30058   1.230   4.420   2.321
 9720SOL    HW130059   1.299   4.452   2.386
 9720SOL    HW230060   1.169   4.496   2.298
 9721SOL     OW30061   0.352   1.236   0.184
 9721SOL    HW130062   0.282   1.201   0.246
 9721SOL    HW230063   0.310   1.258   0.095
 9722SOL     OW30064   3.403   1.350   4.837
 9722SOL    HW130065   3.372   1.387   4.750
 9722SOL    HW230066   3.329   1.355   4.904
 9723SOL     OW30067   3.833   6.160   3.627
 9723SOL    HW130068   3.851   6.142   3.530
 9723SOL    HW230069   3.817   6.074   3.674
 9724SOL     OW30070   1.462   4.919   0.009
 9724SOL    HW130071   1.556   4.895   7.004
 9724SOL    HW230072   1.412   4.949   6.947
 9725SOL     OW30073   4.266   6.428   6.187
 9725SOL    HW130074   4.243   6.478   6.104
 9725SOL    HW230075   4.219   6.340   6.188
 9726SOL     OW30076   4.294   1.792   3.336
 9726SOL    HW130077   4.345   1.863   3.386
 9726SOL    HW230078   4.320   1.702   3.371
 9727SOL     OW30079   0.796   2.414   6.594
 9727SOL    HW130080   0.814   2.383   6.501
 9727SOL    HW230081   0.881   2.449   6.635
 9728SOL     OW30082   0.682   0.981   5.191
 9728SOL    HW130083   0.651   0.889   5.215
 9728SOL    HW230084   0.670   1.043   5.269
 9729SOL     OW30085   1.323   4.497   3.780
 9729SOL    HW130086   1.262   4.446   3.719
 9729SOL    HW230087   1.413   4.455   3.780
 9730SOL     OW30088   1.201   4.556   3.144
 9730SOL    HW130089   1.127   4.618   3.170
 9730SOL    HW230090   1.289   4.604   3.155
 9731SOL     OW30091   4.820   5.330   1.866
 9731SOL    HW130092   4.751   5.321   1.794
 9731SOL    HW230093   4.787   5.287   1.949
 9732SOL     OW30094   1.102   4.167   2.361
 9732SOL    HW130095   1.082   4.119   2.275
 9732SOL    HW230096   1.145   4.255   2.340
 9733SOL     OW30097   4.997   5.657   0.096
 9733SOL    HW130098   5.024   5.577   0.150
 9733SOL    HW230099   4.898   5.669   0.101
 9734SOL     OW30100   6.755   0.461   0.050
 9734SOL    HW130101   6.773   0.493   0.143
 9734SOL    HW230102   6.696   0.527   0.002
 9735SOL     OW30103   1.990   3.127   3.473
 9735SOL    HW130104   2.043   3.057   3.521
 9735SOL    HW230105   2.033   3.216   3.487
 9736SOL     OW30106   5.088   1.342   5.733
 9736SOL    HW130107   5.133   1.429   5.710
 9736SOL    HW230108   4.996   1.361   5.769
 9737SOL     OW30109   5.397   2.623   2.997
 9737SOL    HW130110   5.361   2.584   2.912
 9737SOL    HW230111   5.354   2.711   3.014
 9738SOL     OW30112   2.659   6.561   0.256
 9738SOL    HW130113   2.659   6.489   0.326
 9738SOL    HW230114   2.588   6.628   0.279
 9739SOL     OW30115   5.095   5.842   0.679
 9739SOL    HW130116   5.045   5.793   0.608
 9739SOL    HW230117   5.143   5.777   0.738
 9740SOL     OW30118   0.420   1.264   3.466
 9740SOL    HW130119   0.502   1.221   3.429
 9740SOL    HW230120   0.339   1.218   3.430
 9741SOL     OW30121   2.715   1.201   2.630
 9741SOL    HW130122   2.746   1.117   2.584
 9741SOL    HW230123   2.728   1.279   2.569
 9742SOL     OW30124   3.489   1.050   0.594
 9742SOL    HW130125   3.578   1.045   0.547
 9742SOL    HW230126   3.461   0.957   0.619
 9743SOL     OW30127   6.731   4.120   3.566
 9743SOL    HW130128   6.818   4.131   3.614
 9743SOL    HW230129   6.748   4.115   3.467
 9744SOL     OW30130   1.109   6.606   1.709
 9744SOL    HW130131   1.066   6.671   1.770
 9744SOL    HW230132   1.152   6.533   1.763
 9745SOL     OW30133   4.379   2.542   6.642
 9745SOL    HW130134   4.320   2.461   6.639
 9745SOL    HW230135   4.335   2.617   6.593
 9746SOL     OW30136   5.628   0.585   5.757
 9746SOL    HW130137   5.598   0.678   5.734
 9746SOL    HW230138   5.632   0.530   5.674
 9747SOL     OW30139   2.674   2.228   1.867
 9747SOL    HW130140   2.645   2.308   1.815
 9747SOL    HW230141   2.750   2.252   1.927
 9748SOL     OW30142   5.998   0.076   3.726
 9748SOL    HW130143   5.984   0.019   3.645
 9748SOL    HW230144   6.055   0.027   3.792
 9749SOL     OW30145   1.288   0.679   4.152
 9749SOL    HW130146   1.358   0.636   4.094
 9749SOL    HW230147   1.319   0.769   4.180
 9750SOL     OW30148   6.271   5.209   3.254
 9750SOL    HW130149   6.225   5.156   3.182
 9750SOL    HW230150   6.336   5.150   3.302
 9751SOL     OW30151   2.770   0.156   1.312
 9751SOL    HW130152   2.804   0.089   1.378
 9751SOL    HW230153   2.670   0.150   1.307
 9752SOL     OW30154   3.977   1.612   5.331
 9752SOL    HW130155   4.066   1.633   5.372
 9752SOL    HW230156   3.983   1.622   5.231
 9753SOL     OW30157   0.087   5.467   5.748
 9753SOL    HW130158   7.016   5.461   5.790
 9753SOL    HW230159   0.145   5.393   5.782
 9754SOL     OW30160   1.912   0.183   0.942
 9754SOL    HW130161   1.819   0.211   0.916
 9754SOL    HW230162   1.908   0.095   0.989
 9755SOL     OW30163   3.715   3.572   4.329
 9755SOL    HW130164   3.753   3.501   4.270
 9755SOL    HW230165   3.738   3.552   4.425
 9756SOL     OW30166   5.504   2.072   5.814
 9756SOL    HW130167   5.587   2.061   5.761
 9756SOL    HW230168   5.504   2.162   5.858
 9757SOL     OW30169   5.735   4.484   4.468
 9757SOL    HW130170   5.717   4.386   4.479
 9757SOL    HW230171   5.652   4.536   4.487
 9758SOL     OW30172   2.066   0.618   0.001
 9758SOL    HW130173   1.993   0.687   7.018
 9758SOL    HW230174   2.033   0.537   0.049
 9759SOL     OW30175   1.055   0.773   0.068
 9759SOL    HW130176   1.141   0.823   0.077
 9759SOL    HW230177   1.063   0.706   7.015
 9760SOL     OW30178   4.773   3.332   5.624
 9760SOL    HW130179   4.749   3.374   5.536
 9760SOL    HW230180   4.803   3.238   5.609
 9761SOL     OW30181   0.533   2.172   1.441
 9761SOL    HW130182   0.541   2.267   1.412
 9761SOL    HW230183   0.570   2.163   1.534
 9762SOL     OW30184   3.609   2.103   4.780
 9762SOL    HW130185   3.519   2.145   4.788
 9762SOL    HW230186   3.624   2.042   4.858
 9763SOL     OW30187   4.886   1.793   3.080
 9763SOL    HW130188   4.938   1.768   2.998
 9763SOL    HW230189   4.917   1.883   3.113
 9764SOL     OW30190   6.454   2.646   2.762
 9764SOL    HW130191   6.389   2.570   2.753
 9764SOL    HW230192   6.482   2.654   2.857
 9765SOL     OW30193   6.588   6.616   3.476
 9765SOL    HW130194   6.629   6.565   3.551
 9765SOL    HW230195   6.578   6.556   3.396
 9766SOL     OW30196   2.348   6.400   2.032
 9766SOL    HW130197   2.322   6.362   1.943
 9766SOL    HW230198   2.444   6.429   2.028
 9767SOL     OW30199   2.882   1.509   5.814
 9767SOL    HW130200   2.951   1.443   5.844
 9767SOL    HW230201   2.890   1.522   5.715
 9768SOL     OW30202   5.461   1.152   1.766
 9768SOL    HW130203   5.381   1.177   1.819
 9768SOL    HW230204   5.493   1.062   1.795
 9769SOL     OW30205   4.555   0.488   4.521
 9769SOL    HW130206   4.492   0.431   4.573
 9769SOL    HW230207   4.648   0.479   4.558
 9770SOL     OW30208   3.784   0.995   6.116
 9770SOL    HW130209   3.832   0.914   6.081
 9770SOL    HW230210   3.727   1.033   6.043
 9771SOL     OW30211   2.815   5.251   0.890
 9771SOL    HW130212   2.739   5.286   0.834
 9771SOL    HW230213   2.868   5.186   0.836
 9772SOL     OW30214   1.125   5.841   1.541
 9772SOL    HW130215   1.056   5.879   1.479
 9772SOL    HW230216   1.177   5.916   1.582
 9773SOL     OW30217   5.428   5.642   4.153
 9773SOL    HW130218   5.396   5.735   4.139
 9773SOL    HW230219   5.357   5.588   4.197
 9774SOL     OW30220   6.590   5.315   1.983
 9774SOL    HW130221   6.637   5.226   1.980
 9774SOL    HW230222   6.658   5.389   1.978
 9775SOL     OW30223   2.717   0.431   3.664
 9775SOL    HW130224   2.735   0.341   3.625
 9775SOL    HW230225   2.631   0.428   3.716
 9776SOL     OW30226   6.996   4.794   5.238
 9776SOL    HW130227   6.946   4.715   5.272
 9776SOL    HW230228   6.930   4.863   5.205
 9777SOL     OW30229   6.062   4.924   0.657
 9777SOL    HW130230   6.110   5.011   0.658
 9777SOL    HW230231   5.973   4.935   0.612
 9778SOL     OW30232   0.531   1.975   4.336
 9778SOL    HW130233   0.473   2.056   4.335
 9778SOL    HW230234   0.587   1.975   4.419
 9779SOL     OW30235   0.366   2.224   4.301
 9779SOL    HW130236   0.383   2.256   4.395
 9779SOL    HW230237   0.287   2.164   4.300
 9780SOL     OW30238   2.812   2.534   0.218
 9780SOL    HW130239   2.894   2.577   0.254
 9780SOL    HW230240   2.823   2.516   0.121
 9781SOL     OW30241   2.487   2.244   4.993
 9781SOL    HW130242   2.520   2.335   4.966
 9781SOL    HW230243   2.564   2.181   4.998
 9782SOL     OW30244   0.502   1.741   0.560
 9782SOL    HW130245   0.496   1.841   0.562
 9782SOL    HW230246   0.425   1.702   0.611
 9783SOL     OW30247   4.809   2.994   3.398
 9783SOL    HW130248   4.790   3.077   3.346
 9783SOL    HW230249   4.796   3.012   3.496
 9784SOL     OW30250   2.880   1.137   6.175
 9784SOL    HW130251   2.847   1.122   6.268
 9784SOL    HW230252   2.975   1.106   6.168
 9785SOL     OW30253   0.288   2.042   5.867
 9785SOL    HW130254   0.305   1.945   5.855
 9785SOL    HW230255   0.351   2.079   5.936
 9786SOL     OW30256   2.934   3.861   0.496
 9786SOL    HW130257   2.877   3.932   0.455
 9786SOL    HW230258   2.959   3.794   0.426
 9787SOL     OW30259   3.351   3.061   2.550
 9787SOL    HW130260   3.417   3.136   2.554
 9787SOL    HW230261   3.258   3.098   2.555
 9788SOL     OW30262   1.047   0.285   3.175
 9788SOL    HW130263   0.982   0.244   3.111
 9788SOL    HW230264   1.140   0.269   3.143
 9789SOL     OW30265   1.525   5.299   0.282
 9789SOL    HW130266   1.487   5.211   0.311
 9789SOL    HW230267   1.538   5.298   0.183
 9790SOL     OW30268   6.422   4.993   6.714
 9790SOL    HW130269   6.421   4.897   6.686
 9790SOL    HW230270   6.347   5.041   6.668
 9791SOL     OW30271   0.741   0.029   6.784
 9791SOL    HW130272   0.705   6.962   6.819
 9791SOL    HW230273   0.840   0.022   6.774
 9792SOL     OW30274   3.419   3.919   0.901
 9792SOL    HW130275   3.478   3.897   0.978
 9792SOL    HW230276   3.401   3.837   0.848
 9793SOL     OW30277   4.342   0.449   2.490
 9793SOL    HW130278   4.395   0.511   2.547
 9793SOL    HW230279   4.403   0.388   2.440
 9794SOL     OW30280   0.184   4.199   6.625
 9794SOL    HW130281   0.252   4.164   6.560
 9794SOL    HW230282   0.100   4.221   6.576
 9795SOL     OW30283   1.101   1.895   4.589
 9795SOL    HW130284   1.049   1.810   4.577
 9795SOL    HW230285   1.195   1.881   4.560
 9796SOL     OW30286   4.082   3.177   2.256
 9796SOL    HW130287   4.071   3.083   2.227
 9796SOL    HW230288   4.108   3.234   2.178
 9797SOL     OW30289   2.268   5.711   0.465
 9797SOL    HW130290   2.169   5.693   0.467
 9797SOL    HW230291   2.315   5.637   0.418
 9798SOL     OW30292   3.529   0.531   2.178
 9798SOL    HW130293   3.556   0.442   2.215
 9798SOL    HW230294   3.436   0.552   2.207
 9799SOL     OW30295   2.649   4.129   5.803
 9799SOL    HW130296   2.690   4.220   5.808
 9799SOL    HW230297   2.664   4.091   5.712
 9800SOL     OW30298   4.918   5.167   5.325
 9800SOL    HW130299   4.894   5.195   5.418
 9800SOL    HW230300   4.945   5.070   5.325
 9801SOL     OW30301   4.806   3.887   6.979
 9801SOL    HW130302   4.769   3.838   0.037
 9801SOL    HW230303   4.790   3.834   6.896
 9802SOL     OW30304   6.351   4.333   2.011
 9802SOL    HW130305   6.260   4.373   2.000
 9802SOL    HW230306   6.363   4.259   1.945
 9803SOL     OW30307   1.864   2.407   6.155
 9803SOL    HW130308   1.964   2.406   6.154
 9803SOL    HW230309   1.831   2.466   6.229
 9804SOL     OW30310   0.762   6.317   2.993
 9804SOL    HW130311   0.786   6.221   3.006
 9804SOL    HW230312   0.780   6.343   2.898
 9805SOL     OW30313   1.086   0.048   2.854
 9805SOL    HW130314   1.043   6.977   2.853
 9805SOL    HW230315   1.171   0.045   2.801
 9806SOL     OW30316   1.334   1.006   6.917
 9806SOL    HW130317   1.246   1.033   6.877
 9806SOL    HW230318   1.394   1.085   6.923
 9807SOL     OW30319   3.311   3.802   1.684
 9807SOL    HW130320   3.261   3.824   1.600
 9807SOL    HW230321   3.410   3.803   1.666
 9808SOL     OW30322   3.606   6.653   4.999
 9808SOL    HW130323   3.524   6.598   4.981
 9808SOL    HW230324   3.646   6.626   5.087
 9809SOL     OW30325   0.986   3.591   6.511
 9809SOL    HW130326   0.902   3.584   6.458
 9809SOL    HW230327   1.056   3.637   6.456
 9810SOL     OW30328   2.256   2.341   3.801
 9810SOL    HW130329   2.281   2.344   3.897
 9810SOL    HW230330   2.331   2.304   3.747
 9811SOL     OW30331   5.647   4.902   3.152
 9811SOL    HW130332   5.579   4.965   3.189
 9811SOL    HW230333   5.603   4.815   3.129
 9812SOL     OW30334   3.669   1.765   5.924
 9812SOL    HW130335   3.747   1.816   5.960
 9812SOL    HW230336   3.697   1.716   5.842
 9813SOL     OW30337   4.547   1.497   0.688
 9813SOL    HW130338   4.544   1.444   0.603
 9813SOL    HW230339   4.460   1.542   0.702
 9814SOL     OW30340   6.801   0.225   6.355
 9814SOL    HW130341   6.802   0.298   6.424
 9814SOL    HW230342   6.834   0.140   6.395
 9815SOL     OW30343   5.174   3.622   4.555
 9815SOL    HW130344   5.201   3.603   4.650
 9815SOL    HW230345   5.233   3.571   4.493
 9816SOL     OW30346   1.038   0.991   6.335
 9816SOL    HW130347   1.008   1.018   6.243
 9816SOL    HW230348   0.993   0.906   6.361
 9817SOL     OW30349   2.847   6.313   3.080
 9817SOL    HW130350   2.880   6.405   3.057
 9817SOL    HW230351   2.904   6.245   3.033
 9818SOL     OW30352   0.573   0.572   3.727
 9818SOL    HW130353   0.645   0.511   3.695
 9818SOL    HW230354   0.583   0.588   3.825
 9819SOL     OW30355   4.883   3.742   3.317
 9819SOL    HW130356   4.830   3.820   3.283
 9819SOL    HW230357   4.876   3.738   3.416
 9820SOL     OW30358   3.880   2.711   6.489
 9820SOL    HW130359   3.950   2.773   6.524
 9820SOL    HW230360   3.922   2.649   6.423
 9821SOL     OW30361   5.126   1.771   6.940
 9821SOL    HW130362   5.210   1.823   6.954
 9821SOL    HW230363   5.136   1.680   6.980
 9822SOL     OW30364   2.013   6.893   3.251
 9822SOL    HW130365   2.101   6.851   3.226
 9822SOL    HW230366   1.945   6.870   3.182
 9823SOL     OW30367   2.506   0.630   6.825
 9823SOL    HW130368   2.415   0.671   6.836
 9823SOL    HW230369   2.556   0.637   6.911
 9824SOL     OW30370   1.964   5.028   4.599
 9824SOL    HW130371   1.873   5.066   4.584
 9824SOL    HW230372   2.032   5.100   4.587
 9825SOL     OW30373   4.805   5.609   5.598
 9825SOL    HW130374   4.726   5.554   5.571
 9825SOL    HW230375   4.839   5.658   5.518
 9826SOL     OW30376   5.176   4.921   6.597
 9826SOL    HW130377   5.171   5.021   6.586
 9826SOL    HW230378   5.142   4.876   6.515
 9827SOL     OW30379   2.124   3.894   3.229
 9827SOL    HW130380   2.081   3.847   3.152
 9827SOL    HW230381   2.172   3.976   3.195
 9828SOL     OW30382   2.382   2.490   5.279
 9828SOL    HW130383   2.286   2.511   5.298
 9828SOL    HW230384   2.428   2.573   5.246
 9829SOL     OW30385   4.069   4.857   0.285
 9829SOL    HW130386   4.110   4.878   0.196
 9829SOL    HW230387   4.018   4.936   0.318
 9830SOL     OW30388   6.027   2.874   1.730
 9830SOL    HW130389   5.953   2.934   1.761
 9830SOL    HW230390   5.992   2.811   1.661
 9831SOL     OW30391   2.490   5.176   1.263
 9831SOL    HW130392   2.546   5.182   1.180
 9831SOL    HW230393   2.480   5.267   1.302
 9832SOL     OW30394   4.701   5.531   3.040
 9832SOL    HW130395   4.775   5.585   3.082
 9832SOL    HW230396   4.740   5.447   3.002
 9833SOL     OW30397   3.709   3.842   5.121
 9833SOL    HW130398   3.755   3.930   5.105
 9833SOL    HW230399   3.610   3.856   5.122
 9834SOL     OW30400   2.711   4.663   5.289
 9834SOL    HW130401   2.771   4.642   5.212
 9834SOL    HW230402   2.670   4.579   5.324
 9835SOL     OW30403   3.861   3.200   5.430
 9835SOL    HW130404   3.776   3.195   5.378
 9835SOL    HW230405   3.845   3.246   5.517
 9836SOL     OW30406   6.627   4.706   3.913
 9836SOL    HW130407   6.651   4.649   3.992
 9836SOL    HW230408   6.694   4.779   3.903
 9837SOL     OW30409   3.154   0.210   3.460
 9837SOL    HW130410   3.180   0.116   3.438
 9837SOL    HW230411   3.197   0.272   3.394
 9838SOL     OW30412   1.994   6.852   6.634
 9838SOL    HW130413   2.072   6.811   6.588
 9838SOL    HW230414   2.016   6.872   6.729
 9839SOL     OW30415   5.779   0.697   3.511
 9839SOL    HW130416   5.867   0.726   3.474
 9839SOL    HW230417   5.747   0.616   3.461
 9840SOL     OW30418   5.855   1.279   1.110
 9840SOL    HW130419   5.773   1.264   1.165
 9840SOL    HW230420   5.916   1.343   1.157
 9841SOL     OW30421   2.111   4.624   5.157
 9841SOL    HW130422   2.038   4.556   5.157
 9841SOL    HW230423   2.156   4.624   5.247
 9842SOL     OW30424   3.811   3.156   2.102
 9842SOL    HW130425   3.876   3.102   2.155
 9842SOL    HW230426   3.858   3.200   2.025
 9843SOL     OW30427   6.083   0.813   1.541
 9843SOL    HW130428   5.998   0.831   1.591
 9843SOL    HW230429   6.062   0.801   1.444
 9844SOL     OW30430   6.267   0.548   1.954
 9844SOL    HW130431   6.284   0.454   1.926
 9844SOL    HW230432   6.234   0.549   2.048
 9845SOL     OW30433   2.139   2.521   3.175
 9845SOL    HW130434   2.075   2.483   3.241
 9845SOL    HW230435   2.210   2.453   3.154
 9846SOL     OW30436   3.809   3.476   1.526
 9846SOL    HW130437   3.725   3.516   1.491
 9846SOL    HW230438   3.874   3.549   1.549
 9847SOL     OW30439   3.400   2.862   3.814
 9847SOL    HW130440   3.448   2.778   3.786
 9847SOL    HW230441   3.398   2.868   3.913
 9848SOL     OW30442   3.667   3.362   5.230
 9848SOL    HW130443   3.597   3.308   5.276
 9848SOL    HW230444   3.650   3.460   5.246
 9849SOL     OW30445   0.037   6.440   6.365
 9849SOL    HW130446   0.125   6.410   6.329
 9849SOL    HW230447   0.026   6.405   6.458
 9850SOL     OW30448   5.819   0.151   4.218
 9850SOL    HW130449   5.725   0.179   4.200
 9850SOL    HW230450   5.872   0.156   4.134
 9851SOL     OW30451   5.716   0.847   4.569
 9851SOL    HW130452   5.812   0.874   4.560
 9851SOL    HW230453   5.667   0.916   4.622
 9852SOL     OW30454   4.178   2.226   3.583
 9852SOL    HW130455   4.140   2.212   3.491
 9852SOL    HW230456   4.260   2.170   3.594
 9853SOL     OW30457   5.139   3.894   4.883
 9853SOL    HW130458   5.048   3.894   4.843
 9853SOL    HW230459   5.139   3.952   4.965
 9854SOL     OW30460   6.815   5.673   5.083
 9854SOL    HW130461   6.899   5.631   5.048
 9854SOL    HW230462   6.760   5.706   5.006
 9855SOL     OW30463   1.964   3.390   0.877
 9855SOL    HW130464   2.037   3.422   0.938
 9855SOL    HW230465   1.898   3.336   0.930
 9856SOL     OW30466   5.213   4.627   5.158
 9856SOL    HW130467   5.131   4.586   5.117
 9856SOL    HW230468   5.254   4.691   5.093
 9857SOL     OW30469   4.725   2.781   3.060
 9857SOL    HW130470   4.821   2.775   3.088
 9857SOL    HW230471   4.720   2.818   2.967
 9858SOL     OW30472   0.438   0.701   1.034
 9858SOL    HW130473   0.416   0.619   0.981
 9858SOL    HW230474   0.358   0.729   1.087
 9859SOL     OW30475   6.071   0.094   2.467
 9859SOL    HW130476   6.095   0.001   2.442
 9859SOL    HW230477   6.087   0.108   2.565
 9860SOL     OW30478   1.092   1.516   3.622
 9860SOL    HW130479   1.108   1.436   3.564
 9860SOL    HW230480   1.127   1.498   3.714
 9861SOL     OW30481   2.798   0.166   3.619
 9861SOL    HW130482   2.870   0.166   3.687
 9861SOL    HW230483   2.735   0.090   3.636
 9862SOL     OW30484   3.854   2.982   0.063
 9862SOL    HW130485   3.777   3.024   0.113
 9862SOL    HW230486   3.853   2.883   0.077
 9863SOL     OW30487   3.004   6.992   2.984
 9863SOL    HW130488   3.044   6.928   2.919
 9863SOL    HW230489   2.986   6.946   3.071
 9864SOL     OW30490   4.035   6.943   4.015
 9864SOL    HW130491   4.130   6.912   4.020
 9864SOL    HW230492   3.975   6.864   3.999
 9865SOL     OW30493   1.479   0.924   4.482
 9865SOL    HW130494   1.560   0.977   4.506
 9865SOL    HW230495   1.423   0.910   4.563
 9866SOL     OW30496   5.697   4.847   6.453
 9866SOL    HW130497   5.672   4.835   6.357
 9866SOL    HW230498   5.702   4.945   6.474
 9867SOL     OW30499   6.416   0.583   1.365
 9867SOL    HW130500   6.497   0.525   1.362
 9867SOL    HW230501   6.440   0.673   1.400
 9868SOL     OW30502   0.270   3.642   5.834
 9868SOL    HW130503   0.190   3.602   5.880
 9868SOL    HW230504   0.323   3.696   5.899
 9869SOL     OW30505   1.508   3.211   1.974
 9869SOL    HW130506   1.472   3.127   2.016
 9869SOL    HW230507   1.602   3.196   1.943
 9870SOL     OW30508   3.773   5.776   2.959
 9870SOL    HW130509   3.719   5.742   2.881
 9870SOL    HW230510   3.713   5.828   3.020
 9871SOL     OW30511   0.330   6.149   5.822
 9871SOL    HW130512   0.424   6.125   5.799
 9871SOL    HW230513   0.329   6.235   5.873
 9872SOL     OW30514   2.455   5.324   3.933
 9872SOL    HW130515   2.418   5.350   4.022
 9872SOL    HW230516   2.544   5.280   3.944
 9873SOL     OW30517   2.944   2.531   6.994
 9873SOL    HW130518   3.040   2.505   7.008
 9873SOL    HW230519   2.940   2.612   6.937
 9874SOL     OW30520   5.843   3.077   4.727
 9874SOL    HW130521   5.841   2.995   4.670
 9874SOL    HW230522   5.792   3.150   4.683
 9875SOL     OW30523   6.088   6.295   2.039
 9875SOL    HW130524   6.049   6.259   2.124
 9875SOL    HW230525   6.036   6.374   2.009
 9876SOL     OW30526   6.510   0.229   3.587
 9876SOL    HW130527   6.513   0.273   3.677
 9876SOL    HW230528   6.440   0.274   3.531
 9877SOL     OW30529   6.904   5.994   4.255
 9877SOL    HW130530   6.906   6.044   4.169
 9877SOL    HW230531   6.823   5.934   4.257
 9878SOL     OW30532   2.671   4.888   5.062
 9878SOL    HW130533   2.633   4.909   4.971
 9878SOL    HW230534   2.734   4.810   5.054
 9879SOL     OW30535   5.624   5.128   5.068
 9879SOL    HW130536   5.723   5.142   5.063
 9879SOL    HW230537   5.595   5.130   5.164
 9880SOL     OW30538   3.527   0.671   7.007
 9880SOL    HW130539   3.498   0.762   6.981
 9880SOL    HW230540   3.479   0.603   6.953
 9881SOL     OW30541   0.970   1.285   5.142
 9881SOL    HW130542   0.945   1.203   5.092
 9881SOL    HW230543   0.998   1.261   5.235
 9882SOL     OW30544   1.349   3.545   4.855
 9882SOL    HW130545   1.396   3.487   4.789
 9882SOL    HW230546   1.388   3.637   4.851
 9883SOL     OW30547   1.175   6.332   0.761
 9883SOL    HW130548   1.260   6.283   0.779
 9883SOL    HW230549   1.185   6.385   0.676
 9884SOL     OW30550   5.280   2.686   1.725
 9884SOL    HW130551   5.370   2.705   1.687
 9884SOL    HW230552   5.288   2.666   1.823
 9885SOL     OW30553   6.694   2.058   4.801
 9885SOL    HW130554   6.701   2.106   4.888
 9885SOL    HW230555   6.740   1.969   4.808
 9886SOL     OW30556   1.393   4.892   1.779
 9886SOL    HW130557   1.398   4.969   1.842
 9886SOL    HW230558   1.298   4.882   1.748
 9887SOL     OW30559   4.247   0.296   6.182
 9887SOL    HW130560   4.330   0.294   6.127
 9887SOL    HW230561   4.249   0.220   6.247
 9888SOL     OW30562   5.842   5.037   2.562
 9888SOL    HW130563   5.871   4.957   2.509
 9888SOL    HW230564   5.868   5.120   2.512
 9889SOL     OW30565   6.349   4.857   1.063
 9889SOL    HW130566   6.362   4.775   1.006
 9889SOL    HW230567   6.403   4.933   1.025
 9890SOL     OW30568   1.158   2.692   1.162
 9890SOL    HW130569   1.215   2.609   1.162
 9890SOL    HW230570   1.062   2.666   1.160
 9891SOL     OW30571   5.574   3.244   2.039
 9891SOL    HW130572   5.522   3.277   1.960
 9891SOL    HW230573   5.578   3.144   2.037
 9892SOL     OW30574   0.606   5.192   1.698
 9892SOL    HW130575   0.648   5.107   1.730
 9892SOL    HW230576   0.663   5.270   1.725
 9893SOL     OW30577   0.409   1.093   1.487
 9893SOL    HW130578   0.486   1.153   1.511
 9893SOL    HW230579   0.325   1.131   1.527
 9894SOL     OW30580   3.081   2.180   0.530
 9894SOL    HW130581   3.104   2.243   0.455
 9894SOL    HW230582   3.007   2.119   0.500
 9895SOL     OW30583   5.765   4.227   5.217
 9895SOL    HW130584   5.713   4.144   5.241
 9895SOL    HW230585   5.742   4.255   5.124
 9896SOL     OW30586   6.435   1.012   0.728
 9896SOL    HW130587   6.356   0.959   0.696
 9896SOL    HW230588   6.474   0.968   0.809
 9897SOL     OW30589   5.636   6.728   2.690
 9897SOL    HW130590   5.597   6.752   2.601
 9897SOL    HW230591   5.676   6.637   2.685
 9898SOL     OW30592   1.036   5.304   5.560
 9898SOL    HW130593   1.133   5.290   5.543
 9898SOL    HW230594   0.982   5.250   5.496
 9899SOL     OW30595   1.537   5.341   1.174
 9899SOL    HW130596   1.628   5.382   1.178
 9899SOL    HW230597   1.470   5.405   1.212
 9900SOL     OW30598   1.287   2.908   3.012
 9900SOL    HW130599   1.188   2.918   3.013
 9900SOL    HW230600   1.327   2.984   2.961
 9901SOL     OW30601   2.731   0.907   6.783
 9901SOL    HW130602   2.740   0.869   6.691
 9901SOL    HW230603   2.639   0.943   6.796
 9902SOL     OW30604   3.000   4.707   1.333
 9902SOL    HW130605   2.993   4.795   1.379
 9902SOL    HW230606   2.910   4.662   1.332
 9903SOL     OW30607   5.477   1.964   1.758
 9903SOL    HW130608   5.555   2.025   1.771
 9903SOL    HW230609   5.394   2.019   1.742
 9904SOL     OW30610   0.697   4.138   6.764
 9904SOL    HW130611   0.611   4.091   6.741
 9904SOL    HW230612   0.767   4.071   6.787
 9905SOL     OW30613   2.396   0.133   5.976
 9905SOL    HW130614   2.361   0.158   6.066
 9905SOL    HW230615   2.496   0.126   5.980
 9906SOL     OW30616   1.564   3.338   0.480
 9906SOL    HW130617   1.567   3.294   0.571
 9906SOL    HW230618   1.591   3.434   0.489
 9907SOL     OW30619   1.058   0.554   1.051
 9907SOL    HW130620   1.090   0.587   0.962
 9907SOL    HW230621   1.132   0.557   1.117
 9908SOL     OW30622   6.467   1.835   4.883
 9908SOL    HW130623   6.435   1.843   4.789
 9908SOL    HW230624   6.566   1.820   4.883
 9909SOL     OW30625   3.899   1.186   2.708
 9909SOL    HW130626   3.817   1.129   2.700
 9909SOL    HW230627   3.877   1.268   2.762
 9910SOL     OW30628   1.251   5.124   1.567
 9910SOL    HW130629   1.229   5.210   1.521
 9910SOL    HW230630   1.334   5.085   1.527
 9911SOL     OW30631   2.890   6.229   2.504
 9911SOL    HW130632   2.814   6.287   2.475
 9911SOL    HW230633   2.962   6.232   2.436
 9912SOL     OW30634   3.736   1.181   0.952
 9912SOL    HW130635   3.806   1.248   0.928
 9912SOL    HW230636   3.760   1.136   1.038
 9913SOL     OW30637   6.503   3.582   0.503
 9913SOL    HW130638   6.522   3.518   0.429
 9913SOL    HW230639   6.418   3.555   0.550
 9914SOL     OW30640   6.204   0.988   4.840
 9914SOL    HW130641   6.178   0.981   4.936
 9914SOL    HW230642   6.290   0.940   4.825
 9915SOL     OW30643   6.181   0.979   3.397
 9915SOL    HW130644   6.207   1.043   3.470
 9915SOL    HW230645   6.201   1.021   3.308
 9916SOL     OW30646   2.155   2.173   3.156
 9916SOL    HW130647   2.055   2.177   3.159
 9916SOL    HW230648   2.184   2.132   3.070
 9917SOL     OW30649   4.314   3.939   6.094
 9917SOL    HW130650   4.351   3.981   6.177
 9917SOL    HW230651   4.364   3.854   6.075
 9918SOL     OW30652   1.478   2.254   2.643
 9918SOL    HW130653   1.569   2.214   2.626
 9918SOL    HW230654   1.452   2.237   2.738
 9919SOL     OW30655   1.335   5.710   1.113
 9919SOL    HW130656   1.308   5.615   1.100
 9919SOL    HW230657   1.368   5.722   1.207
 9920SOL     OW30658   5.567   0.507   2.386
 9920SOL    HW130659   5.539   0.442   2.316
 9920SOL    HW230660   5.582   0.597   2.345
 9921SOL     OW30661   4.382   6.241   4.344
 9921SOL    HW130662   4.284   6.232   4.326
 9921SOL    HW230663   4.396   6.287   4.431
 9922SOL     OW30664   3.775   4.049   1.205
 9922SOL    HW130665   3.845   3.993   1.161
 9922SOL    HW230666   3.685   4.009   1.189
 9923SOL     OW30667   6.055   4.464   6.647
 9923SOL    HW130668   6.003   4.538   6.605
 9923SOL    HW230669   5.992   4.404   6.696
 9924SOL     OW30670   6.023   1.686   2.993
 9924SOL    HW130671   5.999   1.692   2.896
 9924SOL    HW230672   6.044   1.591   3.016
 9925SOL     OW30673   0.140   5.336   4.233
 9925SOL    HW130674   0.113   5.256   4.287
 9925SOL    HW230675   0.224   5.375   4.271
 9926SOL     OW30676   4.150   2.319   1.096
 9926SOL    HW130677   4.153   2.280   1.188
 9926SOL    HW230678   4.075   2.277   1.045
 9927SOL     OW30679   1.317   0.641   0.798
 9927SOL    HW130680   1.265   0.555   0.796
 9927SOL    HW230681   1.410   0.622   0.830
 9928SOL     OW30682   4.712   4.972   3.745
 9928SOL    HW130683   4.800   4.932   3.769
 9928SOL    HW230684   4.714   5.003   3.650
 9929SOL     OW30685   3.468   3.953   4.561
 9929SOL    HW130686   3.518   3.927   4.479
 9929SOL    HW230687   3.422   3.874   4.599
 9930SOL     OW30688   0.145   6.843   5.333
 9930SOL    HW130689   0.161   6.763   5.276
 9930SOL    HW230690   0.165   6.821   5.428
 9931SOL     OW30691   6.964   5.212   4.621
 9931SOL    HW130692   7.005   5.214   4.712
 9931SOL    HW230693   7.004   5.137   4.568
 9932SOL     OW30694   2.741   3.024   5.788
 9932SOL    HW130695   2.713   2.928   5.793
 9932SOL    HW230696   2.773   3.055   5.877
 9933SOL     OW30697   1.840   6.839   4.216
 9933SOL    HW130698   1.813   6.753   4.260
 9933SOL    HW230699   1.882   6.819   4.128
 9934SOL     OW30700   0.104   2.196   6.059
 9934SOL    HW130701   0.151   2.220   5.974
 9934SOL    HW230702   0.085   2.280   6.111
 9935SOL     OW30703   2.765   6.969   1.111
 9935SOL    HW130704   2.803   0.024   1.165
 9935SOL    HW230705   2.836   6.899   1.098
 9936SOL     OW30706   5.895   4.476   0.762
 9936SOL    HW130707   5.964   4.547   0.748
 9936SOL    HW230708   5.817   4.493   0.702
 9937SOL     OW30709   0.268   2.079   1.404
 9937SOL    HW130710   0.228   2.153   1.350
 9937SOL    HW230711   0.360   2.105   1.434
 9938SOL     OW30712   5.500   4.790   3.788
 9938SOL    HW130713   5.572   4.753   3.846
 9938SOL    HW230714   5.470   4.878   3.825
 9939SOL     OW30715   4.597   2.831   1.343
 9939SOL    HW130716   4.633   2.737   1.339
 9939SOL    HW230717   4.608   2.875   1.254
 9940SOL     OW30718   1.201   0.533   1.737
 9940SOL    HW130719   1.130   0.484   1.787
 9940SOL    HW230720   1.232   0.478   1.659
 9941SOL     OW30721   3.232   3.120   5.055
 9941SOL    HW130722   3.167   3.062   5.104
 9941SOL    HW230723   3.316   3.069   5.037
 9942SOL     OW30724   3.525   5.211   2.469
 9942SOL    HW130725   3.455   5.255   2.525
 9942SOL    HW230726   3.521   5.112   2.481
 9943SOL     OW30727   0.869   4.926   6.438
 9943SOL    HW130728   0.856   4.832   6.470
 9943SOL    HW230729   0.941   4.928   6.368
 9944SOL     OW30730   0.486   4.706   6.337
 9944SOL    HW130731   0.575   4.662   6.351
 9944SOL    HW230732   0.469   4.770   6.412
 9945SOL     OW30733   4.480   6.190   0.098
 9945SOL    HW130734   4.578   6.171   0.105
 9945SOL    HW230735   4.429   6.106   0.117
 9946SOL     OW30736   6.188   0.530   3.456
 9946SOL    HW130737   6.106   0.583   3.431
 9946SOL    HW230738   6.239   0.580   3.526
 9947SOL     OW30739   2.840   2.243   4.622
 9947SOL    HW130740   2.871   2.164   4.676
 9947SOL    HW230741   2.761   2.285   4.667
 9948SOL     OW30742   6.867   4.808   6.258
 9948SOL    HW130743   6.943   4.852   6.210
 9948SOL    HW230744   6.838   4.865   6.335
 9949SOL     OW30745   6.528   4.704   4.323
 9949SOL    HW130746   6.545   4.622   4.268
 9949SOL    HW230747   6.613   4.755   4.334
 9950SOL     OW30748   5.659   6.174   6.340
 9950SOL    HW130749   5.671   6.234   6.420
 9950SOL    HW230750   5.730   6.104   6.340
 9951SOL     OW30751   1.589   2.163   3.354
 9951SOL    HW130752   1.553   2.245   3.398
 9951SOL    HW230753   1.525   2.087   3.368
 9952SOL     OW30754   1.110   4.704   0.616
 9952SOL    HW130755   1.194   4.747   0.583
 9952SOL    HW230756   1.133   4.616   0.659
 9953SOL     OW30757   6.440   2.361   3.911
 9953SOL    HW130758   6.418   2.336   4.006
 9953SOL    HW230759   6.525   2.413   3.910
 9954SOL     OW30760   1.111   0.580   5.452
 9954SOL    HW130761   1.199   0.571   5.405
 9954SOL    HW230762   1.125   0.622   5.542
 9955SOL     OW30763   4.914   3.948   6.466
 9955SOL    HW130764   4.975   3.946   6.545
 9955SOL    HW230765   4.819   3.957   6.497
 9956SOL     OW30766   0.753   5.449   3.738
 9956SOL    HW130767   0.806   5.514   3.685
 9956SOL    HW230768   0.698   5.498   3.806
 9957SOL     OW30769   5.432   0.004   1.919
 9957SOL    HW130770   5.358   6.986   1.864
 9957SOL    HW230771   5.519   6.985   1.890
 9958SOL     OW30772   2.524   5.753   6.749
 9958SOL    HW130773   2.436   5.749   6.701
 9958SOL    HW230774   2.516   5.812   6.829
 9959SOL     OW30775   4.132   3.589   3.898
 9959SOL    HW130776   4.231   3.574   3.888
 9959SOL    HW230777   4.094   3.618   3.810
 9960SOL     OW30778   6.856   0.207   1.965
 9960SOL    HW130779   6.835   0.211   1.867
 9960SOL    HW230780   6.771   0.216   2.017
 9961SOL     OW30781   1.422   4.939   4.488
 9961SOL    HW130782   1.332   4.966   4.521
 9961SOL    HW230783   1.482   4.918   4.565
 9962SOL     OW30784   4.464   1.011   2.401
 9962SOL    HW130785   4.407   1.091   2.417
 9962SOL    HW230786   4.407   0.929   2.396
 9963SOL     OW30787   2.565   2.560   5.942
 9963SOL    HW130788   2.468   2.536   5.948
 9963SOL    HW230789   2.620   2.478   5.928
 9964SOL     OW30790   4.354   3.948   5.722
 9964SOL    HW130791   4.323   3.902   5.640
 9964SOL    HW230792   4.277   3.961   5.785
 9965SOL     OW30793   4.190   4.914   6.163
 9965SOL    HW130794   4.218   4.830   6.210
 9965SOL    HW230795   4.257   4.936   6.092
 9966SOL     OW30796   2.399   5.970   2.217
 9966SOL    HW130797   2.449   5.884   2.229
 9966SOL    HW230798   2.455   6.046   2.250
 9967SOL     OW30799   6.086   6.371   1.733
 9967SOL    HW130800   6.094   6.470   1.745
 9967SOL    HW230801   5.989   6.345   1.737
 9968SOL     OW30802   3.057   3.821   6.631
 9968SOL    HW130803   3.041   3.845   6.535
 9968SOL    HW230804   3.019   3.731   6.649
 9969SOL     OW30805   1.613   2.962   4.000
 9969SOL    HW130806   1.593   2.879   3.948
 9969SOL    HW230807   1.528   3.001   4.034
 9970SOL     OW30808   5.756   4.583   2.615
 9970SOL    HW130809   5.793   4.520   2.547
 9970SOL    HW230810   5.817   4.586   2.694
 9971SOL     OW30811   2.979   3.414   0.539
 9971SOL    HW130812   2.894   3.466   0.547
 9971SOL    HW230813   2.959   3.324   0.501
 9972SOL     OW30814   3.961   4.214   0.405
 9972SOL    HW130815   3.864   4.236   0.408
 9972SOL    HW230816   4.012   4.280   0.461
 9973SOL     OW30817   3.859   1.575   3.872
 9973SOL    HW130818   3.954   1.606   3.879
 9973SOL    HW230819   3.858   1.480   3.843
 9974SOL     OW30820   6.430   3.774   3.189
 9974SOL    HW130821   6.448   3.710   3.263
 9974SOL    HW230822   6.516   3.801   3.146
 9975SOL     OW30823   6.461   4.412   0.417
 9975SOL    HW130824   6.479   4.388   0.322
 9975SOL    HW230825   6.548   4.429   0.464
 9976SOL     OW30826   0.486   5.754   5.479
 9976SOL    HW130827   0.394   5.788   5.497
 9976SOL    HW230828   0.539   5.825   5.432
 9977SOL     OW30829   0.154   5.429   6.175
 9977SOL    HW130830   0.124   5.398   6.085
 9977SOL    HW230831   0.073   5.448   6.231
 9978SOL     OW30832   6.323   3.104   3.136
 9978SOL    HW130833   6.329   3.089   3.037
 9978SOL    HW230834   6.229   3.129   3.160
 9979SOL     OW30835   6.102   4.908   5.781
 9979SOL    HW130836   6.158   4.838   5.737
 9979SOL    HW230837   6.155   4.992   5.791
 9980SOL     OW30838   1.400   1.591   6.513
 9980SOL    HW130839   1.460   1.511   6.516
 9980SOL    HW230840   1.451   1.670   6.479
 9981SOL     OW30841   2.039   1.716   1.136
 9981SOL    HW130842   1.942   1.732   1.117
 9981SOL    HW230843   2.049   1.625   1.178
 9982SOL     OW30844   0.523   1.374   3.867
 9982SOL    HW130845   0.513   1.290   3.813
 9982SOL    HW230846   0.562   1.446   3.809
 9983SOL     OW30847   0.915   2.343   2.435
 9983SOL    HW130848   0.904   2.247   2.407
 9983SOL    HW230849   0.861   2.359   2.518
 9984SOL     OW30850   1.380   0.019   0.461
 9984SOL    HW130851   1.445   6.982   0.510
 9984SOL    HW230852   1.291   0.016   0.507
 9985SOL     OW30853   2.408   1.001   1.886
 9985SOL    HW130854   2.352   0.957   1.816
 9985SOL    HW230855   2.505   0.992   1.862
 9986SOL     OW30856   5.180   4.140   0.070
 9986SOL    HW130857   5.262   4.182   0.108
 9986SOL    HW230858   5.187   4.040   0.078
 9987SOL     OW30859   6.215   1.866   3.014
 9987SOL    HW130860   6.164   1.950   3.035
 9987SOL    HW230861   6.150   1.790   3.003
 9988SOL     OW30862   0.276   5.634   4.877
 9988SOL    HW130863   0.311   5.709   4.933
 9988SOL    HW230864   0.271   5.664   4.781
 9989SOL     OW30865   6.089   4.467   3.332
 9989SOL    HW130866   6.161   4.490   3.397
 9989SOL    HW230867   6.008   4.523   3.350
 9990SOL     OW30868   2.268   0.298   2.541
 9990SOL    HW130869   2.298   0.266   2.451
 9990SOL    HW230870   2.348   0.315   2.598
 9991SOL     OW30871   2.192   3.257   4.034
 9991SOL    HW130872   2.182   3.194   3.957
 9991SOL    HW230873   2.189   3.206   4.120
 9992SOL     OW30874   4.600   3.533   0.297
 9992SOL    HW130875   4.507   3.520   0.331
 9992SOL    HW230876   4.643   3.444   0.283
 9993SOL     OW30877   3.783   0.305   1.996
 9993SOL    HW130878   3.794   0.283   1.899
 9993SOL    HW230879   3.805   0.401   2.011
 9994SOL     OW30880   0.021   4.554   3.950
 9994SOL    HW130881   7.004   4.610   4.024
 9994SOL    HW230882   0.041   4.462   3.986
 9995SOL     OW30883   3.298   0.726   2.950
 9995SOL    HW130884   3.239   0.649   2.927
 9995SOL    HW230885   3.331   0.769   2.866
 9996SOL     OW30886   3.103   3.084   1.763
 9996SOL    HW130887   3.026   3.121   1.815
 9996SOL    HW230888   3.071   3.047   1.676
 9997SOL     OW30889   3.904   1.511   0.987
 9997SOL    HW130890   3.915   1.608   0.963
 9997SOL    HW230891   3.971   1.486   1.057
 9998SOL     OW30892   6.294   4.030   1.557
 9998SOL    HW130893   6.337   3.969   1.491
 9998SOL    HW230894   6.235   3.978   1.618
 9999SOL     OW30895   6.076   3.504   5.108
 9999SOL    HW130896   6.145   3.432   5.102
 9999SOL    HW230897   5.990   3.471   5.067
10000SOL     OW30898   5.926   3.584   6.627
10000SOL    HW130899   5.841   3.548   6.589
10000SOL    HW230900   5.968   3.515   6.686
10001SOL     OW30901   5.375   0.978   2.136
10001SOL    HW130902   5.437   0.918   2.085
10001SOL    HW230903   5.353   1.058   2.080
10002SOL     OW30904   1.873   0.600   1.006
10002SOL    HW130905   1.837   0.676   1.061
10002SOL    HW230906   1.835   0.606   0.913
10003SOL     OW30907   3.590   1.644   3.829
10003SOL    HW130908   3.685   1.631   3.854
10003SOL    HW230909   3.567   1.741   3.836
10004SOL     OW30910   4.804   2.236   4.443
10004SOL    HW130911   4.774   2.145   4.413
10004SOL    HW230912   4.900   2.249   4.419
10005SOL     OW30913   4.625   0.119   3.999
10005SOL    HW130914   4.694   0.191   3.995
10005SOL    HW230915   4.625   0.068   3.913
10006SOL     OW30916   5.258   0.904   3.585
10006SOL    HW130917   5.316   0.838   3.537
10006SOL    HW230918   5.315   0.964   3.641
10007SOL     OW30919   0.638   5.046   4.933
10007SOL    HW130920   0.726   4.998   4.941
10007SOL    HW230921   0.630   5.086   4.842
10008SOL     OW30922   4.529   1.270   4.442
10008SOL    HW130923   4.508   1.232   4.532
10008SOL    HW230924   4.613   1.227   4.407
10009SOL     OW30925   2.038   4.091   1.480
10009SOL    HW130926   1.953   4.143   1.478
10009SOL    HW230927   2.081   4.102   1.570
10010SOL     OW30928   2.009   6.484   6.527
10010SOL    HW130929   1.929   6.534   6.492
10010SOL    HW230930   2.029   6.513   6.620
10011SOL     OW30931   5.579   1.667   4.844
10011SOL    HW130932   5.520   1.718   4.782
10011SOL    HW230933   5.674   1.676   4.814
10012SOL     OW30934   4.886   1.193   3.255
10012SOL    HW130935   4.971   1.168   3.208
10012SOL    HW230936   4.814   1.209   3.188
10013SOL     OW30937   1.258   1.821   3.858
10013SOL    HW130938   1.281   1.724   3.865
10013SOL    HW230939   1.181   1.833   3.795
10014SOL     OW30940   6.556   3.115   6.836
10014SOL    HW130941   6.565   3.150   6.743
10014SOL    HW230942   6.595   3.022   6.841
10015SOL     OW30943   2.675   3.979   0.416
10015SOL    HW130944   2.589   3.930   0.405
10015SOL    HW230945   2.657   4.069   0.457
10016SOL     OW30946   2.017   0.303   5.413
10016SOL    HW130947   1.980   0.275   5.502
10016SOL    HW230948   2.117   0.307   5.418
10017SOL     OW30949   2.597   2.437   2.784
10017SOL    HW130950   2.602   2.397   2.693
10017SOL    HW230951   2.521   2.502   2.788
10018SOL     OW30952   4.725   0.104   5.721
10018SOL    HW130953   4.720   0.009   5.754
10018SOL    HW230954   4.697   0.166   5.795
10019SOL     OW30955   0.989   1.552   2.643
10019SOL    HW130956   1.063   1.561   2.576
10019SOL    HW230957   0.996   1.627   2.709
10020SOL     OW30958   0.609   2.860   1.593
10020SOL    HW130959   0.651   2.833   1.680
10020SOL    HW230960   0.680   2.897   1.533
10021SOL     OW30961   0.150   2.651   0.861
10021SOL    HW130962   0.067   2.685   0.819
10021SOL    HW230963   0.132   2.563   0.905
10022SOL     OW30964   3.048   0.194   6.796
10022SOL    HW130965   3.012   0.111   6.840
10022SOL    HW230966   3.121   0.168   6.733
10023SOL     OW30967   1.299   4.999   6.172
10023SOL    HW130968   1.327   4.920   6.117
10023SOL    HW230969   1.307   5.082   6.116
10024SOL     OW30970   2.077   6.787   1.855
10024SOL    HW130971   2.094   6.830   1.766
10024SOL    HW230972   2.158   6.736   1.884
10025SOL     OW30973   1.436   1.650   1.252
10025SOL    HW130974   1.341   1.675   1.273
10025SOL    HW230975   1.447   1.550   1.261
10026SOL     OW30976   5.348   6.818   3.627
10026SOL    HW130977   5.288   6.772   3.693
10026SOL    HW230978   5.427   6.857   3.675
10027SOL     OW30979   6.693   3.974   5.711
10027SOL    HW130980   6.696   4.033   5.630
10027SOL    HW230981   6.697   3.878   5.683
10028SOL     OW30982   1.716   1.483   0.955
10028SOL    HW130983   1.813   1.488   0.931
10028SOL    HW230984   1.679   1.575   0.963
10029SOL     OW30985   3.892   2.140   4.387
10029SOL    HW130986   3.834   2.069   4.427
10029SOL    HW230987   3.867   2.229   4.427
10030SOL     OW30988   2.251   6.636   3.586
10030SOL    HW130989   2.259   6.569   3.512
10030SOL    HW230990   2.223   6.724   3.549
10031SOL     OW30991   5.988   4.803   4.345
10031SOL    HW130992   6.074   4.829   4.389
10031SOL    HW230993   5.951   4.882   4.295
10032SOL     OW30994   2.676   2.056   4.985
10032SOL    HW130995   2.687   1.989   4.912
10032SOL    HW230996   2.763   2.105   4.998
10033SOL     OW30997   5.762   1.986   3.882
10033SOL    HW130998   5.706   1.950   3.807
10033SOL    HW230999   5.810   1.911   3.928
10034SOL     OW31000   2.670   6.902   4.153
10034SOL    HW131001   2.739   6.932   4.087
10034SOL    HW231002   2.714   6.874   4.238
10035SOL     OW31003   6.625   4.425   1.885
10035SOL    HW131004   6.588   4.373   1.808
10035SOL    HW231005   6.674   4.363   1.946
10036SOL     OW31006   6.109   2.285   1.564
10036SOL    HW131007   6.119   2.197   1.611
10036SOL    HW231008   6.081   2.268   1.469
10037SOL     OW31009   6.570   0.843   0.899
10037SOL    HW131010   6.543   0.749   0.918
10037SOL    HW231011   6.605   0.886   0.982
10038SOL     OW31012   5.232   0.899   0.175
10038SOL    HW131013   5.236   0.883   0.273
10038SOL    HW231014   5.151   0.953   0.153
10039SOL     OW31015   3.697   0.357   3.352
10039SOL    HW131016   3.648   0.402   3.427
10039SOL    HW231017   3.631   0.311   3.292
10040SOL     OW31018   4.751   5.099   6.427
10040SOL    HW131019   4.719   5.010   6.394
10040SOL    HW231020   4.827   5.085   6.492
10041SOL     OW31021   3.930   6.040   6.915
10041SOL    HW131022   3.889   6.023   7.005
10041SOL    HW231023   3.988   6.122   6.920
10042SOL     OW31024   0.871   1.610   3.949
10042SOL    HW131025   0.820   1.642   3.869
10042SOL    HW231026   0.963   1.650   3.948
10043SOL     OW31027   6.175   1.364   4.923
10043SOL    HW131028   6.160   1.463   4.915
10043SOL    HW231029   6.106   1.324   4.983
10044SOL     OW31030   2.143   1.774   4.546
10044SOL    HW131031   2.045   1.764   4.528
10044SOL    HW231032   2.188   1.809   4.464
10045SOL     OW31033   4.138   0.258   3.017
10045SOL    HW131034   4.070   0.303   2.960
10045SOL    HW231035   4.176   0.324   3.082
10046SOL     OW31036   2.206   3.707   0.955
10046SOL    HW131037   2.271   3.767   1.001
10046SOL    HW231038   2.186   3.628   1.014
10047SOL     OW31039   0.541   3.560   4.733
10047SOL    HW131040   0.525   3.649   4.776
10047SOL    HW231041   0.534   3.570   4.633
10048SOL     OW31042   6.900   0.234   2.386
10048SOL    HW131043   6.986   0.208   2.342
10048SOL    HW231044   6.824   0.207   2.327
10049SOL     OW31045   1.371   1.516   6.075
10049SOL    HW131046   1.415   1.458   6.006
10049SOL    HW231047   1.343   1.602   6.033
10050SOL     OW31048   5.303   3.767   5.479
10050SOL    HW131049   5.370   3.835   5.508
10050SOL    HW231050   5.349   3.697   5.424
10051SOL     OW31051   6.753   4.153   5.486
10051SOL    HW131052   6.787   4.129   5.395
10051SOL    HW231053   6.692   4.232   5.479
10052SOL     OW31054   2.070   1.214   3.005
10052SOL    HW131055   2.121   1.213   3.091
10052SOL    HW231056   2.070   1.123   2.965
10053SOL     OW31057   4.268   5.796   3.935
10053SOL    HW131058   4.275   5.891   3.906
10053SOL    HW231059   4.216   5.744   3.867
10054SOL     OW31060   5.473   6.110   5.489
10054SOL    HW131061   5.530   6.149   5.416
10054SOL    HW231062   5.396   6.061   5.449
10055SOL     OW31063   6.408   1.338   5.446
10055SOL    HW131064   6.412   1.404   5.521
10055SOL    HW231065   6.447   1.379   5.364
10056SOL     OW31066   5.348   4.404   3.275
10056SOL    HW131067   5.420   4.422   3.343
10056SOL    HW231068   5.387   4.353   3.198
10057SOL     OW31069   4.935   3.162   5.389
10057SOL    HW131070   4.984   3.249   5.388
10057SOL    HW231071   4.838   3.178   5.374
10058SOL     OW31072   6.412   3.574   4.962
10058SOL    HW131073   6.393   3.490   5.013
10058SOL    HW231074   6.337   3.639   4.975
10059SOL     OW31075   0.430   1.813   6.947
10059SOL    HW131076   0.363   1.860   6.889
10059SOL    HW231077   0.390   1.728   6.981
10060SOL     OW31078   2.258   2.582   2.458
10060SOL    HW131079   2.335   2.564   2.398
10060SOL    HW231080   2.173   2.586   2.405
10061SOL     OW31081   4.598   1.219   3.847
10061SOL    HW131082   4.534   1.149   3.816
10061SOL    HW231083   4.557   1.272   3.921
10062SOL     OW31084   6.789   0.475   4.421
10062SOL    HW131085   6.768   0.491   4.324
10062SOL    HW231086   6.804   0.378   4.437
10063SOL     OW31087   3.362   1.294   4.443
10063SOL    HW131088   3.271   1.260   4.467
10063SOL    HW231089   3.362   1.327   4.349
10064SOL     OW31090   4.986   6.653   6.742
10064SOL    HW131091   4.950   6.671   6.650
10064SOL    HW231092   5.040   6.569   6.741
10065SOL     OW31093   2.251   0.878   2.102
10065SOL    HW131094   2.309   0.927   2.037
10065SOL    HW231095   2.305   0.856   2.184
10066SOL     OW31096   0.295   3.133   4.783
10066SOL    HW131097   0.306   3.120   4.684
10066SOL    HW231098   0.348   3.213   4.812
10067SOL     OW31099   0.075   3.542   5.975
10067SOL    HW131100   7.000   3.565   5.956
10067SOL    HW231101   0.078   3.459   6.032
10068SOL     OW31102   0.897   3.275   3.256
10068SOL    HW131103   0.802   3.267   3.227
10068SOL    HW231104   0.903   3.333   3.337
10069SOL     OW31105   3.143   5.092   1.860
10069SOL    HW131106   3.110   5.187   1.857
10069SOL    HW231107   3.172   5.069   1.952
10070SOL     OW31108   0.068   5.785   5.334
10070SOL    HW131109   7.002   5.818   5.295
10070SOL    HW231110   0.049   5.729   5.414
10071SOL     OW31111   0.768   6.751   4.359
10071SOL    HW131112   0.798   6.657   4.375
10071SOL    HW231113   0.748   6.795   4.446
10072SOL     OW31114   0.198   1.043   3.752
10072SOL    HW131115   0.205   0.945   3.767
10072SOL    HW231116   0.119   1.079   3.802
10073SOL     OW31117   0.385   4.310   3.646
10073SOL    HW131118   0.462   4.254   3.615
10073SOL    HW231119   0.396   4.403   3.610
10074SOL     OW31120   2.445   6.367   6.482
10074SOL    HW131121   2.446   6.329   6.389
10074SOL    HW231122   2.479   6.297   6.545
10075SOL     OW31123   1.495   1.560   1.873
10075SOL    HW131124   1.575   1.532   1.820
10075SOL    HW231125   1.447   1.479   1.906
10076SOL     OW31126   4.920   6.189   3.055
10076SOL    HW131127   4.839   6.175   3.112
10076SOL    HW231128   4.932   6.286   3.038
10077SOL     OW31129   4.158   2.799   0.736
10077SOL    HW131130   4.080   2.736   0.744
10077SOL    HW231131   4.191   2.823   0.827
10078SOL     OW31132   6.534   5.980   4.844
10078SOL    HW131133   6.618   5.926   4.850
10078SOL    HW231134   6.515   6.002   4.749
10079SOL     OW31135   6.380   3.032   2.446
10079SOL    HW131136   6.360   2.939   2.477
10079SOL    HW231137   6.342   3.098   2.511
10080SOL     OW31138   5.012   1.710   6.110
10080SOL    HW131139   4.982   1.777   6.177
10080SOL    HW231140   5.112   1.704   6.111
10081SOL     OW31141   0.962   1.518   0.093
10081SOL    HW131142   0.982   1.468   0.177
10081SOL    HW231143   1.014   1.478   0.017
10082SOL     OW31144   0.954   5.535   2.740
10082SOL    HW131145   0.860   5.514   2.714
10082SOL    HW231146   0.972   5.504   2.833
10083SOL     OW31147   3.388   7.000   3.777
10083SOL    HW131148   3.485   6.985   3.757
10083SOL    HW231149   3.333   6.972   3.698
10084SOL     OW31150   0.517   7.012   5.199
10084SOL    HW131151   0.599   0.023   5.151
10084SOL    HW231152   0.509   6.913   5.190
10085SOL     OW31153   3.925   0.306   0.795
10085SOL    HW131154   4.013   0.269   0.766
10085SOL    HW231155   3.864   0.314   0.716
10086SOL     OW31156   6.064   6.765   3.120
10086SOL    HW131157   5.984   6.737   3.066
10086SOL    HW231158   6.053   6.736   3.214
10087SOL     OW31159   6.218   5.957   4.015
10087SOL    HW131160   6.253   6.047   4.042
10087SOL    HW231161   6.281   5.915   3.950
10088SOL     OW31162   0.070   0.306   1.586
10088SOL    HW131163   0.119   0.269   1.507
10088SOL    HW231164   0.105   0.263   1.670
10089SOL     OW31165   3.335   1.635   3.071
10089SOL    HW131166   3.312   1.732   3.077
10089SOL    HW231167   3.317   1.603   2.978
10090SOL     OW31168   0.610   4.855   2.456
10090SOL    HW131169   0.620   4.761   2.488
10090SOL    HW231170   0.525   4.864   2.405
10091SOL     OW31171   6.936   5.907   6.782
10091SOL    HW131172   7.012   5.921   6.719
10091SOL    HW231173   6.850   5.910   6.732
10092SOL     OW31174   0.880   3.239   5.994
10092SOL    HW131175   0.976   3.210   5.983
10092SOL    HW231176   0.866   3.325   5.945
10093SOL     OW31177   5.045   3.663   5.126
10093SOL    HW131178   5.061   3.761   5.111
10093SOL    HW231179   4.966   3.634   5.072
10094SOL     OW31180   2.516   6.488   0.897
10094SOL    HW131181   2.533   6.398   0.858
10094SOL    HW231182   2.601   6.524   0.937
10095SOL     OW31183   5.454   1.791   4.407
10095SOL    HW131184   5.460   1.890   4.424
10095SOL    HW231185   5.546   1.752   4.403
10096SOL     OW31186   4.757   0.555   2.992
10096SOL    HW131187   4.712   0.524   2.908
10096SOL    HW231188   4.746   0.485   3.063
10097SOL     OW31189   2.120   2.062   6.618
10097SOL    HW131190   2.176   2.038   6.538
10097SOL    HW231191   2.025   2.076   6.590
10098SOL     OW31192   2.758   6.754   4.959
10098SOL    HW131193   2.702   6.704   5.025
10098SOL    HW231194   2.835   6.796   5.007
10099SOL     OW31195   6.759   4.668   1.890
10099SOL    HW131196   6.699   4.589   1.891
10099SOL    HW231197   6.854   4.638   1.899
10100SOL     OW31198   5.353   6.125   5.735
10100SOL    HW131199   5.310   6.207   5.774
10100SOL    HW231200   5.417   6.152   5.664
10101SOL     OW31201   6.383   3.129   1.458
10101SOL    HW131202   6.415   3.108   1.366
10101SOL    HW231203   6.438   3.080   1.525
10102SOL     OW31204   6.984   0.445   1.193
10102SOL    HW131205   0.032   0.387   1.236
10102SOL    HW231206   6.986   0.536   1.235
10103SOL     OW31207   1.527   0.271   5.036
10103SOL    HW131208   1.565   0.185   5.002
10103SOL    HW231209   1.591   0.312   5.100
10104SOL     OW31210   1.468   0.970   6.032
10104SOL    HW131211   1.520   1.048   5.998
10104SOL    HW231212   1.413   0.998   6.111
10105SOL     OW31213   1.696   0.647   5.802
10105SOL    HW131214   1.776   0.676   5.854
10105SOL    HW231215   1.613   0.676   5.850
10106SOL     OW31216   4.026   6.581   0.583
10106SOL    HW131217   4.063   6.665   0.543
10106SOL    HW231218   4.095   6.537   0.640
10107SOL     OW31219   5.493   1.851   6.014
10107SOL    HW131220   5.588   1.828   5.992
10107SOL    HW231221   5.470   1.938   5.971
10108SOL     OW31222   0.768   2.447   0.203
10108SOL    HW131223   0.770   2.383   0.280
10108SOL    HW231224   0.682   2.498   0.205
10109SOL     OW31225   0.768   1.235   0.712
10109SOL    HW131226   0.757   1.236   0.612
10109SOL    HW231227   0.837   1.304   0.738
10110SOL     OW31228   4.469   4.857   3.572
10110SOL    HW131229   4.549   4.796   3.572
10110SOL    HW231230   4.498   4.949   3.597
10111SOL     OW31231   0.333   3.303   3.340
10111SOL    HW131232   0.280   3.377   3.381
10111SOL    HW231233   0.417   3.339   3.301
10112SOL     OW31234   5.739   3.548   2.974
10112SOL    HW131235   5.750   3.648   2.973
10112SOL    HW231236   5.826   3.505   2.951
10113SOL     OW31237   4.218   0.013   0.540
10113SOL    HW131238   4.232   6.935   0.555
10113SOL    HW231239   4.281   0.044   0.469
10114SOL     OW31240   3.957   2.040   3.176
10114SOL    HW131241   3.935   2.053   3.079
10114SOL    HW231242   4.025   2.106   3.205
10115SOL     OW31243   3.699   1.733   5.048
10115SOL    HW131244   3.641   1.692   4.977
10115SOL    HW231245   3.703   1.832   5.035
10116SOL     OW31246   6.809   0.529   6.146
10116SOL    HW131247   6.887   0.471   6.126
10116SOL    HW231248   6.724   0.476   6.134
10117SOL     OW31249   6.795   6.384   5.657
10117SOL    HW131250   6.867   6.317   5.676
10117SOL    HW231251   6.724   6.342   5.601
10118SOL     OW31252   2.773   4.736   4.116
10118SOL    HW131253   2.858   4.724   4.065
10118SOL    HW231254   2.708   4.666   4.089
10119SOL     OW31255   6.354   5.157   4.180
10119SOL    HW131256   6.396   5.229   4.126
10119SOL    HW231257   6.258   5.179   4.197
10120SOL     OW31258   1.505   3.098   3.654
10120SOL    HW131259   1.500   3.197   3.663
10120SOL    HW231260   1.598   3.067   3.673
10121SOL     OW31261   5.675   4.436   1.273
10121SOL    HW131262   5.651   4.355   1.328
10121SOL    HW231263   5.710   4.406   1.184
10122SOL     OW31264   6.272   2.593   3.793
10122SOL    HW131265   6.327   2.509   3.794
10122SOL    HW231266   6.176   2.570   3.780
10123SOL     OW31267   5.795   6.753   0.943
10123SOL    HW131268   5.807   6.719   0.850
10123SOL    HW231269   5.880   6.793   0.975
10124SOL     OW31270   1.190   5.246   1.038
10124SOL    HW131271   1.099   5.217   1.009
10124SOL    HW231272   1.256   5.226   0.966
10125SOL     OW31273   2.701   1.679   1.053
10125SOL    HW131274   2.778   1.740   1.035
10125SOL    HW231275   2.728   1.585   1.031
10126SOL     OW31276   6.626   0.293   6.130
10126SOL    HW131277   6.705   0.272   6.188
10126SOL    HW231278   6.544   0.254   6.170
10127SOL     OW31279   1.877   4.341   6.512
10127SOL    HW131280   1.848   4.396   6.591
10127SOL    HW231281   1.832   4.252   6.515
10128SOL     OW31282   2.919   0.857   6.281
10128SOL    HW131283   3.008   0.812   6.282
10128SOL    HW231284   2.861   0.814   6.212
10129SOL     OW31285   0.463   1.714   1.667
10129SOL    HW131286   0.417   1.802   1.659
10129SOL    HW231287   0.506   1.691   1.580
10130SOL     OW31288   0.747   3.167   1.769
10130SOL    HW131289   0.810   3.093   1.747
10130SOL    HW231290   0.746   3.233   1.695
10131SOL     OW31291   1.472   0.646   4.404
10131SOL    HW131292   1.418   0.644   4.320
10131SOL    HW231293   1.508   0.738   4.419
10132SOL     OW31294   1.387   0.300   2.561
10132SOL    HW131295   1.360   0.380   2.506
10132SOL    HW231296   1.463   0.325   2.620
10133SOL     OW31297   4.605   6.548   1.115
10133SOL    HW131298   4.641   6.464   1.076
10133SOL    HW231299   4.562   6.603   1.043
10134SOL     OW31300   6.861   1.824   3.195
10134SOL    HW131301   6.825   1.751   3.137
10134SOL    HW231302   6.800   1.903   3.190
10135SOL     OW31303   5.171   1.764   3.157
10135SOL    HW131304   5.143   1.785   3.064
10135SOL    HW231305   5.098   1.791   3.220
10136SOL     OW31306   5.340   2.177   2.590
10136SOL    HW131307   5.362   2.097   2.534
10136SOL    HW231308   5.399   2.253   2.564
10137SOL     OW31309   0.253   4.799   6.208
10137SOL    HW131310   0.344   4.777   6.244
10137SOL    HW231311   0.231   4.736   6.133
10138SOL     OW31312   5.140   2.025   0.523
10138SOL    HW131313   5.238   2.037   0.502
10138SOL    HW231314   5.097   1.971   0.451
10139SOL     OW31315   3.550   3.357   4.908
10139SOL    HW131316   3.613   3.292   4.952
10139SOL    HW231317   3.596   3.402   4.832
10140SOL     OW31318   6.853   6.484   6.023
10140SOL    HW131319   6.918   6.409   6.017
10140SOL    HW231320   6.865   6.532   6.110
10141SOL     OW31321   4.520   0.965   3.546
10141SOL    HW131322   4.583   1.041   3.526
10141SOL    HW231323   4.457   0.993   3.618
10142SOL     OW31324   6.342   6.629   5.693
10142SOL    HW131325   6.377   6.700   5.631
10142SOL    HW231326   6.371   6.539   5.660
10143SOL     OW31327   5.616   2.943   0.359
10143SOL    HW131328   5.624   2.888   0.275
10143SOL    HW231329   5.522   2.975   0.369
10144SOL     OW31330   4.133   6.946   5.423
10144SOL    HW131331   4.071   6.997   5.482
10144SOL    HW231332   4.220   6.995   5.415
10145SOL     OW31333   4.185   5.995   2.901
10145SOL    HW131334   4.260   6.003   2.837
10145SOL    HW231335   4.218   5.959   2.988
10146SOL     OW31336   6.935   4.587   4.487
10146SOL    HW131337   6.867   4.660   4.474
10146SOL    HW231338   6.948   4.570   4.584
10147SOL     OW31339   4.974   4.716   6.876
10147SOL    HW131340   4.898   4.758   6.926
10147SOL    HW231341   4.937   4.666   6.797
10148SOL     OW31342   5.633   4.125   1.357
10148SOL    HW131343   5.710   4.103   1.297
10148SOL    HW231344   5.599   4.040   1.398
10149SOL     OW31345   5.067   5.013   1.626
10149SOL    HW131346   5.125   4.960   1.565
10149SOL    HW231347   5.121   5.044   1.705
10150SOL     OW31348   5.397   3.326   1.853
10150SOL    HW131349   5.317   3.270   1.874
10150SOL    HW231350   5.420   3.315   1.756
10151SOL     OW31351   0.781   6.551   5.743
10151SOL    HW131352   0.801   6.559   5.646
10151SOL    HW231353   0.838   6.479   5.783
10152SOL     OW31354   6.164   5.718   3.442
10152SOL    HW131355   6.251   5.717   3.491
10152SOL    HW231356   6.095   5.765   3.498
10153SOL     OW31357   4.266   6.078   3.902
10153SOL    HW131358   4.168   6.101   3.897
10153SOL    HW231359   4.314   6.150   3.952
10154SOL     OW31360   3.727   5.587   6.362
10154SOL    HW131361   3.708   5.581   6.264
10154SOL    HW231362   3.707   5.499   6.405
10155SOL     OW31363   5.335   2.407   5.518
10155SOL    HW131364   5.396   2.476   5.481
10155SOL    HW231365   5.310   2.431   5.612
10156SOL     OW31366   4.605   0.535   0.961
10156SOL    HW131367   4.576   0.602   0.893
10156SOL    HW231368   4.634   0.451   0.914
10157SOL     OW31369   0.130   2.165   0.424
10157SOL    HW131370   0.077   2.173   0.340
10157SOL    HW231371   0.120   2.249   0.478
10158SOL     OW31372   5.969   6.543   2.489
10158SOL    HW131373   5.895   6.520   2.552
10158SOL    HW231374   6.051   6.492   2.513
10159SOL     OW31375   4.057   3.657   2.931
10159SOL    HW131376   4.081   3.624   3.023
10159SOL    HW231377   4.027   3.752   2.937
10160SOL     OW31378   1.839   4.394   3.248
10160SOL    HW131379   1.805   4.395   3.342
10160SOL    HW231380   1.850   4.300   3.217
10161SOL     OW31381   3.595   4.670   6.853
10161SOL    HW131382   3.644   4.757   6.847
10161SOL    HW231383   3.501   4.686   6.883
10162SOL     OW31384   2.642   4.438   1.129
10162SOL    HW131385   2.543   4.436   1.113
10162SOL    HW231386   2.686   4.497   1.061
10163SOL     OW31387   0.794   5.647   6.405
10163SOL    HW131388   0.842   5.714   6.348
10163SOL    HW231389   0.826   5.555   6.383
10164SOL     OW31390   6.302   3.636   3.594
10164SOL    HW131391   6.361   3.578   3.650
10164SOL    HW231392   6.217   3.655   3.643
10165SOL     OW31393   6.264   2.054   3.728
10165SOL    HW131394   6.215   2.123   3.782
10165SOL    HW231395   6.354   2.090   3.702
10166SOL     OW31396   1.183   3.243   0.921
10166SOL    HW131397   1.148   3.252   0.828
10166SOL    HW231398   1.280   3.267   0.923
10167SOL     OW31399   0.236   5.207   0.181
10167SOL    HW131400   0.321   5.259   0.183
10167SOL    HW231401   0.195   5.213   0.090
10168SOL     OW31402   6.346   1.384   5.926
10168SOL    HW131403   6.313   1.418   6.014
10168SOL    HW231404   6.429   1.329   5.941
10169SOL     OW31405   6.685   3.831   3.083
10169SOL    HW131406   6.757   3.834   3.152
10169SOL    HW231407   6.694   3.747   3.029
10170SOL     OW31408   6.225   5.292   6.497
10170SOL    HW131409   6.241   5.312   6.594
10170SOL    HW231410   6.312   5.281   6.451
10171SOL     OW31411   0.886   2.490   5.568
10171SOL    HW131412   0.869   2.581   5.528
10171SOL    HW231413   0.806   2.432   5.551
10172SOL     OW31414   0.325   7.017   4.634
10172SOL    HW131415   0.383   7.009   4.715
10172SOL    HW231416   0.382   7.017   4.552
10173SOL     OW31417   2.578   3.830   0.008
10173SOL    HW131418   2.631   3.886   0.071
10173SOL    HW231419   2.511   3.888   6.981
10174SOL     OW31420   4.372   5.093   3.725
10174SOL    HW131421   4.388   5.126   3.633
10174SOL    HW231422   4.411   5.157   3.791
10175SOL     OW31423   6.706   1.548   3.498
10175SOL    HW131424   6.709   1.622   3.565
10175SOL    HW231425   6.664   1.582   3.413
10176SOL     OW31426   5.948   4.020   5.530
10176SOL    HW131427   6.043   3.992   5.547
10176SOL    HW231428   5.947   4.090   5.459
10177SOL     OW31429   1.789   6.940   1.041
10177SOL    HW131430   1.745   6.980   0.961
10177SOL    HW231431   1.721   6.923   1.112
10178SOL     OW31432   1.562   1.295   0.611
10178SOL    HW131433   1.516   1.262   0.528
10178SOL    HW231434   1.510   1.371   0.650
10179SOL     OW31435   0.051   4.148   6.859
10179SOL    HW131436   6.993   4.210   6.852
10179SOL    HW231437   0.104   4.151   6.774
10180SOL     OW31438   4.321   0.457   0.206
10180SOL    HW131439   4.251   0.386   0.209
10180SOL    HW231440   4.277   0.547   0.209
10181SOL     OW31441   0.041   3.121   1.486
10181SOL    HW131442   0.070   3.136   1.581
10181SOL    HW231443   0.048   3.208   1.436
10182SOL     OW31444   4.894   1.239   6.909
10182SOL    HW131445   4.923   1.319   6.855
10182SOL    HW231446   4.812   1.262   6.960
10183SOL     OW31447   5.975   2.781   5.993
10183SOL    HW131448   5.990   2.878   6.010
10183SOL    HW231449   5.926   2.740   6.070
10184SOL     OW31450   5.715   3.139   6.499
10184SOL    HW131451   5.667   3.121   6.585
10184SOL    HW231452   5.658   3.110   6.422
10185SOL     OW31453   4.902   6.255   2.576
10185SOL    HW131454   4.873   6.206   2.659
10185SOL    HW231455   4.993   6.225   2.550
10186SOL     OW31456   4.862   3.822   4.825
10186SOL    HW131457   4.877   3.733   4.869
10186SOL    HW231458   4.768   3.852   4.840
10187SOL     OW31459   1.749   4.177   5.344
10187SOL    HW131460   1.798   4.180   5.257
10187SOL    HW231461   1.761   4.087   5.386
10188SOL     OW31462   3.261   5.457   6.836
10188SOL    HW131463   3.350   5.474   6.876
10188SOL    HW231464   3.257   5.496   6.744
10189SOL     OW31465   1.681   0.940   6.564
10189SOL    HW131466   1.628   0.945   6.479
10189SOL    HW231467   1.621   0.913   6.639
10190SOL     OW31468   3.516   2.851   1.172
10190SOL    HW131469   3.431   2.857   1.224
10190SOL    HW231470   3.575   2.929   1.196
10191SOL     OW31471   5.788   6.244   1.281
10191SOL    HW131472   5.861   6.213   1.221
10191SOL    HW231473   5.755   6.168   1.337
10192SOL     OW31474   2.653   1.891   4.742
10192SOL    HW131475   2.641   1.793   4.758
10192SOL    HW231476   2.642   1.911   4.645
10193SOL     OW31477   3.021   3.720   2.385
10193SOL    HW131478   2.959   3.664   2.330
10193SOL    HW231479   2.994   3.716   2.481
10194SOL     OW31480   4.103   0.124   4.804
10194SOL    HW131481   4.129   0.179   4.725
10194SOL    HW231482   4.121   0.175   4.888
10195SOL     OW31483   6.864   6.950   1.448
10195SOL    HW131484   6.954   6.987   1.424
10195SOL    HW231485   6.860   6.853   1.426
10196SOL     OW31486   5.631   1.968   3.392
10196SOL    HW131487   5.658   1.879   3.429
10196SOL    HW231488   5.585   1.956   3.305
10197SOL     OW31489   5.407   1.309   4.141
10197SOL    HW131490   5.475   1.282   4.072
10197SOL    HW231491   5.352   1.385   4.106
10198SOL     OW31492   3.385   6.755   0.765
10198SOL    HW131493   3.404   6.672   0.817
10198SOL    HW231494   3.359   6.829   0.828
10199SOL     OW31495   0.592   1.488   6.568
10199SOL    HW131496   0.592   1.438   6.654
10199SOL    HW231497   0.617   1.584   6.585
10200SOL     OW31498   5.000   3.101   5.089
10200SOL    HW131499   4.985   3.156   5.171
10200SOL    HW231500   5.001   3.004   5.113
10201SOL     OW31501   0.631   6.388   1.185
10201SOL    HW131502   0.591   6.437   1.262
10201SOL    HW231503   0.628   6.446   1.103
10202SOL     OW31504   1.377   3.667   0.532
10202SOL    HW131505   1.375   3.749   0.475
10202SOL    HW231506   1.439   3.682   0.609
10203SOL     OW31507   1.305   2.937   1.795
10203SOL    HW131508   1.375   2.915   1.863
10203SOL    HW231509   1.220   2.892   1.820
10204SOL     OW31510   3.753   4.954   6.359
10204SOL    HW131511   3.687   4.960   6.434
10204SOL    HW231512   3.812   5.036   6.360
10205SOL     OW31513   3.565   1.125   2.875
10205SOL    HW131514   3.520   1.098   2.960
10205SOL    HW231515   3.595   1.220   2.882
10206SOL     OW31516   4.871   6.329   6.196
10206SOL    HW131517   4.848   6.242   6.240
10206SOL    HW231518   4.931   6.382   6.257
10207SOL     OW31519   2.036   0.697   0.693
10207SOL    HW131520   2.058   0.729   0.601
10207SOL    HW231521   1.995   0.771   0.746
10208SOL     OW31522   6.404   4.967   4.624
10208SOL    HW131523   6.498   4.957   4.594
10208SOL    HW231524   6.391   5.058   4.665
10209SOL     OW31525   0.726   1.085   5.439
10209SOL    HW131526   0.672   1.130   5.510
10209SOL    HW231527   0.730   0.987   5.457
10210SOL     OW31528   4.978   0.417   1.377
10210SOL    HW131529   4.975   0.420   1.477
10210SOL    HW231530   4.901   0.363   1.343
10211SOL     OW31531   4.621   6.261   5.931
10211SOL    HW131532   4.668   6.326   5.991
10211SOL    HW231533   4.589   6.183   5.984
10212SOL     OW31534   0.385   1.371   4.493
10212SOL    HW131535   0.310   1.347   4.431
10212SOL    HW231536   0.460   1.306   4.480
10213SOL     OW31537   6.649   1.720   2.440
10213SOL    HW131538   6.720   1.652   2.459
10213SOL    HW231539   6.685   1.812   2.455
10214SOL     OW31540   1.042   1.962   2.173
10214SOL    HW131541   1.120   1.989   2.230
10214SOL    HW231542   1.057   1.870   2.136
10215SOL     OW31543   3.285   3.087   4.539
10215SOL    HW131544   3.322   3.004   4.579
10215SOL    HW231545   3.235   3.138   4.609
10216SOL     OW31546   6.947   0.364   0.374
10216SOL    HW131547   6.962   0.335   0.279
10216SOL    HW231548   6.877   0.435   0.377
10217SOL     OW31549   2.571   1.193   3.810
10217SOL    HW131550   2.623   1.107   3.811
10217SOL    HW231551   2.567   1.230   3.903
10218SOL     OW31552   1.288   0.575   1.181
10218SOL    HW131553   1.302   0.533   1.270
10218SOL    HW231554   1.377   0.597   1.141
10219SOL     OW31555   0.428   3.135   2.207
10219SOL    HW131556   0.474   3.129   2.118
10219SOL    HW231557   0.482   3.085   2.276
10220SOL     OW31558   4.055   1.579   2.149
10220SOL    HW131559   4.107   1.495   2.134
10220SOL    HW231560   4.088   1.625   2.231
10221SOL     OW31561   1.444   1.935   3.381
10221SOL    HW131562   1.419   1.941   3.285
10221SOL    HW231563   1.376   1.879   3.429
10222SOL     OW31564   1.534   3.232   5.973
10222SOL    HW131565   1.563   3.318   5.931
10222SOL    HW231566   1.614   3.174   5.988
10223SOL     OW31567   1.850   6.173   6.819
10223SOL    HW131568   1.787   6.247   6.792
10223SOL    HW231569   1.845   6.099   6.752
10224SOL     OW31570   6.947   1.274   4.934
10224SOL    HW131571   6.863   1.255   4.882
10224SOL    HW231572   7.020   1.300   4.871
10225SOL     OW31573   1.605   6.281   5.664
10225SOL    HW131574   1.539   6.338   5.614
10225SOL    HW231575   1.570   6.262   5.756
10226SOL     OW31576   2.603   0.047   6.662
10226SOL    HW131577   2.544   0.094   6.727
10226SOL    HW231578   2.655   0.114   6.609
10227SOL     OW31579   4.670   4.667   0.809
10227SOL    HW131580   4.642   4.647   0.715
10227SOL    HW231581   4.707   4.584   0.852
10228SOL     OW31582   1.382   5.745   2.198
10228SOL    HW131583   1.359   5.812   2.127
10228SOL    HW231584   1.301   5.692   2.222
10229SOL     OW31585   0.788   1.138   4.020
10229SOL    HW131586   0.801   1.039   4.025
10229SOL    HW231587   0.781   1.166   3.924
10230SOL     OW31588   6.625   6.720   3.994
10230SOL    HW131589   6.716   6.723   4.034
10230SOL    HW231590   6.632   6.727   3.894
10231SOL     OW31591   6.968   6.159   5.641
10231SOL    HW131592   0.008   6.238   5.645
10231SOL    HW231593   6.907   6.167   5.562
10232SOL     OW31594   2.598   0.810   4.138
10232SOL    HW131595   2.512   0.786   4.093
10232SOL    HW231596   2.580   0.875   4.212
10233SOL     OW31597   5.283   3.549   5.127
10233SOL    HW131598   5.191   3.556   5.166
10233SOL    HW231599   5.278   3.563   5.029
10234SOL     OW31600   5.132   0.989   1.259
10234SOL    HW131601   5.143   1.047   1.340
10234SOL    HW231602   5.174   0.900   1.275
10235SOL     OW31603   4.477   2.131   0.454
10235SOL    HW131604   4.514   2.192   0.525
10235SOL    HW231605   4.509   2.161   0.364
10236SOL     OW31606   1.881   6.848   2.130
10236SOL    HW131607   1.803   6.795   2.164
10236SOL    HW231608   1.881   6.848   2.030
10237SOL     OW31609   5.708   3.742   1.266
10237SOL    HW131610   5.662   3.761   1.353
10237SOL    HW231611   5.806   3.734   1.281
10238SOL     OW31612   3.395   4.079   3.876
10238SOL    HW131613   3.344   3.994   3.884
10238SOL    HW231614   3.377   4.137   3.956
10239SOL     OW31615   1.515   4.298   5.034
10239SOL    HW131616   1.460   4.304   4.951
10239SOL    HW231617   1.515   4.204   5.067
10240SOL     OW31618   1.780   5.034   3.170
10240SOL    HW131619   1.745   5.046   3.077
10240SOL    HW231620   1.832   5.115   3.197
10241SOL     OW31621   0.378   0.299   1.972
10241SOL    HW131622   0.388   0.215   2.025
10241SOL    HW231623   0.332   0.369   2.027
10242SOL     OW31624   6.693   1.208   6.828
10242SOL    HW131625   6.715   1.133   6.890
10242SOL    HW231626   6.594   1.221   6.825
10243SOL     OW31627   0.464   5.589   0.977
10243SOL    HW131628   0.556   5.620   1.002
10243SOL    HW231629   0.425   5.652   0.910
10244SOL     OW31630   1.898   5.277   0.216
10244SOL    HW131631   1.827   5.219   0.175
10244SOL    HW231632   1.975   5.285   0.154
10245SOL     OW31633   3.284   4.569   7.019
10245SOL    HW131634   3.220   4.568   6.942
10245SOL    HW231635   3.310   4.663   0.020
10246SOL     OW31636   2.884   3.747   3.816
10246SOL    HW131637   2.873   3.724   3.913
10246SOL    HW231638   2.898   3.663   3.763
10247SOL     OW31639   0.361   5.356   4.907
10247SOL    HW131640   0.417   5.338   4.988
10247SOL    HW231641   0.338   5.453   4.904
10248SOL     OW31642   3.438   6.608   2.290
10248SOL    HW131643   3.379   6.549   2.346
10248SOL    HW231644   3.422   6.590   2.193
10249SOL     OW31645   3.166   0.928   5.796
10249SOL    HW131646   3.178   0.962   5.702
10249SOL    HW231647   3.071   0.900   5.809
10250SOL     OW31648   6.464   1.854   1.036
10250SOL    HW131649   6.459   1.945   0.995
10250SOL    HW231650   6.407   1.851   1.118
10251SOL     OW31651   2.848   2.262   5.025
10251SOL    HW131652   2.781   2.323   5.066
10251SOL    HW231653   2.898   2.310   4.953
10252SOL     OW31654   6.422   6.109   0.549
10252SOL    HW131655   6.375   6.024   0.573
10252SOL    HW231656   6.486   6.091   0.474
10253SOL     OW31657   5.646   5.996   0.747
10253SOL    HW131658   5.625   6.077   0.692
10253SOL    HW231659   5.665   6.024   0.841
10254SOL     OW31660   3.978   1.647   5.030
10254SOL    HW131661   4.021   1.690   4.951
10254SOL    HW231662   3.885   1.682   5.040
10255SOL     OW31663   2.229   5.136   1.525
10255SOL    HW131664   2.224   5.193   1.443
10255SOL    HW231665   2.317   5.150   1.570
10256SOL     OW31666   5.575   0.503   1.691
10256SOL    HW131667   5.533   0.417   1.719
10256SOL    HW231668   5.507   0.577   1.697
10257SOL     OW31669   2.123   5.212   4.093
10257SOL    HW131670   2.187   5.275   4.137
10257SOL    HW231671   2.040   5.203   4.150
10258SOL     OW31672   4.794   7.016   4.202
10258SOL    HW131673   4.751   0.037   4.121
10258SOL    HW231674   4.807   6.918   4.186
10259SOL     OW31675   1.014   5.085   3.337
10259SOL    HW131676   1.041   5.094   3.433
10259SOL    HW231677   0.915   5.088   3.330
10260SOL     OW31678   0.504   0.126   3.045
10260SOL    HW131679   0.506   0.127   3.145
10260SOL    HW231680   0.469   0.214   3.012
10261SOL     OW31681   6.908   6.070   2.890
10261SOL    HW131682   6.957   6.111   2.967
10261SOL    HW231683   6.888   5.974   2.909
10262SOL     OW31684   2.483   6.371   4.519
10262SOL    HW131685   2.565   6.395   4.467
10262SOL    HW231686   2.412   6.340   4.456
10263SOL     OW31687   4.756   1.325   6.388
10263SOL    HW131688   4.830   1.258   6.382
10263SOL    HW231689   4.778   1.404   6.330
10264SOL     OW31690   5.376   1.926   6.900
10264SOL    HW131691   5.420   1.930   6.811
10264SOL    HW231692   5.364   2.018   6.937
10265SOL     OW31693   3.342   2.163   2.938
10265SOL    HW131694   3.295   2.212   3.012
10265SOL    HW231695   3.280   2.155   2.860
10266SOL     OW31696   3.289   2.729   5.250
10266SOL    HW131697   3.388   2.737   5.243
10266SOL    HW231698   3.266   2.658   5.317
10267SOL     OW31699   5.878   2.078   6.445
10267SOL    HW131700   5.819   2.019   6.499
10267SOL    HW231701   5.973   2.066   6.474
10268SOL     OW31702   4.122   5.855   2.050
10268SOL    HW131703   4.158   5.936   2.004
10268SOL    HW231704   4.067   5.883   2.129
10269SOL     OW31705   1.424   2.084   5.100
10269SOL    HW131706   1.465   2.173   5.117
10269SOL    HW231707   1.494   2.019   5.072
10270SOL     OW31708   2.499   5.144   2.991
10270SOL    HW131709   2.510   5.204   2.912
10270SOL    HW231710   2.532   5.190   3.073
10271SOL     OW31711   4.190   2.867   0.279
10271SOL    HW131712   4.144   2.955   0.268
10271SOL    HW231713   4.253   2.853   0.203
10272SOL     OW31714   0.525   0.018   4.457
10272SOL    HW131715   0.602   0.071   4.492
10272SOL    HW231716   0.500   0.051   4.366
10273SOL     OW31717   4.683   5.177   3.315
10273SOL    HW131718   4.757   5.239   3.342
10273SOL    HW231719   4.663   5.189   3.218
10274SOL     OW31720   1.111   4.223   4.669
10274SOL    HW131721   1.173   4.228   4.591
10274SOL    HW231722   1.137   4.292   4.737
10275SOL     OW31723   0.525   6.209   1.933
10275SOL    HW131724   0.607   6.228   1.986
10275SOL    HW231725   0.490   6.118   1.956
10276SOL     OW31726   5.836   5.571   5.757
10276SOL    HW131727   5.821   5.661   5.797
10276SOL    HW231728   5.912   5.526   5.802
10277SOL     OW31729   2.942   5.448   3.899
10277SOL    HW131730   2.950   5.485   3.991
10277SOL    HW231731   2.853   5.475   3.860
10278SOL     OW31732   5.984   1.035   4.434
10278SOL    HW131733   6.001   0.943   4.470
10278SOL    HW231734   5.964   1.097   4.510
10279SOL     OW31735   1.962   6.057   4.265
10279SOL    HW131736   2.058   6.061   4.235
10279SOL    HW231737   1.907   6.116   4.207
10280SOL     OW31738   1.963   3.427   1.330
10280SOL    HW131739   1.971   3.525   1.350
10280SOL    HW231740   1.886   3.388   1.381
10281SOL     OW31741   6.619   2.215   2.274
10281SOL    HW131742   6.664   2.302   2.252
10281SOL    HW231743   6.540   2.232   2.333
10282SOL     OW31744   6.399   4.395   4.381
10282SOL    HW131745   6.407   4.402   4.281
10282SOL    HW231746   6.376   4.301   4.406
10283SOL     OW31747   0.605   3.494   0.775
10283SOL    HW131748   0.529   3.432   0.756
10283SOL    HW231749   0.596   3.531   0.868
10284SOL     OW31750   4.979   3.942   5.509
10284SOL    HW131751   4.956   3.882   5.586
10284SOL    HW231752   4.950   3.899   5.423
10285SOL     OW31753   4.363   0.704   0.447
10285SOL    HW131754   4.417   0.777   0.405
10285SOL    HW231755   4.274   0.700   0.403
10286SOL     OW31756   3.072   2.100   4.068
10286SOL    HW131757   3.059   2.079   4.165
10286SOL    HW231758   3.167   2.125   4.051
10287SOL     OW31759   1.900   6.336   2.289
10287SOL    HW131760   1.975   6.379   2.238
10287SOL    HW231761   1.857   6.404   2.349
10288SOL     OW31762   5.000   6.288   2.139
10288SOL    HW131763   4.912   6.242   2.138
10288SOL    HW231764   5.071   6.223   2.167
10289SOL     OW31765   3.342   0.805   2.671
10289SOL    HW131766   3.356   0.875   2.600
10289SOL    HW231767   3.284   0.732   2.634
10290SOL     OW31768   3.513   4.102   2.184
10290SOL    HW131769   3.558   4.155   2.113
10290SOL    HW231770   3.426   4.067   2.149
10291SOL     OW31771   4.196   1.529   4.183
10291SOL    HW131772   4.102   1.546   4.153
10291SOL    HW231773   4.206   1.433   4.210
10292SOL     OW31774   1.027   1.194   4.520
10292SOL    HW131775   0.973   1.195   4.604
10292SOL    HW231776   0.985   1.130   4.455
10293SOL     OW31777   2.015   5.716   3.586
10293SOL    HW131778   2.000   5.790   3.651
10293SOL    HW231779   1.993   5.749   3.494
10294SOL     OW31780   4.862   4.035   2.686
10294SOL    HW131781   4.812   4.064   2.604
10294SOL    HW231782   4.912   3.951   2.666
10295SOL     OW31783   6.196   5.407   5.975
10295SOL    HW131784   6.199   5.507   5.981
10295SOL    HW231785   6.190   5.380   5.880
10296SOL     OW31786   4.965   2.854   6.631
10296SOL    HW131787   4.919   2.938   6.660
10296SOL    HW231788   4.904   2.776   6.646
10297SOL     OW31789   2.012   6.376   4.956
10297SOL    HW131790   1.996   6.281   4.984
10297SOL    HW231791   1.955   6.437   5.011
10298SOL     OW31792   4.025   4.755   2.453
10298SOL    HW131793   4.096   4.707   2.401
10298SOL    HW231794   3.980   4.823   2.394
10299SOL     OW31795   4.971   4.397   2.632
10299SOL    HW131796   5.038   4.346   2.685
10299SOL    HW231797   4.953   4.485   2.677
10300SOL     OW31798   1.809   4.730   2.833
10300SOL    HW131799   1.709   4.739   2.836
10300SOL    HW231800   1.834   4.634   2.824
10301SOL     OW31801   6.280   2.276   2.891
10301SOL    HW131802   6.214   2.212   2.931
10301SOL    HW231803   6.324   2.328   2.964
10302SOL     OW31804   0.427   6.301   4.143
10302SOL    HW131805   0.351   6.248   4.106
10302SOL    HW231806   0.453   6.263   4.232
10303SOL     OW31807   3.023   5.524   1.358
10303SOL    HW131808   3.055   5.558   1.269
10303SOL    HW231809   2.934   5.480   1.346
10304SOL     OW31810   5.471   0.695   3.022
10304SOL    HW131811   5.420   0.649   3.095
10304SOL    HW231812   5.495   0.628   2.951
10305SOL     OW31813   0.429   5.174   6.825
10305SOL    HW131814   0.430   5.250   6.759
10305SOL    HW231815   0.520   5.164   6.865
10306SOL     OW31816   4.685   6.482   6.682
10306SOL    HW131817   4.634   6.414   6.629
10306SOL    HW231818   4.698   6.448   6.775
10307SOL     OW31819   1.766   2.532   4.266
10307SOL    HW131820   1.769   2.459   4.334
10307SOL    HW231821   1.694   2.513   4.200
10308SOL     OW31822   2.810   5.071   3.733
10308SOL    HW131823   2.812   4.971   3.741
10308SOL    HW231824   2.786   5.111   3.822
10309SOL     OW31825   6.801   0.342   3.756
10309SOL    HW131826   6.820   0.255   3.802
10309SOL    HW231827   6.713   0.378   3.788
10310SOL     OW31828   3.923   2.753   1.731
10310SOL    HW131829   3.833   2.710   1.724
10310SOL    HW231830   3.922   2.822   1.803
10311SOL     OW31831   0.543   5.897   1.156
10311SOL    HW131832   0.511   5.978   1.205
10311SOL    HW231833   0.472   5.864   1.094
10312SOL     OW31834   3.049   5.710   0.991
10312SOL    HW131835   2.961   5.671   1.018
10312SOL    HW231836   3.054   5.805   1.021
10313SOL     OW31837   3.781   0.168   1.747
10313SOL    HW131838   3.706   0.111   1.712
10313SOL    HW231839   3.802   0.240   1.680
10314SOL     OW31840   6.435   0.427   1.669
10314SOL    HW131841   6.357   0.489   1.675
10314SOL    HW231842   6.511   0.474   1.624
10315SOL     OW31843   6.130   5.608   4.876
10315SOL    HW131844   6.056   5.543   4.893
10315SOL    HW231845   6.216   5.559   4.864
10316SOL     OW31846   6.281   3.073   5.003
10316SOL    HW131847   6.232   3.004   4.950
10316SOL    HW231848   6.374   3.043   5.021
10317SOL     OW31849   3.603   4.615   6.276
10317SOL    HW131850   3.533   4.606   6.205
10317SOL    HW231851   3.609   4.711   6.304
10318SOL     OW31852   5.755   5.744   0.764
10318SOL    HW131853   5.717   5.836   0.750
10318SOL    HW231854   5.820   5.724   0.691
10319SOL     OW31855   1.391   3.460   5.604
10319SOL    HW131856   1.455   3.459   5.681
10319SOL    HW231857   1.421   3.393   5.536
10320SOL     OW31858   0.906   0.611   0.548
10320SOL    HW131859   0.886   0.612   0.646
10320SOL    HW231860   1.004   0.605   0.534
10321SOL     OW31861   4.147   0.451   4.795
10321SOL    HW131862   4.207   0.530   4.777
10321SOL    HW231863   4.057   0.469   4.756
10322SOL     OW31864   6.279   5.662   0.105
10322SOL    HW131865   6.180   5.650   0.111
10322SOL    HW231866   6.306   5.743   0.157
10323SOL     OW31867   5.987   3.994   6.141
10323SOL    HW131868   5.996   3.918   6.078
10323SOL    HW231869   5.948   4.073   6.093
10324SOL     OW31870   3.340   2.904   3.091
10324SOL    HW131871   3.247   2.923   3.060
10324SOL    HW231872   3.338   2.881   3.189
10325SOL     OW31873   6.760   4.769   3.127
10325SOL    HW131874   6.827   4.843   3.124
10325SOL    HW231875   6.669   4.805   3.109
10326SOL     OW31876   4.389   2.759   0.126
10326SOL    HW131877   4.352   2.667   0.118
10326SOL    HW231878   4.412   2.793   0.034
10327SOL     OW31879   2.832   1.762   2.435
10327SOL    HW131880   2.867   1.689   2.495
10327SOL    HW231881   2.790   1.834   2.491
10328SOL     OW31882   6.159   3.578   1.450
10328SOL    HW131883   6.197   3.487   1.468
10328SOL    HW231884   6.075   3.590   1.504
10329SOL     OW31885   3.557   0.012   4.603
10329SOL    HW131886   3.599   0.046   4.687
10329SOL    HW231887   3.484   6.968   4.627
10330SOL     OW31888   3.327   5.846   2.855
10330SOL    HW131889   3.298   5.772   2.916
10330SOL    HW231890   3.417   5.824   2.817
10331SOL     OW31891   6.349   0.719   3.145
10331SOL    HW131892   6.366   0.812   3.178
10331SOL    HW231893   6.313   0.663   3.220
10332SOL     OW31894   5.833   1.215   0.583
10332SOL    HW131895   5.781   1.257   0.657
10332SOL    HW231896   5.918   1.176   0.620
10333SOL     OW31897   6.166   4.325   4.577
10333SOL    HW131898   6.222   4.406   4.589
10333SOL    HW231899   6.215   4.245   4.610
10334SOL     OW31900   2.386   5.668   3.248
10334SOL    HW131901   2.340   5.616   3.320
10334SOL    HW231902   2.368   5.766   3.261
10335SOL     OW31903   2.161   4.319   6.844
10335SOL    HW131904   2.162   4.372   6.930
10335SOL    HW231905   2.092   4.247   6.851
10336SOL     OW31906   5.150   6.639   3.371
10336SOL    HW131907   5.157   6.560   3.432
10336SOL    HW231908   5.201   6.716   3.409
10337SOL     OW31909   6.444   6.408   5.535
10337SOL    HW131910   6.398   6.361   5.460
10337SOL    HW231911   6.481   6.495   5.501
10338SOL     OW31912   3.252   6.781   1.118
10338SOL    HW131913   3.262   6.845   1.195
10338SOL    HW231914   3.217   6.694   1.152
10339SOL     OW31915   3.724   4.283   0.786
10339SOL    HW131916   3.682   4.204   0.741
10339SOL    HW231917   3.712   4.275   0.885
10340SOL     OW31918   1.379   5.732   0.210
10340SOL    HW131919   1.478   5.749   0.209
10340SOL    HW231920   1.360   5.645   0.163
10341SOL     OW31921   2.497   3.153   1.671
10341SOL    HW131922   2.591   3.124   1.689
10341SOL    HW231923   2.491   3.253   1.677
10342SOL     OW31924   2.625   5.693   5.707
10342SOL    HW131925   2.714   5.738   5.697
10342SOL    HW231926   2.569   5.743   5.773
10343SOL     OW31927   2.451   3.861   0.349
10343SOL    HW131928   2.372   3.884   0.291
10343SOL    HW231929   2.525   3.827   0.291
10344SOL     OW31930   3.868   4.015   3.211
10344SOL    HW131931   3.830   4.103   3.240
10344SOL    HW231932   3.795   3.954   3.183
10345SOL     OW31933   1.680   0.250   6.296
10345SOL    HW131934   1.670   0.242   6.197
10345SOL    HW231935   1.644   0.339   6.326
10346SOL     OW31936   6.187   0.551   1.526
10346SOL    HW131937   6.134   0.634   1.511
10346SOL    HW231938   6.279   0.563   1.491
10347SOL     OW31939   4.911   2.726   1.916
10347SOL    HW131940   4.850   2.678   1.979
10347SOL    HW231941   4.952   2.804   1.962
10348SOL     OW31942   7.011   1.308   6.588
10348SOL    HW131943   6.955   1.373   6.536
10348SOL    HW231944   0.088   1.327   6.571
10349SOL     OW31945   6.709   0.731   0.682
10349SOL    HW131946   6.672   0.788   0.755
10349SOL    HW231947   6.738   0.643   0.719
10350SOL     OW31948   3.110   6.012   5.050
10350SOL    HW131949   3.187   6.018   5.114
10350SOL    HW231950   3.029   6.053   5.092
10351SOL     OW31951   6.246   5.050   6.030
10351SOL    HW131952   6.278   4.968   6.078
10351SOL    HW231953   6.235   5.125   6.095
10352SOL     OW31954   5.377   2.115   6.413
10352SOL    HW131955   5.406   2.093   6.506
10352SOL    HW231956   5.387   2.213   6.397
10353SOL     OW31957   6.481   3.621   4.019
10353SOL    HW131958   6.580   3.632   4.016
10353SOL    HW231959   6.449   3.583   3.932
10354SOL     OW31960   0.613   3.240   1.172
10354SOL    HW131961   0.640   3.335   1.190
10354SOL    HW231962   0.611   3.189   1.258
10355SOL     OW31963   0.846   0.916   0.547
10355SOL    HW131964   0.924   0.979   0.552
10355SOL    HW231965   0.879   0.825   0.523
10356SOL     OW31966   6.805   3.532   5.924
10356SOL    HW131967   6.843   3.443   5.901
10356SOL    HW231968   6.809   3.592   5.844
10357SOL     OW31969   3.511   2.181   5.902
10357SOL    HW131970   3.505   2.084   5.882
10357SOL    HW231971   3.517   2.233   5.817
10358SOL     OW31972   1.012   3.034   3.359
10358SOL    HW131973   0.942   3.092   3.317
10358SOL    HW231974   1.102   3.061   3.325
10359SOL     OW31975   5.112   2.113   2.096
10359SOL    HW131976   5.046   2.175   2.052
10359SOL    HW231977   5.111   2.129   2.195
10360SOL     OW31978   5.158   5.430   2.702
10360SOL    HW131979   5.186   5.491   2.777
10360SOL    HW231980   5.163   5.480   2.615
10361SOL     OW31981   2.913   0.702   2.853
10361SOL    HW131982   2.994   0.643   2.849
10361SOL    HW231983   2.941   0.798   2.861
10362SOL     OW31984   0.578   5.262   2.616
10362SOL    HW131985   0.546   5.307   2.533
10362SOL    HW231986   0.513   5.191   2.644
10363SOL     OW31987   4.671   2.647   0.999
10363SOL    HW131988   4.587   2.695   1.023
10363SOL    HW231989   4.718   2.697   0.926
10364SOL     OW31990   4.933   4.550   2.000
10364SOL    HW131991   4.956   4.574   2.094
10364SOL    HW231992   4.941   4.632   1.942
10365SOL     OW31993   5.790   4.573   0.251
10365SOL    HW131994   5.751   4.485   0.223
10365SOL    HW231995   5.782   4.639   0.177
10366SOL     OW31996   3.814   6.633   3.607
10366SOL    HW131997   3.773   6.549   3.642
10366SOL    HW231998   3.839   6.620   3.511
10367SOL     OW31999   6.884   1.401   2.154
10367SOL    HW132000   6.897   1.439   2.063
10367SOL    HW232001   6.972   1.395   2.201
10368SOL     OW32002   2.001   0.976   2.553
10368SOL    HW132003   1.904   0.983   2.533
10368SOL    HW232004   2.054   1.007   2.473
10369SOL     OW32005   2.504   6.207   6.243
10369SOL    HW132006   2.462   6.278   6.186
10369SOL    HW232007   2.593   6.182   6.204
10370SOL     OW32008   6.464   1.404   5.156
10370SOL    HW132009   6.416   1.489   5.131
10370SOL    HW232010   6.454   1.338   5.082
10371SOL     OW32011   2.131   6.660   4.056
10371SOL    HW132012   2.182   6.606   3.988
10371SOL    HW232013   2.045   6.691   4.015
10372SOL     OW32014   2.814   1.056   0.928
10372SOL    HW132015   2.780   1.009   0.846
10372SOL    HW232016   2.887   1.119   0.903
10373SOL     OW32017   0.508   6.442   4.931
10373SOL    HW132018   0.607   6.448   4.913
10373SOL    HW232019   0.461   6.515   4.881
10374SOL     OW32020   3.051   0.219   3.707
10374SOL    HW132021   3.103   0.156   3.765
10374SOL    HW232022   3.081   0.211   3.612
10375SOL     OW32023   2.806   2.002   5.990
10375SOL    HW132024   2.861   2.060   5.929
10375SOL    HW232025   2.813   1.907   5.960
10376SOL     OW32026   0.889   6.213   4.057
10376SOL    HW132027   0.815   6.254   4.110
10376SOL    HW232028   0.960   6.179   4.119
10377SOL     OW32029   0.365   1.431   1.613
10377SOL    HW132030   0.274   1.472   1.620
10377SOL    HW232031   0.432   1.503   1.596
10378SOL     OW32032   6.125   5.951   6.002
10378SOL    HW132033   6.063   6.028   6.010
10378SOL    HW232034   6.150   5.938   5.906
10379SOL     OW32035   3.231   5.629   3.962
10379SOL    HW132036   3.283   5.656   4.044
10379SOL    HW232037   3.141   5.596   3.989
10380SOL     OW32038   0.635   2.781   4.983
10380SOL    HW132039   0.568   2.842   4.942
10380SOL    HW232040   0.720   2.783   4.931
10381SOL     OW32041   4.390   3.893   0.991
10381SOL    HW132042   4.439   3.959   0.935
10381SOL    HW232043   4.429   3.892   1.083
10382SOL     OW32044   3.051   6.065   1.643
10382SOL    HW132045   2.994   6.001   1.695
10382SOL    HW232046   3.045   6.156   1.684
10383SOL     OW32047   1.304   3.921   0.444
10383SOL    HW132048   1.366   3.997   0.460
10383SOL    HW232049   1.233   3.919   0.514
10384SOL     OW32050   6.831   6.749   0.250
10384SOL    HW132051   6.921   6.747   0.295
10384SOL    HW232052   6.804   6.844   0.234
10385SOL     OW32053   4.138   5.876   6.818
10385SOL    HW132054   4.174   5.919   6.735
10385SOL    HW232055   4.072   5.937   6.862
10386SOL     OW32056   0.623   0.739   5.476
10386SOL    HW132057   0.709   0.701   5.443
10386SOL    HW232058   0.621   0.734   5.576
10387SOL     OW32059   5.300   2.956   2.759
10387SOL    HW132060   5.382   2.974   2.703
10387SOL    HW232061   5.225   3.014   2.727
10388SOL     OW32062   1.000   6.382   1.109
10388SOL    HW132063   0.992   6.426   1.020
10388SOL    HW232064   1.049   6.442   1.172
10389SOL     OW32065   5.500   3.879   1.417
10389SOL    HW132066   5.459   3.876   1.508
10389SOL    HW232067   5.434   3.849   1.349
10390SOL     OW32068   1.896   3.030   0.232
10390SOL    HW132069   1.987   2.989   0.244
10390SOL    HW232070   1.870   3.077   0.316
10391SOL     OW32071   0.577   5.872   4.396
10391SOL    HW132072   0.496   5.861   4.453
10391SOL    HW232073   0.593   5.788   4.343
10392SOL     OW32074   5.557   5.053   5.428
10392SOL    HW132075   5.654   5.077   5.427
10392SOL    HW232076   5.516   5.085   5.514
10393SOL     OW32077   2.131   3.611   3.630
10393SOL    HW132078   2.070   3.606   3.551
10393SOL    HW232079   2.146   3.519   3.666
10394SOL     OW32080   2.547   5.601   4.953
10394SOL    HW132081   2.613   5.579   4.881
10394SOL    HW232082   2.495   5.519   4.977
10395SOL     OW32083   0.467   0.423   1.404
10395SOL    HW132084   0.436   0.416   1.499
10395SOL    HW232085   0.559   0.386   1.396
10396SOL     OW32086   3.392   1.954   3.782
10396SOL    HW132087   3.328   2.018   3.741
10396SOL    HW232088   3.486   1.981   3.760
10397SOL     OW32089   3.257   1.531   4.653
10397SOL    HW132090   3.306   1.586   4.586
10397SOL    HW232091   3.189   1.475   4.608
10398SOL     OW32092   6.090   2.513   0.346
10398SOL    HW132093   5.990   2.519   0.344
10398SOL    HW232094   6.124   2.518   0.252
10399SOL     OW32095   5.337   2.417   3.189
10399SOL    HW132096   5.404   2.483   3.154
10399SOL    HW232097   5.248   2.435   3.147
10400SOL     OW32098   4.351   5.730   6.971
10400SOL    HW132099   4.400   5.805   7.014
10400SOL    HW232100   4.274   5.766   6.918
10401SOL     OW32101   6.953   6.646   2.917
10401SOL    HW132102   7.014   6.716   2.953
10401SOL    HW232103   6.998   6.598   2.842
10402SOL     OW32104   6.563   1.630   5.328
10402SOL    HW132105   6.530   1.610   5.235
10402SOL    HW232106   6.484   1.644   5.388
10403SOL     OW32107   4.663   2.778   3.344
10403SOL    HW132108   4.649   2.799   3.248
10403SOL    HW232109   4.721   2.848   3.386
10404SOL     OW32110   5.777   6.431   4.738
10404SOL    HW132111   5.869   6.441   4.777
10404SOL    HW232112   5.785   6.408   4.641
10405SOL     OW32113   1.380   6.718   4.450
10405SOL    HW132114   1.434   6.644   4.490
10405SOL    HW232115   1.356   6.784   4.521
10406SOL     OW32116   2.205   3.873   3.474
10406SOL    HW132117   2.190   3.879   3.375
10406SOL    HW232118   2.138   3.810   3.514
10407SOL     OW32119   2.651   6.545   6.439
10407SOL    HW132120   2.562   6.501   6.452
10407SOL    HW232121   2.719   6.501   6.497
10408SOL     OW32122   4.464   0.345   1.212
10408SOL    HW132123   4.559   0.341   1.244
10408SOL    HW232124   4.431   0.440   1.216
10409SOL     OW32125   0.074   5.241   1.536
10409SOL    HW132126   0.099   5.296   1.615
10409SOL    HW232127   7.017   5.182   1.559
10410SOL     OW32128   5.014   2.183   1.737
10410SOL    HW132129   4.959   2.099   1.738
10410SOL    HW232130   5.110   2.159   1.719
10411SOL     OW32131   3.026   6.863   3.496
10411SOL    HW132132   2.986   6.900   3.579
10411SOL    HW232133   3.107   6.917   3.471
10412SOL     OW32134   0.235   1.301   6.947
10412SOL    HW132135   0.136   1.286   6.946
10412SOL    HW232136   0.279   1.234   6.888
10413SOL     OW32137   0.201   2.870   0.360
10413SOL    HW132138   0.223   2.782   0.320
10413SOL    HW232139   0.264   2.889   0.435
10414SOL     OW32140   4.162   5.523   5.890
10414SOL    HW132141   4.176   5.425   5.877
10414SOL    HW232142   4.158   5.568   5.801
10415SOL     OW32143   1.726   3.890   5.388
10415SOL    HW132144   1.645   3.846   5.425
10415SOL    HW232145   1.781   3.822   5.338
10416SOL     OW32146   5.820   0.584   5.336
10416SOL    HW132147   5.836   0.485   5.327
10416SOL    HW232148   5.726   0.605   5.313
10417SOL     OW32149   3.204   4.886   3.816
10417SOL    HW132150   3.248   4.842   3.738
10417SOL    HW232151   3.270   4.899   3.889
10418SOL     OW32152   6.439   4.142   6.330
10418SOL    HW132153   6.465   4.148   6.234
10418SOL    HW232154   6.386   4.058   6.345
10419SOL     OW32155   2.788   6.686   5.773
10419SOL    HW132156   2.833   6.775   5.781
10419SOL    HW232157   2.695   6.698   5.738
10420SOL     OW32158   0.562   3.703   3.777
10420SOL    HW132159   0.570   3.604   3.785
10420SOL    HW232160   0.467   3.727   3.757
10421SOL     OW32161   0.980   2.437   3.514
10421SOL    HW132162   1.022   2.364   3.461
10421SOL    HW232163   1.022   2.524   3.489
10422SOL     OW32164   5.739   3.458   5.366
10422SOL    HW132165   5.796   3.443   5.447
10422SOL    HW232166   5.718   3.370   5.323
10423SOL     OW32167   5.528   4.793   5.392
10423SOL    HW132168   5.429   4.777   5.383
10423SOL    HW232169   5.544   4.890   5.409
10424SOL     OW32170   4.597   2.577   0.379
10424SOL    HW132171   4.687   2.544   0.410
10424SOL    HW232172   4.603   2.674   0.358
10425SOL     OW32173   0.816   6.417   1.778
10425SOL    HW132174   0.800   6.484   1.705
10425SOL    HW232175   0.899   6.365   1.759
10426SOL     OW32176   5.240   5.120   0.385
10426SOL    HW132177   5.157   5.125   0.330
10426SOL    HW232178   5.217   5.134   0.481
10427SOL     OW32179   3.663   0.835   6.605
10427SOL    HW132180   3.602   0.891   6.661
10427SOL    HW232181   3.678   0.747   6.650
10428SOL     OW32182   3.854   0.937   3.869
10428SOL    HW132183   3.794   0.891   3.804
10428SOL    HW232184   3.855   0.887   3.956
10429SOL     OW32185   6.998   4.313   0.952
10429SOL    HW132186   6.972   4.354   0.865
10429SOL    HW232187   0.049   4.368   0.996
10430SOL     OW32188   4.993   0.160   4.945
10430SOL    HW132189   4.992   0.205   4.856
10430SOL    HW232190   5.061   0.204   5.004
10431SOL     OW32191   2.696   5.916   4.450
10431SOL    HW132192   2.681   5.921   4.549
10431SOL    HW232193   2.790   5.941   4.429
10432SOL     OW32194   5.230   6.840   4.955
10432SOL    HW132195   5.234   6.925   5.008
10432SOL    HW232196   5.175   6.856   4.872
10433SOL     OW32197   0.959   5.847   1.899
10433SOL    HW132198   1.043   5.796   1.881
10433SOL    HW232199   0.901   5.845   1.818
10434SOL     OW32200   4.167   6.144   3.278
10434SOL    HW132201   4.215   6.231   3.271
10434SOL    HW232202   4.204   6.091   3.354
10435SOL     OW32203   0.343   0.923   5.260
10435SOL    HW132204   0.318   1.019   5.255
10435SOL    HW232205   0.329   0.889   5.353
10436SOL     OW32206   6.956   4.741   5.588
10436SOL    HW132207   6.995   4.657   5.627
10436SOL    HW232208   6.869   4.761   5.632
10437SOL     OW32209   4.872   3.743   6.062
10437SOL    HW132210   4.909   3.650   6.053
10437SOL    HW232211   4.935   3.798   6.117
10438SOL     OW32212   6.036   6.242   0.225
10438SOL    HW132213   6.133   6.262   0.238
10438SOL    HW232214   5.994   6.313   0.167
10439SOL     OW32215   3.699   1.127   5.162
10439SOL    HW132216   3.599   1.125   5.167
10439SOL    HW232217   3.728   1.207   5.109
10440SOL     OW32218   1.568   6.587   0.423
10440SOL    HW132219   1.506   6.509   0.433
10440SOL    HW232220   1.520   6.663   0.380
10441SOL     OW32221   3.841   1.158   1.433
10441SOL    HW132222   3.795   1.233   1.480
10441SOL    HW232223   3.838   1.075   1.489
10442SOL     OW32224   3.920   5.984   6.497
10442SOL    HW132225   3.931   6.019   6.404
10442SOL    HW232226   3.899   5.886   6.494
10443SOL     OW32227   4.952   3.775   3.958
10443SOL    HW132228   4.910   3.749   4.045
10443SOL    HW232229   4.957   3.695   3.899
10444SOL     OW32230   4.451   5.733   4.135
10444SOL    HW132231   4.441   5.633   4.141
10444SOL    HW232232   4.382   5.770   4.073
10445SOL     OW32233   0.638   4.885   4.594
10445SOL    HW132234   0.649   4.791   4.563
10445SOL    HW232235   0.541   4.904   4.611
10446SOL     OW32236   1.161   3.063   5.483
10446SOL    HW132237   1.233   3.132   5.474
10446SOL    HW232238   1.200   2.979   5.521
10447SOL     OW32239   0.662   1.211   1.529
10447SOL    HW132240   0.747   1.205   1.477
10447SOL    HW232241   0.639   1.308   1.543
10448SOL     OW32242   4.927   0.853   2.465
10448SOL    HW132243   4.983   0.831   2.385
10448SOL    HW232244   4.845   0.902   2.436
10449SOL     OW32245   2.847   5.083   4.838
10449SOL    HW132246   2.914   5.124   4.901
10449SOL    HW232247   2.874   4.988   4.819
10450SOL     OW32248   0.943   1.887   0.659
10450SOL    HW132249   1.035   1.924   0.644
10450SOL    HW232250   0.875   1.952   0.627
10451SOL     OW32251   1.455   5.439   2.420
10451SOL    HW132252   1.489   5.517   2.368
10451SOL    HW232253   1.413   5.374   2.358
10452SOL     OW32254   6.315   3.084   2.023
10452SOL    HW132255   6.320   3.017   1.949
10452SOL    HW232256   6.252   3.052   2.093
10453SOL     OW32257   3.784   6.964   1.491
10453SOL    HW132258   3.778   6.886   1.428
10453SOL    HW232259   3.703   6.966   1.549
10454SOL     OW32260   4.348   3.432   0.375
10454SOL    HW132261   4.296   3.489   0.440
10454SOL    HW232262   4.327   3.336   0.391
10455SOL     OW32263   6.607   6.421   3.289
10455SOL    HW132264   6.565   6.372   3.213
10455SOL    HW232265   6.706   6.426   3.274
10456SOL     OW32266   2.949   6.472   0.915
10456SOL    HW132267   2.971   6.520   0.830
10456SOL    HW232268   2.862   6.505   0.951
10457SOL     OW32269   2.882   3.237   1.994
10457SOL    HW132270   2.850   3.241   2.089
10457SOL    HW232271   2.835   3.162   1.947
10458SOL     OW32272   6.916   1.711   6.531
10458SOL    HW132273   6.843   1.647   6.554
10458SOL    HW232274   6.894   1.802   6.568
10459SOL     OW32275   4.880   5.890   1.584
10459SOL    HW132276   4.913   5.924   1.495
10459SOL    HW232277   4.906   5.954   1.656
10460SOL     OW32278   0.866   4.323   2.038
10460SOL    HW132279   0.854   4.300   2.135
10460SOL    HW232280   0.793   4.384   2.009
10461SOL     OW32281   0.577   5.173   5.790
10461SOL    HW132282   0.662   5.211   5.754
10461SOL    HW232283   0.499   5.220   5.748
10462SOL     OW32284   5.921   1.445   3.336
10462SOL    HW132285   5.904   1.537   3.299
10462SOL    HW232286   5.839   1.389   3.325
10463SOL     OW32287   4.073   3.016   5.576
10463SOL    HW132288   4.001   3.073   5.616
10463SOL    HW232289   4.031   2.946   5.518
10464SOL     OW32290   6.493   0.164   0.863
10464SOL    HW132291   6.572   0.218   0.836
10464SOL    HW232292   6.484   0.084   0.804
10465SOL     OW32293   6.237   5.750   1.415
10465SOL    HW132294   6.290   5.782   1.336
10465SOL    HW232295   6.176   5.676   1.386
10466SOL     OW32296   4.495   5.041   6.706
10466SOL    HW132297   4.497   4.974   6.780
10466SOL    HW232298   4.425   5.015   6.639
10467SOL     OW32299   2.030   1.963   5.913
10467SOL    HW132300   2.102   1.945   5.980
10467SOL    HW232301   1.975   2.041   5.943
10468SOL     OW32302   4.052   5.254   3.161
10468SOL    HW132303   4.050   5.218   3.068
10468SOL    HW232304   4.062   5.178   3.226
10469SOL     OW32305   4.089   3.683   5.706
10469SOL    HW132306   4.163   3.733   5.661
10469SOL    HW232307   4.008   3.741   5.711
10470SOL     OW32308   2.566   2.246   3.705
10470SOL    HW132309   2.574   2.153   3.741
10470SOL    HW232310   2.625   2.307   3.758
10471SOL     OW32311   2.810   2.099   1.231
10471SOL    HW132312   2.734   2.158   1.203
10471SOL    HW232313   2.894   2.129   1.185
10472SOL     OW32314   4.091   5.389   0.458
10472SOL    HW132315   4.162   5.385   0.388
10472SOL    HW232316   4.077   5.298   0.497
10473SOL     OW32317   6.985   0.521   6.588
10473SOL    HW132318   0.029   0.582   6.540
10473SOL    HW232319   6.901   0.512   6.535
10474SOL     OW32320   4.518   1.839   4.523
10474SOL    HW132321   4.568   1.858   4.607
10474SOL    HW232322   4.535   1.744   4.495
10475SOL     OW32323   4.609   0.016   2.169
10475SOL    HW132324   4.636   6.941   2.178
10475SOL    HW232325   4.531   0.035   2.229
10476SOL     OW32326   6.857   6.185   6.795
10476SOL    HW132327   6.904   6.178   6.707
10476SOL    HW232328   6.923   6.169   6.869
10477SOL     OW32329   6.688   1.728   4.084
10477SOL    HW132330   6.703   1.815   4.038
10477SOL    HW232331   6.592   1.721   4.113
10478SOL     OW32332   0.384   0.460   0.873
10478SOL    HW132333   0.331   0.376   0.881
10478SOL    HW232334   0.381   0.492   0.779
10479SOL     OW32335   0.374   2.463   1.175
10479SOL    HW132336   0.458   2.454   1.228
10479SOL    HW232337   0.345   2.558   1.173
10480SOL     OW32338   6.359   0.284   1.982
10480SOL    HW132339   6.347   0.214   2.053
10480SOL    HW232340   6.350   0.241   1.892
10481SOL     OW32341   2.774   6.588   4.694
10481SOL    HW132342   2.756   6.678   4.733
10481SOL    HW232343   2.838   6.597   4.618
10482SOL     OW32344   6.486   5.592   5.241
10482SOL    HW132345   6.476   5.667   5.175
10482SOL    HW232346   6.488   5.505   5.192
10483SOL     OW32347   6.897   5.536   0.096
10483SOL    HW132348   6.877   5.448   0.053
10483SOL    HW232349   6.836   5.606   0.059
10484SOL     OW32350   6.073   1.318   1.528
10484SOL    HW132351   6.012   1.250   1.487
10484SOL    HW232352   6.168   1.294   1.507
10485SOL     OW32353   3.410   4.198   1.835
10485SOL    HW132354   3.487   4.165   1.889
10485SOL    HW232355   3.331   4.140   1.852
10486SOL     OW32356   6.891   0.516   5.668
10486SOL    HW132357   6.817   0.451   5.687
10486SOL    HW232358   6.921   0.506   5.573
10487SOL     OW32359   4.649   2.057   2.016
10487SOL    HW132360   4.688   1.968   2.037
10487SOL    HW232361   4.723   2.123   2.002
10488SOL     OW32362   2.418   1.621   5.624
10488SOL    HW132363   2.481   1.698   5.635
10488SOL    HW232364   2.466   1.535   5.639
10489SOL     OW32365   6.255   6.743   4.616
10489SOL    HW132366   6.286   6.798   4.538
10489SOL    HW232367   6.193   6.797   4.672
10490SOL     OW32368   6.200   1.591   0.781
10490SOL    HW132369   6.203   1.500   0.741
10490SOL    HW232370   6.139   1.650   0.727
10491SOL     OW32371   2.478   2.006   5.181
10491SOL    HW132372   2.387   2.012   5.138
10491SOL    HW232373   2.548   2.017   5.111
10492SOL     OW32374   4.957   6.335   1.361
10492SOL    HW132375   4.978   6.339   1.264
10492SOL    HW232376   4.897   6.411   1.386
10493SOL     OW32377   2.873   6.472   2.171
10493SOL    HW132378   2.918   6.383   2.165
10493SOL    HW232379   2.938   6.542   2.199
10494SOL     OW32380   5.531   4.182   6.568
10494SOL    HW132381   5.574   4.246   6.504
10494SOL    HW232382   5.601   4.124   6.610
10495SOL     OW32383   0.355   0.279   0.474
10495SOL    HW132384   0.332   0.364   0.522
10495SOL    HW232385   0.455   0.272   0.465
10496SOL     OW32386   6.138   4.346   6.416
10496SOL    HW132387   6.231   4.377   6.399
10496SOL    HW232388   6.106   4.381   6.505
10497SOL     OW32389   1.599   6.740   2.058
10497SOL    HW132390   1.550   6.764   1.974
10497SOL    HW232391   1.575   6.805   2.130
10498SOL     OW32392   5.728   5.459   0.779
10498SOL    HW132393   5.781   5.541   0.800
10498SOL    HW232394   5.759   5.384   0.837
10499SOL     OW32395   5.001   0.730   2.192
10499SOL    HW132396   4.955   0.643   2.175
10499SOL    HW232397   4.983   0.792   2.116
10500SOL     OW32398   5.747   1.331   5.496
10500SOL    HW132399   5.668   1.348   5.437
10500SOL    HW232400   5.721   1.344   5.592
10501SOL     OW32401   2.390   5.010   1.884
10501SOL    HW132402   2.314   5.071   1.905
10501SOL    HW232403   2.409   4.952   1.963
10502SOL     OW32404   2.859   3.085   1.242
10502SOL    HW132405   2.861   3.152   1.168
10502SOL    HW232406   2.775   3.031   1.235
10503SOL     OW32407   5.244   3.469   0.492
10503SOL    HW132408   5.197   3.476   0.580
10503SOL    HW232409   5.309   3.545   0.482
10504SOL     OW32410   6.936   3.147   5.347
10504SOL    HW132411   0.000   3.201   5.346
10504SOL    HW232412   6.948   3.068   5.407
10505SOL     OW32413   6.035   5.138   1.244
10505SOL    HW132414   6.004   5.162   1.337
10505SOL    HW232415   5.958   5.103   1.191
10506SOL     OW32416   1.011   3.940   0.142
10506SOL    HW132417   0.932   3.913   0.197
10506SOL    HW232418   0.981   3.961   0.049
10507SOL     OW32419   2.387   5.401   0.599
10507SOL    HW132420   2.345   5.386   0.509
10507SOL    HW232421   2.316   5.422   0.666
10508SOL     OW32422   0.012   5.536   4.949
10508SOL    HW132423   0.027   5.442   4.917
10508SOL    HW232424   0.097   5.588   4.941
10509SOL     OW32425   6.725   5.320   5.247
10509SOL    HW132426   6.705   5.251   5.316
10509SOL    HW232427   6.756   5.404   5.291
10510SOL     OW32428   4.698   6.601   0.301
10510SOL    HW132429   4.727   6.694   0.280
10510SOL    HW232430   4.607   6.584   0.262
10511SOL     OW32431   3.156   1.155   2.249
10511SOL    HW132432   3.083   1.224   2.241
10511SOL    HW232433   3.245   1.200   2.243
10512SOL     OW32434   3.624   0.683   6.208
10512SOL    HW132435   3.549   0.732   6.253
10512SOL    HW232436   3.615   0.692   6.109
10513SOL     OW32437   6.737   3.093   3.079
10513SOL    HW132438   6.755   3.188   3.053
10513SOL    HW232439   6.662   3.090   3.145
10514SOL     OW32440   0.647   2.709   1.320
10514SOL    HW132441   0.672   2.805   1.311
10514SOL    HW232442   0.572   2.700   1.386
10515SOL     OW32443   1.533   3.761   4.843
10515SOL    HW132444   1.597   3.696   4.802
10515SOL    HW232445   1.558   3.854   4.815
10516SOL     OW32446   2.784   1.649   0.385
10516SOL    HW132447   2.826   1.564   0.416
10516SOL    HW232448   2.777   1.713   0.462
10517SOL     OW32449   0.923   3.618   1.426
10517SOL    HW132450   0.947   3.523   1.408
10517SOL    HW232451   0.977   3.652   1.503
10518SOL     OW32452   6.995   6.294   1.568
10518SOL    HW132453   7.014   6.389   1.542
10518SOL    HW232454   0.043   6.234   1.525
10519SOL     OW32455   3.059   3.618   0.922
10519SOL    HW132456   3.061   3.655   0.829
10519SOL    HW232457   2.982   3.556   0.932
10520SOL     OW32458   0.464   2.743   5.836
10520SOL    HW132459   0.413   2.679   5.893
10520SOL    HW232460   0.505   2.814   5.894
10521SOL     OW32461   6.981   5.361   1.161
10521SOL    HW132462   6.886   5.337   1.179
10521SOL    HW232463   0.011   5.371   1.247
10522SOL     OW32464   0.110   2.096   4.333
10522SOL    HW132465   0.059   2.049   4.260
10522SOL    HW232466   0.050   2.109   4.412
10523SOL     OW32467   0.745   5.047   2.931
10523SOL    HW132468   0.789   4.968   2.974
10523SOL    HW232469   0.779   5.057   2.837
10524SOL     OW32470   6.594   6.143   4.582
10524SOL    HW132471   6.537   6.185   4.512
10524SOL    HW232472   6.677   6.106   4.539
10525SOL     OW32473   3.397   0.818   4.895
10525SOL    HW132474   3.298   0.803   4.891
10525SOL    HW232475   3.420   0.867   4.979
10526SOL     OW32476   1.135   0.115   1.703
10526SOL    HW132477   1.059   0.076   1.653
10526SOL    HW232478   1.109   0.129   1.799
10527SOL     OW32479   1.272   0.947   5.429
10527SOL    HW132480   1.234   0.922   5.518
10527SOL    HW232481   1.367   0.917   5.423
10528SOL     OW32482   1.590   4.298   6.349
10528SOL    HW132483   1.630   4.259   6.432
10528SOL    HW232484   1.604   4.397   6.350
10529SOL     OW32485   2.310   6.102   4.465
10529SOL    HW132486   2.323   6.166   4.389
10529SOL    HW232487   2.285   6.154   4.548
10530SOL     OW32488   1.247   6.733   6.079
10530SOL    HW132489   1.152   6.766   6.077
10530SOL    HW232490   1.303   6.792   6.136
10531SOL     OW32491   1.841   2.376   4.474
10531SOL    HW132492   1.941   2.371   4.473
10531SOL    HW232493   1.803   2.284   4.480
10532SOL     OW32494   0.538   6.645   6.545
10532SOL    HW132495   0.532   6.744   6.535
10532SOL    HW232496   0.447   6.605   6.539
10533SOL     OW32497   2.930   6.305   3.402
10533SOL    HW132498   2.906   6.267   3.313
10533SOL    HW232499   2.952   6.232   3.466
10534SOL     OW32500   6.221   4.988   2.168
10534SOL    HW132501   6.244   5.057   2.100
10534SOL    HW232502   6.292   4.985   2.238
10535SOL     OW32503   2.218   1.564   2.433
10535SOL    HW132504   2.197   1.651   2.387
10535SOL    HW232505   2.266   1.582   2.518
10536SOL     OW32506   4.574   0.962   4.342
10536SOL    HW132507   4.600   1.025   4.269
10536SOL    HW232508   4.489   0.994   4.385
10537SOL     OW32509   4.529   6.528   4.172
10537SOL    HW132510   4.476   6.528   4.087
10537SOL    HW232511   4.610   6.471   4.160
10538SOL     OW32512   6.865   3.372   0.391
10538SOL    HW132513   6.792   3.305   0.406
10538SOL    HW232514   6.838   3.435   0.318
10539SOL     OW32515   6.390   5.522   1.078
10539SOL    HW132516   6.483   5.525   1.114
10539SOL    HW232517   6.378   5.594   1.010
10540SOL     OW32518   1.791   2.893   5.488
10540SOL    HW132519   1.817   2.859   5.578
10540SOL    HW232520   1.779   2.993   5.493
10541SOL     OW32521   3.982   3.929   2.346
10541SOL    HW132522   4.055   3.992   2.371
10541SOL    HW232523   4.003   3.838   2.383
10542SOL     OW32524   6.848   1.010   5.366
10542SOL    HW132525   6.751   0.993   5.349
10542SOL    HW232526   6.890   1.048   5.283
10543SOL     OW32527   1.004   2.146   4.164
10543SOL    HW132528   0.966   2.099   4.243
10543SOL    HW232529   1.071   2.213   4.194
10544SOL     OW32530   2.642   6.456   1.984
10544SOL    HW132531   2.635   6.378   1.922
10544SOL    HW232532   2.733   6.458   2.025
10545SOL     OW32533   1.068   2.459   1.398
10545SOL    HW132534   1.163   2.486   1.412
10545SOL    HW232535   1.036   2.493   1.310
10546SOL     OW32536   2.989   6.259   0.414
10546SOL    HW132537   2.953   6.223   0.328
10546SOL    HW232538   3.075   6.212   0.436
10547SOL     OW32539   5.265   3.382   3.332
10547SOL    HW132540   5.311   3.304   3.290
10547SOL    HW232541   5.212   3.431   3.264
10548SOL     OW32542   0.162   4.360   4.229
10548SOL    HW132543   0.247   4.356   4.281
10548SOL    HW232544   0.090   4.401   4.285
10549SOL     OW32545   0.717   1.447   0.946
10549SOL    HW132546   0.641   1.398   0.904
10549SOL    HW232547   0.801   1.429   0.894
10550SOL     OW32548   4.721   6.468   3.880
10550SOL    HW132549   4.765   6.500   3.797
10550SOL    HW232550   4.785   6.473   3.957
10551SOL     OW32551   1.902   2.132   6.810
10551SOL    HW132552   1.935   2.039   6.792
10551SOL    HW232553   1.981   2.193   6.823
10552SOL     OW32554   2.052   0.694   5.620
10552SOL    HW132555   1.999   0.696   5.536
10552SOL    HW232556   2.066   0.787   5.653
10553SOL     OW32557   0.623   4.769   1.377
10553SOL    HW132558   0.535   4.722   1.369
10553SOL    HW232559   0.691   4.706   1.415
10554SOL     OW32560   5.026   5.207   1.377
10554SOL    HW132561   5.029   5.155   1.292
10554SOL    HW232562   4.944   5.184   1.429
10555SOL     OW32563   2.430   2.720   0.564
10555SOL    HW132564   2.487   2.639   0.557
10555SOL    HW232565   2.341   2.696   0.602
10556SOL     OW32566   1.328   1.085   3.854
10556SOL    HW132567   1.233   1.116   3.865
10556SOL    HW232568   1.383   1.118   3.930
10557SOL     OW32569   2.171   2.935   3.592
10557SOL    HW132570   2.249   2.885   3.556
10557SOL    HW232571   2.101   2.871   3.622
10558SOL     OW32572   3.744   5.820   5.732
10558SOL    HW132573   3.796   5.764   5.668
10558SOL    HW232574   3.647   5.796   5.726
10559SOL     OW32575   4.086   0.850   1.677
10559SOL    HW132576   4.051   0.937   1.712
10559SOL    HW232577   4.144   0.807   1.746
10560SOL     OW32578   4.551   0.072   2.910
10560SOL    HW132579   4.543   0.141   2.838
10560SOL    HW232580   4.530   0.114   2.999
10561SOL     OW32581   3.627   4.343   1.719
10561SOL    HW132582   3.545   4.309   1.765
10561SOL    HW232583   3.626   4.443   1.720
10562SOL     OW32584   4.466   5.188   0.080
10562SOL    HW132585   4.379   5.139   0.088
10562SOL    HW232586   4.448   5.283   0.052
10563SOL     OW32587   0.470   0.981   2.292
10563SOL    HW132588   0.512   1.071   2.307
10563SOL    HW232589   0.417   0.983   2.208
10564SOL     OW32590   5.636   6.669   3.662
10564SOL    HW132591   5.687   6.736   3.715
10564SOL    HW232592   5.574   6.619   3.722
10565SOL     OW32593   6.807   6.654   5.660
10565SOL    HW132594   6.803   6.555   5.673
10565SOL    HW232595   6.767   6.677   5.571
10566SOL     OW32596   3.648   1.599   6.621
10566SOL    HW132597   3.723   1.639   6.567
10566SOL    HW232598   3.677   1.511   6.657
10567SOL     OW32599   2.137   2.545   5.330
10567SOL    HW132600   2.126   2.596   5.415
10567SOL    HW232601   2.102   2.452   5.343
10568SOL     OW32602   6.589   3.295   0.754
10568SOL    HW132603   6.570   3.212   0.806
10568SOL    HW232604   6.646   3.272   0.675
10569SOL     OW32605   6.167   0.816   2.455
10569SOL    HW132606   6.114   0.735   2.430
10569SOL    HW232607   6.107   0.895   2.460
10570SOL     OW32608   1.674   4.830   3.774
10570SOL    HW132609   1.757   4.867   3.815
10570SOL    HW232610   1.693   4.739   3.738
10571SOL     OW32611   0.378   4.591   5.070
10571SOL    HW132612   0.352   4.629   4.981
10571SOL    HW232613   0.340   4.498   5.078
10572SOL     OW32614   6.987   4.386   2.671
10572SOL    HW132615   6.919   4.321   2.640
10572SOL    HW232616   0.042   4.390   2.605
10573SOL     OW32617   5.330   0.943   4.797
10573SOL    HW132618   5.308   1.006   4.871
10573SOL    HW232619   5.282   0.971   4.714
10574SOL     OW32620   0.861   1.406   4.127
10574SOL    HW132621   0.872   1.486   4.067
10574SOL    HW232622   0.836   1.326   4.072
10575SOL     OW32623   0.222   0.727   3.952
10575SOL    HW132624   0.268   0.732   3.863
10575SOL    HW232625   0.192   0.633   3.969
10576SOL     OW32626   0.817   6.039   4.379
10576SOL    HW132627   0.727   5.999   4.398
10576SOL    HW232628   0.855   5.997   4.297
10577SOL     OW32629   1.723   4.553   0.505
10577SOL    HW132630   1.653   4.567   0.575
10577SOL    HW232631   1.753   4.458   0.506
10578SOL     OW32632   3.940   1.617   3.114
10578SOL    HW132633   3.921   1.694   3.054
10578SOL    HW232634   3.964   1.650   3.205
10579SOL     OW32635   4.131   2.783   1.547
10579SOL    HW132636   4.100   2.779   1.452
10579SOL    HW232637   4.070   2.729   1.604
10580SOL     OW32638   6.570   6.578   6.446
10580SOL    HW132639   6.472   6.571   6.429
10580SOL    HW232640   6.614   6.490   6.429
10581SOL     OW32641   5.870   0.293   3.216
10581SOL    HW132642   5.849   0.195   3.221
10581SOL    HW232643   5.865   0.333   3.308
10582SOL     OW32644   4.609   4.657   6.081
10582SOL    HW132645   4.548   4.614   6.148
10582SOL    HW232646   4.703   4.651   6.114
10583SOL     OW32647   4.491   0.938   4.014
10583SOL    HW132648   4.553   0.861   3.999
10583SOL    HW232649   4.542   1.013   4.057
10584SOL     OW32650   6.606   0.239   0.248
10584SOL    HW132651   6.508   0.234   0.263
10584SOL    HW232652   6.626   0.306   0.176
10585SOL     OW32653   2.890   1.854   5.202
10585SOL    HW132654   2.927   1.937   5.161
10585SOL    HW232655   2.801   1.833   5.162
10586SOL     OW32656   5.187   4.815   5.672
10586SOL    HW132657   5.193   4.876   5.592
10586SOL    HW232658   5.145   4.729   5.644
10587SOL     OW32659   6.937   5.264   6.805
10587SOL    HW132660   6.891   5.324   6.739
10587SOL    HW232661   6.888   5.269   6.893
10588SOL     OW32662   1.588   1.907   4.994
10588SOL    HW132663   1.564   1.859   4.910
10588SOL    HW232664   1.643   1.847   5.052
10589SOL     OW32665   5.683   1.212   4.415
10589SOL    HW132666   5.731   1.218   4.502
10589SOL    HW232667   5.749   1.214   4.340
10590SOL     OW32668   0.314   7.015   0.395
10590SOL    HW132669   0.217   7.006   0.370
10590SOL    HW232670   0.327   0.080   0.446
10591SOL     OW32671   2.089   2.331   6.920
10591SOL    HW132672   2.100   2.286   7.009
10591SOL    HW232673   2.178   2.341   6.877
10592SOL     OW32674   5.621   3.432   3.598
10592SOL    HW132675   5.653   3.515   3.553
10592SOL    HW232676   5.693   3.362   3.595
10593SOL     OW32677   3.092   5.974   1.079
10593SOL    HW132678   3.023   6.024   1.027
10593SOL    HW232679   3.173   6.031   1.090
10594SOL     OW32680   4.889   1.721   2.315
10594SOL    HW132681   4.849   1.800   2.362
10594SOL    HW232682   4.829   1.642   2.326
10595SOL     OW32683   5.731   6.907   0.111
10595SOL    HW132684   5.802   6.977   0.100
10595SOL    HW232685   5.711   6.893   0.208
10596SOL     OW32686   3.917   0.872   0.277
10596SOL    HW132687   3.818   0.857   0.279
10596SOL    HW232688   3.940   0.932   0.200
10597SOL     OW32689   3.486   1.192   5.673
10597SOL    HW132690   3.528   1.261   5.732
10597SOL    HW232691   3.394   1.222   5.647
10598SOL     OW32692   3.476   2.875   0.278
10598SOL    HW132693   3.446   2.856   0.185
10598SOL    HW232694   3.429   2.815   0.342
10599SOL     OW32695   5.249   3.248   6.689
10599SOL    HW132696   5.258   3.285   6.597
10599SOL    HW232697   5.178   3.299   6.738
10600SOL     OW32698   3.393   2.462   1.695
10600SOL    HW132699   3.342   2.388   1.737
10600SOL    HW232700   3.490   2.455   1.720
10601SOL     OW32701   1.313   4.502   5.739
10601SOL    HW132702   1.304   4.496   5.640
10601SOL    HW232703   1.341   4.413   5.775
10602SOL     OW32704   1.360   1.111   1.102
10602SOL    HW132705   1.425   1.174   1.058
10602SOL    HW232706   1.296   1.164   1.157
10603SOL     OW32707   4.178   6.964   3.553
10603SOL    HW132708   4.209   6.870   3.537
10603SOL    HW232709   4.078   6.967   3.552
10604SOL     OW32710   6.294   5.009   5.225
10604SOL    HW132711   6.224   5.052   5.169
10604SOL    HW232712   6.382   5.014   5.178
10605SOL     OW32713   2.203   6.225   0.011
10605SOL    HW132714   2.272   6.235   6.959
10605SOL    HW232715   2.139   6.152   7.006
10606SOL     OW32716   0.142   0.806   0.706
10606SOL    HW132717   0.092   0.781   0.623
10606SOL    HW232718   0.221   0.862   0.682
10607SOL     OW32719   4.193   4.663   6.597
10607SOL    HW132720   4.285   4.668   6.559
10607SOL    HW232721   4.144   4.748   6.579
10608SOL     OW32722   0.049   4.270   3.987
10608SOL    HW132723   0.096   4.304   4.069
10608SOL    HW232724   6.971   4.275   4.000
10609SOL     OW32725   2.972   6.963   6.925
10609SOL    HW132726   2.919   6.947   7.008
10609SOL    HW232727   3.045   6.894   6.918
10610SOL     OW32728   0.583   2.260   4.117
10610SOL    HW132729   0.502   2.277   4.172
10610SOL    HW232730   0.556   2.223   4.028
10611SOL     OW32731   2.741   4.271   6.485
10611SOL    HW132732   2.760   4.360   6.444
10611SOL    HW232733   2.826   4.219   6.492
10612SOL     OW32734   4.232   1.941   4.547
10612SOL    HW132735   4.328   1.919   4.529
10612SOL    HW232736   4.213   2.035   4.520
10613SOL     OW32737   5.834   5.866   5.853
10613SOL    HW132738   5.840   5.950   5.907
10613SOL    HW232739   5.756   5.873   5.789
10614SOL     OW32740   4.880   1.364   4.906
10614SOL    HW132741   4.932   1.415   4.837
10614SOL    HW232742   4.908   1.268   4.903
10615SOL     OW32743   3.463   0.692   6.446
10615SOL    HW132744   3.542   0.726   6.496
10615SOL    HW232745   3.477   0.596   6.423
10616SOL     OW32746   2.324   0.096   7.009
10616SOL    HW132747   2.371   0.031   0.050
10616SOL    HW232748   2.376   0.182   7.006
10617SOL     OW32749   3.235   4.051   1.161
10617SOL    HW132750   3.172   4.129   1.154
10617SOL    HW232751   3.188   3.969   1.128
10618SOL     OW32752   1.378   4.354   6.048
10618SOL    HW132753   1.440   4.426   6.078
10618SOL    HW232754   1.417   4.265   6.073
10619SOL     OW32755   0.071   2.760   3.565
10619SOL    HW132756   0.154   2.707   3.549
10619SOL    HW232757   0.008   2.748   3.489
10620SOL     OW32758   1.158   6.760   4.926
10620SOL    HW132759   1.104   6.785   4.845
10620SOL    HW232760   1.143   6.829   4.998
10621SOL     OW32761   1.061   5.010   1.393
10621SOL    HW132762   1.118   5.049   1.466
10621SOL    HW232763   1.040   4.915   1.415
10622SOL     OW32764   5.011   1.944   2.555
10622SOL    HW132765   5.044   2.022   2.502
10622SOL    HW232766   5.020   1.964   2.652
10623SOL     OW32767   6.914   5.176   5.936
10623SOL    HW132768   6.903   5.264   5.981
10623SOL    HW232769   6.905   5.188   5.837
10624SOL     OW32770   0.385   2.619   5.120
10624SOL    HW132771   0.460   2.606   5.055
10624SOL    HW232772   0.419   2.667   5.201
10625SOL     OW32773   0.777   4.567   1.444
10625SOL    HW132774   0.785   4.496   1.374
10625SOL    HW232775   0.780   4.524   1.535
10626SOL     OW32776   3.463   3.045   0.695
10626SOL    HW132777   3.466   3.118   0.763
10626SOL    HW232778   3.471   2.956   0.740
10627SOL     OW32779   5.679   1.571   0.045
10627SOL    HW132780   5.747   1.633   0.084
10627SOL    HW232781   5.710   1.540   6.976
10628SOL     OW32782   4.762   6.326   0.957
10628SOL    HW132783   4.848   6.318   1.008
10628SOL    HW232784   4.781   6.360   0.865
10629SOL     OW32785   2.596   5.209   4.822
10629SOL    HW132786   2.588   5.110   4.813
10629SOL    HW232787   2.692   5.236   4.818
10630SOL     OW32788   6.672   1.626   2.767
10630SOL    HW132789   6.609   1.625   2.689
10630SOL    HW232790   6.764   1.648   2.735
10631SOL     OW32791   3.919   4.848   5.166
10631SOL    HW132792   3.861   4.767   5.179
10631SOL    HW232793   3.922   4.900   5.251
10632SOL     OW32794   5.545   6.856   3.334
10632SOL    HW132795   5.561   6.765   3.371
10632SOL    HW232796   5.455   6.859   3.290
10633SOL     OW32797   2.717   2.555   1.530
10633SOL    HW132798   2.739   2.632   1.472
10633SOL    HW232799   2.787   2.484   1.521
10634SOL     OW32800   2.201   4.204   0.421
10634SOL    HW132801   2.147   4.198   0.505
10634SOL    HW232802   2.278   4.267   0.435
10635SOL     OW32803   1.981   3.951   6.590
10635SOL    HW132804   2.056   3.895   6.626
10635SOL    HW232805   1.968   3.930   6.493
10636SOL     OW32806   0.362   2.332   0.926
10636SOL    HW132807   0.345   2.394   1.003
10636SOL    HW232808   0.453   2.350   0.889
10637SOL     OW32809   0.976   4.660   6.094
10637SOL    HW132810   1.027   4.671   6.009
10637SOL    HW232811   0.950   4.749   6.130
10638SOL     OW32812   5.695   5.924   2.781
10638SOL    HW132813   5.662   6.009   2.739
10638SOL    HW232814   5.695   5.851   2.712
10639SOL     OW32815   0.945   3.925   3.227
10639SOL    HW132816   0.962   4.004   3.287
10639SOL    HW232817   1.021   3.861   3.234
10640SOL     OW32818   5.132   6.943   4.020
10640SOL    HW132819   5.107   0.007   4.067
10640SOL    HW232820   5.155   6.872   4.087
10641SOL     OW32821   2.552   2.023   2.559
10641SOL    HW132822   2.544   2.000   2.462
10641SOL    HW232823   2.570   1.940   2.612
10642SOL     OW32824   6.319   1.871   0.596
10642SOL    HW132825   6.383   1.830   0.660
10642SOL    HW232826   6.229   1.827   0.607
10643SOL     OW32827   2.127   5.782   4.810
10643SOL    HW132828   2.101   5.823   4.723
10643SOL    HW232829   2.053   5.722   4.842
10644SOL     OW32830   5.842   2.698   1.289
10644SOL    HW132831   5.773   2.765   1.316
10644SOL    HW232832   5.802   2.632   1.226
10645SOL     OW32833   1.613   2.758   4.599
10645SOL    HW132834   1.661   2.676   4.629
10645SOL    HW232835   1.532   2.732   4.547
10646SOL     OW32836   0.233   6.730   5.576
10646SOL    HW132837   0.198   6.637   5.584
10646SOL    HW232838   0.333   6.728   5.578
10647SOL     OW32839   2.962   5.622   4.949
10647SOL    HW132840   2.930   5.715   4.929
10647SOL    HW232841   2.931   5.560   4.877
10648SOL     OW32842   5.774   4.569   6.286
10648SOL    HW132843   5.720   4.641   6.241
10648SOL    HW232844   5.848   4.611   6.339
10649SOL     OW32845   0.872   4.478   3.133
10649SOL    HW132846   0.780   4.439   3.131
10649SOL    HW232847   0.887   4.531   3.050
10650SOL     OW32848   0.746   0.191   3.801
10650SOL    HW132849   0.801   0.112   3.774
10650SOL    HW232850   0.669   0.200   3.738
10651SOL     OW32851   5.925   6.426   0.018
10651SOL    HW132852   5.862   6.454   0.091
10651SOL    HW232853   5.873   6.404   6.956
10652SOL     OW32854   3.343   6.603   5.965
10652SOL    HW132855   3.354   6.505   5.983
10652SOL    HW232856   3.433   6.644   5.950
10653SOL     OW32857   4.631   5.819   4.468
10653SOL    HW132858   4.641   5.721   4.452
10653SOL    HW232859   4.691   5.847   4.543
10654SOL     OW32860   4.966   0.580   6.962
10654SOL    HW132861   5.014   0.648   6.906
10654SOL    HW232862   4.885   0.547   6.913
10655SOL     OW32863   2.555   5.239   0.468
10655SOL    HW132864   2.505   5.296   0.533
10655SOL    HW232865   2.491   5.183   0.416
10656SOL     OW32866   0.261   1.947   2.670
10656SOL    HW132867   0.323   1.920   2.596
10656SOL    HW232868   0.171   1.906   2.655
10657SOL     OW32869   5.504   0.557   5.313
10657SOL    HW132870   5.438   0.607   5.370
10657SOL    HW232871   5.458   0.480   5.268
10658SOL     OW32872   6.687   4.995   4.592
10658SOL    HW132873   6.747   4.936   4.645
10658SOL    HW232874   6.714   4.994   4.496
10659SOL     OW32875   0.375   5.644   1.448
10659SOL    HW132876   0.321   5.662   1.366
10659SOL    HW232877   0.440   5.718   1.462
10660SOL     OW32878   5.010   3.921   6.181
10660SOL    HW132879   4.934   3.910   6.246
10660SOL    HW232880   5.032   4.018   6.172
10661SOL     OW32881   1.488   6.890   1.511
10661SOL    HW132882   1.462   6.975   1.558
10661SOL    HW232883   1.414   6.824   1.519
10662SOL     OW32884   5.259   0.768   2.292
10662SOL    HW132885   5.167   0.751   2.256
10662SOL    HW232886   5.299   0.847   2.245
10663SOL     OW32887   0.515   2.146   2.656
10663SOL    HW132888   0.594   2.119   2.711
10663SOL    HW232889   0.432   2.141   2.712
10664SOL     OW32890   5.952   3.853   5.295
10664SOL    HW132891   5.885   3.794   5.250
10664SOL    HW232892   5.927   3.864   5.392
10665SOL     OW32893   0.781   1.668   0.224
10665SOL    HW132894   0.779   1.745   0.161
10665SOL    HW232895   0.845   1.599   0.190
10666SOL     OW32896   3.668   3.565   1.881
10666SOL    HW132897   3.708   3.585   1.970
10666SOL    HW232898   3.609   3.484   1.889
10667SOL     OW32899   4.739   2.630   4.276
10667SOL    HW132900   4.834   2.638   4.305
10667SOL    HW232901   4.725   2.541   4.232
10668SOL     OW32902   2.536   0.582   5.370
10668SOL    HW132903   2.618   0.607   5.320
10668SOL    HW232904   2.457   0.627   5.328
10669SOL     OW32905   5.280   0.345   1.949
10669SOL    HW132906   5.293   0.432   1.997
10669SOL    HW232907   5.184   0.336   1.922
10670SOL     OW32908   5.730   4.704   5.222
10670SOL    HW132909   5.668   4.769   5.266
10670SOL    HW232910   5.751   4.631   5.287
10671SOL     OW32911   2.077   1.917   3.706
10671SOL    HW132912   2.158   1.860   3.695
10671SOL    HW232913   2.086   2.000   3.651
10672SOL     OW32914   6.680   3.952   1.138
10672SOL    HW132915   6.594   3.995   1.109
10672SOL    HW232916   6.731   4.016   1.196
10673SOL     OW32917   0.887   0.584   6.687
10673SOL    HW132918   0.849   0.664   6.641
10673SOL    HW232919   0.813   0.530   6.727
10674SOL     OW32920   3.699   4.025   2.378
10674SOL    HW132921   3.641   4.047   2.300
10674SOL    HW232922   3.795   4.020   2.349
10675SOL     OW32923   2.072   6.592   6.803
10675SOL    HW132924   2.050   6.533   6.881
10675SOL    HW232925   2.120   6.673   6.835
10676SOL     OW32926   6.175   5.597   5.657
10676SOL    HW132927   6.231   5.613   5.576
10676SOL    HW232928   6.083   5.632   5.642
10677SOL     OW32929   1.675   0.690   1.374
10677SOL    HW132930   1.734   0.701   1.453
10677SOL    HW232931   1.593   0.639   1.400
10678SOL     OW32932   4.470   5.443   4.147
10678SOL    HW132933   4.464   5.387   4.064
10678SOL    HW232934   4.407   5.408   4.216
10679SOL     OW32935   4.689   5.478   6.556
10679SOL    HW132936   4.782   5.440   6.556
10679SOL    HW232937   4.625   5.408   6.585
10680SOL     OW32938   3.598   1.488   4.284
10680SOL    HW132939   3.577   1.416   4.218
10680SOL    HW232940   3.647   1.563   4.237
10681SOL     OW32941   0.696   3.780   0.951
10681SOL    HW132942   0.689   3.684   0.977
10681SOL    HW232943   0.790   3.812   0.966
10682SOL     OW32944   0.775   1.394   5.746
10682SOL    HW132945   0.842   1.464   5.719
10682SOL    HW232946   0.794   1.365   5.840
10683SOL     OW32947   3.609   2.151   4.094
10683SOL    HW132948   3.658   2.152   4.007
10683SOL    HW232949   3.651   2.083   4.155
10684SOL     OW32950   5.219   4.853   3.166
10684SOL    HW132951   5.137   4.810   3.127
10684SOL    HW232952   5.223   4.948   3.135
10685SOL     OW32953   0.675   5.901   1.992
10685SOL    HW132954   0.766   5.876   1.959
10685SOL    HW232955   0.675   5.905   2.092
10686SOL     OW32956   0.463   4.376   6.080
10686SOL    HW132957   0.535   4.439   6.052
10686SOL    HW232958   0.424   4.331   5.999
10687SOL     OW32959   5.484   5.942   3.228
10687SOL    HW132960   5.541   5.864   3.201
10687SOL    HW232961   5.542   6.010   3.273
10688SOL     OW32962   6.537   3.730   2.190
10688SOL    HW132963   6.505   3.763   2.279
10688SOL    HW232964   6.629   3.694   2.199
10689SOL     OW32965   6.781   5.817   3.492
10689SOL    HW132966   6.760   5.914   3.480
10689SOL    HW232967   6.760   5.768   3.407
10690SOL     OW32968   6.575   5.900   4.064
10690SOL    HW132969   6.617   5.812   4.081
10690SOL    HW232970   6.536   5.935   4.150
10691SOL     OW32971   0.829   2.577   1.997
10691SOL    HW132972   0.767   2.500   1.982
10691SOL    HW232973   0.857   2.579   2.093
10692SOL     OW32974   3.059   5.973   3.349
10692SOL    HW132975   3.107   5.885   3.354
10692SOL    HW232976   3.121   6.043   3.315
10693SOL     OW32977   2.161   5.968   0.372
10693SOL    HW132978   2.194   5.882   0.412
10693SOL    HW232979   2.116   6.023   0.442
10694SOL     OW32980   5.217   6.671   1.698
10694SOL    HW132981   5.247   6.663   1.603
10694SOL    HW232982   5.192   6.580   1.732
10695SOL     OW32983   0.078   2.504   2.436
10695SOL    HW132984   0.167   2.546   2.417
10695SOL    HW232985   0.045   2.536   2.525
10696SOL     OW32986   0.596   4.138   3.543
10696SOL    HW132987   0.662   4.194   3.594
10696SOL    HW232988   0.634   4.114   3.454
10697SOL     OW32989   6.660   5.692   5.432
10697SOL    HW132990   6.609   5.636   5.367
10697SOL    HW232991   6.740   5.732   5.387
10698SOL     OW32992   5.141   4.736   6.278
10698SOL    HW132993   5.097   4.664   6.224
10698SOL    HW232994   5.240   4.732   6.265
10699SOL     OW32995   4.134   3.631   2.140
10699SOL    HW132996   4.175   3.651   2.051
10699SOL    HW232997   4.131   3.714   2.195
10700SOL     OW32998   6.942   6.814   1.049
10700SOL    HW132999   6.855   6.801   1.097
10700SOL    HW233000   6.957   6.738   0.986
10701SOL     OW33001   3.541   6.088   0.263
10701SOL    HW133002   3.492   6.137   0.190
10701SOL    HW233003   3.477   6.031   0.314
10702SOL     OW33004   5.922   2.677   1.543
10702SOL    HW133005   5.843   2.672   1.604
10702SOL    HW233006   5.893   2.662   1.449
10703SOL     OW33007   2.973   3.286   4.888
10703SOL    HW133008   3.022   3.211   4.933
10703SOL    HW233009   2.918   3.334   4.956
10704SOL     OW33010   6.249   5.843   2.065
10704SOL    HW133011   6.251   5.858   2.164
10704SOL    HW233012   6.244   5.931   2.018
10705SOL     OW33013   6.089   4.420   2.006
10705SOL    HW133014   6.017   4.396   2.071
10705SOL    HW233015   6.050   4.430   1.914
10706SOL     OW33016   4.918   6.768   1.983
10706SOL    HW133017   4.918   6.670   1.964
10706SOL    HW233018   4.873   6.816   1.907
10707SOL     OW33019   0.237   6.529   4.185
10707SOL    HW133020   0.276   6.445   4.149
10707SOL    HW233021   0.140   6.515   4.206
10708SOL     OW33022   3.823   0.690   2.475
10708SOL    HW133023   3.777   0.684   2.386
10708SOL    HW233024   3.760   0.660   2.547
10709SOL     OW33025   5.820   6.130   5.387
10709SOL    HW133026   5.880   6.101   5.461
10709SOL    HW233027   5.837   6.226   5.366
10710SOL     OW33028   7.009   6.732   4.779
10710SOL    HW133029   6.911   6.713   4.785
10710SOL    HW233030   0.038   6.646   4.763
10711SOL     OW33031   1.895   5.851   4.099
10711SOL    HW133032   1.799   5.822   4.105
10711SOL    HW233033   1.911   5.927   4.162
10712SOL     OW33034   2.998   1.163   1.529
10712SOL    HW133035   2.918   1.162   1.469
10712SOL    HW233036   3.035   1.070   1.536
10713SOL     OW33037   0.766   3.355   1.573
10713SOL    HW133038   0.717   3.442   1.568
10713SOL    HW233039   0.845   3.358   1.511
10714SOL     OW33040   6.149   4.402   5.116
10714SOL    HW133041   6.100   4.489   5.106
10714SOL    HW233042   6.114   4.354   5.197
10715SOL     OW33043   5.539   0.500   2.667
10715SOL    HW133044   5.585   0.573   2.717
10715SOL    HW233045   5.549   0.516   2.568
10716SOL     OW33046   5.682   2.598   4.239
10716SOL    HW133047   5.629   2.515   4.223
10716SOL    HW233048   5.727   2.591   4.328
10717SOL     OW33049   0.987   2.597   0.784
10717SOL    HW133050   0.909   2.633   0.836
10717SOL    HW233051   1.066   2.657   0.795
10718SOL     OW33052   0.772   2.721   6.467
10718SOL    HW133053   0.762   2.786   6.542
10718SOL    HW233054   0.867   2.692   6.460
10719SOL     OW33055   5.869   6.005   1.652
10719SOL    HW133056   5.961   6.037   1.675
10719SOL    HW233057   5.804   6.081   1.658
10720SOL     OW33058   0.093   4.191   4.879
10720SOL    HW133059   7.014   4.194   4.866
10720SOL    HW233060   0.119   4.101   4.914
10721SOL     OW33061   5.708   3.908   4.929
10721SOL    HW133062   5.714   3.809   4.941
10721SOL    HW233063   5.615   3.938   4.952
10722SOL     OW33064   1.305   4.663   0.990
10722SOL    HW133065   1.353   4.737   0.944
10722SOL    HW233066   1.241   4.620   0.926
10723SOL     OW33067   0.809   3.990   6.373
10723SOL    HW133068   0.882   3.964   6.437
10723SOL    HW233069   0.807   4.090   6.365
10724SOL     OW33070   5.596   1.204   6.835
10724SOL    HW133071   5.691   1.179   6.856
10724SOL    HW233072   5.595   1.290   6.784
10725SOL     OW33073   1.028   4.645   4.963
10725SOL    HW133074   0.963   4.649   4.887
10725SOL    HW233075   1.000   4.573   5.027
10726SOL     OW33076   5.231   0.517   5.617
10726SOL    HW133077   5.275   0.579   5.553
10726SOL    HW233078   5.137   0.500   5.587
10727SOL     OW33079   0.152   4.836   4.608
10727SOL    HW133080   0.056   4.861   4.613
10727SOL    HW233081   0.163   4.754   4.551
10728SOL     OW33082   6.696   6.397   0.345
10728SOL    HW133083   6.680   6.460   0.421
10728SOL    HW233084   6.789   6.411   0.310
10729SOL     OW33085   5.822   1.250   2.218
10729SOL    HW133086   5.782   1.207   2.137
10729SOL    HW233087   5.826   1.183   2.293
10730SOL     OW33088   2.159   6.868   2.184
10730SOL    HW133089   2.068   6.859   2.144
10730SOL    HW233090   2.213   6.787   2.161
10731SOL     OW33091   3.217   6.099   0.738
10731SOL    HW133092   3.140   6.107   0.802
10731SOL    HW233093   3.197   6.151   0.656
10732SOL     OW33094   5.092   4.736   3.574
10732SOL    HW133095   5.044   4.823   3.588
10732SOL    HW233096   5.186   4.755   3.545
10733SOL     OW33097   5.527   2.104   0.198
10733SOL    HW133098   5.622   2.119   0.223
10733SOL    HW233099   5.500   2.011   0.223
10734SOL     OW33100   1.179   0.217   6.316
10734SOL    HW133101   1.180   0.316   6.306
10734SOL    HW233102   1.271   0.185   6.340
10735SOL     OW33103   1.492   3.818   2.772
10735SOL    HW133104   1.415   3.844   2.829
10735SOL    HW233105   1.499   3.718   2.770
10736SOL     OW33106   0.892   0.170   3.414
10736SOL    HW133107   0.938   0.087   3.445
10736SOL    HW233108   0.918   0.189   3.319
10737SOL     OW33109   1.396   2.300   6.938
10737SOL    HW133110   1.334   2.231   6.975
10737SOL    HW233111   1.348   2.387   6.930
10738SOL     OW33112   2.492   0.451   3.839
10738SOL    HW133113   2.474   0.547   3.815
10738SOL    HW233114   2.556   0.448   3.916
10739SOL     OW33115   0.484   1.340   0.874
10739SOL    HW133116   0.411   1.283   0.910
10739SOL    HW233117   0.467   1.360   0.777
10740SOL     OW33118   0.439   4.618   5.469
10740SOL    HW133119   0.355   4.671   5.483
10740SOL    HW233120   0.451   4.600   5.371
10741SOL     OW33121   0.366   0.355   2.277
10741SOL    HW133122   0.401   0.443   2.243
10741SOL    HW233123   0.432   0.315   2.340
10742SOL     OW33124   5.766   0.294   1.894
10742SOL    HW133125   5.831   0.331   1.827
10742SOL    HW233126   5.784   0.336   1.983
10743SOL     OW33127   3.136   2.379   5.602
10743SOL    HW133128   3.155   2.476   5.619
10743SOL    HW233129   3.172   2.324   5.678
10744SOL     OW33130   3.022   0.709   2.149
10744SOL    HW133131   3.105   0.679   2.102
10744SOL    HW233132   3.009   0.807   2.133
10745SOL     OW33133   0.948   5.165   0.546
10745SOL    HW133134   0.860   5.161   0.593
10745SOL    HW233135   0.935   5.199   0.453
10746SOL     OW33136   1.976   3.710   1.337
10746SOL    HW133137   2.019   3.766   1.265
10746SOL    HW233138   1.951   3.769   1.414
10747SOL     OW33139   4.401   0.871   3.296
10747SOL    HW133140   4.458   0.825   3.228
10747SOL    HW233141   4.457   0.903   3.372
10748SOL     OW33142   3.533   0.763   1.635
10748SOL    HW133143   3.484   0.851   1.630
10748SOL    HW233144   3.468   0.689   1.647
10749SOL     OW33145   6.820   5.046   3.578
10749SOL    HW133146   6.864   5.032   3.667
10749SOL    HW233147   6.739   5.103   3.588
10750SOL     OW33148   4.581   6.044   4.277
10750SOL    HW133149   4.505   6.107   4.291
10750SOL    HW233150   4.550   5.950   4.295
10751SOL     OW33151   1.535   4.504   4.474
10751SOL    HW133152   1.571   4.437   4.409
10751SOL    HW233153   1.604   4.524   4.543
10752SOL     OW33154   6.018   4.102   6.389
10752SOL    HW133155   6.078   4.182   6.391
10752SOL    HW233156   6.030   4.054   6.302
10753SOL     OW33157   3.722   6.450   4.396
10753SOL    HW133158   3.653   6.417   4.461
10753SOL    HW233159   3.761   6.535   4.430
10754SOL     OW33160   1.260   1.741   3.513
10754SOL    HW133161   1.295   1.683   3.587
10754SOL    HW233162   1.221   1.684   3.442
10755SOL     OW33163   0.901   1.904   6.588
10755SOL    HW133164   0.856   1.840   6.650
10755SOL    HW233165   0.985   1.938   6.630
10756SOL     OW33166   6.658   4.054   0.291
10756SOL    HW133167   6.610   4.017   0.371
10756SOL    HW233168   6.756   4.056   0.310
10757SOL     OW33169   1.044   3.029   0.318
10757SOL    HW133170   1.125   3.070   0.276
10757SOL    HW233171   1.068   2.939   0.355
10758SOL     OW33172   0.797   6.579   5.163
10758SOL    HW133173   0.746   6.548   5.082
10758SOL    HW233174   0.821   6.500   5.219
10759SOL     OW33175   1.732   3.082   0.007
10759SOL    HW133176   1.787   3.113   0.084
10759SOL    HW233177   1.673   3.007   0.036
10760SOL     OW33178   6.027   1.638   1.006
10760SOL    HW133179   6.011   1.552   1.055
10760SOL    HW233180   6.089   1.622   0.929
10761SOL     OW33181   1.166   1.644   6.403
10761SOL    HW133182   1.134   1.556   6.368
10761SOL    HW233183   1.248   1.630   6.458
10762SOL     OW33184   3.887   2.153   5.096
10762SOL    HW133185   3.874   2.246   5.063
10762SOL    HW233186   3.960   2.108   5.044
10763SOL     OW33187   4.431   6.423   1.536
10763SOL    HW133188   4.384   6.510   1.555
10763SOL    HW233189   4.446   6.415   1.438
10764SOL     OW33190   5.536   2.163   6.176
10764SOL    HW133191   5.623   2.114   6.164
10764SOL    HW233192   5.493   2.134   6.261
10765SOL     OW33193   5.702   2.531   0.552
10765SOL    HW133194   5.718   2.464   0.624
10765SOL    HW233195   5.606   2.559   0.553
10766SOL     OW33196   4.495   2.946   1.054
10766SOL    HW133197   4.434   2.877   1.015
10766SOL    HW233198   4.572   2.962   0.992
10767SOL     OW33199   0.791   0.375   0.121
10767SOL    HW133200   0.799   0.417   0.031
10767SOL    HW233201   0.830   0.436   0.190
10768SOL     OW33202   4.434   4.463   0.687
10768SOL    HW133203   4.446   4.562   0.695
10768SOL    HW233204   4.415   4.439   0.592
10769SOL     OW33205   2.530   4.925   4.788
10769SOL    HW133206   2.551   4.901   4.693
10769SOL    HW233207   2.432   4.911   4.804
10770SOL     OW33208   5.357   0.364   5.203
10770SOL    HW133209   5.270   0.338   5.244
10770SOL    HW233210   5.421   0.287   5.207
10771SOL     OW33211   5.039   1.188   3.486
10771SOL    HW133212   4.964   1.211   3.424
10771SOL    HW233213   5.118   1.244   3.465
10772SOL     OW33214   7.015   6.910   4.967
10772SOL    HW133215   6.963   6.878   5.046
10772SOL    HW233216   7.018   6.837   4.898
10773SOL     OW33217   0.301   5.773   0.145
10773SOL    HW133218   0.327   5.694   0.200
10773SOL    HW233219   0.318   5.753   0.048
10774SOL     OW33220   1.626   1.203   6.204
10774SOL    HW133221   1.531   1.233   6.195
10774SOL    HW233222   1.680   1.238   6.127
10775SOL     OW33223   0.692   3.475   1.315
10775SOL    HW133224   0.638   3.495   1.397
10775SOL    HW233225   0.764   3.544   1.306
10776SOL     OW33226   1.321   6.574   6.689
10776SOL    HW133227   1.395   6.601   6.751
10776SOL    HW233228   1.261   6.509   6.736
10777SOL     OW33229   3.620   5.878   3.302
10777SOL    HW133230   3.559   5.801   3.281
10777SOL    HW233231   3.573   5.964   3.285
10778SOL     OW33232   5.477   6.672   4.954
10778SOL    HW133233   5.468   6.594   4.892
10778SOL    HW233234   5.400   6.735   4.939
10779SOL     OW33235   6.371   4.831   3.411
10779SOL    HW133236   6.422   4.847   3.496
10779SOL    HW233237   6.287   4.885   3.412
10780SOL     OW33238   1.592   0.245   3.852
10780SOL    HW133239   1.580   0.281   3.760
10780SOL    HW233240   1.633   0.154   3.847
10781SOL     OW33241   4.189   0.679   3.586
10781SOL    HW133242   4.262   0.615   3.563
10781SOL    HW233243   4.159   0.663   3.680
10782SOL     OW33244   6.379   2.150   2.661
10782SOL    HW133245   6.359   2.207   2.740
10782SOL    HW233246   6.392   2.208   2.581
10783SOL     OW33247   0.541   3.457   3.231
10783SOL    HW133248   0.509   3.529   3.170
10783SOL    HW233249   0.576   3.497   3.316
10784SOL     OW33250   3.199   1.058   4.085
10784SOL    HW133251   3.255   1.055   4.002
10784SOL    HW233252   3.169   0.965   4.108
10785SOL     OW33253   0.145   5.433   1.363
10785SOL    HW133254   0.121   5.362   1.430
10785SOL    HW233255   0.229   5.407   1.317
10786SOL     OW33256   5.115   5.137   2.807
10786SOL    HW133257   5.131   5.222   2.757
10786SOL    HW233258   5.037   5.090   2.767
10787SOL     OW33259   2.418   1.743   4.603
10787SOL    HW133260   2.430   1.657   4.653
10787SOL    HW233261   2.321   1.761   4.588
10788SOL     OW33262   2.326   5.450   6.486
10788SOL    HW133263   2.422   5.426   6.494
10788SOL    HW233264   2.286   5.406   6.406
10789SOL     OW33265   6.398   2.545   6.590
10789SOL    HW133266   6.465   2.616   6.612
10789SOL    HW233267   6.446   2.460   6.569
10790SOL     OW33268   1.612   1.253   2.244
10790SOL    HW133269   1.701   1.284   2.210
10790SOL    HW233270   1.565   1.203   2.172
10791SOL     OW33271   0.684   6.829   0.128
10791SOL    HW133272   0.604   6.865   0.176
10791SOL    HW233273   0.668   6.832   0.030
10792SOL     OW33274   3.211   3.513   3.250
10792SOL    HW133275   3.129   3.532   3.196
10792SOL    HW233276   3.217   3.578   3.325
10793SOL     OW33277   5.401   3.023   4.241
10793SOL    HW133278   5.331   3.075   4.191
10793SOL    HW233279   5.388   3.036   4.339
10794SOL     OW33280   3.025   3.962   3.707
10794SOL    HW133281   3.010   4.044   3.763
10794SOL    HW233282   2.953   3.895   3.726
10795SOL     OW33283   6.967   4.281   2.936
10795SOL    HW133284   6.955   4.321   2.845
10795SOL    HW233285   6.977   4.353   3.004
10796SOL     OW33286   5.571   6.763   0.728
10796SOL    HW133287   5.654   6.744   0.677
10796SOL    HW233288   5.580   6.850   0.777
10797SOL     OW33289   4.079   2.204   1.921
10797SOL    HW133290   4.026   2.249   1.849
10797SOL    HW233291   4.174   2.234   1.916
10798SOL     OW33292   3.060   6.521   0.365
10798SOL    HW133293   3.012   6.434   0.378
10798SOL    HW233294   3.134   6.509   0.299
10799SOL     OW33295   3.646   0.652   2.664
10799SOL    HW133296   3.623   0.640   2.760
10799SOL    HW233297   3.657   0.750   2.644
10800SOL     OW33298   0.647   6.398   6.689
10800SOL    HW133299   0.646   6.397   6.589
10800SOL    HW233300   0.684   6.485   6.721
10801SOL     OW33301   0.505   5.986   6.209
10801SOL    HW133302   0.524   5.892   6.183
10801SOL    HW233303   0.557   6.048   6.150
10802SOL     OW33304   0.758   2.432   3.316
10802SOL    HW133305   0.817   2.479   3.249
10802SOL    HW233306   0.815   2.377   3.377
10803SOL     OW33307   3.241   3.684   5.920
10803SOL    HW133308   3.222   3.730   5.834
10803SOL    HW233309   3.183   3.603   5.929
10804SOL     OW33310   6.117   3.782   1.728
10804SOL    HW133311   6.075   3.869   1.754
10804SOL    HW233312   6.145   3.732   1.810
10805SOL     OW33313   3.782   0.095   6.915
10805SOL    HW133314   3.776   0.175   6.855
10805SOL    HW233315   3.850   0.031   6.878
10806SOL     OW33316   4.613   3.635   6.428
10806SOL    HW133317   4.556   3.594   6.499
10806SOL    HW233318   4.709   3.612   6.445
10807SOL     OW33319   1.212   6.759   2.068
10807SOL    HW133320   1.221   6.660   2.071
10807SOL    HW233321   1.284   6.797   2.009
10808SOL     OW33322   6.478   3.023   6.277
10808SOL    HW133323   6.411   3.018   6.351
10808SOL    HW233324   6.432   3.039   6.190
10809SOL     OW33325   2.974   6.100   3.565
10809SOL    HW133326   3.004   6.036   3.494
10809SOL    HW233327   3.015   6.073   3.652
10810SOL     OW33328   1.867   0.563   5.022
10810SOL    HW133329   1.797   0.493   5.037
10810SOL    HW233330   1.878   0.578   4.924
10811SOL     OW33331   4.005   4.347   5.858
10811SOL    HW133332   3.964   4.429   5.900
10811SOL    HW233333   4.029   4.367   5.763
10812SOL     OW33334   1.008   3.357   1.416
10812SOL    HW133335   1.055   3.323   1.334
10812SOL    HW233336   1.068   3.349   1.495
10813SOL     OW33337   2.276   4.899   6.426
10813SOL    HW133338   2.287   4.944   6.338
10813SOL    HW233339   2.212   4.952   6.483
10814SOL     OW33340   1.627   6.822   6.402
10814SOL    HW133341   1.697   6.883   6.365
10814SOL    HW233342   1.549   6.819   6.340
10815SOL     OW33343   4.180   4.700   3.785
10815SOL    HW133344   4.260   4.728   3.732
10815SOL    HW233345   4.178   4.601   3.792
10816SOL     OW33346   2.659   2.950   1.091
10816SOL    HW133347   2.719   2.912   1.021
10816SOL    HW233348   2.573   2.897   1.093
10817SOL     OW33349   4.575   6.500   2.979
10817SOL    HW133350   4.486   6.514   3.022
10817SOL    HW233351   4.603   6.583   2.931
10818SOL     OW33352   4.161   4.642   5.402
10818SOL    HW133353   4.126   4.549   5.400
10818SOL    HW233354   4.099   4.700   5.455
10819SOL     OW33355   6.859   4.610   0.241
10819SOL    HW133356   6.860   4.685   0.175
10819SOL    HW233357   6.849   4.523   0.193
10820SOL     OW33358   6.051   5.819   4.163
10820SOL    HW133359   6.104   5.895   4.126
10820SOL    HW233360   5.960   5.819   4.120
10821SOL     OW33361   5.747   6.999   2.205
10821SOL    HW133362   5.751   0.056   2.268
10821SOL    HW233363   5.680   6.932   2.239
10822SOL     OW33364   6.764   2.881   2.882
10822SOL    HW133365   6.745   2.920   2.972
10822SOL    HW233366   6.863   2.881   2.866
10823SOL     OW33367   1.751   5.799   1.828
10823SOL    HW133368   1.719   5.862   1.899
10823SOL    HW233369   1.691   5.806   1.748
10824SOL     OW33370   6.844   0.634   3.710
10824SOL    HW133371   6.877   0.555   3.763
10824SOL    HW233372   6.755   0.611   3.669
10825SOL     OW33373   2.575   0.670   6.331
10825SOL    HW133374   2.488   0.686   6.377
10825SOL    HW233375   2.629   0.603   6.382
10826SOL     OW33376   1.405   2.636   3.535
10826SOL    HW133377   1.470   2.710   3.516
10826SOL    HW233378   1.447   2.548   3.516
10827SOL     OW33379   5.737   3.812   4.528
10827SOL    HW133380   5.818   3.863   4.500
10827SOL    HW233381   5.656   3.868   4.517
10828SOL     OW33382   0.815   5.847   1.667
10828SOL    HW133383   0.723   5.809   1.676
10828SOL    HW233384   0.810   5.947   1.666
10829SOL     OW33385   3.928   2.492   1.007
10829SOL    HW133386   3.834   2.517   1.029
10829SOL    HW233387   3.979   2.476   1.091
10830SOL     OW33388   5.726   2.128   2.993
10830SOL    HW133389   5.818   2.093   3.010
10830SOL    HW233390   5.660   2.053   3.000
10831SOL     OW33391   4.055   5.491   2.572
10831SOL    HW133392   4.056   5.391   2.578
10831SOL    HW233393   3.985   5.527   2.634
10832SOL     OW33394   1.285   2.834   0.205
10832SOL    HW133395   1.226   2.806   0.281
10832SOL    HW233396   1.240   2.813   0.118
10833SOL     OW33397   1.977   0.805   2.041
10833SOL    HW133398   1.953   0.709   2.029
10833SOL    HW233399   2.076   0.816   2.032
10834SOL     OW33400   0.837   2.308   6.351
10834SOL    HW133401   0.872   2.215   6.363
10834SOL    HW233402   0.826   2.327   6.254
10835SOL     OW33403   6.421   2.007   6.822
10835SOL    HW133404   6.439   2.101   6.793
10835SOL    HW233405   6.347   2.006   6.889
10836SOL     OW33406   6.740   1.790   4.808
10836SOL    HW133407   6.809   1.739   4.860
10836SOL    HW233408   6.700   1.730   4.739
10837SOL     OW33409   6.702   5.008   0.762
10837SOL    HW133410   6.605   4.984   0.759
10837SOL    HW233411   6.745   4.986   0.674
10838SOL     OW33412   4.902   6.307   4.888
10838SOL    HW133413   4.927   6.295   4.792
10838SOL    HW233414   4.983   6.338   4.940
10839SOL     OW33415   4.428   3.089   1.676
10839SOL    HW133416   4.481   3.090   1.591
10839SOL    HW233417   4.489   3.072   1.753
10840SOL     OW33418   3.128   5.653   2.342
10840SOL    HW133419   3.216   5.614   2.316
10840SOL    HW233420   3.062   5.579   2.355
10841SOL     OW33421   5.492   5.635   0.058
10841SOL    HW133422   5.571   5.664   0.003
10841SOL    HW233423   5.408   5.667   0.014
10842SOL     OW33424   4.682   2.492   1.659
10842SOL    HW133425   4.770   2.540   1.662
10842SOL    HW233426   4.608   2.558   1.645
10843SOL     OW33427   1.393   3.046   1.566
10843SOL    HW133428   1.352   3.034   1.657
10843SOL    HW233429   1.393   2.959   1.517
10844SOL     OW33430   0.176   6.898   3.817
10844SOL    HW133431   0.236   6.936   3.746
10844SOL    HW233432   0.179   6.957   3.898
10845SOL     OW33433   3.481   0.281   4.996
10845SOL    HW133434   3.437   0.337   4.926
10845SOL    HW233435   3.471   0.326   5.085
10846SOL     OW33436   4.831   1.545   0.675
10846SOL    HW133437   4.737   1.542   0.711
10846SOL    HW233438   4.887   1.603   0.735
10847SOL     OW33439   3.478   3.305   6.366
10847SOL    HW133440   3.448   3.210   6.373
10847SOL    HW233441   3.427   3.350   6.292
10848SOL     OW33442   3.084   3.329   6.927
10848SOL    HW133443   3.121   3.275   6.851
10848SOL    HW233444   2.989   3.301   6.944
10849SOL     OW33445   2.529   6.024   2.595
10849SOL    HW133446   2.450   5.968   2.622
10849SOL    HW233447   2.498   6.117   2.574
10850SOL     OW33448   3.380   4.435   6.556
10850SOL    HW133449   3.309   4.368   6.579
10850SOL    HW233450   3.398   4.432   6.458
10851SOL     OW33451   1.980   2.859   6.784
10851SOL    HW133452   1.899   2.911   6.759
10851SOL    HW233453   2.017   2.893   6.870
10852SOL     OW33454   1.374   0.221   6.838
10852SOL    HW133455   1.295   0.198   6.781
10852SOL    HW233456   1.443   0.267   6.781
10853SOL     OW33457   2.574   1.877   5.668
10853SOL    HW133458   2.557   1.962   5.718
10853SOL    HW233459   2.624   1.813   5.727
10854SOL     OW33460   4.337   5.482   5.381
10854SOL    HW133461   4.239   5.497   5.368
10854SOL    HW233462   4.383   5.485   5.293
10855SOL     OW33463   2.930   6.766   1.018
10855SOL    HW133464   2.915   6.785   0.921
10855SOL    HW233465   3.027   6.752   1.036
10856SOL     OW33466   5.828   1.867   0.818
10856SOL    HW133467   5.748   1.924   0.839
10856SOL    HW233468   5.896   1.876   0.891
10857SOL     OW33469   6.443   2.649   2.252
10857SOL    HW133470   6.472   2.681   2.162
10857SOL    HW233471   6.351   2.610   2.246
10858SOL     OW33472   0.502   2.130   6.001
10858SOL    HW133473   0.533   2.111   6.094
10858SOL    HW233474   0.581   2.147   5.942
10859SOL     OW33475   2.112   3.520   4.019
10859SOL    HW133476   2.160   3.432   4.027
10859SOL    HW233477   2.092   3.554   4.111
10860SOL     OW33478   6.680   1.688   5.845
10860SOL    HW133479   6.584   1.699   5.820
10860SOL    HW233480   6.738   1.714   5.769
10861SOL     OW33481   3.802   2.911   2.772
10861SOL    HW133482   3.709   2.875   2.765
10861SOL    HW233483   3.839   2.927   2.680
10862SOL     OW33484   2.185   1.870   6.187
10862SOL    HW133485   2.251   1.945   6.195
10862SOL    HW233486   2.225   1.796   6.133
10863SOL     OW33487   3.905   0.500   3.770
10863SOL    HW133488   3.945   0.565   3.835
10863SOL    HW233489   3.809   0.524   3.754
10864SOL     OW33490   3.269   4.951   0.679
10864SOL    HW133491   3.299   5.022   0.743
10864SOL    HW233492   3.239   4.994   0.594
10865SOL     OW33493   6.837   1.520   2.544
10865SOL    HW133494   6.817   1.423   2.529
10865SOL    HW233495   6.913   1.529   2.609
10866SOL     OW33496   5.537   4.993   0.009
10866SOL    HW133497   5.496   4.911   6.989
10866SOL    HW233498   5.588   5.042   6.958
10867SOL     OW33499   3.531   3.867   0.399
10867SOL    HW133500   3.558   3.777   0.434
10867SOL    HW233501   3.487   3.919   0.472
10868SOL     OW33502   3.238   2.155   3.643
10868SOL    HW133503   3.153   2.117   3.606
10868SOL    HW233504   3.218   2.204   3.728
10869NA      NA33505   0.169   2.120   5.665
10870NA      NA33506   4.345   4.658   5.231
10871NA      NA33507   1.830   3.978   2.492
10872NA      NA33508   4.935   4.043   3.882
10873NA      NA33509   4.318   2.417   5.263
10874NA      NA33510   3.195   4.855   1.790
10875NA      NA33511   0.168   4.609   0.601
10876NA      NA33512   3.388   3.326   3.247
10877NA      NA33513   5.039   5.395   1.202
10878NA      NA33514   3.625   6.234   5.489
10879NA      NA33515   6.084   5.507   1.800
10880NA      NA33516   2.201   1.083   4.672
10881NA      NA33517   3.823   5.108   1.827
10882NA      NA33518   3.871   3.254   1.540
   7.02018   7.02018   7.02018
