Generated by trjconv : CNT in water t= 250.00000
33518
    1C        C    1   2.841   2.767   4.744
    1C        C    2   2.897   2.719   4.864
    1C        C    3   2.838   2.766   4.982
    1C        C    4   2.843   2.768   4.255
    1C        C    5   2.896   2.723   4.378
    1C        C    6   2.843   2.770   4.501
    1C        C    7   3.010   2.638   4.625
    1C        C    8   2.892   2.716   4.622
    1C        C    9   3.076   2.602   4.744
    1C        C   10   3.008   2.631   4.865
    1C        C   11   3.176   2.485   4.969
    1C        C   12   3.055   2.556   4.974
    1C        C   13   2.842   2.764   3.770
    1C        C   14   2.893   2.712   3.892
    1C        C   15   2.843   2.768   4.011
    1C        C   16   3.015   2.643   4.137
    1C        C   17   2.899   2.724   4.133
    1C        C   18   3.079   2.616   4.260
    1C        C   19   3.016   2.649   4.382
    1C        C   20   3.208   2.558   4.502
    1C        C   21   3.075   2.608   4.503
    1C        C   22   3.279   2.539   4.623
    1C        C   23   3.206   2.547   4.744
    1C        C   24   3.412   2.481   4.866
    1C        C   25   3.270   2.497   4.862
    1C        C   26   3.491   2.483   4.982
    1C        C   27   2.844   2.759   3.280
    1C        C   28   2.900   2.719   3.403
    1C        C   29   2.844   2.764   3.525
    1C        C   30   3.013   2.638   3.649
    1C        C   31   2.899   2.721   3.648
    1C        C   32   3.074   2.601   3.771
    1C        C   33   3.008   2.631   3.893
    1C        C   34   3.203   2.547   4.015
    1C        C   35   3.073   2.601   4.015
    1C        C   36   3.273   2.532   4.137
    1C        C   37   3.211   2.564   4.260
    1C        C   38   3.415   2.503   4.379
    1C        C   39   3.278   2.537   4.382
    1C        C   40   3.485   2.503   4.502
    1C        C   41   3.417   2.509   4.626
    1C        C   42   3.630   2.482   4.743
    1C        C   43   3.488   2.486   4.746
    1C        C   44   3.705   2.483   4.863
    1C        C   45   3.629   2.471   4.980
    1C        C   46   2.833   2.746   2.793
    1C        C   47   2.889   2.704   2.915
    1C        C   48   2.838   2.758   3.035
    1C        C   49   3.012   2.634   3.157
    1C        C   50   2.895   2.713   3.156
    1C        C   51   3.074   2.602   3.280
    1C        C   52   3.017   2.639   3.404
    1C        C   53   3.207   2.552   3.526
    1C        C   54   3.075   2.603   3.527
    1C        C   55   3.274   2.533   3.649
    1C        C   56   3.205   2.548   3.771
    1C        C   57   3.412   2.508   3.893
    1C        C   58   3.273   2.530   3.893
    1C        C   59   3.483   2.503   4.016
    1C        C   60   3.413   2.512   4.139
    1C        C   61   3.628   2.502   4.258
    1C        C   62   3.487   2.501   4.258
    1C        C   63   3.698   2.500   4.381
    1C        C   64   3.626   2.497   4.502
    1C        C   65   3.835   2.538   4.619
    1C        C   66   3.700   2.496   4.622
    1C        C   67   3.902   2.563   4.741
    1C        C   68   3.841   2.523   4.862
    1C        C   69   4.050   2.581   4.974
    1C        C   70   3.920   2.530   4.978
    1C        C   71   2.820   2.730   2.306
    1C        C   72   2.877   2.687   2.428
    1C        C   73   2.826   2.737   2.549
    1C        C   74   3.003   2.619   2.671
    1C        C   75   2.883   2.694   2.671
    1C        C   76   3.068   2.588   2.792
    1C        C   77   3.009   2.628   2.913
    1C        C   78   3.205   2.547   3.035
    1C        C   79   3.074   2.599   3.035
    1C        C   80   3.271   2.526   3.159
    1C        C   81   3.205   2.549   3.282
    1C        C   82   3.411   2.501   3.403
    1C        C   83   3.272   2.525   3.404
    1C        C   84   3.483   2.497   3.524
    1C        C   85   3.413   2.507   3.647
    1C        C   86   3.623   2.502   3.769
    1C        C   87   3.482   2.502   3.771
    1C        C   88   3.693   2.514   3.891
    1C        C   89   3.624   2.508   4.014
    1C        C   90   3.835   2.545   4.132
    1C        C   91   3.697   2.512   4.135
    1C        C   92   3.901   2.563   4.256
    1C        C   93   3.834   2.539   4.378
    1C        C   94   4.026   2.636   4.497
    1C        C   95   3.901   2.569   4.499
    1C        C   96   4.093   2.665   4.618
    1C        C   97   4.029   2.627   4.738
    1C        C   98   4.188   2.764   4.860
    1C        C   99   4.093   2.657   4.861
    1C        C  100   4.211   2.842   4.974
    1C        C  101   2.814   2.724   2.069
    1C        C  102   2.985   2.586   2.186
    1C        C  103   2.869   2.671   2.187
    1C        C  104   3.058   2.573   2.307
    1C        C  105   2.998   2.614   2.428
    1C        C  106   3.196   2.532   2.546
    1C        C  107   3.065   2.585   2.549
    1C        C  108   3.265   2.512   2.668
    1C        C  109   3.198   2.532   2.791
    1C        C  110   3.408   2.493   2.910
    1C        C  111   3.269   2.517   2.913
    1C        C  112   3.478   2.487   3.033
    1C        C  113   3.410   2.501   3.156
    1C        C  114   3.620   2.500   3.276
    1C        C  115   3.479   2.495   3.279
    1C        C  116   3.690   2.510   3.398
    1C        C  117   3.624   2.497   3.523
    1C        C  118   3.827   2.549   3.644
    1C        C  119   3.692   2.508   3.646
    1C        C  120   3.896   2.570   3.766
    1C        C  121   3.831   2.544   3.888
    1C        C  122   4.025   2.634   4.009
    1C        C  123   3.901   2.567   4.009
    1C        C  124   4.083   2.673   4.131
    1C        C  125   4.025   2.629   4.252
    1C        C  126   4.190   2.765   4.373
    1C        C  127   4.083   2.674   4.374
    1C        C  128   4.242   2.815   4.494
    1C        C  129   4.193   2.765   4.617
    1C        C  130   4.318   2.937   4.739
    1C        C  131   4.235   2.821   4.739
    1C        C  132   4.355   3.004   4.858
    1C        C  133   4.283   2.961   4.970
    1C        C  134   3.168   2.461   2.080
    1C        C  135   3.034   2.503   2.081
    1C        C  136   3.256   2.476   2.188
    1C        C  137   3.188   2.514   2.305
    1C        C  138   3.400   2.473   2.423
    1C        C  139   3.261   2.498   2.425
    1C        C  140   3.473   2.476   2.544
    1C        C  141   3.405   2.493   2.667
    1C        C  142   3.619   2.493   2.787
    1C        C  143   3.478   2.489   2.788
    1C        C  144   3.689   2.500   2.909
    1C        C  145   3.620   2.489   3.032
    1C        C  146   3.827   2.537   3.150
    1C        C  147   3.691   2.499   3.154
    1C        C  148   3.894   2.560   3.272
    1C        C  149   3.827   2.544   3.396
    1C        C  150   4.021   2.623   3.520
    1C        C  151   3.891   2.568   3.519
    1C        C  152   4.083   2.663   3.640
    1C        C  153   4.022   2.633   3.764
    1C        C  154   4.196   2.757   3.885
    1C        C  155   4.083   2.672   3.886
    1C        C  156   4.243   2.810   4.007
    1C        C  157   4.191   2.764   4.130
    1C        C  158   4.339   2.918   4.252
    1C        C  159   4.246   2.811   4.252
    1C        C  160   4.373   2.982   4.373
    1C        C  161   4.325   2.929   4.495
    1C        C  162   4.434   3.113   4.613
    1C        C  163   4.362   2.992   4.617
    1C        C  164   4.463   3.182   4.733
    1C        C  165   4.434   3.121   4.857
    1C        C  166   4.520   3.318   4.970
    1C        C  167   4.478   3.186   4.973
    1C        C  168   3.471   2.432   2.067
    1C        C  169   3.395   2.453   2.182
    1C        C  170   3.613   2.463   2.303
    1C        C  171   3.471   2.459   2.302
    1C        C  172   3.686   2.486   2.422
    1C        C  173   3.614   2.486   2.544
    1C        C  174   3.825   2.536   2.661
    1C        C  175   3.687   2.505   2.663
    1C        C  176   3.890   2.560   2.784
    1C        C  177   3.826   2.535   2.907
    1C        C  178   4.022   2.622   3.028
    1C        C  179   3.894   2.561   3.028
    1C        C  180   4.082   2.656   3.151
    1C        C  181   4.021   2.621   3.274
    1C        C  182   4.188   2.751   3.394
    1C        C  183   4.080   2.660   3.396
    1C        C  184   4.239   2.802   3.516
    1C        C  185   4.195   2.749   3.640
    1C        C  186   4.334   2.912   3.763
    1C        C  187   4.247   2.801   3.760
    1C        C  188   4.379   2.971   3.884
    1C        C  189   4.335   2.917   4.007
    1C        C  190   4.445   3.099   4.128
    1C        C  191   4.378   2.975   4.129
    1C        C  192   4.470   3.168   4.248
    1C        C  193   4.438   3.107   4.372
    1C        C  194   4.505   3.313   4.490
    1C        C  195   4.463   3.178   4.491
    1C        C  196   4.516   3.387   4.610
    1C        C  197   4.508   3.317   4.732
    1C        C  198   4.550   3.532   4.849
    1C        C  199   4.540   3.389   4.851
    1C        C  200   4.583   3.617   4.959
    1C        C  201   3.610   2.414   2.071
    1C        C  202   3.823   2.507   2.178
    1C        C  203   3.689   2.456   2.183
    1C        C  204   3.896   2.533   2.298
    1C        C  205   3.823   2.521   2.418
    1C        C  206   4.018   2.614   2.541
    1C        C  207   3.892   2.551   2.537
    1C        C  208   4.081   2.655   2.661
    1C        C  209   4.018   2.620   2.782
    1C        C  210   4.191   2.742   2.904
    1C        C  211   4.078   2.658   2.904
    1C        C  212   4.246   2.788   3.026
    1C        C  213   4.193   2.744   3.149
    1C        C  214   4.325   2.910   3.271
    1C        C  215   4.241   2.797   3.271
    1C        C  216   4.365   2.970   3.392
    1C        C  217   4.328   2.911   3.515
    1C        C  218   4.431   3.095   3.636
    1C        C  219   4.369   2.968   3.638
    1C        C  220   4.461   3.162   3.756
    1C        C  221   4.438   3.099   3.881
    1C        C  222   4.500   3.301   4.002
    1C        C  223   4.464   3.164   4.004
    1C        C  224   4.513   3.375   4.122
    1C        C  225   4.500   3.306   4.244
    1C        C  226   4.515   3.520   4.365
    1C        C  227   4.515   3.378   4.365
    1C        C  228   4.512   3.595   4.485
    1C        C  229   4.524   3.528   4.609
    1C        C  230   4.492   3.740   4.726
    1C        C  231   4.528   3.603   4.728
    1C        C  232   4.493   3.818   4.844
    1C        C  233   4.542   3.751   4.957
    1C        C  234   4.011   2.609   2.055
    1C        C  235   3.893   2.537   2.061
    1C        C  236   4.078   2.646   2.173
    1C        C  237   4.019   2.605   2.295
    1C        C  238   4.191   2.731   2.418
    1C        C  239   4.077   2.646   2.417
    1C        C  240   4.245   2.784   2.537
    1C        C  241   4.193   2.742   2.662
    1C        C  242   4.335   2.899   2.783
    1C        C  243   4.248   2.788   2.783
    1C        C  244   4.371   2.959   2.906
    1C        C  245   4.334   2.898   3.027
    1C        C  246   4.433   3.089   3.148
    1C        C  247   4.370   2.963   3.148
    1C        C  248   4.457   3.159   3.269
    1C        C  249   4.428   3.097   3.392
    1C        C  250   4.486   3.301   3.512
    1C        C  251   4.450   3.165   3.514
    1C        C  252   4.506   3.369   3.635
    1C        C  253   4.497   3.298   3.757
    1C        C  254   4.517   3.510   3.877
    1C        C  255   4.509   3.369   3.879
    1C        C  256   4.514   3.586   3.996
    1C        C  257   4.518   3.516   4.119
    1C        C  258   4.490   3.727   4.240
    1C        C  259   4.513   3.587   4.241
    1C        C  260   4.469   3.798   4.360
    1C        C  261   4.483   3.733   4.484
    1C        C  262   4.419   3.939   4.603
    1C        C  263   4.461   3.804   4.604
    1C        C  264   4.393   4.008   4.723
    1C        C  265   4.429   3.944   4.844
    1C        C  266   4.319   4.133   4.956
    1C        C  267   4.391   4.015   4.959
    1C        C  268   4.253   2.777   2.060
    1C        C  269   4.191   2.730   2.176
    1C        C  270   4.337   2.889   2.297
    1C        C  271   4.243   2.782   2.297
    1C        C  272   4.379   2.950   2.417
    1C        C  273   4.339   2.890   2.538
    1C        C  274   4.441   3.078   2.659
    1C        C  275   4.373   2.954   2.659
    1C        C  276   4.469   3.148   2.779
    1C        C  277   4.441   3.082   2.901
    1C        C  278   4.498   3.285   3.023
    1C        C  279   4.465   3.148   3.024
    1C        C  280   4.505   3.359   3.144
    1C        C  281   4.490   3.296   3.270
    1C        C  282   4.511   3.511   3.388
    1C        C  283   4.503   3.370   3.390
    1C        C  284   4.511   3.580   3.511
    1C        C  285   4.518   3.510   3.634
    1C        C  286   4.490   3.721   3.751
    1C        C  287   4.512   3.582   3.755
    1C        C  288   4.472   3.793   3.872
    1C        C  289   4.486   3.724   3.995
    1C        C  290   4.426   3.927   4.115
    1C        C  291   4.473   3.794   4.117
    1C        C  292   4.394   3.995   4.235
    1C        C  293   4.422   3.932   4.359
    1C        C  294   4.324   4.124   4.478
    1C        C  295   4.394   4.001   4.478
    1C        C  296   4.280   4.188   4.596
    1C        C  297   4.322   4.132   4.718
    1C        C  298   4.197   4.314   4.835
    1C        C  299   4.280   4.197   4.837
    1C        C  300   4.165   4.401   4.944
    1C        C  301   4.347   2.880   2.060
    1C        C  302   4.468   3.064   2.173
    1C        C  303   4.393   2.942   2.177
    1C        C  304   4.475   3.139   2.294
    1C        C  305   4.441   3.077   2.416
    1C        C  306   4.503   3.281   2.535
    1C        C  307   4.468   3.144   2.537
    1C        C  308   4.509   3.355   2.656
    1C        C  309   4.497   3.286   2.778
    1C        C  310   4.519   3.496   2.898
    1C        C  311   4.508   3.355   2.901
    1C        C  312   4.507   3.568   3.019
    1C        C  313   4.509   3.500   3.142
    1C        C  314   4.479   3.713   3.262
    1C        C  315   4.507   3.575   3.262
    1C        C  316   4.468   3.784   3.384
    1C        C  317   4.489   3.719   3.508
    1C        C  318   4.422   3.922   3.625
    1C        C  319   4.469   3.789   3.629
    1C        C  320   4.396   3.987   3.748
    1C        C  321   4.423   3.925   3.872
    1C        C  322   4.325   4.114   3.988
    1C        C  323   4.394   3.991   3.994
    1C        C  324   4.277   4.166   4.110
    1C        C  325   4.317   4.113   4.234
    1C        C  326   4.179   4.276   4.351
    1C        C  327   4.279   4.176   4.355
    1C        C  328   4.131   4.334   4.470
    1C        C  329   4.186   4.294   4.594
    1C        C  330   4.018   4.431   4.713
    1C        C  331   4.135   4.350   4.713
    1C        C  332   3.960   4.488   4.829
    1C        C  333   4.050   4.482   4.936
    1C        C  334   4.545   3.262   2.062
    1C        C  335   4.535   3.122   2.062
    1C        C  336   4.531   3.347   2.173
    1C        C  337   4.513   3.276   2.293
    1C        C  338   4.520   3.491   2.410
    1C        C  339   4.519   3.350   2.413
    1C        C  340   4.519   3.565   2.530
    1C        C  341   4.513   3.496   2.653
    1C        C  342   4.492   3.707   2.770
    1C        C  343   4.513   3.567   2.776
    1C        C  344   4.479   3.776   2.892
    1C        C  345   4.491   3.708   3.015
    1C        C  346   4.421   3.910   3.136
    1C        C  347   4.467   3.777   3.137
    1C        C  348   4.390   3.976   3.257
    1C        C  349   4.422   3.918   3.382
    1C        C  350   4.322   4.107   3.499
    1C        C  351   4.397   3.987   3.502
    1C        C  352   4.273   4.158   3.622
    1C        C  353   4.320   4.106   3.744
    1C        C  354   4.176   4.263   3.864
    1C        C  355   4.281   4.169   3.865
    1C        C  356   4.122   4.314   3.984
    1C        C  357   4.177   4.266   4.106
    1C        C  358   4.008   4.397   4.228
    1C        C  359   4.124   4.316   4.227
    1C        C  360   3.948   4.441   4.348
    1C        C  361   4.016   4.416   4.469
    1C        C  362   3.823   4.510   4.591
    1C        C  363   3.955   4.458   4.590
    1C        C  364   3.753   4.539   4.710
    1C        C  365   3.829   4.538   4.830
    1C        C  366   3.622   4.589   4.949
    1C        C  367   3.761   4.574   4.947
    1C        C  368   4.506   3.560   2.048
    1C        C  369   4.520   3.488   2.167
    1C        C  370   4.502   3.701   2.284
    1C        C  371   4.513   3.561   2.287
    1C        C  372   4.483   3.772   2.405
    1C        C  373   4.496   3.705   2.528
    1C        C  374   4.417   3.903   2.646
    1C        C  375   4.478   3.776   2.648
    1C        C  376   4.385   3.968   2.767
    1C        C  377   4.424   3.907   2.889
    1C        C  378   4.317   4.088   3.010
    1C        C  379   4.394   3.970   3.011
    1C        C  380   4.272   4.147   3.130
    1C        C  381   4.314   4.096   3.254
    1C        C  382   4.176   4.257   3.375
    1C        C  383   4.275   4.157   3.376
    1C        C  384   4.121   4.304   3.497
    1C        C  385   4.174   4.259   3.620
    1C        C  386   4.000   4.380   3.739
    1C        C  387   4.120   4.305   3.741
    1C        C  388   3.939   4.416   3.861
    1C        C  389   4.001   4.386   3.985
    1C        C  390   3.813   4.482   4.105
    1C        C  391   3.943   4.427   4.107
    1C        C  392   3.746   4.507   4.227
    1C        C  393   3.816   4.490   4.349
    1C        C  394   3.611   4.542   4.470
    1C        C  395   3.751   4.522   4.470
    1C        C  396   3.541   4.556   4.592
    1C        C  397   3.613   4.557   4.713
    1C        C  398   3.403   4.552   4.837
    1C        C  399   3.543   4.569   4.835
    1C        C  400   3.336   4.510   4.953
    1C        C  401   4.508   3.699   2.049
    1C        C  402   4.452   3.911   2.165
    1C        C  403   4.493   3.776   2.165
    1C        C  404   4.410   3.973   2.285
    1C        C  405   4.435   3.905   2.406
    1C        C  406   4.326   4.095   2.521
    1C        C  407   4.395   3.972   2.524
    1C        C  408   4.280   4.148   2.644
    1C        C  409   4.318   4.092   2.767
    1C        C  410   4.168   4.243   2.884
    1C        C  411   4.271   4.146   2.889
    1C        C  412   4.118   4.291   3.007
    1C        C  413   4.176   4.251   3.130
    1C        C  414   3.999   4.370   3.251
    1C        C  415   4.121   4.298   3.251
    1C        C  416   3.938   4.411   3.371
    1C        C  417   4.003   4.381   3.493
    1C        C  418   3.810   4.469   3.617
    1C        C  419   3.938   4.411   3.615
    1C        C  420   3.744   4.493   3.739
    1C        C  421   3.811   4.476   3.863
    1C        C  422   3.606   4.536   3.982
    1C        C  423   3.744   4.504   3.984
    1C        C  424   3.536   4.541   4.104
    1C        C  425   3.607   4.533   4.226
    1C        C  426   3.397   4.548   4.350
    1C        C  427   3.538   4.543   4.349
    1C        C  428   3.329   4.541   4.473
    1C        C  429   3.400   4.553   4.595
    1C        C  430   3.190   4.518   4.721
    1C        C  431   3.329   4.547   4.717
    1C        C  432   3.121   4.493   4.843
    1C        C  433   3.199   4.487   4.959
    1C        C  434   4.385   4.116   2.050
    1C        C  435   4.448   3.991   2.049
    1C        C  436   4.299   4.154   2.159
    1C        C  437   4.331   4.091   2.282
    1C        C  438   4.182   4.250   2.401
    1C        C  439   4.283   4.152   2.399
    1C        C  440   4.122   4.294   2.522
    1C        C  441   4.179   4.247   2.642
    1C        C  442   3.997   4.364   2.763
    1C        C  443   4.117   4.290   2.761
    1C        C  444   3.940   4.406   2.885
    1C        C  445   4.002   4.371   3.007
    1C        C  446   3.805   4.456   3.129
    1C        C  447   3.936   4.403   3.129
    1C        C  448   3.737   4.478   3.251
    1C        C  449   3.807   4.462   3.373
    1C        C  450   3.603   4.515   3.495
    1C        C  451   3.742   4.490   3.495
    1C        C  452   3.535   4.528   3.619
    1C        C  453   3.608   4.529   3.740
    1C        C  454   3.393   4.537   3.864
    1C        C  455   3.535   4.544   3.860
    1C        C  456   3.326   4.524   3.987
    1C        C  457   3.395   4.533   4.110
    1C        C  458   3.185   4.505   4.232
    1C        C  459   3.322   4.539   4.230
    1C        C  460   3.121   4.486   4.357
    1C        C  461   3.190   4.514   4.477
    1C        C  462   2.994   4.437   4.602
    1C        C  463   3.122   4.497   4.599
    1C        C  464   2.927   4.401   4.721
    1C        C  465   2.987   4.444   4.843
    1C        C  466   2.800   4.333   4.956
    1C        C  467   2.906   4.424   4.960
    1C        C  468   4.123   4.284   2.040
    1C        C  469   4.186   4.242   2.158
    1C        C  470   4.005   4.364   2.279
    1C        C  471   4.123   4.285   2.278
    1C        C  472   3.938   4.401   2.397
    1C        C  473   4.003   4.371   2.519
    1C        C  474   3.809   4.458   2.642
    1C        C  475   3.941   4.406   2.641
    1C        C  476   3.743   4.488   2.763
    1C        C  477   3.811   4.464   2.885
    1C        C  478   3.604   4.517   3.005
    1C        C  479   3.741   4.485   3.006
    1C        C  480   3.532   4.526   3.126
    1C        C  481   3.600   4.511   3.249
    1C        C  482   3.392   4.531   3.374
    1C        C  483   3.533   4.527   3.373
    1C        C  484   3.323   4.527   3.497
    1C        C  485   3.394   4.532   3.619
    1C        C  486   3.186   4.499   3.744
    1C        C  487   3.323   4.533   3.741
    1C        C  488   3.120   4.477   3.867
    1C        C  489   3.187   4.498   3.990
    1C        C  490   2.991   4.416   4.112
    1C        C  491   3.116   4.483   4.111
    1C        C  492   2.935   4.384   4.238
    1C        C  493   2.993   4.425   4.359
    1C        C  494   2.825   4.304   4.480
    1C        C  495   2.930   4.397   4.483
    1C        C  496   2.772   4.253   4.601
    1C        C  497   2.816   4.311   4.722
    1C        C  498   2.663   4.160   4.844
    1C        C  499   2.753   4.269   4.841
    1C        C  500   2.590   4.116   4.955
    1C        C  501   4.003   4.355   2.041
    1C        C  502   3.809   4.451   2.155
    1C        C  503   3.939   4.397   2.158
    1C        C  504   3.740   4.478   2.276
    1C        C  505   3.807   4.454   2.398
    1C        C  506   3.603   4.509   2.519
    1C        C  507   3.740   4.476   2.520
    1C        C  508   3.530   4.512   2.641
    1C        C  509   3.604   4.513   2.761
    1C        C  510   3.392   4.521   2.883
    1C        C  511   3.533   4.521   2.883
    1C        C  512   3.322   4.519   3.006
    1C        C  513   3.391   4.532   3.128
    1C        C  514   3.186   4.489   3.254
    1C        C  515   3.323   4.525   3.252
    1C        C  516   3.118   4.469   3.376
    1C        C  517   3.185   4.497   3.497
    1C        C  518   2.994   4.413   3.623
    1C        C  519   3.123   4.471   3.621
    1C        C  520   2.935   4.375   3.746
    1C        C  521   2.993   4.415   3.868
    1C        C  522   2.826   4.284   3.993
    1C        C  523   2.931   4.378   3.990
    1C        C  524   2.777   4.239   4.118
    1C        C  525   2.828   4.292   4.239
    1C        C  526   2.690   4.133   4.362
    1C        C  527   2.776   4.245   4.361
    1C        C  528   2.654   4.073   4.484
    1C        C  529   2.687   4.140   4.604
    1C        C  530   2.581   3.958   4.730
    1C        C  531   2.637   4.088   4.726
    1C        C  532   2.538   3.897   4.851
    1C        C  533   2.527   3.991   4.959
    1C        C  534   3.617   4.547   2.038
    1C        C  535   3.748   4.497   2.038
    1C        C  536   3.534   4.533   2.154
    1C        C  537   3.600   4.504   2.276
    1C        C  538   3.389   4.515   2.399
    1C        C  539   3.530   4.515   2.398
    1C        C  540   3.316   4.509   2.520
    1C        C  541   3.389   4.513   2.641
    1C        C  542   3.179   4.486   2.762
    1C        C  543   3.318   4.515   2.763
    1C        C  544   3.115   4.465   2.886
    1C        C  545   3.185   4.483   3.007
    1C        C  546   2.994   4.403   3.131
    1C        C  547   3.120   4.467   3.131
    1C        C  548   2.935   4.369   3.255
    1C        C  549   2.989   4.410   3.378
    1C        C  550   2.829   4.277   3.501
    1C        C  551   2.932   4.374   3.502
    1C        C  552   2.781   4.228   3.625
    1C        C  553   2.829   4.282   3.746
    1C        C  554   2.698   4.118   3.870
    1C        C  555   2.784   4.230   3.870
    1C        C  556   2.665   4.058   3.994
    1C        C  557   2.698   4.122   4.116
    1C        C  558   2.598   3.940   4.245
    1C        C  559   2.659   4.068   4.240
    1C        C  560   2.567   3.878   4.367
    1C        C  561   2.590   3.947   4.488
    1C        C  562   2.534   3.745   4.611
    1C        C  563   2.560   3.884   4.611
    1C        C  564   2.520   3.676   4.734
    1C        C  565   2.521   3.755   4.852
    1C        C  566   2.528   3.544   4.974
    1C        C  567   2.517   3.683   4.972
    1C        C  568   3.327   4.476   2.038
    1C        C  569   3.394   4.507   2.157
    1C        C  570   3.182   4.474   2.276
    1C        C  571   3.318   4.512   2.277
    1C        C  572   3.110   4.459   2.397
    1C        C  573   3.178   4.480   2.520
    1C        C  574   2.980   4.407   2.644
    1C        C  575   3.108   4.465   2.641
    1C        C  576   2.923   4.366   2.767
    1C        C  577   2.991   4.397   2.887
    1C        C  578   2.817   4.279   3.013
    1C        C  579   2.930   4.363   3.011
    1C        C  580   2.772   4.226   3.136
    1C        C  581   2.828   4.277   3.255
    1C        C  582   2.696   4.113   3.381
    1C        C  583   2.779   4.228   3.379
    1C        C  584   2.660   4.053   3.504
    1C        C  585   2.697   4.115   3.625
    1C        C  586   2.597   3.930   3.755
    1C        C  587   2.660   4.057   3.749
    1C        C  588   2.572   3.866   3.878
    1C        C  589   2.602   3.932   4.000
    1C        C  590   2.538   3.734   4.126
    1C        C  591   2.574   3.871   4.124
    1C        C  592   2.528   3.666   4.249
    1C        C  593   2.537   3.740   4.369
    1C        C  594   2.509   3.530   4.494
    1C        C  595   2.523   3.670   4.491
    1C        C  596   2.515   3.459   4.617
    1C        C  597   2.518   3.534   4.737
    1C        C  598   2.535   3.323   4.861
    1C        C  599   2.526   3.464   4.859
    1C        C  600   2.524   3.242   4.974
    1C        C  601   3.194   4.441   2.042
    1C        C  602   2.978   4.394   2.158
    1C        C  603   3.112   4.444   2.156
    1C        C  604   2.916   4.362   2.282
    1C        C  605   2.980   4.403   2.400
    1C        C  606   2.819   4.267   2.526
    1C        C  607   2.924   4.361   2.522
    1C        C  608   2.767   4.218   2.648
    1C        C  609   2.817   4.273   2.768
    1C        C  610   2.689   4.108   2.891
    1C        C  611   2.770   4.224   2.892
    1C        C  612   2.658   4.049   3.016
    1C        C  613   2.693   4.109   3.139
    1C        C  614   2.590   3.926   3.264
    1C        C  615   2.651   4.053   3.262
    1C        C  616   2.569   3.861   3.388
    1C        C  617   2.600   3.925   3.509
    1C        C  618   2.536   3.727   3.635
    1C        C  619   2.575   3.862   3.633
    1C        C  620   2.519   3.660   3.758
    1C        C  621   2.534   3.730   3.880
    1C        C  622   2.511   3.523   4.006
    1C        C  623   2.524   3.664   4.004
    1C        C  624   2.518   3.452   4.128
    1C        C  625   2.517   3.525   4.248
    1C        C  626   2.535   3.319   4.376
    1C        C  627   2.511   3.458   4.372
    1C        C  628   2.550   3.246   4.496
    1C        C  629   2.532   3.319   4.615
    1C        C  630   2.587   3.116   4.739
    1C        C  631   2.548   3.252   4.739
    1C        C  632   2.614   3.047   4.861
    1C        C  633   2.556   3.106   4.977
    1C        C  634   2.785   4.297   2.048
    1C        C  635   2.886   4.394   2.049
    1C        C  636   2.747   4.225   2.162
    1C        C  637   2.806   4.272   2.282
    1C        C  638   2.679   4.105   2.408
    1C        C  639   2.765   4.217   2.406
    1C        C  640   2.642   4.042   2.530
    1C        C  641   2.681   4.105   2.650
    1C        C  642   2.585   3.918   2.776
    1C        C  643   2.645   4.046   2.772
    1C        C  644   2.568   3.852   2.900
    1C        C  645   2.598   3.921   3.019
    1C        C  646   2.527   3.722   3.144
    1C        C  647   2.570   3.857   3.142
    1C        C  648   2.509   3.654   3.267
    1C        C  649   2.530   3.725   3.387
    1C        C  650   2.517   3.519   3.516
    1C        C  651   2.520   3.660   3.512
    1C        C  652   2.520   3.448   3.638
    1C        C  653   2.514   3.518   3.760
    1C        C  654   2.529   3.311   3.887
    1C        C  655   2.515   3.451   3.884
    1C        C  656   2.551   3.242   4.009
    1C        C  657   2.538   3.312   4.131
    1C        C  658   2.600   3.113   4.256
    1C        C  659   2.555   3.247   4.256
    1C        C  660   2.631   3.049   4.378
    1C        C  661   2.598   3.113   4.500
    1C        C  662   2.706   2.931   4.621
    1C        C  663   2.626   3.048   4.622
    1C        C  664   2.746   2.872   4.743
    1C        C  665   2.696   2.929   4.863
    1C        C  666   2.743   2.868   4.980
    1C        C  667   2.676   4.019   2.052
    1C        C  668   2.681   4.100   2.166
    1C        C  669   2.584   3.911   2.288
    1C        C  670   2.643   4.041   2.288
    1C        C  671   2.561   3.845   2.410
    1C        C  672   2.581   3.915   2.531
    1C        C  673   2.518   3.715   2.657
    1C        C  674   2.555   3.851   2.655
    1C        C  675   2.508   3.645   2.779
    1C        C  676   2.527   3.717   2.899
    1C        C  677   2.499   3.510   3.027
    1C        C  678   2.513   3.650   3.023
    1C        C  679   2.502   3.440   3.150
    1C        C  680   2.504   3.513   3.270
    1C        C  681   2.536   3.307   3.398
    1C        C  682   2.513   3.446   3.394
    1C        C  683   2.555   3.239   3.520
    1C        C  684   2.533   3.307   3.642
    1C        C  685   2.599   3.110   3.765
    1C        C  686   2.543   3.240   3.766
    1C        C  687   2.629   3.048   3.888
    1C        C  688   2.596   3.108   4.012
    1C        C  689   2.704   2.928   4.132
    1C        C  690   2.625   3.045   4.135
    1C        C  691   2.752   2.876   4.254
    1C        C  692   2.706   2.930   4.376
    1C        C  693   2.749   2.874   4.499
    1C        C  694   2.629   3.887   2.055
    1C        C  695   2.520   3.702   2.174
    1C        C  696   2.573   3.833   2.171
    1C        C  697   2.500   3.636   2.297
    1C        C  698   2.518   3.711   2.416
    1C        C  699   2.484   3.501   2.542
    1C        C  700   2.499   3.641   2.537
    1C        C  701   2.493   3.429   2.663
    1C        C  702   2.502   3.504   2.783
    1C        C  703   2.516   3.295   2.909
    1C        C  704   2.504   3.436   2.907
    1C        C  705   2.537   3.227   3.031
    1C        C  706   2.524   3.300   3.151
    1C        C  707   2.597   3.105   3.274
    1C        C  708   2.549   3.238   3.275
    1C        C  709   2.626   3.040   3.397
    1C        C  710   2.605   3.107   3.520
    1C        C  711   2.706   2.924   3.643
    1C        C  712   2.635   3.046   3.644
    1C        C  713   2.749   2.870   3.766
    1C        C  714   2.707   2.930   3.887
    1C        C  715   2.750   2.874   4.009
    1C        C  716   2.448   3.494   2.059
    1C        C  717   2.482   3.629   2.060
    1C        C  718   2.469   3.420   2.179
    1C        C  719   2.484   3.495   2.299
    1C        C  720   2.508   3.286   2.423
    1C        C  721   2.487   3.425   2.422
    1C        C  722   2.532   3.219   2.545
    1C        C  723   2.511   3.289   2.666
    1C        C  724   2.583   3.091   2.791
    1C        C  725   2.527   3.221   2.789
    1C        C  726   2.610   3.026   2.913
    1C        C  727   2.580   3.093   3.034
    1C        C  728   2.706   2.918   3.156
    1C        C  729   2.627   3.036   3.155
    1C        C  730   2.749   2.864   3.279
    1C        C  731   2.704   2.922   3.399
    1C        C  732   2.746   2.866   3.521
    1C        C  733   2.490   3.194   2.070
    1C        C  734   2.488   3.278   2.182
    1C        C  735   2.579   3.081   2.304
    1C        C  736   2.522   3.212   2.303
    1C        C  737   2.611   3.019   2.427
    1C        C  738   2.588   3.090   2.547
    1C        C  739   2.698   2.909   2.668
    1C        C  740   2.620   3.027   2.670
    1C        C  741   2.740   2.853   2.790
    1C        C  742   2.696   2.914   2.910
    1C        C  743   2.739   2.858   3.032
    1C        C  744   2.542   3.065   2.071
    1C        C  745   2.684   2.895   2.185
    1C        C  746   2.607   3.013   2.184
    1C        C  747   2.727   2.837   2.307
    1C        C  748   2.685   2.899   2.427
    1C        C  749   2.736   2.846   2.547
    1C        C  750   2.730   2.835   2.067
    1C        C  751   3.655   2.311   1.976
    1C        O  752   3.719   2.213   2.023
    1C        O  753   3.691   2.331   1.842
    1C        C  754   4.636   3.051   1.979
    1C        O  755   4.609   3.064   1.857
    1C        O  756   4.761   3.012   2.027
    1C        C  757   4.463   4.218   1.978
    1C        O  758   4.578   4.262   2.007
    1C        O  759   4.421   4.258   1.851
    1C        C  760   3.596   4.639   1.923
    1C        O  761   3.619   4.762   1.931
    1C        O  762   3.625   4.593   1.794
    1C        C  763   2.854   4.506   1.957
    1C        O  764   2.887   4.487   1.837
    1C        O  765   2.791   4.626   1.994
    1C        C  766   2.345   3.465   1.956
    1C        O  767   2.360   3.469   1.831
    1C        O  768   2.208   3.473   1.984
    1C        C  769   4.707   3.582   5.031
    1C        O  770   4.716   3.603   5.155
    1C        O  771   4.838   3.589   4.980
    1C        C  772   4.273   4.453   5.031
    1C        O  773   4.280   4.434   5.155
    1C        O  774   4.330   4.578   5.003
    1C        C  775   4.151   2.497   5.042
    1C        O  776   4.211   2.404   4.983
    1C        O  777   4.136   2.473   5.179
    1C        C  778   2.900   4.512   5.079
    1C        O  779   2.803   4.591   5.069
    1C        O  780   2.933   4.471   5.209
    1C        C  781   2.478   3.027   5.075
    1C        O  782   2.378   2.955   5.050
    1C        O  783   2.485   3.067   5.208
    1C        C  784   2.409   3.987   5.048
    1C        O  785   2.301   4.040   5.012
    1C        O  786   2.426   3.979   5.187
    1C        C  787   2.944   2.411   2.008
    1C        O  788   2.887   2.452   1.904
    1C        O  789   2.912   2.280   2.044
    1C        C  790   3.182   2.371   5.063
    1C        O  791   3.225   2.259   5.023
    1C        O  792   3.225   2.389   5.195
    1C        H  793   4.280   3.021   5.059
    1C        H  794   4.201   2.792   5.068
    1C        H  795   4.483   3.141   5.070
    1C        H  796   4.565   3.354   5.060
    1C        H  797   4.592   3.817   5.025
    1C        H  798   4.457   4.017   5.044
    1C        H  799   4.277   4.165   5.049
    1C        H  800   4.043   4.560   5.009
    1C        H  801   3.815   4.619   5.027
    1C        H  802   3.577   4.646   5.028
    1C        H  803   3.393   4.493   5.042
    1C        H  804   3.165   4.419   5.034
    1C        H  805   3.882   2.499   5.073
    1C        H  806   3.675   2.434   5.069
    1C        H  807   3.022   2.574   5.073
    1C        H  808   3.448   2.484   5.080
    1C        H  809   2.869   2.728   5.077
    1C        H  810   2.752   2.924   5.071
    1C        H  811   2.453   3.279   5.045
    1C        H  812   2.515   3.494   5.067
    1C        H  813   2.490   3.731   5.064
    1C        H  814   2.561   4.183   5.034
    1C        H  815   2.760   4.310   5.053
    1C        H  816   2.732   2.894   1.978
    1C        H  817   2.807   2.656   1.987
    1C        H  818   3.203   2.427   1.985
    1C        H  819   3.437   2.477   1.976
    1C        H  820   3.847   2.513   1.967
    1C        H  821   4.068   2.601   1.965
    1C        H  822   4.244   2.723   1.968
    1C        H  823   4.367   2.928   1.966
    1C        H  824   4.577   3.309   1.971
    1C        H  825   4.495   3.509   1.954
    1C        H  826   4.536   3.747   1.957
    1C        H  827   3.777   4.460   1.942
    1C        H  828   3.990   4.418   1.955
    1C        H  829   4.179   4.304   1.951
    1C        H  830   4.490   3.962   1.955
    1C        H  831   2.615   3.838   1.961
    1C        H  832   2.719   4.050   1.959
    1C        H  833   2.743   4.272   1.953
    1C        H  834   3.380   4.449   1.948
    1C        H  835   3.157   4.386   1.957
    1C        H  836   2.527   3.002   1.985
    1C        H  837   2.446   3.225   1.977
    1C        H  838   2.423   3.685   1.990
    2V3OU   H29  839   2.806   3.543   2.490
    2V3OU   C27  840   2.789   3.499   2.591
    2V3OU   H27  841   2.724   3.566   2.652
    2V3OU   H28  842   2.735   3.401   2.578
    2V3OU   O11  843   2.913   3.470   2.656
    2V3OU   C15  844   2.923   3.397   2.773
    2V3OU   C13  845   3.051   3.369   2.825
    2V3OU   C14  846   3.077   3.267   2.917
    2V3OU   C16  847   2.975   3.186   2.966
    2V3OU    H6  848   2.991   3.103   3.036
    2V3OU   C12  849   3.211   3.228   2.969
    2V3OU    O2  850   3.230   3.130   3.044
    2V3OU   C10  851   3.326   3.307   2.924
    2V3OU    C8  852   3.457   3.270   2.950
    2V3OU   O10  853   3.484   3.152   3.012
    2V3OU   H26  854   3.398   3.119   3.043
    2V3OU    C6  855   3.564   3.347   2.894
    2V3OU    C5  856   3.536   3.464   2.825
    2V3OU    C4  857   3.701   3.287   2.891
    2V3OU    H4  858   3.723   3.220   2.980
    2V3OU    H5  859   3.705   3.225   2.797
    2V3OU    C2  860   3.813   3.391   2.888
    2V3OU    O6  861   3.800   3.469   3.006
    2V3OU   H21  862   3.760   3.553   2.977
    2V3OU    C3  863   3.776   3.491   2.778
    2V3OU    H2  864   3.854   3.571   2.771
    2V3OU    H3  865   3.775   3.436   2.680
    2V3OU   C25  866   3.947   3.318   2.873
    2V3OU    O7  867   4.007   3.293   2.769
    2V3OU   C26  868   4.026   3.282   2.998
    2V3OU   H22  869   4.062   3.381   3.037
    2V3OU   H23  870   4.115   3.220   2.970
    2V3OU    O8  871   3.959   3.204   3.094
    2V3OU   H24  872   3.924   3.262   3.164
    2V3OU    C1  873   3.644   3.564   2.795
    2V3OU    H1  874   3.626   3.624   2.701
    2V3OU    O3  875   3.660   3.652   2.907
    2V3OU   C19  876   3.617   3.787   2.888
    2V3OU    H9  877   3.521   3.801   2.830
    2V3OU    O4  878   3.714   3.842   2.802
    2V3OU   C20  879   3.842   3.875   2.855
    2V3OU   H10  880   3.892   3.775   2.874
    2V3OU   C24  881   3.606   3.854   3.025
    2V3OU   H16  882   3.545   3.785   3.088
    2V3OU   H17  883   3.560   3.955   3.012
    2V3OU   C23  884   3.747   3.874   3.082
    2V3OU   H15  885   3.790   3.770   3.102
    2V3OU    N1  886   3.732   3.954   3.202
    2V3OU   H19  887   3.806   3.924   3.262
    2V3OU   H20  888   3.648   3.927   3.250
    2V3OU   C21  889   3.849   3.947   2.990
    2V3OU   H11  890   3.950   3.929   3.038
    2V3OU    O5  891   3.822   4.086   2.996
    2V3OU   H18  892   3.776   4.103   3.080
    2V3OU   C22  893   3.911   3.948   2.741
    2V3OU   H12  894   3.859   4.046   2.737
    2V3OU   H13  895   3.889   3.891   2.647
    2V3OU   H14  896   4.021   3.956   2.762
    2V3OU   C11  897   3.160   3.468   2.817
    2V3OU    O1  898   3.135   3.583   2.775
    2V3OU    C9  899   3.298   3.423   2.847
    2V3OU    C7  900   3.401   3.503   2.799
    2V3OU    O9  901   3.387   3.621   2.729
    2V3OU   H25  902   3.291   3.635   2.725
    2V3OU   C17  903   2.823   3.314   2.826
    2V3OU    H7  904   2.728   3.341   2.779
    2V3OU   C18  905   2.848   3.212   2.917
    2V3OU    H8  906   2.778   3.167   2.989
    3SOL     OW  907   2.639   5.530   0.083
    3SOL    HW1  908   2.725   5.541   0.132
    3SOL    HW2  909   2.595   5.620   0.074
    4SOL     OW  910   6.932   6.870   2.241
    4SOL    HW1  911   6.833   6.870   2.226
    4SOL    HW2  912   6.978   6.888   2.154
    5SOL     OW  913   4.163   1.672   2.616
    5SOL    HW1  914   4.158   1.770   2.598
    5SOL    HW2  915   4.166   1.621   2.530
    6SOL     OW  916   3.819   0.824   1.735
    6SOL    HW1  917   3.773   0.787   1.654
    6SOL    HW2  918   3.892   0.762   1.764
    7SOL     OW  919   0.130   4.038   3.274
    7SOL    HW1  920   0.164   4.081   3.190
    7SOL    HW2  921   0.117   3.940   3.257
    8SOL     OW  922   3.410   0.983   0.383
    8SOL    HW1  923   3.335   0.950   0.325
    8SOL    HW2  924   3.497   0.952   0.345
    9SOL     OW  925   4.909   0.699   5.962
    9SOL    HW1  926   4.851   0.774   5.932
    9SOL    HW2  927   4.980   0.682   5.894
   10SOL     OW  928   1.783   5.131   5.865
   10SOL    HW1  929   1.752   5.036   5.854
   10SOL    HW2  930   1.861   5.133   5.927
   11SOL     OW  931   2.744   0.744   5.912
   11SOL    HW1  932   2.754   0.681   5.836
   11SOL    HW2  933   2.807   0.821   5.901
   12SOL     OW  934   3.269   5.379   3.382
   12SOL    HW1  935   3.234   5.472   3.375
   12SOL    HW2  936   3.282   5.355   3.478
   13SOL     OW  937   4.315   6.198   3.788
   13SOL    HW1  938   4.324   6.159   3.880
   13SOL    HW2  939   4.342   6.294   3.791
   14SOL     OW  940   3.662   5.498   5.875
   14SOL    HW1  941   3.724   5.522   5.801
   14SOL    HW2  942   3.567   5.516   5.846
   15SOL     OW  943   0.456   6.365   2.063
   15SOL    HW1  944   0.395   6.379   2.140
   15SOL    HW2  945   0.537   6.423   2.073
   16SOL     OW  946   5.751   2.815   5.855
   16SOL    HW1  947   5.772   2.908   5.823
   16SOL    HW2  948   5.706   2.821   5.944
   17SOL     OW  949   5.382   6.554   6.481
   17SOL    HW1  950   5.437   6.637   6.484
   17SOL    HW2  951   5.441   6.474   6.494
   18SOL     OW  952   2.965   0.850   5.712
   18SOL    HW1  953   3.046   0.843   5.653
   18SOL    HW2  954   2.898   0.909   5.669
   19SOL     OW  955   0.214   1.365   2.939
   19SOL    HW1  956   0.130   1.311   2.945
   19SOL    HW2  957   0.293   1.303   2.940
   20SOL     OW  958   5.494   1.424   4.114
   20SOL    HW1  959   5.529   1.438   4.021
   20SOL    HW2  960   5.410   1.478   4.125
   21SOL     OW  961   3.294   1.510   2.626
   21SOL    HW1  962   3.284   1.575   2.701
   21SOL    HW2  963   3.314   1.419   2.664
   22SOL     OW  964   1.593   6.594   6.796
   22SOL    HW1  965   1.671   6.652   6.823
   22SOL    HW2  966   1.540   6.570   6.878
   23SOL     OW  967   5.341   5.693   3.140
   23SOL    HW1  968   5.296   5.751   3.072
   23SOL    HW2  969   5.311   5.719   3.232
   24SOL     OW  970   4.146   0.195   3.706
   24SOL    HW1  971   4.113   0.204   3.800
   24SOL    HW2  972   4.111   0.110   3.666
   25SOL     OW  973   3.635   0.427   4.615
   25SOL    HW1  974   3.660   0.388   4.704
   25SOL    HW2  975   3.610   0.523   4.627
   26SOL     OW  976   0.021   0.663   0.596
   26SOL    HW1  977   6.992   0.596   0.538
   26SOL    HW2  978   6.976   0.693   0.669
   27SOL     OW  979   1.527   2.319   2.923
   27SOL    HW1  980   1.440   2.367   2.938
   27SOL    HW2  981   1.597   2.386   2.899
   28SOL     OW  982   2.965   1.278   6.551
   28SOL    HW1  983   2.885   1.337   6.546
   28SOL    HW2  984   3.020   1.289   6.468
   29SOL     OW  985   6.584   1.931   2.150
   29SOL    HW1  986   6.538   1.907   2.236
   29SOL    HW2  987   6.527   1.995   2.099
   30SOL     OW  988   4.141   1.000   3.862
   30SOL    HW1  989   4.159   1.092   3.827
   30SOL    HW2  990   4.057   1.000   3.916
   31SOL     OW  991   0.861   2.900   6.303
   31SOL    HW1  992   0.844   2.994   6.334
   31SOL    HW2  993   0.953   2.873   6.329
   32SOL     OW  994   0.035   1.932   2.559
   32SOL    HW1  995   0.087   1.891   2.634
   32SOL    HW2  996   0.074   1.903   2.471
   33SOL     OW  997   1.349   4.895   5.435
   33SOL    HW1  998   1.322   4.803   5.464
   33SOL    HW2  999   1.343   4.902   5.336
   34SOL     OW 1000   2.969   0.125   4.594
   34SOL    HW1 1001   3.027   0.049   4.565
   34SOL    HW2 1002   2.948   0.183   4.516
   35SOL     OW 1003   4.100   3.379   6.498
   35SOL    HW1 1004   4.190   3.396   6.456
   35SOL    HW2 1005   4.102   3.290   6.544
   36SOL     OW 1006   5.826   1.023   4.787
   36SOL    HW1 1007   5.797   0.957   4.856
   36SOL    HW2 1008   5.925   1.037   4.794
   37SOL     OW 1009   1.125   1.959   0.233
   37SOL    HW1 1010   1.076   1.916   0.157
   37SOL    HW2 1011   1.220   1.929   0.234
   38SOL     OW 1012   1.028   4.636   2.349
   38SOL    HW1 1013   0.957   4.570   2.325
   38SOL    HW2 1014   0.988   4.727   2.355
   39SOL     OW 1015   6.858   4.327   6.708
   39SOL    HW1 1016   6.793   4.389   6.664
   39SOL    HW2 1017   6.817   4.288   6.791
   40SOL     OW 1018   4.544   1.543   0.716
   40SOL    HW1 1019   4.613   1.571   0.783
   40SOL    HW2 1020   4.589   1.517   0.631
   41SOL     OW 1021   6.765   5.015   3.103
   41SOL    HW1 1022   6.820   5.021   3.020
   41SOL    HW2 1023   6.741   4.919   3.120
   42SOL     OW 1024   2.876   4.894   4.609
   42SOL    HW1 1025   2.924   4.932   4.689
   42SOL    HW2 1026   2.816   4.819   4.639
   43SOL     OW 1027   5.051   6.565   5.405
   43SOL    HW1 1028   5.111   6.548   5.327
   43SOL    HW2 1029   5.053   6.486   5.466
   44SOL     OW 1030   4.454   1.415   6.651
   44SOL    HW1 1031   4.397   1.496   6.637
   44SOL    HW2 1032   4.521   1.433   6.724
   45SOL     OW 1033   4.489   6.022   1.463
   45SOL    HW1 1034   4.426   6.046   1.537
   45SOL    HW2 1035   4.537   5.938   1.487
   46SOL     OW 1036   0.190   3.329   3.021
   46SOL    HW1 1037   0.155   3.267   3.091
   46SOL    HW2 1038   0.113   3.371   2.973
   47SOL     OW 1039   4.830   4.058   0.968
   47SOL    HW1 1040   4.780   4.059   1.055
   47SOL    HW2 1041   4.927   4.076   0.985
   48SOL     OW 1042   6.351   3.443   6.144
   48SOL    HW1 1043   6.347   3.528   6.091
   48SOL    HW2 1044   6.268   3.436   6.200
   49SOL     OW 1045   5.271   3.435   1.397
   49SOL    HW1 1046   5.362   3.432   1.437
   49SOL    HW2 1047   5.274   3.489   1.312
   50SOL     OW 1048   5.363   0.985   5.308
   50SOL    HW1 1049   5.458   0.972   5.281
   50SOL    HW2 1050   5.306   0.996   5.227
   51SOL     OW 1051   2.125   6.654   3.470
   51SOL    HW1 1052   2.103   6.557   3.481
   51SOL    HW2 1053   2.043   6.704   3.440
   52SOL     OW 1054   6.140   3.133   2.590
   52SOL    HW1 1055   6.159   3.040   2.559
   52SOL    HW2 1056   6.154   3.197   2.515
   53SOL     OW 1057   4.742   6.165   3.746
   53SOL    HW1 1058   4.669   6.097   3.758
   53SOL    HW2 1059   4.701   6.254   3.728
   54SOL     OW 1060   4.593   4.947   1.031
   54SOL    HW1 1061   4.524   4.999   1.081
   54SOL    HW2 1062   4.565   4.851   1.024
   55SOL     OW 1063   1.973   2.711   6.334
   55SOL    HW1 1064   2.051   2.766   6.363
   55SOL    HW2 1065   1.907   2.769   6.286
   56SOL     OW 1066   6.928   0.896   0.988
   56SOL    HW1 1067   6.832   0.925   0.978
   56SOL    HW2 1068   6.969   0.946   1.065
   57SOL     OW 1069   5.015   0.891   1.170
   57SOL    HW1 1070   5.009   0.926   1.263
   57SOL    HW2 1071   5.017   0.791   1.172
   58SOL     OW 1072   0.215   6.300   5.826
   58SOL    HW1 1073   0.276   6.282   5.749
   58SOL    HW2 1074   0.235   6.390   5.864
   59SOL     OW 1075   1.262   2.408   5.516
   59SOL    HW1 1076   1.201   2.329   5.521
   59SOL    HW2 1077   1.337   2.397   5.581
   60SOL     OW 1078   5.466   2.663   4.541
   60SOL    HW1 1079   5.374   2.658   4.501
   60SOL    HW2 1080   5.460   2.709   4.630
   61SOL     OW 1081   6.542   2.183   4.914
   61SOL    HW1 1082   6.631   2.228   4.910
   61SOL    HW2 1083   6.554   2.084   4.912
   62SOL     OW 1084   1.199   1.198   1.667
   62SOL    HW1 1085   1.271   1.132   1.644
   62SOL    HW2 1086   1.240   1.277   1.713
   63SOL     OW 1087   5.433   1.097   3.398
   63SOL    HW1 1088   5.349   1.088   3.344
   63SOL    HW2 1089   5.418   1.161   3.473
   64SOL     OW 1090   0.557   3.187   6.063
   64SOL    HW1 1091   0.524   3.181   6.157
   64SOL    HW2 1092   0.479   3.181   6.000
   65SOL     OW 1093   0.804   4.792   6.519
   65SOL    HW1 1094   0.792   4.746   6.607
   65SOL    HW2 1095   0.730   4.767   6.458
   66SOL     OW 1096   4.359   0.916   5.284
   66SOL    HW1 1097   4.346   0.905   5.383
   66SOL    HW2 1098   4.449   0.957   5.267
   67SOL     OW 1099   6.615   3.085   5.651
   67SOL    HW1 1100   6.567   3.025   5.586
   67SOL    HW2 1101   6.703   3.045   5.674
   68SOL     OW 1102   6.111   1.247   6.880
   68SOL    HW1 1103   6.030   1.237   6.938
   68SOL    HW2 1104   6.083   1.261   6.785
   69SOL     OW 1105   1.030   3.486   6.463
   69SOL    HW1 1106   1.024   3.540   6.379
   69SOL    HW2 1107   0.979   3.531   6.536
   70SOL     OW 1108   5.705   4.473   5.052
   70SOL    HW1 1109   5.649   4.520   5.121
   70SOL    HW2 1110   5.671   4.495   4.961
   71SOL     OW 1111   3.945   1.885   3.904
   71SOL    HW1 1112   3.875   1.846   3.844
   71SOL    HW2 1113   4.024   1.825   3.907
   72SOL     OW 1114   1.381   0.462   4.039
   72SOL    HW1 1115   1.398   0.461   4.137
   72SOL    HW2 1116   1.341   0.375   4.011
   73SOL     OW 1117   3.792   0.588   1.421
   73SOL    HW1 1118   3.842   0.536   1.489
   73SOL    HW2 1119   3.716   0.636   1.464
   74SOL     OW 1120   3.951   0.762   0.091
   74SOL    HW1 1121   3.981   0.674   0.056
   74SOL    HW2 1122   3.899   0.810   0.019
   75SOL     OW 1123   4.457   0.782   0.991
   75SOL    HW1 1124   4.423   0.803   1.083
   75SOL    HW2 1125   4.539   0.725   0.998
   76SOL     OW 1126   2.882   3.200   1.544
   76SOL    HW1 1127   2.969   3.181   1.589
   76SOL    HW2 1128   2.824   3.255   1.604
   77SOL     OW 1129   0.628   6.993   3.709
   77SOL    HW1 1130   0.656   0.057   3.760
   77SOL    HW2 1131   0.707   6.953   3.663
   78SOL     OW 1132   5.519   1.615   0.001
   78SOL    HW1 1133   5.539   1.554   0.077
   78SOL    HW2 1134   5.530   1.565   6.932
   79SOL     OW 1135   2.844   5.730   1.251
   79SOL    HW1 1136   2.795   5.713   1.336
   79SOL    HW2 1137   2.939   5.753   1.271
   80SOL     OW 1138   4.469   1.208   4.093
   80SOL    HW1 1139   4.561   1.238   4.120
   80SOL    HW2 1140   4.476   1.148   4.013
   81SOL     OW 1141   2.473   0.202   2.373
   81SOL    HW1 1142   2.472   0.214   2.274
   81SOL    HW2 1143   2.565   0.174   2.402
   82SOL     OW 1144   5.807   5.058   0.489
   82SOL    HW1 1145   5.858   4.985   0.443
   82SOL    HW2 1146   5.808   5.042   0.588
   83SOL     OW 1147   0.291   0.376   7.012
   83SOL    HW1 1148   0.334   0.286   7.011
   83SOL    HW2 1149   0.358   0.444   0.024
   84SOL     OW 1150   6.354   2.852   3.172
   84SOL    HW1 1151   6.412   2.778   3.208
   84SOL    HW2 1152   6.396   2.940   3.196
   85SOL     OW 1153   1.809   1.416   3.885
   85SOL    HW1 1154   1.869   1.494   3.862
   85SOL    HW2 1155   1.766   1.382   3.801
   86SOL     OW 1156   0.939   1.459   6.317
   86SOL    HW1 1157   0.879   1.419   6.248
   86SOL    HW2 1158   1.021   1.496   6.273
   87SOL     OW 1159   5.103   4.642   1.184
   87SOL    HW1 1160   5.147   4.648   1.094
   87SOL    HW2 1161   5.004   4.640   1.171
   88SOL     OW 1162   3.500   1.959   6.288
   88SOL    HW1 1163   3.490   1.882   6.225
   88SOL    HW2 1164   3.472   1.930   6.380
   89SOL     OW 1165   2.408   2.445   6.677
   89SOL    HW1 1166   2.362   2.431   6.590
   89SOL    HW2 1167   2.507   2.438   6.665
   90SOL     OW 1168   4.205   4.862   2.116
   90SOL    HW1 1169   4.155   4.803   2.052
   90SOL    HW2 1170   4.240   4.942   2.068
   91SOL     OW 1171   6.145   3.761   6.154
   91SOL    HW1 1172   6.153   3.803   6.245
   91SOL    HW2 1173   6.066   3.700   6.153
   92SOL     OW 1174   4.520   4.485   0.722
   92SOL    HW1 1175   4.436   4.455   0.768
   92SOL    HW2 1176   4.496   4.536   0.639
   93SOL     OW 1177   3.249   3.447   0.638
   93SOL    HW1 1178   3.338   3.403   0.622
   93SOL    HW2 1179   3.214   3.483   0.552
   94SOL     OW 1180   2.375   6.138   6.174
   94SOL    HW1 1181   2.378   6.045   6.137
   94SOL    HW2 1182   2.464   6.182   6.159
   95SOL     OW 1183   0.724   6.833   2.721
   95SOL    HW1 1184   0.763   6.911   2.673
   95SOL    HW2 1185   0.792   6.796   2.784
   96SOL     OW 1186   3.442   0.047   4.979
   96SOL    HW1 1187   3.430   0.142   5.008
   96SOL    HW2 1188   3.412   0.037   4.884
   97SOL     OW 1189   2.443   3.370   6.389
   97SOL    HW1 1190   2.345   3.385   6.385
   97SOL    HW2 1191   2.475   3.330   6.303
   98SOL     OW 1192   0.925   3.535   0.932
   98SOL    HW1 1193   0.953   3.487   1.015
   98SOL    HW2 1194   0.923   3.634   0.949
   99SOL     OW 1195   3.814   2.591   1.314
   99SOL    HW1 1196   3.884   2.550   1.255
   99SOL    HW2 1197   3.755   2.519   1.350
  100SOL     OW 1198   0.901   6.390   4.479
  100SOL    HW1 1199   0.877   6.429   4.390
  100SOL    HW2 1200   0.985   6.432   4.513
  101SOL     OW 1201   1.922   5.040   2.382
  101SOL    HW1 1202   2.001   5.100   2.378
  101SOL    HW2 1203   1.841   5.093   2.409
  102SOL     OW 1204   3.580   5.485   1.233
  102SOL    HW1 1205   3.497   5.439   1.200
  102SOL    HW2 1206   3.598   5.455   1.327
  103SOL     OW 1207   2.244   2.050   1.658
  103SOL    HW1 1208   2.282   1.958   1.666
  103SOL    HW2 1209   2.305   2.115   1.702
  104SOL     OW 1210   1.448   6.021   2.802
  104SOL    HW1 1211   1.495   6.046   2.887
  104SOL    HW2 1212   1.365   5.970   2.824
  105SOL     OW 1213   6.796   1.193   6.007
  105SOL    HW1 1214   6.744   1.123   6.055
  105SOL    HW2 1215   6.742   1.230   5.931
  106SOL     OW 1216   3.585   6.122   4.167
  106SOL    HW1 1217   3.659   6.148   4.229
  106SOL    HW2 1218   3.541   6.039   4.201
  107SOL     OW 1219   0.902   1.054   0.844
  107SOL    HW1 1220   0.960   1.114   0.899
  107SOL    HW2 1221   0.809   1.056   0.879
  108SOL     OW 1222   3.273   6.944   5.653
  108SOL    HW1 1223   3.361   6.976   5.686
  108SOL    HW2 1224   3.205   7.017   5.662
  109SOL     OW 1225   1.156   0.995   2.299
  109SOL    HW1 1226   1.146   1.052   2.217
  109SOL    HW2 1227   1.085   1.020   2.365
  110SOL     OW 1228   3.223   5.173   4.194
  110SOL    HW1 1229   3.175   5.256   4.165
  110SOL    HW2 1230   3.198   5.152   4.288
  111SOL     OW 1231   1.596   1.568   3.994
  111SOL    HW1 1232   1.647   1.506   3.934
  111SOL    HW2 1233   1.503   1.578   3.960
  112SOL     OW 1234   3.304   5.824   6.512
  112SOL    HW1 1235   3.274   5.771   6.433
  112SOL    HW2 1236   3.304   5.921   6.488
  113SOL     OW 1237   0.640   5.488   2.387
  113SOL    HW1 1238   0.626   5.522   2.480
  113SOL    HW2 1239   0.614   5.392   2.382
  114SOL     OW 1240   1.204   6.798   2.046
  114SOL    HW1 1241   1.278   6.731   2.061
  114SOL    HW2 1242   1.136   6.788   2.119
  115SOL     OW 1243   4.919   1.000   3.299
  115SOL    HW1 1244   4.896   0.994   3.202
  115SOL    HW2 1245   4.854   0.946   3.353
  116SOL     OW 1246   6.211   5.983   1.687
  116SOL    HW1 1247   6.113   5.989   1.670
  116SOL    HW2 1248   6.245   6.070   1.723
  117SOL     OW 1249   1.579   1.188   1.110
  117SOL    HW1 1250   1.559   1.243   1.192
  117SOL    HW2 1251   1.589   1.092   1.136
  118SOL     OW 1252   1.590   0.899   2.174
  118SOL    HW1 1253   1.678   0.908   2.221
  118SOL    HW2 1254   1.516   0.894   2.241
  119SOL     OW 1255   0.557   0.559   6.947
  119SOL    HW1 1256   0.539   0.521   6.857
  119SOL    HW2 1257   0.623   0.501   6.996
  120SOL     OW 1258   5.699   0.829   6.476
  120SOL    HW1 1259   5.637   0.751   6.464
  120SOL    HW2 1260   5.692   0.890   6.397
  121SOL     OW 1261   1.842   3.083   6.670
  121SOL    HW1 1262   1.923   3.031   6.697
  121SOL    HW2 1263   1.774   3.080   6.743
  122SOL     OW 1264   1.434   3.743   6.694
  122SOL    HW1 1265   1.398   3.651   6.682
  122SOL    HW2 1266   1.508   3.741   6.762
  123SOL     OW 1267   1.018   1.335   2.700
  123SOL    HW1 1268   0.952   1.260   2.704
  123SOL    HW2 1269   1.111   1.299   2.698
  124SOL     OW 1270   3.675   2.526   1.004
  124SOL    HW1 1271   3.755   2.542   0.946
  124SOL    HW2 1272   3.694   2.451   1.068
  125SOL     OW 1273   3.456   2.135   0.118
  125SOL    HW1 1274   3.431   2.165   0.026
  125SOL    HW2 1275   3.399   2.183   0.185
  126SOL     OW 1276   2.792   4.328   1.079
  126SOL    HW1 1277   2.727   4.313   1.004
  126SOL    HW2 1278   2.742   4.336   1.165
  127SOL     OW 1279   1.032   4.630   6.870
  127SOL    HW1 1280   1.111   4.681   6.839
  127SOL    HW2 1281   1.050   4.592   6.961
  128SOL     OW 1282   4.866   2.531   1.341
  128SOL    HW1 1283   4.891   2.446   1.294
  128SOL    HW2 1284   4.767   2.538   1.346
  129SOL     OW 1285   3.309   3.728   6.181
  129SOL    HW1 1286   3.377   3.778   6.235
  129SOL    HW2 1287   3.226   3.783   6.173
  130SOL     OW 1288   1.613   1.804   4.307
  130SOL    HW1 1289   1.595   1.876   4.373
  130SOL    HW2 1290   1.551   1.814   4.229
  131SOL     OW 1291   4.720   0.234   3.355
  131SOL    HW1 1292   4.703   0.147   3.308
  131SOL    HW2 1293   4.781   0.219   3.432
  132SOL     OW 1294   3.032   2.914   1.722
  132SOL    HW1 1295   2.998   2.831   1.767
  132SOL    HW2 1296   3.130   2.924   1.742
  133SOL     OW 1297   5.046   0.761   4.159
  133SOL    HW1 1298   5.066   0.853   4.126
  133SOL    HW2 1299   5.030   0.700   4.082
  134SOL     OW 1300   6.720   1.062   2.258
  134SOL    HW1 1301   6.660   0.991   2.296
  134SOL    HW2 1302   6.678   1.152   2.271
  135SOL     OW 1303   5.419   4.148   3.745
  135SOL    HW1 1304   5.326   4.118   3.724
  135SOL    HW2 1305   5.466   4.078   3.798
  136SOL     OW 1306   1.976   5.479   5.181
  136SOL    HW1 1307   1.913   5.483   5.258
  136SOL    HW2 1308   1.959   5.556   5.119
  137SOL     OW 1309   5.375   1.605   2.959
  137SOL    HW1 1310   5.440   1.573   3.028
  137SOL    HW2 1311   5.350   1.700   2.977
  138SOL     OW 1312   1.165   3.704   2.817
  138SOL    HW1 1313   1.230   3.670   2.750
  138SOL    HW2 1314   1.184   3.661   2.906
  139SOL     OW 1315   1.583   0.120   5.164
  139SOL    HW1 1316   1.624   0.087   5.248
  139SOL    HW2 1317   1.488   0.146   5.181
  140SOL     OW 1318   1.281   6.685   3.734
  140SOL    HW1 1319   1.185   6.704   3.712
  140SOL    HW2 1320   1.308   6.739   3.814
  141SOL     OW 1321   0.171   2.747   5.072
  141SOL    HW1 1322   0.090   2.689   5.061
  141SOL    HW2 1323   0.181   2.806   4.992
  142SOL     OW 1324   1.262   4.506   1.216
  142SOL    HW1 1325   1.215   4.538   1.298
  142SOL    HW2 1326   1.361   4.517   1.228
  143SOL     OW 1327   5.949   4.123   0.375
  143SOL    HW1 1328   5.853   4.118   0.404
  143SOL    HW2 1329   5.954   4.119   0.276
  144SOL     OW 1330   1.225   4.646   5.518
  144SOL    HW1 1331   1.221   4.548   5.497
  144SOL    HW2 1332   1.193   4.661   5.612
  145SOL     OW 1333   0.752   5.129   1.248
  145SOL    HW1 1334   0.692   5.142   1.169
  145SOL    HW2 1335   0.831   5.191   1.241
  146SOL     OW 1336   4.754   0.725   5.713
  146SOL    HW1 1337   4.659   0.713   5.741
  146SOL    HW2 1338   4.771   0.675   5.628
  147SOL     OW 1339   5.373   2.695   6.033
  147SOL    HW1 1340   5.346   2.599   6.039
  147SOL    HW2 1341   5.469   2.704   6.058
  148SOL     OW 1342   6.999   5.530   0.749
  148SOL    HW1 1343   0.025   5.612   0.787
  148SOL    HW2 1344   6.999   5.535   0.650
  149SOL     OW 1345   3.573   2.074   4.039
  149SOL    HW1 1346   3.567   2.124   4.125
  149SOL    HW2 1347   3.638   1.999   4.047
  150SOL     OW 1348   5.810   6.897   0.603
  150SOL    HW1 1349   5.806   6.984   0.553
  150SOL    HW2 1350   5.769   6.825   0.547
  151SOL     OW 1351   3.208   1.325   1.933
  151SOL    HW1 1352   3.173   1.344   1.842
  151SOL    HW2 1353   3.266   1.400   1.964
  152SOL     OW 1354   0.208   1.004   1.604
  152SOL    HW1 1355   0.139   1.059   1.557
  152SOL    HW2 1356   0.190   1.005   1.703
  153SOL     OW 1357   2.989   0.638   3.764
  153SOL    HW1 1358   3.067   0.575   3.771
  153SOL    HW2 1359   2.926   0.619   3.839
  154SOL     OW 1360   0.653   3.567   1.501
  154SOL    HW1 1361   0.671   3.637   1.569
  154SOL    HW2 1362   0.555   3.563   1.482
  155SOL     OW 1363   0.847   1.696   5.225
  155SOL    HW1 1364   0.840   1.682   5.324
  155SOL    HW2 1365   0.860   1.794   5.206
  156SOL     OW 1366   0.136   0.745   0.997
  156SOL    HW1 1367   0.200   0.813   1.032
  156SOL    HW2 1368   0.050   0.789   0.971
  157SOL     OW 1369   5.476   3.006   1.521
  157SOL    HW1 1370   5.543   3.068   1.562
  157SOL    HW2 1371   5.408   3.059   1.470
  158SOL     OW 1372   1.853   3.232   1.916
  158SOL    HW1 1373   1.887   3.169   1.846
  158SOL    HW2 1374   1.924   3.298   1.938
  159SOL     OW 1375   4.774   4.789   2.445
  159SOL    HW1 1376   4.870   4.764   2.460
  159SOL    HW2 1377   4.748   4.768   2.351
  160SOL     OW 1378   5.488   6.316   0.582
  160SOL    HW1 1379   5.531   6.405   0.600
  160SOL    HW2 1380   5.445   6.283   0.665
  161SOL     OW 1381   1.714   6.553   3.375
  161SOL    HW1 1382   1.727   6.531   3.472
  161SOL    HW2 1383   1.705   6.468   3.323
  162SOL     OW 1384   3.677   6.684   0.247
  162SOL    HW1 1385   3.641   6.650   0.161
  162SOL    HW2 1386   3.606   6.678   0.318
  163SOL     OW 1387   6.305   5.199   1.829
  163SOL    HW1 1388   6.215   5.191   1.871
  163SOL    HW2 1389   6.351   5.280   1.863
  164SOL     OW 1390   0.721   4.494   2.834
  164SOL    HW1 1391   0.706   4.477   2.931
  164SOL    HW2 1392   0.754   4.410   2.790
  165SOL     OW 1393   4.387   3.610   1.596
  165SOL    HW1 1394   4.462   3.662   1.637
  165SOL    HW2 1395   4.417   3.517   1.575
  166SOL     OW 1396   1.566   3.488   2.171
  166SOL    HW1 1397   1.467   3.480   2.185
  166SOL    HW2 1398   1.590   3.583   2.154
  167SOL     OW 1399   5.135   3.419   6.950
  167SOL    HW1 1400   5.090   3.401   0.019
  167SOL    HW2 1401   5.094   3.362   6.879
  168SOL     OW 1402   3.355   2.888   1.075
  168SOL    HW1 1403   3.289   2.898   1.149
  168SOL    HW2 1404   3.314   2.837   1.000
  169SOL     OW 1405   5.639   2.047   1.757
  169SOL    HW1 1406   5.578   2.003   1.823
  169SOL    HW2 1407   5.722   2.076   1.804
  170SOL     OW 1408   0.458   0.004   2.446
  170SOL    HW1 1409   0.402   6.979   2.517
  170SOL    HW2 1410   0.474   6.956   2.372
  171SOL     OW 1411   2.249   4.303   6.858
  171SOL    HW1 1412   2.168   4.346   6.817
  171SOL    HW2 1413   2.311   4.273   6.786
  172SOL     OW 1414   6.293   1.333   2.725
  172SOL    HW1 1415   6.341   1.414   2.757
  172SOL    HW2 1416   6.343   1.292   2.649
  173SOL     OW 1417   6.669   1.186   4.020
  173SOL    HW1 1418   6.621   1.274   4.014
  173SOL    HW2 1419   6.734   1.178   3.945
  174SOL     OW 1420   3.742   5.468   3.409
  174SOL    HW1 1421   3.731   5.413   3.492
  174SOL    HW2 1422   3.685   5.550   3.417
  175SOL     OW 1423   3.012   0.054   1.723
  175SOL    HW1 1424   2.977   0.114   1.794
  175SOL    HW2 1425   3.067   0.107   1.658
  176SOL     OW 1426   6.679   4.652   1.063
  176SOL    HW1 1427   6.698   4.663   1.160
  176SOL    HW2 1428   6.691   4.557   1.037
  177SOL     OW 1429   5.832   3.033   3.528
  177SOL    HW1 1430   5.822   3.112   3.467
  177SOL    HW2 1431   5.781   2.956   3.490
  178SOL     OW 1432   3.295   4.220   5.900
  178SOL    HW1 1433   3.286   4.131   5.856
  178SOL    HW2 1434   3.386   4.229   5.941
  179SOL     OW 1435   4.346   1.405   6.010
  179SOL    HW1 1436   4.301   1.464   5.942
  179SOL    HW2 1437   4.441   1.436   6.022
  180SOL     OW 1438   2.284   6.784   0.347
  180SOL    HW1 1439   2.362   6.830   0.304
  180SOL    HW2 1440   2.202   6.840   0.333
  181SOL     OW 1441   3.592   3.463   5.489
  181SOL    HW1 1442   3.624   3.379   5.445
  181SOL    HW2 1443   3.620   3.462   5.586
  182SOL     OW 1444   3.628   1.922   5.516
  182SOL    HW1 1445   3.596   1.995   5.456
  182SOL    HW2 1446   3.550   1.869   5.549
  183SOL     OW 1447   3.531   1.929   3.035
  183SOL    HW1 1448   3.471   2.009   3.035
  183SOL    HW2 1449   3.571   1.917   3.126
  184SOL     OW 1450   0.926   6.763   4.334
  184SOL    HW1 1451   0.874   6.712   4.403
  184SOL    HW2 1452   0.932   6.709   4.250
  185SOL     OW 1453   0.690   0.596   5.993
  185SOL    HW1 1454   0.638   0.681   6.001
  185SOL    HW2 1455   0.687   0.546   6.080
  186SOL     OW 1456   6.329   0.559   3.853
  186SOL    HW1 1457   6.238   0.536   3.888
  186SOL    HW2 1458   6.398   0.502   3.899
  187SOL     OW 1459   5.184   6.659   2.256
  187SOL    HW1 1460   5.209   6.756   2.252
  187SOL    HW2 1461   5.098   6.645   2.207
  188SOL     OW 1462   0.952   3.186   2.933
  188SOL    HW1 1463   1.000   3.230   2.858
  188SOL    HW2 1464   0.910   3.101   2.902
  189SOL     OW 1465   2.638   5.192   0.858
  189SOL    HW1 1466   2.553   5.171   0.808
  189SOL    HW2 1467   2.633   5.154   0.950
  190SOL     OW 1468   5.229   3.154   5.496
  190SOL    HW1 1469   5.242   3.185   5.591
  190SOL    HW2 1470   5.133   3.167   5.470
  191SOL     OW 1471   6.033   0.370   6.430
  191SOL    HW1 1472   6.086   0.286   6.429
  191SOL    HW2 1473   6.089   0.445   6.395
  192SOL     OW 1474   0.722   4.849   2.216
  192SOL    HW1 1475   0.624   4.851   2.236
  192SOL    HW2 1476   0.740   4.783   2.143
  193SOL     OW 1477   4.493   3.659   5.327
  193SOL    HW1 1478   4.415   3.598   5.313
  193SOL    HW2 1479   4.559   3.647   5.253
  194SOL     OW 1480   3.905   0.760   2.752
  194SOL    HW1 1481   3.941   0.853   2.743
  194SOL    HW2 1482   3.981   0.695   2.752
  195SOL     OW 1483   1.782   0.148   4.031
  195SOL    HW1 1484   1.788   0.217   4.103
  195SOL    HW2 1485   1.819   0.185   3.946
  196SOL     OW 1486   3.106   0.761   0.593
  196SOL    HW1 1487   3.141   0.687   0.651
  196SOL    HW2 1488   3.095   0.727   0.500
  197SOL     OW 1489   2.600   0.380   1.393
  197SOL    HW1 1490   2.666   0.350   1.324
  197SOL    HW2 1491   2.630   0.468   1.431
  198SOL     OW 1492   5.071   0.193   1.620
  198SOL    HW1 1493   5.052   0.281   1.575
  198SOL    HW2 1494   4.996   0.172   1.682
  199SOL     OW 1495   6.656   1.572   3.292
  199SOL    HW1 1496   6.556   1.576   3.301
  199SOL    HW2 1497   6.692   1.664   3.278
  200SOL     OW 1498   1.129   4.682   1.964
  200SOL    HW1 1499   1.132   4.600   2.021
  200SOL    HW2 1500   1.039   4.691   1.923
  201SOL     OW 1501   6.924   6.666   6.206
  201SOL    HW1 1502   6.829   6.666   6.238
  201SOL    HW2 1503   6.966   6.578   6.227
  202SOL     OW 1504   4.872   0.421   6.039
  202SOL    HW1 1505   4.959   0.381   6.065
  202SOL    HW2 1506   4.881   0.521   6.035
  203SOL     OW 1507   4.523   2.529   4.368
  203SOL    HW1 1508   4.431   2.519   4.330
  203SOL    HW2 1509   4.530   2.478   4.453
  204SOL     OW 1510   0.412   1.005   6.722
  204SOL    HW1 1511   0.357   1.053   6.653
  204SOL    HW2 1512   0.359   0.995   6.806
  205SOL     OW 1513   0.668   1.117   3.074
  205SOL    HW1 1514   0.678   1.158   3.165
  205SOL    HW2 1515   0.756   1.077   3.046
  206SOL     OW 1516   0.044   5.006   1.701
  206SOL    HW1 1517   0.099   5.023   1.783
  206SOL    HW2 1518   6.989   4.941   1.723
  207SOL     OW 1519   5.226   1.041   3.734
  207SOL    HW1 1520   5.302   0.995   3.780
  207SOL    HW2 1521   5.179   0.976   3.673
  208SOL     OW 1522   5.648   2.581   5.129
  208SOL    HW1 1523   5.555   2.565   5.161
  208SOL    HW2 1524   5.647   2.607   5.033
  209SOL     OW 1525   0.298   4.482   4.538
  209SOL    HW1 1526   0.271   4.442   4.625
  209SOL    HW2 1527   0.281   4.581   4.540
  210SOL     OW 1528   4.255   1.507   0.671
  210SOL    HW1 1529   4.334   1.533   0.726
  210SOL    HW2 1530   4.173   1.551   0.707
  211SOL     OW 1531   2.390   6.070   3.307
  211SOL    HW1 1532   2.312   6.104   3.359
  211SOL    HW2 1533   2.371   6.079   3.209
  212SOL     OW 1534   1.247   4.273   1.614
  212SOL    HW1 1535   1.191   4.308   1.689
  212SOL    HW2 1536   1.192   4.266   1.531
  213SOL     OW 1537   3.104   0.666   6.585
  213SOL    HW1 1538   3.157   0.750   6.595
  213SOL    HW2 1539   3.121   0.606   6.663
  214SOL     OW 1540   4.846   5.265   1.265
  214SOL    HW1 1541   4.907   5.344   1.253
  214SOL    HW2 1542   4.786   5.280   1.343
  215SOL     OW 1543   2.181   3.748   0.838
  215SOL    HW1 1544   2.274   3.712   0.851
  215SOL    HW2 1545   2.136   3.755   0.927
  216SOL     OW 1546   2.314   5.813   4.128
  216SOL    HW1 1547   2.366   5.755   4.192
  216SOL    HW2 1548   2.363   5.899   4.113
  217SOL     OW 1549   2.052   2.510   3.827
  217SOL    HW1 1550   2.026   2.517   3.730
  217SOL    HW2 1551   2.150   2.495   3.834
  218SOL     OW 1552   1.051   3.070   4.366
  218SOL    HW1 1553   1.016   3.163   4.356
  218SOL    HW2 1554   0.979   3.004   4.343
  219SOL     OW 1555   4.311   6.583   6.077
  219SOL    HW1 1556   4.405   6.549   6.084
  219SOL    HW2 1557   4.259   6.525   6.014
  220SOL     OW 1558   3.950   6.945   0.812
  220SOL    HW1 1559   3.918   6.851   0.818
  220SOL    HW2 1560   4.048   6.947   0.791
  221SOL     OW 1561   6.299   2.933   1.580
  221SOL    HW1 1562   6.361   3.011   1.583
  221SOL    HW2 1563   6.243   2.932   1.663
  222SOL     OW 1564   2.689   4.721   5.382
  222SOL    HW1 1565   2.636   4.658   5.326
  222SOL    HW2 1566   2.664   4.710   5.478
  223SOL     OW 1567   5.594   2.712   0.842
  223SOL    HW1 1568   5.502   2.724   0.878
  223SOL    HW2 1569   5.595   2.639   0.773
  224SOL     OW 1570   1.955   2.319   4.842
  224SOL    HW1 1571   1.914   2.333   4.752
  224SOL    HW2 1572   2.051   2.347   4.839
  225SOL     OW 1573   4.625   2.530   6.163
  225SOL    HW1 1574   4.657   2.446   6.119
  225SOL    HW2 1575   4.527   2.521   6.183
  226SOL     OW 1576   1.197   0.811   6.279
  226SOL    HW1 1577   1.192   0.910   6.266
  226SOL    HW2 1578   1.122   0.767   6.229
  227SOL     OW 1579   1.329   3.186   3.322
  227SOL    HW1 1580   1.333   3.093   3.287
  227SOL    HW2 1581   1.257   3.237   3.274
  228SOL     OW 1582   2.911   6.143   3.554
  228SOL    HW1 1583   2.900   6.045   3.571
  228SOL    HW2 1584   2.944   6.157   3.460
  229SOL     OW 1585   4.777   5.990   6.850
  229SOL    HW1 1586   4.873   6.008   6.830
  229SOL    HW2 1587   4.728   5.969   6.765
  230SOL     OW 1588   3.147   4.963   3.320
  230SOL    HW1 1589   3.077   4.892   3.326
  230SOL    HW2 1590   3.193   4.956   3.231
  231SOL     OW 1591   6.169   1.800   6.970
  231SOL    HW1 1592   6.118   1.836   0.031
  231SOL    HW2 1593   6.266   1.821   6.982
  232SOL     OW 1594   1.240   3.823   6.465
  232SOL    HW1 1595   1.296   3.810   6.547
  232SOL    HW2 1596   1.154   3.773   6.475
  233SOL     OW 1597   2.305   2.457   3.957
  233SOL    HW1 1598   2.390   2.406   3.941
  233SOL    HW2 1599   2.244   2.402   4.013
  234SOL     OW 1600   4.222   6.987   4.961
  234SOL    HW1 1601   4.256   6.929   5.035
  234SOL    HW2 1602   4.126   7.012   4.980
  235SOL     OW 1603   3.447   3.148   1.731
  235SOL    HW1 1604   3.392   3.103   1.660
  235SOL    HW2 1605   3.542   3.156   1.700
  236SOL     OW 1606   4.961   3.378   0.148
  236SOL    HW1 1607   4.886   3.441   0.168
  236SOL    HW2 1608   4.925   3.285   0.139
  237SOL     OW 1609   5.967   5.004   1.930
  237SOL    HW1 1610   6.002   5.087   1.974
  237SOL    HW2 1611   6.029   4.928   1.947
  238SOL     OW 1612   5.028   2.495   0.052
  238SOL    HW1 1613   4.997   2.454   0.137
  238SOL    HW2 1614   5.128   2.495   0.049
  239SOL     OW 1615   0.319   5.364   5.638
  239SOL    HW1 1616   0.418   5.355   5.651
  239SOL    HW2 1617   0.273   5.345   5.725
  240SOL     OW 1618   0.419   2.754   3.648
  240SOL    HW1 1619   0.398   2.657   3.654
  240SOL    HW2 1620   0.497   2.768   3.587
  241SOL     OW 1621   1.713   0.304   4.967
  241SOL    HW1 1622   1.743   0.246   4.891
  241SOL    HW2 1623   1.642   0.256   5.019
  242SOL     OW 1624   3.151   3.314   5.394
  242SOL    HW1 1625   3.062   3.344   5.426
  242SOL    HW2 1626   3.223   3.358   5.447
  243SOL     OW 1627   4.307   0.262   5.871
  243SOL    HW1 1628   4.214   0.284   5.843
  243SOL    HW2 1629   4.335   0.325   5.944
  244SOL     OW 1630   5.598   2.097   4.599
  244SOL    HW1 1631   5.534   2.028   4.565
  244SOL    HW2 1632   5.565   2.188   4.574
  245SOL     OW 1633   6.665   3.447   4.677
  245SOL    HW1 1634   6.651   3.546   4.679
  245SOL    HW2 1635   6.700   3.420   4.587
  246SOL     OW 1636   4.653   2.345   3.145
  246SOL    HW1 1637   4.595   2.305   3.074
  246SOL    HW2 1638   4.627   2.441   3.157
  247SOL     OW 1639   2.991   1.778   1.737
  247SOL    HW1 1640   3.081   1.776   1.779
  247SOL    HW2 1641   2.988   1.852   1.669
  248SOL     OW 1642   3.512   2.087   2.611
  248SOL    HW1 1643   3.561   2.172   2.590
  248SOL    HW2 1644   3.519   2.025   2.533
  249SOL     OW 1645   3.862   0.225   5.595
  249SOL    HW1 1646   3.788   0.292   5.599
  249SOL    HW2 1647   3.825   0.136   5.568
  250SOL     OW 1648   4.949   2.594   0.693
  250SOL    HW1 1649   4.950   2.692   0.712
  250SOL    HW2 1650   4.992   2.545   0.768
  251SOL     OW 1651   4.578   3.880   5.472
  251SOL    HW1 1652   4.523   3.817   5.417
  251SOL    HW2 1653   4.669   3.887   5.433
  252SOL     OW 1654   6.582   6.808   6.681
  252SOL    HW1 1655   6.612   6.791   6.775
  252SOL    HW2 1656   6.650   6.863   6.634
  253SOL     OW 1657   2.389   4.592   6.920
  253SOL    HW1 1658   2.430   4.537   6.846
  253SOL    HW2 1659   2.296   4.560   6.937
  254SOL     OW 1660   4.825   3.087   3.295
  254SOL    HW1 1661   4.861   3.099   3.203
  254SOL    HW2 1662   4.809   2.990   3.312
  255SOL     OW 1663   2.089   3.240   4.706
  255SOL    HW1 1664   2.000   3.236   4.753
  255SOL    HW2 1665   2.158   3.195   4.763
  256SOL     OW 1666   6.598   4.166   6.430
  256SOL    HW1 1667   6.649   4.090   6.471
  256SOL    HW2 1668   6.504   4.137   6.412
  257SOL     OW 1669   4.843   6.942   3.855
  257SOL    HW1 1670   4.832   6.865   3.917
  257SOL    HW2 1671   4.829   0.010   3.904
  258SOL     OW 1672   0.591   5.086   4.985
  258SOL    HW1 1673   0.640   5.167   5.017
  258SOL    HW2 1674   0.603   5.076   4.886
  259SOL     OW 1675   1.566   2.042   2.459
  259SOL    HW1 1676   1.662   2.026   2.479
  259SOL    HW2 1677   1.517   2.063   2.544
  260SOL     OW 1678   4.844   0.973   0.805
  260SOL    HW1 1679   4.790   0.977   0.722
  260SOL    HW2 1680   4.783   0.976   0.885
  261SOL     OW 1681   6.333   3.633   0.120
  261SOL    HW1 1682   6.344   3.631   0.020
  261SOL    HW2 1683   6.310   3.726   0.149
  262SOL     OW 1684   6.684   4.349   0.663
  262SOL    HW1 1685   6.611   4.292   0.623
  262SOL    HW2 1686   6.770   4.329   0.618
  263SOL     OW 1687   0.611   1.036   3.845
  263SOL    HW1 1688   0.594   1.104   3.773
  263SOL    HW2 1689   0.524   1.004   3.882
  264SOL     OW 1690   4.712   3.246   6.121
  264SOL    HW1 1691   4.612   3.246   6.111
  264SOL    HW2 1692   4.740   3.163   6.169
  265SOL     OW 1693   4.600   5.559   3.054
  265SOL    HW1 1694   4.678   5.502   3.028
  265SOL    HW2 1695   4.604   5.645   3.003
  266SOL     OW 1696   3.739   3.126   5.693
  266SOL    HW1 1697   3.700   3.176   5.615
  266SOL    HW2 1698   3.831   3.096   5.671
  267SOL     OW 1699   6.831   2.414   6.146
  267SOL    HW1 1700   6.918   2.455   6.119
  267SOL    HW2 1701   6.772   2.402   6.066
  268SOL     OW 1702   4.101   0.196   5.260
  268SOL    HW1 1703   4.200   0.193   5.278
  268SOL    HW2 1704   4.061   0.106   5.279
  269SOL     OW 1705   1.634   3.211   1.063
  269SOL    HW1 1706   1.575   3.179   1.136
  269SOL    HW2 1707   1.694   3.283   1.097
  270SOL     OW 1708   0.308   0.546   0.452
  270SOL    HW1 1709   0.350   0.631   0.420
  270SOL    HW2 1710   0.300   0.549   0.552
  271SOL     OW 1711   2.008   1.415   0.677
  271SOL    HW1 1712   1.909   1.430   0.683
  271SOL    HW2 1713   2.028   1.356   0.599
  272SOL     OW 1714   3.177   4.955   4.023
  272SOL    HW1 1715   3.274   4.932   4.014
  272SOL    HW2 1716   3.168   5.040   4.076
  273SOL     OW 1717   2.051   4.442   4.867
  273SOL    HW1 1718   1.958   4.460   4.835
  273SOL    HW2 1719   2.110   4.421   4.789
  274SOL     OW 1720   4.939   2.104   3.717
  274SOL    HW1 1721   4.885   2.102   3.801
  274SOL    HW2 1722   4.947   2.012   3.679
  275SOL     OW 1723   6.047   4.853   5.880
  275SOL    HW1 1724   6.106   4.778   5.848
  275SOL    HW2 1725   6.046   4.854   5.980
  276SOL     OW 1726   0.104   5.157   2.570
  276SOL    HW1 1727   0.110   5.228   2.499
  276SOL    HW2 1728   0.167   5.178   2.644
  277SOL     OW 1729   1.851   3.929   0.580
  277SOL    HW1 1730   1.793   3.848   0.588
  277SOL    HW2 1731   1.834   3.974   0.492
  278SOL     OW 1732   0.088   5.190   1.506
  278SOL    HW1 1733   0.076   5.113   1.569
  278SOL    HW2 1734   0.055   5.274   1.549
  279SOL     OW 1735   6.172   2.844   4.632
  279SOL    HW1 1736   6.260   2.891   4.634
  279SOL    HW2 1737   6.185   2.747   4.651
  280SOL     OW 1738   2.417   6.757   2.985
  280SOL    HW1 1739   2.356   6.694   2.938
  280SOL    HW2 1740   2.505   6.713   3.001
  281SOL     OW 1741   3.314   4.931   2.216
  281SOL    HW1 1742   3.240   4.932   2.148
  281SOL    HW2 1743   3.275   4.929   2.308
  282SOL     OW 1744   3.451   1.225   5.297
  282SOL    HW1 1745   3.463   1.309   5.350
  282SOL    HW2 1746   3.520   1.221   5.225
  283SOL     OW 1747   6.965   1.203   5.740
  283SOL    HW1 1748   6.960   1.185   5.838
  283SOL    HW2 1749   6.907   1.137   5.691
  284SOL     OW 1750   0.806   4.410   4.666
  284SOL    HW1 1751   0.734   4.478   4.657
  284SOL    HW2 1752   0.806   4.350   4.585
  285SOL     OW 1753   5.425   5.143   6.097
  285SOL    HW1 1754   5.382   5.067   6.146
  285SOL    HW2 1755   5.392   5.146   6.003
  286SOL     OW 1756   3.100   5.465   5.074
  286SOL    HW1 1757   3.119   5.414   5.158
  286SOL    HW2 1758   3.046   5.409   5.012
  287SOL     OW 1759   0.571   4.653   6.889
  287SOL    HW1 1760   0.650   4.619   6.839
  287SOL    HW2 1761   0.532   4.731   6.841
  288SOL     OW 1762   4.077   2.238   6.096
  288SOL    HW1 1763   4.074   2.143   6.126
  288SOL    HW2 1764   4.110   2.296   6.171
  289SOL     OW 1765   6.884   5.324   5.136
  289SOL    HW1 1766   6.790   5.300   5.111
  289SOL    HW2 1767   6.904   5.287   5.227
  290SOL     OW 1768   5.413   1.265   4.376
  290SOL    HW1 1769   5.457   1.316   4.302
  290SOL    HW2 1770   5.373   1.329   4.442
  291SOL     OW 1771   2.471   1.889   4.776
  291SOL    HW1 1772   2.397   1.935   4.727
  291SOL    HW2 1773   2.502   1.947   4.851
  292SOL     OW 1774   2.091   2.077   2.701
  292SOL    HW1 1775   2.002   2.108   2.733
  292SOL    HW2 1776   2.138   2.151   2.654
  293SOL     OW 1777   4.797   4.802   1.762
  293SOL    HW1 1778   4.861   4.862   1.713
  293SOL    HW2 1779   4.707   4.807   1.719
  294SOL     OW 1780   6.472   5.523   6.392
  294SOL    HW1 1781   6.433   5.594   6.450
  294SOL    HW2 1782   6.418   5.514   6.308
  295SOL     OW 1783   3.277   1.361   4.387
  295SOL    HW1 1784   3.303   1.416   4.308
  295SOL    HW2 1785   3.187   1.321   4.373
  296SOL     OW 1786   5.929   1.870   2.050
  296SOL    HW1 1787   5.883   1.854   2.138
  296SOL    HW2 1788   5.886   1.948   2.004
  297SOL     OW 1789   3.160   4.919   3.043
  297SOL    HW1 1790   3.181   4.916   2.945
  297SOL    HW2 1791   3.061   4.908   3.056
  298SOL     OW 1792   3.224   5.755   0.736
  298SOL    HW1 1793   3.307   5.708   0.765
  298SOL    HW2 1794   3.156   5.750   0.808
  299SOL     OW 1795   3.710   3.617   5.970
  299SOL    HW1 1796   3.715   3.714   5.945
  299SOL    HW2 1797   3.691   3.608   6.068
  300SOL     OW 1798   5.569   0.785   2.498
  300SOL    HW1 1799   5.494   0.720   2.503
  300SOL    HW2 1800   5.593   0.816   2.590
  301SOL     OW 1801   5.864   3.219   1.011
  301SOL    HW1 1802   5.825   3.231   0.920
  301SOL    HW2 1803   5.904   3.128   1.019
  302SOL     OW 1804   0.539   0.953   3.425
  302SOL    HW1 1805   0.575   1.046   3.414
  302SOL    HW2 1806   0.557   0.900   3.343
  303SOL     OW 1807   6.694   6.870   2.066
  303SOL    HW1 1808   6.676   6.907   1.975
  303SOL    HW2 1809   6.713   6.772   2.058
  304SOL     OW 1810   1.823   0.248   5.503
  304SOL    HW1 1811   1.840   0.242   5.405
  304SOL    HW2 1812   1.790   0.160   5.537
  305SOL     OW 1813   0.850   3.498   0.426
  305SOL    HW1 1814   0.810   3.449   0.348
  305SOL    HW2 1815   0.820   3.455   0.511
  306SOL     OW 1816   1.771   0.011   3.671
  306SOL    HW1 1817   1.817   6.947   3.707
  306SOL    HW2 1818   1.776   0.011   3.571
  307SOL     OW 1819   5.037   5.926   0.122
  307SOL    HW1 1820   5.047   6.016   0.164
  307SOL    HW2 1821   5.083   5.925   0.033
  308SOL     OW 1822   6.376   3.302   4.457
  308SOL    HW1 1823   6.284   3.317   4.493
  308SOL    HW2 1824   6.417   3.391   4.435
  309SOL     OW 1825   2.602   5.911   6.907
  309SOL    HW1 1826   2.575   5.875   6.818
  309SOL    HW2 1827   2.698   5.888   6.924
  310SOL     OW 1828   5.887   6.446   5.180
  310SOL    HW1 1829   5.848   6.516   5.239
  310SOL    HW2 1830   5.945   6.488   5.110
  311SOL     OW 1831   4.614   4.763   2.720
  311SOL    HW1 1832   4.540   4.799   2.776
  311SOL    HW2 1833   4.626   4.822   2.640
  312SOL     OW 1834   4.396   1.189   4.677
  312SOL    HW1 1835   4.342   1.191   4.761
  312SOL    HW2 1836   4.449   1.273   4.670
  313SOL     OW 1837   2.935   3.715   2.279
  313SOL    HW1 1838   2.886   3.799   2.255
  313SOL    HW2 1839   2.900   3.639   2.225
  314SOL     OW 1840   2.928   5.489   6.875
  314SOL    HW1 1841   2.873   5.429   6.933
  314SOL    HW2 1842   3.023   5.459   6.876
  315SOL     OW 1843   1.308   2.748   4.021
  315SOL    HW1 1844   1.386   2.716   3.968
  315SOL    HW2 1845   1.270   2.830   3.978
  316SOL     OW 1846   3.156   1.615   4.023
  316SOL    HW1 1847   3.220   1.687   3.999
  316SOL    HW2 1848   3.104   1.642   4.104
  317SOL     OW 1849   6.980   1.371   0.736
  317SOL    HW1 1850   7.014   1.329   0.652
  317SOL    HW2 1851   6.900   1.427   0.716
  318SOL     OW 1852   1.048   5.781   6.766
  318SOL    HW1 1853   1.030   5.815   6.673
  318SOL    HW2 1854   1.136   5.816   6.798
  319SOL     OW 1855   6.534   1.001   3.271
  319SOL    HW1 1856   6.468   0.956   3.331
  319SOL    HW2 1857   6.506   1.096   3.256
  320SOL     OW 1858   6.332   2.351   1.314
  320SOL    HW1 1859   6.379   2.263   1.315
  320SOL    HW2 1860   6.388   2.417   1.264
  321SOL     OW 1861   4.063   1.915   6.958
  321SOL    HW1 1862   4.142   1.977   6.965
  321SOL    HW2 1863   4.016   1.913   0.029
  322SOL     OW 1864   3.867   2.992   4.268
  322SOL    HW1 1865   3.797   2.965   4.202
  322SOL    HW2 1866   3.848   2.948   4.356
  323SOL     OW 1867   1.170   2.815   6.457
  323SOL    HW1 1868   1.211   2.882   6.395
  323SOL    HW2 1869   1.235   2.741   6.474
  324SOL     OW 1870   2.643   1.664   4.853
  324SOL    HW1 1871   2.709   1.653   4.927
  324SOL    HW2 1872   2.619   1.760   4.843
  325SOL     OW 1873   0.925   3.012   1.907
  325SOL    HW1 1874   0.987   3.085   1.878
  325SOL    HW2 1875   0.834   3.050   1.924
  326SOL     OW 1876   1.204   4.872   6.798
  326SOL    HW1 1877   1.142   4.936   6.753
  326SOL    HW2 1878   1.253   4.818   6.729
  327SOL     OW 1879   1.575   4.963   3.609
  327SOL    HW1 1880   1.569   4.868   3.578
  327SOL    HW2 1881   1.615   4.967   3.700
  328SOL     OW 1882   1.578   5.563   1.845
  328SOL    HW1 1883   1.546   5.513   1.925
  328SOL    HW2 1884   1.516   5.547   1.768
  329SOL     OW 1885   4.037   3.609   4.555
  329SOL    HW1 1886   4.036   3.513   4.586
  329SOL    HW2 1887   4.048   3.669   4.634
  330SOL     OW 1888   3.932   6.961   1.693
  330SOL    HW1 1889   3.886   6.969   1.782
  330SOL    HW2 1890   3.987   6.878   1.692
  331SOL     OW 1891   3.759   5.071   0.492
  331SOL    HW1 1892   3.701   4.989   0.488
  331SOL    HW2 1893   3.825   5.061   0.567
  332SOL     OW 1894   4.388   1.724   5.129
  332SOL    HW1 1895   4.289   1.714   5.120
  332SOL    HW2 1896   4.422   1.660   5.198
  333SOL     OW 1897   2.997   0.482   6.145
  333SOL    HW1 1898   2.981   0.538   6.063
  333SOL    HW2 1899   2.981   0.386   6.124
  334SOL     OW 1900   3.104   0.378   1.765
  334SOL    HW1 1901   3.191   0.408   1.804
  334SOL    HW2 1902   3.057   0.318   1.830
  335SOL     OW 1903   3.841   6.963   5.502
  335SOL    HW1 1904   3.931   6.946   5.542
  335SOL    HW2 1905   3.793   6.877   5.489
  336SOL     OW 1906   1.723   0.514   3.265
  336SOL    HW1 1907   1.805   0.534   3.210
  336SOL    HW2 1908   1.725   0.569   3.348
  337SOL     OW 1909   0.621   2.848   0.144
  337SOL    HW1 1910   0.553   2.800   0.200
  337SOL    HW2 1911   0.706   2.796   0.142
  338SOL     OW 1912   2.736   2.343   1.608
  338SOL    HW1 1913   2.793   2.417   1.574
  338SOL    HW2 1914   2.761   2.257   1.563
  339SOL     OW 1915   2.932   6.398   3.631
  339SOL    HW1 1916   2.915   6.301   3.615
  339SOL    HW2 1917   2.845   6.447   3.631
  340SOL     OW 1918   4.738   4.523   5.217
  340SOL    HW1 1919   4.680   4.449   5.252
  340SOL    HW2 1920   4.699   4.611   5.244
  341SOL     OW 1921   6.673   0.690   4.770
  341SOL    HW1 1922   6.702   0.726   4.858
  341SOL    HW2 1923   6.682   0.762   4.700
  342SOL     OW 1924   6.006   3.483   6.975
  342SOL    HW1 1925   6.094   3.475   6.929
  342SOL    HW2 1926   6.001   3.416   0.032
  343SOL     OW 1927   2.358   5.726   0.447
  343SOL    HW1 1928   2.343   5.818   0.410
  343SOL    HW2 1929   2.277   5.670   0.429
  344SOL     OW 1930   1.208   4.437   2.105
  344SOL    HW1 1931   1.178   4.346   2.135
  344SOL    HW2 1932   1.253   4.484   2.181
  345SOL     OW 1933   4.787   1.079   3.562
  345SOL    HW1 1934   4.824   0.986   3.552
  345SOL    HW2 1935   4.710   1.091   3.499
  346SOL     OW 1936   2.210   0.796   2.854
  346SOL    HW1 1937   2.215   0.845   2.941
  346SOL    HW2 1938   2.243   0.702   2.866
  347SOL     OW 1939   3.256   5.411   6.483
  347SOL    HW1 1940   3.336   5.351   6.478
  347SOL    HW2 1941   3.174   5.357   6.502
  348SOL     OW 1942   5.350   3.840   2.223
  348SOL    HW1 1943   5.373   3.885   2.310
  348SOL    HW2 1944   5.310   3.750   2.242
  349SOL     OW 1945   6.880   5.013   1.396
  349SOL    HW1 1946   6.963   4.968   1.428
  349SOL    HW2 1947   6.900   5.066   1.314
  350SOL     OW 1948   3.436   3.348   1.071
  350SOL    HW1 1949   3.519   3.391   1.035
  350SOL    HW2 1950   3.393   3.409   1.137
  351SOL     OW 1951   1.913   3.051   0.786
  351SOL    HW1 1952   1.848   3.035   0.711
  351SOL    HW2 1953   1.958   2.965   0.810
  352SOL     OW 1954   2.679   1.164   4.552
  352SOL    HW1 1955   2.751   1.119   4.500
  352SOL    HW2 1956   2.698   1.262   4.558
  353SOL     OW 1957   2.267   6.972   0.670
  353SOL    HW1 1958   2.327   7.005   0.742
  353SOL    HW2 1959   2.281   0.009   0.587
  354SOL     OW 1960   3.473   2.449   0.525
  354SOL    HW1 1961   3.548   2.491   0.474
  354SOL    HW2 1962   3.509   2.401   0.605
  355SOL     OW 1963   1.013   3.857   2.642
  355SOL    HW1 1964   1.086   3.925   2.641
  355SOL    HW2 1965   1.032   3.789   2.713
  356SOL     OW 1966   3.044   0.350   5.802
  356SOL    HW1 1967   3.021   0.444   5.830
  356SOL    HW2 1968   3.101   0.307   5.873
  357SOL     OW 1969   0.392   6.653   5.465
  357SOL    HW1 1970   0.351   6.715   5.399
  357SOL    HW2 1971   0.443   6.582   5.417
  358SOL     OW 1972   4.368   0.376   1.005
  358SOL    HW1 1973   4.346   0.473   1.019
  358SOL    HW2 1974   4.297   0.319   1.047
  359SOL     OW 1975   1.592   2.645   2.163
  359SOL    HW1 1976   1.690   2.663   2.149
  359SOL    HW2 1977   1.569   2.555   2.127
  360SOL     OW 1978   0.844   5.114   6.677
  360SOL    HW1 1979   0.866   5.120   6.774
  360SOL    HW2 1980   0.928   5.129   6.623
  361SOL     OW 1981   5.557   5.776   2.988
  361SOL    HW1 1982   5.503   5.761   3.071
  361SOL    HW2 1983   5.497   5.804   2.913
  362SOL     OW 1984   3.633   3.946   1.739
  362SOL    HW1 1985   3.691   4.000   1.799
  362SOL    HW2 1986   3.573   3.888   1.794
  363SOL     OW 1987   5.371   4.799   3.447
  363SOL    HW1 1988   5.395   4.843   3.534
  363SOL    HW2 1989   5.420   4.843   3.373
  364SOL     OW 1990   5.739   5.574   6.066
  364SOL    HW1 1991   5.779   5.613   5.984
  364SOL    HW2 1992   5.725   5.476   6.052
  365SOL     OW 1993   5.717   6.015   2.281
  365SOL    HW1 1994   5.689   6.024   2.185
  365SOL    HW2 1995   5.644   6.048   2.340
  366SOL     OW 1996   6.610   0.952   6.118
  366SOL    HW1 1997   6.545   0.921   6.187
  366SOL    HW2 1998   6.564   1.014   6.054
  367SOL     OW 1999   4.607   2.801   0.883
  367SOL    HW1 2000   4.574   2.740   0.955
  367SOL    HW2 2001   4.651   2.881   0.925
  368SOL     OW 2002   0.007   3.758   4.733
  368SOL    HW1 2003   0.073   3.751   4.808
  368SOL    HW2 2004   6.939   3.796   4.768
  369SOL     OW 2005   6.462   5.535   1.700
  369SOL    HW1 2006   6.438   5.473   1.625
  369SOL    HW2 2007   6.562   5.546   1.703
  370SOL     OW 2008   2.621   1.209   5.840
  370SOL    HW1 2009   2.719   1.206   5.824
  370SOL    HW2 2010   2.592   1.304   5.852
  371SOL     OW 2011   2.385   3.663   6.256
  371SOL    HW1 2012   2.463   3.624   6.206
  371SOL    HW2 2013   2.322   3.589   6.282
  372SOL     OW 2014   1.548   6.218   6.529
  372SOL    HW1 2015   1.523   6.152   6.458
  372SOL    HW2 2016   1.620   6.278   6.494
  373SOL     OW 2017   6.856   6.719   4.503
  373SOL    HW1 2018   6.784   6.768   4.454
  373SOL    HW2 2019   6.856   6.623   4.477
  374SOL     OW 2020   2.705   1.674   3.013
  374SOL    HW1 2021   2.795   1.695   2.975
  374SOL    HW2 2022   2.635   1.721   2.959
  375SOL     OW 2023   1.173   4.471   3.349
  375SOL    HW1 2024   1.093   4.454   3.292
  375SOL    HW2 2025   1.216   4.558   3.321
  376SOL     OW 2026   2.364   1.617   4.798
  376SOL    HW1 2027   2.334   1.654   4.710
  376SOL    HW2 2028   2.433   1.678   4.838
  377SOL     OW 2029   0.881   2.203   1.457
  377SOL    HW1 2030   0.956   2.183   1.394
  377SOL    HW2 2031   0.837   2.117   1.484
  378SOL     OW 2032   3.386   2.147   5.659
  378SOL    HW1 2033   3.312   2.184   5.714
  378SOL    HW2 2034   3.471   2.150   5.711
  379SOL     OW 2035   6.066   4.091   0.866
  379SOL    HW1 2036   6.062   4.167   0.801
  379SOL    HW2 2037   6.107   4.011   0.822
  380SOL     OW 2038   2.753   0.886   1.197
  380SOL    HW1 2039   2.695   0.958   1.233
  380SOL    HW2 2040   2.804   0.919   1.118
  381SOL     OW 2041   1.752   3.982   2.759
  381SOL    HW1 2042   1.835   3.979   2.815
  381SOL    HW2 2043   1.672   3.966   2.816
  382SOL     OW 2044   5.444   6.618   6.208
  382SOL    HW1 2045   5.408   6.582   6.295
  382SOL    HW2 2046   5.427   6.551   6.135
  383SOL     OW 2047   4.836   3.456   5.990
  383SOL    HW1 2048   4.818   3.388   6.062
  383SOL    HW2 2049   4.750   3.482   5.947
  384SOL     OW 2050   6.719   5.683   4.549
  384SOL    HW1 2051   6.659   5.697   4.470
  384SOL    HW2 2052   6.747   5.771   4.586
  385SOL     OW 2053   4.089   5.930   5.526
  385SOL    HW1 2054   4.022   5.966   5.590
  385SOL    HW2 2055   4.045   5.913   5.438
  386SOL     OW 2056   2.486   6.227   5.690
  386SOL    HW1 2057   2.393   6.247   5.662
  386SOL    HW2 2058   2.504   6.129   5.683
  387SOL     OW 2059   1.027   6.369   3.411
  387SOL    HW1 2060   0.938   6.330   3.388
  387SOL    HW2 2061   1.023   6.469   3.403
  388SOL     OW 2062   1.411   1.869   4.109
  388SOL    HW1 2063   1.325   1.868   4.161
  388SOL    HW2 2064   1.433   1.963   4.084
  389SOL     OW 2065   4.124   4.891   1.265
  389SOL    HW1 2066   4.037   4.853   1.296
  389SOL    HW2 2067   4.108   4.951   1.186
  390SOL     OW 2068   2.875   1.384   0.179
  390SOL    HW1 2069   2.967   1.384   0.218
  390SOL    HW2 2070   2.879   1.419   0.086
  391SOL     OW 2071   1.982   3.486   5.277
  391SOL    HW1 2072   2.056   3.547   5.246
  391SOL    HW2 2073   1.898   3.507   5.227
  392SOL     OW 2074   1.955   4.227   1.523
  392SOL    HW1 2075   1.979   4.269   1.610
  392SOL    HW2 2076   1.872   4.172   1.534
  393SOL     OW 2077   1.384   4.695   6.694
  393SOL    HW1 2078   1.400   4.597   6.706
  393SOL    HW2 2079   1.367   4.715   6.597
  394SOL     OW 2080   7.005   2.928   0.345
  394SOL    HW1 2081   0.031   2.895   0.262
  394SOL    HW2 2082   7.017   3.027   0.352
  395SOL     OW 2083   4.851   4.650   3.200
  395SOL    HW1 2084   4.795   4.642   3.118
  395SOL    HW2 2085   4.842   4.743   3.237
  396SOL     OW 2086   2.984   3.084   2.113
  396SOL    HW1 2087   2.915   3.018   2.145
  396SOL    HW2 2088   2.968   3.103   2.016
  397SOL     OW 2089   5.719   1.304   6.254
  397SOL    HW1 2090   5.622   1.285   6.236
  397SOL    HW2 2091   5.728   1.346   6.344
  398SOL     OW 2092   1.066   0.128   3.740
  398SOL    HW1 2093   1.030   0.053   3.796
  398SOL    HW2 2094   1.007   0.209   3.750
  399SOL     OW 2095   5.254   6.715   4.153
  399SOL    HW1 2096   5.293   6.782   4.216
  399SOL    HW2 2097   5.171   6.676   4.193
  400SOL     OW 2098   6.502   6.701   5.747
  400SOL    HW1 2099   6.475   6.605   5.743
  400SOL    HW2 2100   6.512   6.730   5.842
  401SOL     OW 2101   5.210   0.066   6.725
  401SOL    HW1 2102   5.258   0.004   6.663
  401SOL    HW2 2103   5.136   0.113   6.675
  402SOL     OW 2104   6.636   0.882   3.685
  402SOL    HW1 2105   6.617   0.785   3.665
  402SOL    HW2 2106   6.657   0.930   3.600
  403SOL     OW 2107   4.137   1.066   5.226
  403SOL    HW1 2108   4.230   1.034   5.245
  403SOL    HW2 2109   4.091   1.087   5.312
  404SOL     OW 2110   1.302   4.557   4.073
  404SOL    HW1 2111   1.298   4.589   3.978
  404SOL    HW2 2112   1.310   4.636   4.134
  405SOL     OW 2113   2.036   3.160   3.182
  405SOL    HW1 2114   2.019   3.121   3.091
  405SOL    HW2 2115   2.049   3.259   3.173
  406SOL     OW 2116   0.291   4.078   4.506
  406SOL    HW1 2117   0.364   4.094   4.573
  406SOL    HW2 2118   0.323   4.105   4.415
  407SOL     OW 2119   1.537   2.268   5.368
  407SOL    HW1 2120   1.596   2.306   5.439
  407SOL    HW2 2121   1.499   2.343   5.313
  408SOL     OW 2122   3.225   2.139   3.262
  408SOL    HW1 2123   3.208   2.117   3.358
  408SOL    HW2 2124   3.152   2.197   3.228
  409SOL     OW 2125   6.458   3.173   1.591
  409SOL    HW1 2126   6.479   3.182   1.493
  409SOL    HW2 2127   6.424   3.261   1.625
  410SOL     OW 2128   0.629   1.904   1.264
  410SOL    HW1 2129   0.648   1.806   1.276
  410SOL    HW2 2130   0.544   1.915   1.213
  411SOL     OW 2131   6.553   0.912   1.657
  411SOL    HW1 2132   6.571   0.815   1.639
  411SOL    HW2 2133   6.593   0.938   1.745
  412SOL     OW 2134   3.463   5.147   2.529
  412SOL    HW1 2135   3.492   5.053   2.549
  412SOL    HW2 2136   3.449   5.158   2.431
  413SOL     OW 2137   5.542   4.070   1.761
  413SOL    HW1 2138   5.485   4.018   1.825
  413SOL    HW2 2139   5.502   4.065   1.670
  414SOL     OW 2140   3.384   5.861   3.676
  414SOL    HW1 2141   3.376   5.762   3.681
  414SOL    HW2 2142   3.426   5.887   3.589
  415SOL     OW 2143   0.127   0.515   0.149
  415SOL    HW1 2144   0.159   0.494   0.242
  415SOL    HW2 2145   0.168   0.450   0.085
  416SOL     OW 2146   5.166   5.576   5.206
  416SOL    HW1 2147   5.100   5.513   5.165
  416SOL    HW2 2148   5.257   5.560   5.167
  417SOL     OW 2149   2.140   6.939   5.552
  417SOL    HW1 2150   2.154   6.900   5.461
  417SOL    HW2 2151   2.141   6.867   5.620
  418SOL     OW 2152   3.227   6.490   6.738
  418SOL    HW1 2153   3.187   6.437   6.814
  418SOL    HW2 2154   3.325   6.469   6.731
  419SOL     OW 2155   0.941   6.720   2.897
  419SOL    HW1 2156   1.012   6.783   2.928
  419SOL    HW2 2157   0.982   6.647   2.843
  420SOL     OW 2158   5.852   1.498   6.740
  420SOL    HW1 2159   5.803   1.412   6.752
  420SOL    HW2 2160   5.791   1.574   6.763
  421SOL     OW 2161   5.705   3.938   4.414
  421SOL    HW1 2162   5.645   3.857   4.415
  421SOL    HW2 2163   5.687   3.992   4.332
  422SOL     OW 2164   4.960   3.297   0.852
  422SOL    HW1 2165   4.877   3.331   0.809
  422SOL    HW2 2166   4.945   3.288   0.951
  423SOL     OW 2167   1.460   2.475   6.954
  423SOL    HW1 2168   1.401   2.497   6.876
  423SOL    HW2 2169   1.413   2.410   7.014
  424SOL     OW 2170   1.859   4.845   2.147
  424SOL    HW1 2171   1.874   4.910   2.222
  424SOL    HW2 2172   1.864   4.752   2.182
  425SOL     OW 2173   5.263   1.583   4.183
  425SOL    HW1 2174   5.230   1.604   4.092
  425SOL    HW2 2175   5.216   1.640   4.250
  426SOL     OW 2176   2.687   1.878   4.366
  426SOL    HW1 2177   2.778   1.918   4.372
  426SOL    HW2 2178   2.674   1.811   4.439
  427SOL     OW 2179   6.505   6.777   3.620
  427SOL    HW1 2180   6.421   6.751   3.666
  427SOL    HW2 2181   6.524   6.874   3.637
  428SOL     OW 2182   4.010   0.483   3.429
  428SOL    HW1 2183   4.097   0.517   3.465
  428SOL    HW2 2184   3.971   0.551   3.368
  429SOL     OW 2185   0.348   4.809   3.604
  429SOL    HW1 2186   0.364   4.863   3.687
  429SOL    HW2 2187   0.409   4.840   3.531
  430SOL     OW 2188   1.149   6.484   4.582
  430SOL    HW1 2189   1.170   6.571   4.537
  430SOL    HW2 2190   1.185   6.486   4.675
  431SOL     OW 2191   2.817   0.658   0.666
  431SOL    HW1 2192   2.883   0.619   0.602
  431SOL    HW2 2193   2.822   0.610   0.753
  432SOL     OW 2194   6.495   2.472   0.862
  432SOL    HW1 2195   6.471   2.568   0.843
  432SOL    HW2 2196   6.567   2.443   0.800
  433SOL     OW 2197   1.949   6.595   5.634
  433SOL    HW1 2198   1.972   6.537   5.556
  433SOL    HW2 2199   2.032   6.629   5.677
  434SOL     OW 2200   4.374   6.013   3.560
  434SOL    HW1 2201   4.334   6.083   3.619
  434SOL    HW2 2202   4.430   6.057   3.489
  435SOL     OW 2203   3.846   1.966   5.690
  435SOL    HW1 2204   3.774   1.933   5.628
  435SOL    HW2 2205   3.933   1.966   5.642
  436SOL     OW 2206   2.667   5.444   1.601
  436SOL    HW1 2207   2.714   5.366   1.642
  436SOL    HW2 2208   2.626   5.500   1.673
  437SOL     OW 2209   0.732   1.148   6.301
  437SOL    HW1 2210   0.693   1.193   6.381
  437SOL    HW2 2211   0.718   1.206   6.220
  438SOL     OW 2212   1.305   4.105   3.996
  438SOL    HW1 2213   1.355   4.190   4.014
  438SOL    HW2 2214   1.289   4.056   4.082
  439SOL     OW 2215   5.941   6.389   2.393
  439SOL    HW1 2216   5.937   6.360   2.297
  439SOL    HW2 2217   6.019   6.346   2.438
  440SOL     OW 2218   2.808   1.429   5.938
  440SOL    HW1 2219   2.868   1.353   5.912
  440SOL    HW2 2220   2.855   1.488   6.004
  441SOL     OW 2221   6.550   3.372   3.632
  441SOL    HW1 2222   6.472   3.334   3.583
  441SOL    HW2 2223   6.635   3.330   3.599
  442SOL     OW 2224   4.816   5.630   5.636
  442SOL    HW1 2225   4.755   5.561   5.598
  442SOL    HW2 2226   4.810   5.630   5.735
  443SOL     OW 2227   5.760   3.530   4.309
  443SOL    HW1 2228   5.774   3.595   4.384
  443SOL    HW2 2229   5.706   3.574   4.237
  444SOL     OW 2230   4.758   0.351   5.749
  444SOL    HW1 2231   4.853   0.332   5.724
  444SOL    HW2 2232   4.755   0.404   5.833
  445SOL     OW 2233   2.459   6.211   2.781
  445SOL    HW1 2234   2.434   6.308   2.779
  445SOL    HW2 2235   2.428   6.170   2.866
  446SOL     OW 2236   4.338   5.854   2.399
  446SOL    HW1 2237   4.406   5.919   2.433
  446SOL    HW2 2238   4.301   5.802   2.476
  447SOL     OW 2239   6.256   4.108   5.150
  447SOL    HW1 2240   6.183   4.063   5.202
  447SOL    HW2 2241   6.292   4.044   5.082
  448SOL     OW 2242   2.492   0.894   2.976
  448SOL    HW1 2243   2.544   0.834   2.915
  448SOL    HW2 2244   2.409   0.925   2.929
  449SOL     OW 2245   3.014   1.277   4.278
  449SOL    HW1 2246   2.943   1.344   4.256
  449SOL    HW2 2247   3.061   1.249   4.195
  450SOL     OW 2248   1.918   4.811   3.398
  450SOL    HW1 2249   1.891   4.730   3.347
  450SOL    HW2 2250   1.908   4.795   3.496
  451SOL     OW 2251   1.982   2.223   4.502
  451SOL    HW1 2252   1.949   2.312   4.534
  451SOL    HW2 2253   2.013   2.231   4.408
  452SOL     OW 2254   4.456   6.544   1.673
  452SOL    HW1 2255   4.526   6.607   1.707
  452SOL    HW2 2256   4.499   6.458   1.645
  453SOL     OW 2257   3.572   6.781   6.429
  453SOL    HW1 2258   3.650   6.780   6.367
  453SOL    HW2 2259   3.605   6.767   6.523
  454SOL     OW 2260   0.185   3.418   6.757
  454SOL    HW1 2261   0.193   3.517   6.743
  454SOL    HW2 2262   0.097   3.398   6.800
  455SOL     OW 2263   5.402   2.356   4.902
  455SOL    HW1 2264   5.389   2.316   4.993
  455SOL    HW2 2265   5.497   2.385   4.892
  456SOL     OW 2266   1.053   0.610   4.430
  456SOL    HW1 2267   1.060   0.518   4.469
  456SOL    HW2 2268   1.143   0.639   4.398
  457SOL     OW 2269   1.933   4.011   4.426
  457SOL    HW1 2270   1.943   3.932   4.365
  457SOL    HW2 2271   1.899   4.089   4.374
  458SOL     OW 2272   3.100   0.279   2.975
  458SOL    HW1 2273   3.184   0.247   2.934
  458SOL    HW2 2274   3.116   0.366   3.022
  459SOL     OW 2275   1.338   0.327   5.404
  459SOL    HW1 2276   1.375   0.417   5.383
  459SOL    HW2 2277   1.330   0.274   5.320
  460SOL     OW 2278   1.399   0.475   4.577
  460SOL    HW1 2279   1.390   0.436   4.669
  460SOL    HW2 2280   1.480   0.437   4.532
  461SOL     OW 2281   6.322   4.445   6.180
  461SOL    HW1 2282   6.226   4.471   6.190
  461SOL    HW2 2283   6.349   4.389   6.257
  462SOL     OW 2284   4.093   3.447   5.478
  462SOL    HW1 2285   4.014   3.502   5.452
  462SOL    HW2 2286   4.067   3.351   5.484
  463SOL     OW 2287   0.138   0.306   3.652
  463SOL    HW1 2288   0.203   0.349   3.714
  463SOL    HW2 2289   0.056   0.362   3.644
  464SOL     OW 2290   2.533   0.949   5.567
  464SOL    HW1 2291   2.497   0.952   5.660
  464SOL    HW2 2292   2.521   0.857   5.530
  465SOL     OW 2293   0.332   2.429   0.011
  465SOL    HW1 2294   0.298   2.492   6.958
  465SOL    HW2 2295   0.420   2.392   7.000
  466SOL     OW 2296   2.699   6.277   4.034
  466SOL    HW1 2297   2.637   6.289   3.956
  466SOL    HW2 2298   2.782   6.331   4.020
  467SOL     OW 2299   1.745   1.179   2.328
  467SOL    HW1 2300   1.685   1.243   2.280
  467SOL    HW2 2301   1.824   1.159   2.270
  468SOL     OW 2302   3.982   5.684   4.941
  468SOL    HW1 2303   3.885   5.681   4.964
  468SOL    HW2 2304   4.035   5.642   5.015
  469SOL     OW 2305   3.145   3.633   5.979
  469SOL    HW1 2306   3.227   3.633   6.036
  469SOL    HW2 2307   3.144   3.716   5.923
  470SOL     OW 2308   3.864   6.208   1.415
  470SOL    HW1 2309   3.794   6.139   1.401
  470SOL    HW2 2310   3.898   6.202   1.509
  471SOL     OW 2311   2.802   2.388   4.037
  471SOL    HW1 2312   2.867   2.396   4.113
  471SOL    HW2 2313   2.713   2.424   4.064
  472SOL     OW 2314   5.916   4.371   7.010
  472SOL    HW1 2315   5.842   4.382   6.943
  472SOL    HW2 2316   5.939   4.461   0.031
  473SOL     OW 2317   1.074   1.667   2.012
  473SOL    HW1 2318   1.020   1.583   2.019
  473SOL    HW2 2319   1.094   1.685   1.916
  474SOL     OW 2320   5.610   5.665   4.958
  474SOL    HW1 2321   5.612   5.765   4.953
  474SOL    HW2 2322   5.702   5.630   4.975
  475SOL     OW 2323   6.324   2.930   0.542
  475SOL    HW1 2324   6.255   2.999   0.566
  475SOL    HW2 2325   6.298   2.843   0.583
  476SOL     OW 2326   6.969   3.577   1.807
  476SOL    HW1 2327   6.969   3.665   1.761
  476SOL    HW2 2328   0.046   3.546   1.821
  477SOL     OW 2329   2.539   5.816   3.367
  477SOL    HW1 2330   2.545   5.811   3.466
  477SOL    HW2 2331   2.499   5.904   3.340
  478SOL     OW 2332   3.852   6.468   3.582
  478SOL    HW1 2333   3.918   6.406   3.540
  478SOL    HW2 2334   3.817   6.531   3.513
  479SOL     OW 2335   3.858   2.933   4.975
  479SOL    HW1 2336   3.912   2.983   4.907
  479SOL    HW2 2337   3.768   2.913   4.937
  480SOL     OW 2338   3.140   0.326   1.322
  480SOL    HW1 2339   3.232   0.348   1.289
  480SOL    HW2 2340   3.122   0.376   1.406
  481SOL     OW 2341   0.818   6.509   1.665
  481SOL    HW1 2342   0.807   6.459   1.579
  481SOL    HW2 2343   0.904   6.560   1.663
  482SOL     OW 2344   4.507   5.135   2.443
  482SOL    HW1 2345   4.599   5.114   2.408
  482SOL    HW2 2346   4.438   5.101   2.379
  483SOL     OW 2347   6.914   2.176   2.812
  483SOL    HW1 2348   6.953   2.177   2.904
  483SOL    HW2 2349   6.824   2.132   2.814
  484SOL     OW 2350   1.403   4.331   4.663
  484SOL    HW1 2351   1.372   4.288   4.579
  484SOL    HW2 2352   1.494   4.297   4.686
  485SOL     OW 2353   4.799   5.125   2.313
  485SOL    HW1 2354   4.816   5.189   2.237
  485SOL    HW2 2355   4.861   5.047   2.305
  486SOL     OW 2356   6.104   1.557   6.842
  486SOL    HW1 2357   6.096   1.653   6.870
  486SOL    HW2 2358   6.033   1.536   6.774
  487SOL     OW 2359   0.986   0.766   2.874
  487SOL    HW1 2360   1.081   0.778   2.845
  487SOL    HW2 2361   0.975   0.675   2.915
  488SOL     OW 2362   0.638   6.600   2.070
  488SOL    HW1 2363   0.593   6.658   2.138
  488SOL    HW2 2364   0.728   6.571   2.104
  489SOL     OW 2365   5.845   6.016   5.354
  489SOL    HW1 2366   5.835   5.985   5.448
  489SOL    HW2 2367   5.904   5.953   5.303
  490SOL     OW 2368   1.433   5.991   3.621
  490SOL    HW1 2369   1.495   5.960   3.549
  490SOL    HW2 2370   1.436   6.091   3.627
  491SOL     OW 2371   1.311   3.327   1.055
  491SOL    HW1 2372   1.293   3.411   1.005
  491SOL    HW2 2373   1.398   3.288   1.025
  492SOL     OW 2374   1.418   0.906   5.760
  492SOL    HW1 2375   1.450   0.852   5.682
  492SOL    HW2 2376   1.495   0.957   5.798
  493SOL     OW 2377   2.972   0.238   5.410
  493SOL    HW1 2378   2.970   0.177   5.331
  493SOL    HW2 2379   2.879   0.262   5.435
  494SOL     OW 2380   1.555   0.797   6.519
  494SOL    HW1 2381   1.617   0.740   6.573
  494SOL    HW2 2382   1.505   0.859   6.580
  495SOL     OW 2383   3.384   6.346   3.959
  495SOL    HW1 2384   3.479   6.378   3.969
  495SOL    HW2 2385   3.382   6.268   3.896
  496SOL     OW 2386   6.719   2.315   2.196
  496SOL    HW1 2387   6.672   2.256   2.262
  496SOL    HW2 2388   6.670   2.402   2.188
  497SOL     OW 2389   3.155   1.308   4.644
  497SOL    HW1 2390   3.196   1.303   4.553
  497SOL    HW2 2391   3.074   1.251   4.647
  498SOL     OW 2392   0.759   4.417   2.312
  498SOL    HW1 2393   0.743   4.456   2.221
  498SOL    HW2 2394   0.679   4.434   2.370
  499SOL     OW 2395   1.945   5.415   4.841
  499SOL    HW1 2396   1.975   5.509   4.828
  499SOL    HW2 2397   1.853   5.414   4.880
  500SOL     OW 2398   5.577   2.479   0.070
  500SOL    HW1 2399   5.598   2.559   0.127
  500SOL    HW2 2400   5.654   2.459   0.010
  501SOL     OW 2401   4.359   0.003   1.015
  501SOL    HW1 2402   4.453   0.032   1.031
  501SOL    HW2 2403   4.342   7.011   0.917
  502SOL     OW 2404   0.906   4.467   6.253
  502SOL    HW1 2405   0.958   4.391   6.216
  502SOL    HW2 2406   0.882   4.531   6.180
  503SOL     OW 2407   1.999   4.907   6.113
  503SOL    HW1 2408   1.901   4.925   6.106
  503SOL    HW2 2409   2.044   4.986   6.156
  504SOL     OW 2410   1.197   5.409   2.036
  504SOL    HW1 2411   1.258   5.454   2.100
  504SOL    HW2 2412   1.225   5.431   1.942
  505SOL     OW 2413   4.045   6.460   4.688
  505SOL    HW1 2414   4.127   6.480   4.741
  505SOL    HW2 2415   4.033   6.530   4.618
  506SOL     OW 2416   3.049   6.150   2.155
  506SOL    HW1 2417   3.032   6.160   2.253
  506SOL    HW2 2418   3.146   6.168   2.136
  507SOL     OW 2419   3.768   6.440   2.837
  507SOL    HW1 2420   3.776   6.532   2.875
  507SOL    HW2 2421   3.834   6.428   2.763
  508SOL     OW 2422   0.162   2.712   2.533
  508SOL    HW1 2423   0.231   2.782   2.522
  508SOL    HW2 2424   0.071   2.751   2.518
  509SOL     OW 2425   3.537   1.403   0.615
  509SOL    HW1 2426   3.596   1.381   0.693
  509SOL    HW2 2427   3.540   1.328   0.549
  510SOL     OW 2428   6.843   4.284   6.254
  510SOL    HW1 2429   6.769   4.255   6.314
  510SOL    HW2 2430   6.898   4.205   6.228
  511SOL     OW 2431   0.924   2.463   6.695
  511SOL    HW1 2432   0.835   2.496   6.726
  511SOL    HW2 2433   0.976   2.538   6.655
  512SOL     OW 2434   6.325   2.530   6.936
  512SOL    HW1 2435   6.356   2.582   6.856
  512SOL    HW2 2436   6.378   2.558   7.016
  513SOL     OW 2437   4.984   6.822   2.898
  513SOL    HW1 2438   5.057   6.765   2.937
  513SOL    HW2 2439   4.969   6.795   2.803
  514SOL     OW 2440   6.718   0.586   4.313
  514SOL    HW1 2441   6.662   0.539   4.380
  514SOL    HW2 2442   6.685   0.680   4.303
  515SOL     OW 2443   1.886   0.516   0.407
  515SOL    HW1 2444   1.797   0.475   0.424
  515SOL    HW2 2445   1.921   0.555   0.492
  516SOL     OW 2446   2.655   4.975   2.195
  516SOL    HW1 2447   2.694   4.883   2.202
  516SOL    HW2 2448   2.675   5.026   2.279
  517SOL     OW 2449   3.402   4.646   1.653
  517SOL    HW1 2450   3.466   4.624   1.726
  517SOL    HW2 2451   3.309   4.653   1.690
  518SOL     OW 2452   2.444   2.152   3.436
  518SOL    HW1 2453   2.499   2.124   3.357
  518SOL    HW2 2454   2.401   2.072   3.477
  519SOL     OW 2455   0.277   6.465   3.314
  519SOL    HW1 2456   0.200   6.453   3.377
  519SOL    HW2 2457   0.274   6.394   3.244
  520SOL     OW 2458   7.012   3.628   6.907
  520SOL    HW1 2459   0.033   3.601   6.995
  520SOL    HW2 2460   6.913   3.617   6.909
  521SOL     OW 2461   5.407   5.504   5.097
  521SOL    HW1 2462   5.441   5.560   5.022
  521SOL    HW2 2463   5.472   5.506   5.173
  522SOL     OW 2464   4.100   3.648   2.896
  522SOL    HW1 2465   4.164   3.723   2.882
  522SOL    HW2 2466   4.067   3.649   2.991
  523SOL     OW 2467   0.119   5.877   1.627
  523SOL    HW1 2468   0.070   5.791   1.645
  523SOL    HW2 2469   0.212   5.857   1.596
  524SOL     OW 2470   1.823   2.754   2.462
  524SOL    HW1 2471   1.910   2.798   2.485
  524SOL    HW2 2472   1.752   2.824   2.450
  525SOL     OW 2473   1.803   3.837   5.804
  525SOL    HW1 2474   1.826   3.934   5.802
  525SOL    HW2 2475   1.873   3.786   5.852
  526SOL     OW 2476   3.155   6.473   3.488
  526SOL    HW1 2477   3.224   6.401   3.485
  526SOL    HW2 2478   3.074   6.440   3.537
  527SOL     OW 2479   6.976   2.169   1.046
  527SOL    HW1 2480   7.015   2.122   1.125
  527SOL    HW2 2481   6.895   2.220   1.074
  528SOL     OW 2482   1.871   2.703   3.873
  528SOL    HW1 2483   1.922   2.621   3.848
  528SOL    HW2 2484   1.879   2.719   3.972
  529SOL     OW 2485   1.562   6.726   5.073
  529SOL    HW1 2486   1.556   6.790   4.997
  529SOL    HW2 2487   1.653   6.686   5.076
  530SOL     OW 2488   4.067   3.562   2.633
  530SOL    HW1 2489   4.073   3.473   2.680
  530SOL    HW2 2490   4.057   3.634   2.701
  531SOL     OW 2491   1.381   0.977   2.851
  531SOL    HW1 2492   1.328   0.898   2.820
  531SOL    HW2 2493   1.478   0.962   2.829
  532SOL     OW 2494   1.383   3.274   0.337
  532SOL    HW1 2495   1.313   3.298   0.405
  532SOL    HW2 2496   1.403   3.176   0.343
  533SOL     OW 2497   4.583   7.011   3.551
  533SOL    HW1 2498   4.527   0.075   3.567
  533SOL    HW2 2499   4.571   6.981   3.456
  534SOL     OW 2500   5.692   5.834   2.644
  534SOL    HW1 2501   5.608   5.884   2.624
  534SOL    HW2 2502   5.738   5.810   2.558
  535SOL     OW 2503   0.161   4.167   2.824
  535SOL    HW1 2504   0.170   4.248   2.766
  535SOL    HW2 2505   0.090   4.107   2.788
  536SOL     OW 2506   6.139   4.545   2.290
  536SOL    HW1 2507   6.050   4.516   2.255
  536SOL    HW2 2508   6.209   4.480   2.260
  537SOL     OW 2509   3.536   0.158   4.574
  537SOL    HW1 2510   3.555   0.256   4.584
  537SOL    HW2 2511   3.469   0.130   4.643
  538SOL     OW 2512   0.510   4.372   4.401
  538SOL    HW1 2513   0.579   4.440   4.376
  538SOL    HW2 2514   0.439   4.415   4.457
  539SOL     OW 2515   2.196   4.951   2.050
  539SOL    HW1 2516   2.231   5.036   2.010
  539SOL    HW2 2517   2.227   4.874   1.995
  540SOL     OW 2518   1.499   1.318   2.961
  540SOL    HW1 2519   1.446   1.296   2.879
  540SOL    HW2 2520   1.440   1.310   3.041
  541SOL     OW 2521   5.079   5.581   3.658
  541SOL    HW1 2522   5.102   5.540   3.569
  541SOL    HW2 2523   5.081   5.681   3.649
  542SOL     OW 2524   4.466   6.498   0.036
  542SOL    HW1 2525   4.437   6.520   0.129
  542SOL    HW2 2526   4.417   6.417   0.004
  543SOL     OW 2527   6.341   3.684   4.046
  543SOL    HW1 2528   6.244   3.703   4.029
  543SOL    HW2 2529   6.360   3.588   4.027
  544SOL     OW 2530   0.882   5.113   6.951
  544SOL    HW1 2531   0.881   5.042   0.004
  544SOL    HW2 2532   0.903   5.201   6.993
  545SOL     OW 2533   3.604   0.750   1.516
  545SOL    HW1 2534   3.570   0.809   1.444
  545SOL    HW2 2535   3.551   0.764   1.599
  546SOL     OW 2536   1.181   3.873   1.558
  546SOL    HW1 2537   1.272   3.882   1.596
  546SOL    HW2 2538   1.184   3.884   1.458
  547SOL     OW 2539   3.273   2.497   1.010
  547SOL    HW1 2540   3.181   2.488   1.049
  547SOL    HW2 2541   3.280   2.439   0.928
  548SOL     OW 2542   3.205   3.354   1.460
  548SOL    HW1 2543   3.217   3.301   1.544
  548SOL    HW2 2544   3.110   3.347   1.429
  549SOL     OW 2545   5.286   2.440   1.710
  549SOL    HW1 2546   5.356   2.490   1.761
  549SOL    HW2 2547   5.269   2.352   1.754
  550SOL     OW 2548   1.175   5.698   3.439
  550SOL    HW1 2549   1.101   5.725   3.377
  550SOL    HW2 2550   1.143   5.703   3.534
  551SOL     OW 2551   0.204   0.017   1.574
  551SOL    HW1 2552   0.206   0.044   1.478
  551SOL    HW2 2553   0.234   0.095   1.631
  552SOL     OW 2554   5.958   4.114   6.668
  552SOL    HW1 2555   5.972   4.128   6.766
  552SOL    HW2 2556   5.875   4.162   6.639
  553SOL     OW 2557   2.723   6.607   4.211
  553SOL    HW1 2558   2.697   6.512   4.228
  553SOL    HW2 2559   2.789   6.637   4.281
  554SOL     OW 2560   5.810   0.114   0.438
  554SOL    HW1 2561   5.889   0.161   0.398
  554SOL    HW2 2562   5.774   0.049   0.371
  555SOL     OW 2563   3.035   5.062   4.812
  555SOL    HW1 2564   3.007   5.131   4.880
  555SOL    HW2 2565   3.074   4.983   4.859
  556SOL     OW 2566   4.909   1.761   3.914
  556SOL    HW1 2567   5.009   1.760   3.914
  556SOL    HW2 2568   4.877   1.856   3.908
  557SOL     OW 2569   6.562   5.625   0.414
  557SOL    HW1 2570   6.486   5.672   0.369
  557SOL    HW2 2571   6.649   5.657   0.377
  558SOL     OW 2572   3.564   3.125   3.531
  558SOL    HW1 2573   3.654   3.091   3.560
  558SOL    HW2 2574   3.495   3.055   3.549
  559SOL     OW 2575   6.931   5.408   5.881
  559SOL    HW1 2576   6.865   5.368   5.818
  559SOL    HW2 2577   6.989   5.336   5.918
  560SOL     OW 2578   6.347   3.407   4.013
  560SOL    HW1 2579   6.345   3.354   3.929
  560SOL    HW2 2580   6.287   3.365   4.081
  561SOL     OW 2581   0.393   1.829   1.127
  561SOL    HW1 2582   0.435   1.786   1.047
  561SOL    HW2 2583   0.358   1.919   1.101
  562SOL     OW 2584   4.348   0.460   6.085
  562SOL    HW1 2585   4.274   0.488   6.146
  562SOL    HW2 2586   4.435   0.464   6.134
  563SOL     OW 2587   3.125   0.910   3.688
  563SOL    HW1 2588   3.030   0.886   3.710
  563SOL    HW2 2589   3.187   0.840   3.725
  564SOL     OW 2590   1.005   3.308   6.874
  564SOL    HW1 2591   1.088   3.334   6.826
  564SOL    HW2 2592   0.950   3.247   6.816
  565SOL     OW 2593   3.304   3.811   4.555
  565SOL    HW1 2594   3.219   3.861   4.539
  565SOL    HW2 2595   3.345   3.840   4.641
  566SOL     OW 2596   0.698   3.666   3.250
  566SOL    HW1 2597   0.775   3.730   3.256
  566SOL    HW2 2598   0.726   3.576   3.283
  567SOL     OW 2599   2.762   2.832   1.381
  567SOL    HW1 2600   2.753   2.819   1.283
  567SOL    HW2 2601   2.857   2.819   1.408
  568SOL     OW 2602   4.485   0.044   6.965
  568SOL    HW1 2603   4.482   6.966   6.934
  568SOL    HW2 2604   4.469   0.104   6.887
  569SOL     OW 2605   1.192   3.411   0.132
  569SOL    HW1 2606   1.267   3.351   0.105
  569SOL    HW2 2607   1.108   3.358   0.144
  570SOL     OW 2608   3.553   0.389   6.412
  570SOL    HW1 2609   3.641   0.366   6.454
  570SOL    HW2 2610   3.482   0.392   6.482
  571SOL     OW 2611   3.415   4.892   3.112
  571SOL    HW1 2612   3.460   4.956   3.050
  571SOL    HW2 2613   3.320   4.881   3.086
  572SOL     OW 2614   2.668   5.122   5.357
  572SOL    HW1 2615   2.679   5.161   5.448
  572SOL    HW2 2616   2.662   5.022   5.364
  573SOL     OW 2617   5.713   0.827   5.581
  573SOL    HW1 2618   5.723   0.832   5.481
  573SOL    HW2 2619   5.781   0.887   5.624
  574SOL     OW 2620   3.528   1.439   4.463
  574SOL    HW1 2621   3.438   1.395   4.467
  574SOL    HW2 2622   3.599   1.370   4.465
  575SOL     OW 2623   4.770   3.287   1.686
  575SOL    HW1 2624   4.814   3.359   1.632
  575SOL    HW2 2625   4.784   3.199   1.641
  576SOL     OW 2626   1.487   2.714   2.841
  576SOL    HW1 2627   1.415   2.654   2.877
  576SOL    HW2 2628   1.460   2.748   2.751
  577SOL     OW 2629   1.537   1.175   2.557
  577SOL    HW1 2630   1.553   1.148   2.651
  577SOL    HW2 2631   1.606   1.134   2.497
  578SOL     OW 2632   6.760   5.055   4.766
  578SOL    HW1 2633   6.744   5.007   4.679
  578SOL    HW2 2634   6.852   5.094   4.765
  579SOL     OW 2635   1.954   3.408   3.910
  579SOL    HW1 2636   2.015   3.477   3.870
  579SOL    HW2 2637   1.865   3.413   3.865
  580SOL     OW 2638   4.480   5.143   5.378
  580SOL    HW1 2639   4.450   5.157   5.283
  580SOL    HW2 2640   4.426   5.201   5.439
  581SOL     OW 2641   1.759   2.524   1.856
  581SOL    HW1 2642   1.822   2.466   1.804
  581SOL    HW2 2643   1.771   2.619   1.829
  582SOL     OW 2644   4.988   6.031   2.647
  582SOL    HW1 2645   5.027   6.052   2.736
  582SOL    HW2 2646   4.900   6.077   2.637
  583SOL     OW 2647   2.679   6.542   4.788
  583SOL    HW1 2648   2.750   6.555   4.718
  583SOL    HW2 2649   2.624   6.625   4.795
  584SOL     OW 2650   2.937   5.961   6.622
  584SOL    HW1 2651   2.989   6.037   6.583
  584SOL    HW2 2652   2.855   5.945   6.567
  585SOL     OW 2653   4.740   1.501   6.657
  585SOL    HW1 2654   4.684   1.582   6.669
  585SOL    HW2 2655   4.776   1.472   6.746
  586SOL     OW 2656   3.219   0.271   6.277
  586SOL    HW1 2657   3.288   0.296   6.210
  586SOL    HW2 2658   3.244   0.308   6.367
  587SOL     OW 2659   4.786   2.446   4.172
  587SOL    HW1 2660   4.707   2.506   4.160
  587SOL    HW2 2661   4.787   2.378   4.099
  588SOL     OW 2662   2.414   5.025   1.387
  588SOL    HW1 2663   2.379   4.975   1.466
  588SOL    HW2 2664   2.440   5.118   1.414
  589SOL     OW 2665   3.779   5.083   1.456
  589SOL    HW1 2666   3.784   5.093   1.555
  589SOL    HW2 2667   3.815   4.994   1.430
  590SOL     OW 2668   5.134   2.746   1.943
  590SOL    HW1 2669   5.089   2.713   1.860
  590SOL    HW2 2670   5.087   2.708   2.023
  591SOL     OW 2671   3.487   5.638   3.272
  591SOL    HW1 2672   3.540   5.589   3.202
  591SOL    HW2 2673   3.400   5.668   3.233
  592SOL     OW 2674   4.467   1.137   1.094
  592SOL    HW1 2675   4.374   1.120   1.061
  592SOL    HW2 2676   4.468   1.141   1.193
  593SOL     OW 2677   4.561   2.617   4.079
  593SOL    HW1 2678   4.486   2.553   4.096
  593SOL    HW2 2679   4.540   2.705   4.122
  594SOL     OW 2680   5.752   0.794   0.671
  594SOL    HW1 2681   5.746   0.725   0.743
  594SOL    HW2 2682   5.734   0.884   0.710
  595SOL     OW 2683   5.878   0.477   3.497
  595SOL    HW1 2684   5.806   0.507   3.560
  595SOL    HW2 2685   5.934   0.556   3.471
  596SOL     OW 2686   0.508   5.174   3.686
  596SOL    HW1 2687   0.536   5.250   3.627
  596SOL    HW2 2688   0.411   5.154   3.671
  597SOL     OW 2689   2.091   0.177   6.902
  597SOL    HW1 2690   2.117   0.109   6.970
  597SOL    HW2 2691   2.172   0.205   6.851
  598SOL     OW 2692   4.066   3.705   4.806
  598SOL    HW1 2693   4.002   3.771   4.846
  598SOL    HW2 2694   4.024   3.614   4.806
  599SOL     OW 2695   2.731   6.186   2.748
  599SOL    HW1 2696   2.771   6.277   2.754
  599SOL    HW2 2697   2.631   6.193   2.751
  600SOL     OW 2698   6.308   2.008   6.698
  600SOL    HW1 2699   6.257   2.064   6.764
  600SOL    HW2 2700   6.348   1.929   6.745
  601SOL     OW 2701   1.278   0.777   3.957
  601SOL    HW1 2702   1.331   0.741   3.881
  601SOL    HW2 2703   1.321   0.750   4.043
  602SOL     OW 2704   0.989   0.927   6.492
  602SOL    HW1 2705   0.904   0.890   6.453
  602SOL    HW2 2706   1.035   0.855   6.543
  603SOL     OW 2707   3.071   2.846   5.394
  603SOL    HW1 2708   3.127   2.772   5.357
  603SOL    HW2 2709   2.975   2.819   5.395
  604SOL     OW 2710   0.781   1.976   1.471
  604SOL    HW1 2711   0.737   1.964   1.382
  604SOL    HW2 2712   0.761   1.897   1.529
  605SOL     OW 2713   6.357   5.408   0.117
  605SOL    HW1 2714   6.327   5.430   0.024
  605SOL    HW2 2715   6.452   5.436   0.129
  606SOL     OW 2716   4.989   6.315   5.755
  606SOL    HW1 2717   5.027   6.296   5.846
  606SOL    HW2 2718   5.009   6.238   5.694
  607SOL     OW 2719   6.067   5.012   5.292
  607SOL    HW1 2720   5.976   5.009   5.333
  607SOL    HW2 2721   6.090   5.107   5.269
  608SOL     OW 2722   3.842   6.232   6.483
  608SOL    HW1 2723   3.917   6.293   6.511
  608SOL    HW2 2724   3.824   6.166   6.556
  609SOL     OW 2725   3.854   3.187   2.565
  609SOL    HW1 2726   3.939   3.201   2.617
  609SOL    HW2 2727   3.842   3.090   2.546
  610SOL     OW 2728   6.017   3.749   1.155
  610SOL    HW1 2729   6.079   3.809   1.206
  610SOL    HW2 2730   5.976   3.801   1.080
  611SOL     OW 2731   4.579   0.141   1.775
  611SOL    HW1 2732   4.657   0.078   1.775
  611SOL    HW2 2733   4.499   0.095   1.735
  612SOL     OW 2734   3.626   5.978   4.521
  612SOL    HW1 2735   3.677   5.911   4.575
  612SOL    HW2 2736   3.689   6.044   4.481
  613SOL     OW 2737   4.864   5.462   4.985
  613SOL    HW1 2738   4.846   5.553   5.023
  613SOL    HW2 2739   4.952   5.461   4.939
  614SOL     OW 2740   4.874   5.401   6.714
  614SOL    HW1 2741   4.844   5.472   6.651
  614SOL    HW2 2742   4.889   5.441   6.804
  615SOL     OW 2743   6.977   2.360   1.843
  615SOL    HW1 2744   6.884   2.326   1.856
  615SOL    HW2 2745   0.025   2.292   1.875
  616SOL     OW 2746   0.342   3.597   3.058
  616SOL    HW1 2747   0.442   3.604   3.050
  616SOL    HW2 2748   0.315   3.501   3.048
  617SOL     OW 2749   0.595   4.393   6.070
  617SOL    HW1 2750   0.613   4.421   6.164
  617SOL    HW2 2751   0.498   4.373   6.059
  618SOL     OW 2752   7.014   2.721   0.696
  618SOL    HW1 2753   6.951   2.794   0.722
  618SOL    HW2 2754   0.074   2.761   0.647
  619SOL     OW 2755   4.189   1.376   6.849
  619SOL    HW1 2756   4.131   1.404   6.926
  619SOL    HW2 2757   4.133   1.326   6.783
  620SOL     OW 2758   4.103   2.414   1.775
  620SOL    HW1 2759   4.169   2.433   1.847
  620SOL    HW2 2760   4.032   2.353   1.809
  621SOL     OW 2761   2.594   6.842   6.603
  621SOL    HW1 2762   2.546   6.929   6.598
  621SOL    HW2 2763   2.555   6.785   6.675
  622SOL     OW 2764   1.081   0.488   6.366
  622SOL    HW1 2765   1.031   0.573   6.347
  622SOL    HW2 2766   1.051   0.417   6.302
  623SOL     OW 2767   0.813   5.290   5.584
  623SOL    HW1 2768   0.814   5.230   5.504
  623SOL    HW2 2769   0.840   5.382   5.557
  624SOL     OW 2770   6.987   2.525   0.977
  624SOL    HW1 2771   6.956   2.482   0.892
  624SOL    HW2 2772   0.066   2.505   0.991
  625SOL     OW 2773   2.220   1.289   1.449
  625SOL    HW1 2774   2.265   1.260   1.533
  625SOL    HW2 2775   2.241   1.224   1.376
  626SOL     OW 2776   2.044   5.965   3.521
  626SOL    HW1 2777   1.956   6.000   3.490
  626SOL    HW2 2778   2.115   6.034   3.506
  627SOL     OW 2779   5.005   6.670   0.390
  627SOL    HW1 2780   4.911   6.702   0.375
  627SOL    HW2 2781   5.012   6.575   0.362
  628SOL     OW 2782   6.276   5.467   6.219
  628SOL    HW1 2783   6.298   5.423   6.132
  628SOL    HW2 2784   6.177   5.480   6.225
  629SOL     OW 2785   0.023   6.893   0.261
  629SOL    HW1 2786   0.003   6.874   0.357
  629SOL    HW2 2787   0.113   6.855   0.238
  630SOL     OW 2788   6.450   1.932   2.368
  630SOL    HW1 2789   6.353   1.923   2.346
  630SOL    HW2 2790   6.470   2.027   2.393
  631SOL     OW 2791   3.222   6.473   5.481
  631SOL    HW1 2792   3.266   6.509   5.564
  631SOL    HW2 2793   3.260   6.518   5.401
  632SOL     OW 2794   2.435   1.360   0.539
  632SOL    HW1 2795   2.482   1.423   0.600
  632SOL    HW2 2796   2.394   1.412   0.463
  633SOL     OW 2797   4.870   4.566   7.015
  633SOL    HW1 2798   4.800   4.582   6.945
  633SOL    HW2 2799   4.827   4.568   0.088
  634SOL     OW 2800   4.634   4.437   1.763
  634SOL    HW1 2801   4.569   4.372   1.803
  634SOL    HW2 2802   4.626   4.525   1.810
  635SOL     OW 2803   4.718   4.902   0.702
  635SOL    HW1 2804   4.716   4.998   0.732
  635SOL    HW2 2805   4.625   4.870   0.686
  636SOL     OW 2806   4.304   5.585   6.578
  636SOL    HW1 2807   4.395   5.557   6.548
  636SOL    HW2 2808   4.296   5.684   6.577
  637SOL     OW 2809   6.675   3.821   2.183
  637SOL    HW1 2810   6.706   3.730   2.157
  637SOL    HW2 2811   6.590   3.814   2.235
  638SOL     OW 2812   5.796   2.152   2.645
  638SOL    HW1 2813   5.708   2.190   2.672
  638SOL    HW2 2814   5.867   2.222   2.653
  639SOL     OW 2815   5.552   4.197   2.568
  639SOL    HW1 2816   5.517   4.200   2.475
  639SOL    HW2 2817   5.650   4.217   2.568
  640SOL     OW 2818   0.521   4.934   4.100
  640SOL    HW1 2819   0.618   4.946   4.120
  640SOL    HW2 2820   0.468   5.001   4.152
  641SOL     OW 2821   6.971   6.258   4.651
  641SOL    HW1 2822   6.873   6.247   4.639
  641SOL    HW2 2823   6.989   6.320   4.727
  642SOL     OW 2824   0.234   3.382   4.788
  642SOL    HW1 2825   0.175   3.315   4.834
  642SOL    HW2 2826   0.179   3.438   4.726
  643SOL     OW 2827   4.612   5.342   5.052
  643SOL    HW1 2828   4.572   5.278   4.986
  643SOL    HW2 2829   4.702   5.371   5.018
  644SOL     OW 2830   1.102   6.093   4.467
  644SOL    HW1 2831   1.174   6.081   4.535
  644SOL    HW2 2832   1.124   6.169   4.407
  645SOL     OW 2833   5.027   1.530   4.887
  645SOL    HW1 2834   5.095   1.542   4.960
  645SOL    HW2 2835   5.003   1.433   4.881
  646SOL     OW 2836   3.201   1.316   4.050
  646SOL    HW1 2837   3.299   1.298   4.046
  646SOL    HW2 2838   3.185   1.413   4.069
  647SOL     OW 2839   5.292   1.794   5.216
  647SOL    HW1 2840   5.236   1.714   5.237
  647SOL    HW2 2841   5.278   1.864   5.287
  648SOL     OW 2842   6.856   4.002   3.941
  648SOL    HW1 2843   6.925   4.075   3.950
  648SOL    HW2 2844   6.768   4.036   3.973
  649SOL     OW 2845   3.697   3.784   0.414
  649SOL    HW1 2846   3.785   3.739   0.429
  649SOL    HW2 2847   3.632   3.755   0.485
  650SOL     OW 2848   6.072   4.625   0.881
  650SOL    HW1 2849   6.014   4.663   0.953
  650SOL    HW2 2850   6.121   4.700   0.835
  651SOL     OW 2851   6.658   6.642   6.282
  651SOL    HW1 2852   6.563   6.674   6.284
  651SOL    HW2 2853   6.666   6.559   6.336
  652SOL     OW 2854   5.344   6.377   3.915
  652SOL    HW1 2855   5.409   6.343   3.983
  652SOL    HW2 2856   5.340   6.312   3.839
  653SOL     OW 2857   2.975   6.386   4.768
  653SOL    HW1 2858   3.069   6.418   4.758
  653SOL    HW2 2859   2.974   6.287   4.780
  654SOL     OW 2860   0.291   3.891   5.448
  654SOL    HW1 2861   0.232   3.934   5.516
  654SOL    HW2 2862   0.386   3.895   5.477
  655SOL     OW 2863   1.014   6.650   1.880
  655SOL    HW1 2864   0.992   6.553   1.885
  655SOL    HW2 2865   1.105   6.666   1.918
  656SOL     OW 2866   1.904   5.968   1.816
  656SOL    HW1 2867   1.813   6.011   1.812
  656SOL    HW2 2868   1.940   5.957   1.723
  657SOL     OW 2869   1.484   2.142   1.974
  657SOL    HW1 2870   1.480   2.092   2.061
  657SOL    HW2 2871   1.429   2.095   1.906
  658SOL     OW 2872   2.799   3.368   6.059
  658SOL    HW1 2873   2.821   3.326   5.971
  658SOL    HW2 2874   2.817   3.303   6.133
  659SOL     OW 2875   2.342   5.883   6.084
  659SOL    HW1 2876   2.287   5.923   6.011
  659SOL    HW2 2877   2.377   5.794   6.054
  660SOL     OW 2878   4.935   4.440   2.276
  660SOL    HW1 2879   4.979   4.462   2.363
  660SOL    HW2 2880   4.996   4.382   2.222
  661SOL     OW 2881   4.119   5.782   3.496
  661SOL    HW1 2882   4.035   5.810   3.542
  661SOL    HW2 2883   4.198   5.805   3.553
  662SOL     OW 2884   3.705   0.595   5.556
  662SOL    HW1 2885   3.692   0.496   5.542
  662SOL    HW2 2886   3.794   0.611   5.599
  663SOL     OW 2887   2.338   4.129   6.378
  663SOL    HW1 2888   2.383   4.052   6.332
  663SOL    HW2 2889   2.390   4.213   6.361
  664SOL     OW 2890   6.970   5.560   6.196
  664SOL    HW1 2891   6.970   5.631   6.126
  664SOL    HW2 2892   6.878   5.548   6.232
  665SOL     OW 2893   5.007   5.589   2.094
  665SOL    HW1 2894   5.056   5.554   2.015
  665SOL    HW2 2895   4.939   5.657   2.065
  666SOL     OW 2896   5.465   2.193   2.400
  666SOL    HW1 2897   5.512   2.208   2.486
  666SOL    HW2 2898   5.401   2.117   2.409
  667SOL     OW 2899   1.384   5.058   3.338
  667SOL    HW1 2900   1.444   4.981   3.358
  667SOL    HW2 2901   1.438   5.142   3.329
  668SOL     OW 2902   4.856   6.521   5.639
  668SOL    HW1 2903   4.879   6.617   5.659
  668SOL    HW2 2904   4.920   6.461   5.687
  669SOL     OW 2905   4.088   0.574   2.707
  669SOL    HW1 2906   4.044   0.497   2.661
  669SOL    HW2 2907   4.187   0.561   2.708
  670SOL     OW 2908   3.289   2.513   1.700
  670SOL    HW1 2909   3.328   2.601   1.674
  670SOL    HW2 2910   3.362   2.452   1.730
  671SOL     OW 2911   1.882   6.645   0.424
  671SOL    HW1 2912   1.857   6.548   0.415
  671SOL    HW2 2913   1.912   6.680   0.336
  672SOL     OW 2914   0.491   5.423   2.111
  672SOL    HW1 2915   0.462   5.369   2.190
  672SOL    HW2 2916   0.563   5.374   2.062
  673SOL     OW 2917   6.835   6.815   1.472
  673SOL    HW1 2918   6.847   6.896   1.528
  673SOL    HW2 2919   6.856   6.838   1.376
  674SOL     OW 2920   1.318   1.434   5.017
  674SOL    HW1 2921   1.222   1.455   5.035
  674SOL    HW2 2922   1.374   1.463   5.095
  675SOL     OW 2923   0.551   0.861   2.859
  675SOL    HW1 2924   0.584   0.895   2.771
  675SOL    HW2 2925   0.606   0.901   2.933
  676SOL     OW 2926   3.180   5.786   2.508
  676SOL    HW1 2927   3.267   5.782   2.556
  676SOL    HW2 2928   3.111   5.826   2.567
  677SOL     OW 2929   5.428   1.846   0.707
  677SOL    HW1 2930   5.442   1.945   0.709
  677SOL    HW2 2931   5.334   1.826   0.680
  678SOL     OW 2932   2.523   0.369   5.301
  678SOL    HW1 2933   2.543   0.325   5.214
  678SOL    HW2 2934   2.432   0.413   5.296
  679SOL     OW 2935   4.661   2.264   3.409
  679SOL    HW1 2936   4.642   2.306   3.320
  679SOL    HW2 2937   4.637   2.167   3.405
  680SOL     OW 2938   5.575   5.496   5.356
  680SOL    HW1 2939   5.634   5.576   5.369
  680SOL    HW2 2940   5.489   5.509   5.405
  681SOL     OW 2941   4.898   4.601   1.609
  681SOL    HW1 2942   4.833   4.582   1.535
  681SOL    HW2 2943   4.859   4.669   1.671
  682SOL     OW 2944   6.779   1.369   1.424
  682SOL    HW1 2945   6.782   1.462   1.461
  682SOL    HW2 2946   6.701   1.361   1.361
  683SOL     OW 2947   4.856   3.613   0.767
  683SOL    HW1 2948   4.829   3.518   0.752
  683SOL    HW2 2949   4.910   3.645   0.690
  684SOL     OW 2950   6.504   1.239   0.419
  684SOL    HW1 2951   6.462   1.256   0.330
  684SOL    HW2 2952   6.595   1.198   0.406
  685SOL     OW 2953   4.148   1.502   3.669
  685SOL    HW1 2954   4.054   1.532   3.651
  685SOL    HW2 2955   4.200   1.579   3.706
  686SOL     OW 2956   5.141   2.806   3.704
  686SOL    HW1 2957   5.193   2.725   3.732
  686SOL    HW2 2958   5.152   2.821   3.606
  687SOL     OW 2959   0.433   2.287   4.775
  687SOL    HW1 2960   0.409   2.190   4.771
  687SOL    HW2 2961   0.441   2.323   4.682
  688SOL     OW 2962   0.277   1.659   0.249
  688SOL    HW1 2963   0.339   1.587   0.219
  688SOL    HW2 2964   0.184   1.637   0.222
  689SOL     OW 2965   0.706   5.226   6.259
  689SOL    HW1 2966   0.640   5.300   6.247
  689SOL    HW2 2967   0.693   5.183   6.349
  690SOL     OW 2968   0.576   4.091   3.015
  690SOL    HW1 2969   0.581   4.132   3.106
  690SOL    HW2 2970   0.481   4.087   2.985
  691SOL     OW 2971   2.650   0.277   0.767
  691SOL    HW1 2972   2.710   0.282   0.687
  691SOL    HW2 2973   2.644   0.182   0.798
  692SOL     OW 2974   3.595   0.751   3.880
  692SOL    HW1 2975   3.640   0.749   3.791
  692SOL    HW2 2976   3.659   0.719   3.950
  693SOL     OW 2977   5.539   0.477   3.913
  693SOL    HW1 2978   5.607   0.476   3.840
  693SOL    HW2 2979   5.516   0.383   3.939
  694SOL     OW 2980   4.618   6.563   3.615
  694SOL    HW1 2981   4.535   6.537   3.664
  694SOL    HW2 2982   4.635   6.660   3.626
  695SOL     OW 2983   4.796   6.768   4.173
  695SOL    HW1 2984   4.875   6.828   4.161
  695SOL    HW2 2985   4.807   6.686   4.116
  696SOL     OW 2986   4.920   4.906   3.087
  696SOL    HW1 2987   4.936   4.838   3.016
  696SOL    HW2 2988   4.927   4.998   3.047
  697SOL     OW 2989   1.336   3.897   3.538
  697SOL    HW1 2990   1.277   3.971   3.570
  697SOL    HW2 2991   1.291   3.847   3.464
  698SOL     OW 2992   4.443   6.588   0.684
  698SOL    HW1 2993   4.496   6.670   0.702
  698SOL    HW2 2994   4.497   6.507   0.709
  699SOL     OW 2995   2.362   3.969   6.671
  699SOL    HW1 2996   2.280   3.914   6.660
  699SOL    HW2 2997   2.348   4.059   6.630
  700SOL     OW 2998   2.664   0.594   2.089
  700SOL    HW1 2999   2.609   0.669   2.126
  700SOL    HW2 3000   2.730   0.630   2.024
  701SOL     OW 3001   6.524   3.691   6.357
  701SOL    HW1 3002   6.588   3.732   6.421
  701SOL    HW2 3003   6.506   3.754   6.282
  702SOL     OW 3004   1.468   6.311   5.014
  702SOL    HW1 3005   1.454   6.377   5.088
  702SOL    HW2 3006   1.392   6.245   5.014
  703SOL     OW 3007   3.542   3.258   6.682
  703SOL    HW1 3008   3.528   3.271   6.584
  703SOL    HW2 3009   3.454   3.267   6.730
  704SOL     OW 3010   1.389   2.714   0.215
  704SOL    HW1 3011   1.457   2.660   0.264
  704SOL    HW2 3012   1.313   2.655   0.186
  705SOL     OW 3013   6.008   4.936   2.770
  705SOL    HW1 3014   5.920   4.891   2.761
  705SOL    HW2 3015   5.998   5.020   2.825
  706SOL     OW 3016   4.305   2.237   5.349
  706SOL    HW1 3017   4.401   2.255   5.371
  706SOL    HW2 3018   4.254   2.224   5.434
  707SOL     OW 3019   4.419   4.805   2.921
  707SOL    HW1 3020   4.350   4.825   2.991
  707SOL    HW2 3021   4.469   4.722   2.946
  708SOL     OW 3022   3.664   0.382   2.146
  708SOL    HW1 3023   3.653   0.286   2.173
  708SOL    HW2 3024   3.706   0.433   2.220
  709SOL     OW 3025   0.494   5.787   0.615
  709SOL    HW1 3026   0.593   5.801   0.618
  709SOL    HW2 3027   0.450   5.869   0.579
  710SOL     OW 3028   3.290   2.632   1.328
  710SOL    HW1 3029   3.318   2.594   1.240
  710SOL    HW2 3030   3.221   2.572   1.370
  711SOL     OW 3031   6.993   3.255   5.720
  711SOL    HW1 3032   6.991   3.272   5.622
  711SOL    HW2 3033   0.045   3.186   5.740
  712SOL     OW 3034   4.055   2.216   1.363
  712SOL    HW1 3035   4.130   2.188   1.423
  712SOL    HW2 3036   4.034   2.313   1.378
  713SOL     OW 3037   4.264   2.655   6.032
  713SOL    HW1 3038   4.167   2.679   6.046
  713SOL    HW2 3039   4.294   2.692   5.944
  714SOL     OW 3040   0.132   4.550   3.496
  714SOL    HW1 3041   0.114   4.611   3.419
  714SOL    HW2 3042   0.204   4.590   3.553
  715SOL     OW 3043   4.851   6.347   6.954
  715SOL    HW1 3044   4.764   6.384   6.919
  715SOL    HW2 3045   4.832   6.284   0.011
  716SOL     OW 3046   0.485   1.132   2.388
  716SOL    HW1 3047   0.548   1.187   2.335
  716SOL    HW2 3048   0.407   1.105   2.331
  717SOL     OW 3049   6.720   4.295   3.791
  717SOL    HW1 3050   6.790   4.227   3.768
  717SOL    HW2 3051   6.762   4.370   3.842
  718SOL     OW 3052   4.345   3.492   6.133
  718SOL    HW1 3053   4.291   3.458   6.056
  718SOL    HW2 3054   4.318   3.586   6.154
  719SOL     OW 3055   6.509   0.744   2.715
  719SOL    HW1 3056   6.533   0.682   2.641
  719SOL    HW2 3057   6.431   0.706   2.766
  720SOL     OW 3058   2.343   0.378   5.957
  720SOL    HW1 3059   2.354   0.321   5.876
  720SOL    HW2 3060   2.253   0.363   5.997
  721SOL     OW 3061   2.807   1.910   2.768
  721SOL    HW1 3062   2.711   1.911   2.798
  721SOL    HW2 3063   2.827   1.821   2.727
  722SOL     OW 3064   2.646   0.608   5.290
  722SOL    HW1 3065   2.619   0.511   5.285
  722SOL    HW2 3066   2.595   0.661   5.223
  723SOL     OW 3067   1.562   4.623   3.867
  723SOL    HW1 3068   1.555   4.720   3.890
  723SOL    HW2 3069   1.471   4.587   3.848
  724SOL     OW 3070   1.202   2.210   4.120
  724SOL    HW1 3071   1.251   2.188   4.204
  724SOL    HW2 3072   1.148   2.293   4.134
  725SOL     OW 3073   2.035   5.213   1.752
  725SOL    HW1 3074   1.952   5.267   1.734
  725SOL    HW2 3075   2.023   5.159   1.835
  726SOL     OW 3076   3.564   4.372   1.356
  726SOL    HW1 3077   3.593   4.379   1.260
  726SOL    HW2 3078   3.574   4.462   1.400
  727SOL     OW 3079   6.317   4.527   5.668
  727SOL    HW1 3080   6.391   4.504   5.732
  727SOL    HW2 3081   6.356   4.558   5.582
  728SOL     OW 3082   6.342   2.873   3.528
  728SOL    HW1 3083   6.323   2.912   3.618
  728SOL    HW2 3084   6.351   2.774   3.537
  729SOL     OW 3085   0.480   1.971   1.511
  729SOL    HW1 3086   0.498   2.066   1.536
  729SOL    HW2 3087   0.521   1.952   1.421
  730SOL     OW 3088   6.089   6.933   4.061
  730SOL    HW1 3089   6.000   6.931   4.016
  730SOL    HW2 3090   6.126   6.840   4.066
  731SOL     OW 3091   4.708   5.017   6.537
  731SOL    HW1 3092   4.725   5.036   6.440
  731SOL    HW2 3093   4.691   5.103   6.585
  732SOL     OW 3094   5.243   2.818   1.336
  732SOL    HW1 3095   5.334   2.782   1.355
  732SOL    HW2 3096   5.215   2.880   1.410
  733SOL     OW 3097   5.380   0.283   4.391
  733SOL    HW1 3098   5.424   0.199   4.423
  733SOL    HW2 3099   5.356   0.340   4.469
  734SOL     OW 3100   6.003   4.431   3.080
  734SOL    HW1 3101   6.037   4.442   3.174
  734SOL    HW2 3102   5.903   4.443   3.080
  735SOL     OW 3103   4.098   1.971   0.327
  735SOL    HW1 3104   4.094   1.997   0.423
  735SOL    HW2 3105   4.005   1.962   0.291
  736SOL     OW 3106   0.094   1.881   3.603
  736SOL    HW1 3107   0.187   1.913   3.622
  736SOL    HW2 3108   0.095   1.820   3.523
  737SOL     OW 3109   5.255   1.893   5.493
  737SOL    HW1 3110   5.323   1.833   5.535
  737SOL    HW2 3111   5.190   1.924   5.562
  738SOL     OW 3112   2.768   3.768   1.169
  738SOL    HW1 3113   2.720   3.687   1.137
  738SOL    HW2 3114   2.735   3.849   1.120
  739SOL     OW 3115   5.166   1.015   4.533
  739SOL    HW1 3116   5.185   1.110   4.559
  739SOL    HW2 3117   5.084   0.984   4.580
  740SOL     OW 3118   6.017   1.561   1.452
  740SOL    HW1 3119   6.077   1.634   1.484
  740SOL    HW2 3120   5.991   1.578   1.357
  741SOL     OW 3121   1.460   0.375   3.220
  741SOL    HW1 3122   1.547   0.408   3.256
  741SOL    HW2 3123   1.393   0.373   3.294
  742SOL     OW 3124   2.487   6.566   2.190
  742SOL    HW1 3125   2.516   6.659   2.166
  742SOL    HW2 3126   2.389   6.557   2.172
  743SOL     OW 3127   1.207   5.223   3.451
  743SOL    HW1 3128   1.163   5.174   3.526
  743SOL    HW2 3129   1.263   5.160   3.398
  744SOL     OW 3130   5.575   0.512   1.542
  744SOL    HW1 3131   5.674   0.509   1.542
  744SOL    HW2 3132   5.542   0.536   1.450
  745SOL     OW 3133   1.652   5.661   5.001
  745SOL    HW1 3134   1.726   5.726   4.984
  745SOL    HW2 3135   1.661   5.583   4.939
  746SOL     OW 3136   6.142   4.268   6.512
  746SOL    HW1 3137   6.071   4.217   6.561
  746SOL    HW2 3138   6.181   4.338   6.572
  747SOL     OW 3139   3.635   6.429   4.059
  747SOL    HW1 3140   3.654   6.494   4.132
  747SOL    HW2 3141   3.638   6.336   4.095
  748SOL     OW 3142   4.072   5.204   2.350
  748SOL    HW1 3143   3.978   5.231   2.374
  748SOL    HW2 3144   4.107   5.142   2.420
  749SOL     OW 3145   5.784   3.250   4.290
  749SOL    HW1 3146   5.774   3.348   4.306
  749SOL    HW2 3147   5.745   3.227   4.201
  750SOL     OW 3148   2.754   1.106   1.449
  750SOL    HW1 3149   2.677   1.117   1.386
  750SOL    HW2 3150   2.767   1.009   1.468
  751SOL     OW 3151   4.566   1.715   6.683
  751SOL    HW1 3152   4.508   1.712   6.764
  751SOL    HW2 3153   4.519   1.763   6.609
  752SOL     OW 3154   3.141   1.497   1.460
  752SOL    HW1 3155   3.047   1.528   1.474
  752SOL    HW2 3156   3.157   1.482   1.363
  753SOL     OW 3157   1.039   3.764   6.001
  753SOL    HW1 3158   0.973   3.725   5.937
  753SOL    HW2 3159   1.113   3.699   6.016
  754SOL     OW 3160   4.651   2.091   5.762
  754SOL    HW1 3161   4.750   2.096   5.746
  754SOL    HW2 3162   4.634   2.077   5.859
  755SOL     OW 3163   1.756   4.780   4.615
  755SOL    HW1 3164   1.710   4.865   4.589
  755SOL    HW2 3165   1.855   4.796   4.618
  756SOL     OW 3166   2.920   6.222   6.499
  756SOL    HW1 3167   2.966   6.290   6.441
  756SOL    HW2 3168   2.855   6.269   6.559
  757SOL     OW 3169   0.203   6.981   4.196
  757SOL    HW1 3170   0.303   6.978   4.193
  757SOL    HW2 3171   0.174   0.019   4.274
  758SOL     OW 3172   3.585   0.693   3.117
  758SOL    HW1 3173   3.580   0.622   3.187
  758SOL    HW2 3174   3.500   0.746   3.118
  759SOL     OW 3175   0.809   2.505   2.033
  759SOL    HW1 3176   0.751   2.555   1.968
  759SOL    HW2 3177   0.762   2.500   2.121
  760SOL     OW 3178   6.447   6.355   3.861
  760SOL    HW1 3179   6.414   6.346   3.767
  760SOL    HW2 3180   6.410   6.438   3.901
  761SOL     OW 3181   5.496   3.842   6.024
  761SOL    HW1 3182   5.558   3.914   5.992
  761SOL    HW2 3183   5.510   3.829   6.122
  762SOL     OW 3184   2.502   0.133   4.807
  762SOL    HW1 3185   2.584   0.183   4.780
  762SOL    HW2 3186   2.463   0.087   4.727
  763SOL     OW 3187   3.924   5.734   6.539
  763SOL    HW1 3188   3.932   5.695   6.447
  763SOL    HW2 3189   3.834   5.778   6.549
  764SOL     OW 3190   5.779   0.851   5.303
  764SOL    HW1 3191   5.714   0.863   5.228
  764SOL    HW2 3192   5.838   0.931   5.309
  765SOL     OW 3193   1.396   5.935   1.321
  765SOL    HW1 3194   1.447   5.972   1.399
  765SOL    HW2 3195   1.308   5.981   1.313
  766SOL     OW 3196   2.725   2.035   5.943
  766SOL    HW1 3197   2.731   1.968   5.869
  766SOL    HW2 3198   2.715   2.127   5.905
  767SOL     OW 3199   6.210   6.091   3.389
  767SOL    HW1 3200   6.239   6.022   3.455
  767SOL    HW2 3201   6.284   6.110   3.325
  768SOL     OW 3202   2.059   5.730   2.568
  768SOL    HW1 3203   1.979   5.676   2.594
  768SOL    HW2 3204   2.115   5.677   2.503
  769SOL     OW 3205   2.388   1.174   5.282
  769SOL    HW1 3206   2.304   1.228   5.278
  769SOL    HW2 3207   2.406   1.147   5.376
  770SOL     OW 3208   1.514   5.213   3.579
  770SOL    HW1 3209   1.529   5.115   3.595
  770SOL    HW2 3210   1.448   5.248   3.645
  771SOL     OW 3211   1.206   4.997   2.664
  771SOL    HW1 3212   1.292   4.959   2.698
  771SOL    HW2 3213   1.166   5.057   2.732
  772SOL     OW 3214   5.369   4.804   6.473
  772SOL    HW1 3215   5.429   4.727   6.495
  772SOL    HW2 3216   5.276   4.784   6.504
  773SOL     OW 3217   0.014   4.196   3.890
  773SOL    HW1 3218   0.012   4.260   3.813
  773SOL    HW2 3219   0.046   4.244   3.972
  774SOL     OW 3220   1.893   1.243   1.188
  774SOL    HW1 3221   1.951   1.321   1.163
  774SOL    HW2 3222   1.806   1.250   1.140
  775SOL     OW 3223   2.315   2.222   4.387
  775SOL    HW1 3224   2.290   2.167   4.467
  775SOL    HW2 3225   2.412   2.210   4.367
  776SOL     OW 3226   0.164   0.291   5.298
  776SOL    HW1 3227   0.243   0.268   5.241
  776SOL    HW2 3228   0.088   0.231   5.275
  777SOL     OW 3229   1.534   4.815   1.299
  777SOL    HW1 3230   1.527   4.773   1.390
  777SOL    HW2 3231   1.591   4.757   1.240
  778SOL     OW 3232   2.582   0.332   1.760
  778SOL    HW1 3233   2.604   0.407   1.697
  778SOL    HW2 3234   2.485   0.338   1.786
  779SOL     OW 3235   6.694   2.884   2.549
  779SOL    HW1 3236   6.648   2.819   2.608
  779SOL    HW2 3237   6.671   2.977   2.577
  780SOL     OW 3238   0.848   2.906   4.285
  780SOL    HW1 3239   0.852   2.888   4.187
  780SOL    HW2 3240   0.765   2.957   4.307
  781SOL     OW 3241   6.216   6.813   0.527
  781SOL    HW1 3242   6.140   6.819   0.462
  781SOL    HW2 3243   6.200   6.737   0.590
  782SOL     OW 3244   1.188   3.518   6.001
  782SOL    HW1 3245   1.212   3.537   6.096
  782SOL    HW2 3246   1.227   3.430   5.974
  783SOL     OW 3247   5.064   4.901   1.895
  783SOL    HW1 3248   5.078   4.985   1.843
  783SOL    HW2 3249   5.143   4.841   1.883
  784SOL     OW 3250   4.437   4.886   0.296
  784SOL    HW1 3251   4.340   4.875   0.275
  784SOL    HW2 3252   4.491   4.870   0.213
  785SOL     OW 3253   0.530   1.932   3.416
  785SOL    HW1 3254   0.455   1.986   3.454
  785SOL    HW2 3255   0.561   1.866   3.483
  786SOL     OW 3256   0.675   6.856   3.252
  786SOL    HW1 3257   0.721   6.939   3.221
  786SOL    HW2 3258   0.576   6.865   3.238
  787SOL     OW 3259   1.375   0.636   0.002
  787SOL    HW1 3260   1.413   0.593   0.084
  787SOL    HW2 3261   1.345   0.565   6.956
  788SOL     OW 3262   4.038   1.461   0.059
  788SOL    HW1 3263   4.050   1.436   0.155
  788SOL    HW2 3264   3.944   1.443   0.031
  789SOL     OW 3265   4.246   4.378   1.669
  789SOL    HW1 3266   4.291   4.335   1.747
  789SOL    HW2 3267   4.313   4.427   1.614
  790SOL     OW 3268   1.876   1.886   2.868
  790SOL    HW1 3269   1.777   1.877   2.857
  790SOL    HW2 3270   1.895   1.949   2.943
  791SOL     OW 3271   1.403   6.065   4.481
  791SOL    HW1 3272   1.441   6.094   4.569
  791SOL    HW2 3273   1.416   6.137   4.413
  792SOL     OW 3274   0.573   0.676   1.842
  792SOL    HW1 3275   0.666   0.685   1.880
  792SOL    HW2 3276   0.564   0.735   1.763
  793SOL     OW 3277   5.233   5.232   4.246
  793SOL    HW1 3278   5.317   5.178   4.245
  793SOL    HW2 3279   5.169   5.193   4.312
  794SOL     OW 3280   2.897   3.915   5.957
  794SOL    HW1 3281   2.913   3.846   5.887
  794SOL    HW2 3282   2.825   3.977   5.927
  795SOL     OW 3283   3.984   0.007   4.675
  795SOL    HW1 3284   4.034   0.066   4.611
  795SOL    HW2 3285   3.953   6.943   4.626
  796SOL     OW 3286   1.078   2.401   6.079
  796SOL    HW1 3287   1.072   2.493   6.118
  796SOL    HW2 3288   1.173   2.380   6.055
  797SOL     OW 3289   5.567   1.206   1.101
  797SOL    HW1 3290   5.474   1.228   1.070
  797SOL    HW2 3291   5.562   1.152   1.185
  798SOL     OW 3292   3.096   6.522   1.874
  798SOL    HW1 3293   3.142   6.448   1.825
  798SOL    HW2 3294   3.152   6.551   1.951
  799SOL     OW 3295   0.179   6.602   6.118
  799SOL    HW1 3296   0.202   6.697   6.138
  799SOL    HW2 3297   0.193   6.546   6.200
  800SOL     OW 3298   5.670   1.383   2.364
  800SOL    HW1 3299   5.738   1.371   2.436
  800SOL    HW2 3300   5.633   1.294   2.338
  801SOL     OW 3301   2.212   4.331   4.677
  801SOL    HW1 3302   2.307   4.358   4.663
  801SOL    HW2 3303   2.208   4.246   4.729
  802SOL     OW 3304   2.994   1.702   0.868
  802SOL    HW1 3305   3.047   1.764   0.811
  802SOL    HW2 3306   2.904   1.687   0.826
  803SOL     OW 3307   1.342   0.387   6.212
  803SOL    HW1 3308   1.429   0.342   6.228
  803SOL    HW2 3309   1.356   0.485   6.202
  804SOL     OW 3310   5.839   6.779   0.831
  804SOL    HW1 3311   5.834   6.807   0.736
  804SOL    HW2 3312   5.924   6.728   0.846
  805SOL     OW 3313   2.671   1.133   3.981
  805SOL    HW1 3314   2.585   1.172   4.013
  805SOL    HW2 3315   2.744   1.201   3.991
  806SOL     OW 3316   5.391   0.883   4.846
  806SOL    HW1 3317   5.333   0.852   4.770
  806SOL    HW2 3318   5.471   0.930   4.809
  807SOL     OW 3319   0.416   0.535   5.383
  807SOL    HW1 3320   0.479   0.582   5.444
  807SOL    HW2 3321   0.456   0.449   5.352
  808SOL     OW 3322   3.852   4.295   6.238
  808SOL    HW1 3323   3.865   4.262   6.144
  808SOL    HW2 3324   3.755   4.297   6.260
  809SOL     OW 3325   0.689   5.128   0.939
  809SOL    HW1 3326   0.657   5.220   0.961
  809SOL    HW2 3327   0.784   5.131   0.910
  810SOL     OW 3328   3.708   4.062   0.434
  810SOL    HW1 3329   3.681   3.966   0.424
  810SOL    HW2 3330   3.700   4.088   0.530
  811SOL     OW 3331   5.164   6.314   5.319
  811SOL    HW1 3332   5.087   6.320   5.256
  811SOL    HW2 3333   5.163   6.226   5.365
  812SOL     OW 3334   6.962   0.604   2.837
  812SOL    HW1 3335   6.966   0.570   2.931
  812SOL    HW2 3336   6.951   0.704   2.838
  813SOL     OW 3337   3.939   6.429   4.199
  813SOL    HW1 3338   3.854   6.480   4.205
  813SOL    HW2 3339   3.956   6.404   4.103
  814SOL     OW 3340   5.979   5.851   2.817
  814SOL    HW1 3341   5.943   5.855   2.910
  814SOL    HW2 3342   5.907   5.821   2.755
  815SOL     OW 3343   6.633   3.480   3.311
  815SOL    HW1 3344   6.679   3.565   3.337
  815SOL    HW2 3345   6.577   3.496   3.230
  816SOL     OW 3346   5.938   5.898   0.482
  816SOL    HW1 3347   5.845   5.935   0.489
  816SOL    HW2 3348   5.949   5.825   0.550
  817SOL     OW 3349   1.184   5.639   1.628
  817SOL    HW1 3350   1.119   5.713   1.614
  817SOL    HW2 3351   1.248   5.635   1.551
  818SOL     OW 3352   6.053   2.407   3.619
  818SOL    HW1 3353   6.106   2.357   3.688
  818SOL    HW2 3354   6.074   2.504   3.624
  819SOL     OW 3355   5.834   2.885   1.784
  819SOL    HW1 3356   5.823   2.911   1.880
  819SOL    HW2 3357   5.751   2.838   1.753
  820SOL     OW 3358   3.247   2.045   4.853
  820SOL    HW1 3359   3.264   2.141   4.876
  820SOL    HW2 3360   3.153   2.021   4.878
  821SOL     OW 3361   6.666   4.140   0.190
  821SOL    HW1 3362   6.714   4.200   0.253
  821SOL    HW2 3363   6.631   4.193   0.113
  822SOL     OW 3364   0.486   3.716   3.594
  822SOL    HW1 3365   0.458   3.714   3.498
  822SOL    HW2 3366   0.453   3.633   3.639
  823SOL     OW 3367   6.197   4.221   6.249
  823SOL    HW1 3368   6.110   4.183   6.218
  823SOL    HW2 3369   6.191   4.244   6.346
  824SOL     OW 3370   4.248   0.955   6.130
  824SOL    HW1 3371   4.300   1.040   6.141
  824SOL    HW2 3372   4.304   0.877   6.158
  825SOL     OW 3373   0.076   5.892   1.215
  825SOL    HW1 3374   0.062   5.799   1.251
  825SOL    HW2 3375   0.004   5.913   1.148
  826SOL     OW 3376   3.616   1.851   5.884
  826SOL    HW1 3377   3.707   1.810   5.876
  826SOL    HW2 3378   3.625   1.949   5.904
  827SOL     OW 3379   2.449   4.209   5.494
  827SOL    HW1 3380   2.413   4.217   5.401
  827SOL    HW2 3381   2.386   4.253   5.558
  828SOL     OW 3382   5.127   6.474   6.412
  828SOL    HW1 3383   5.209   6.514   6.453
  828SOL    HW2 3384   5.128   6.490   6.313
  829SOL     OW 3385   4.139   3.665   2.150
  829SOL    HW1 3386   4.098   3.615   2.226
  829SOL    HW2 3387   4.238   3.672   2.164
  830SOL     OW 3388   5.468   4.932   6.871
  830SOL    HW1 3389   5.449   4.834   6.872
  830SOL    HW2 3390   5.522   4.955   6.790
  831SOL     OW 3391   6.077   6.835   0.067
  831SOL    HW1 3392   6.131   6.760   0.029
  831SOL    HW2 3393   5.981   6.824   0.041
  832SOL     OW 3394   4.410   1.274   2.604
  832SOL    HW1 3395   4.432   1.371   2.611
  832SOL    HW2 3396   4.311   1.263   2.598
  833SOL     OW 3397   1.721   3.462   6.342
  833SOL    HW1 3398   1.780   3.529   6.296
  833SOL    HW2 3399   1.774   3.414   6.412
  834SOL     OW 3400   4.318   3.883   1.046
  834SOL    HW1 3401   4.248   3.812   1.040
  834SOL    HW2 3402   4.315   3.925   1.136
  835SOL     OW 3403   3.270   0.528   5.591
  835SOL    HW1 3404   3.328   0.603   5.623
  835SOL    HW2 3405   3.310   0.441   5.622
  836SOL     OW 3406   3.746   0.025   4.939
  836SOL    HW1 3407   3.800   0.091   4.992
  836SOL    HW2 3408   3.650   0.052   4.939
  837SOL     OW 3409   6.719   0.049   1.015
  837SOL    HW1 3410   6.785   0.066   1.088
  837SOL    HW2 3411   6.767   0.048   0.927
  838SOL     OW 3412   2.259   0.473   4.531
  838SOL    HW1 3413   2.304   0.437   4.449
  838SOL    HW2 3414   2.189   0.408   4.562
  839SOL     OW 3415   1.737   1.416   1.915
  839SOL    HW1 3416   1.815   1.399   1.855
  839SOL    HW2 3417   1.683   1.332   1.923
  840SOL     OW 3418   6.191   6.042   6.860
  840SOL    HW1 3419   6.193   6.123   6.919
  840SOL    HW2 3420   6.225   5.963   6.911
  841SOL     OW 3421   3.155   5.042   6.047
  841SOL    HW1 3422   3.170   5.090   6.134
  841SOL    HW2 3423   3.147   5.109   5.973
  842SOL     OW 3424   3.644   0.333   5.217
  842SOL    HW1 3425   3.568   0.293   5.166
  842SOL    HW2 3426   3.670   0.420   5.175
  843SOL     OW 3427   0.959   1.705   1.511
  843SOL    HW1 3428   0.981   1.791   1.465
  843SOL    HW2 3429   0.918   1.642   1.445
  844SOL     OW 3430   6.131   0.086   6.983
  844SOL    HW1 3431   6.146   7.011   0.001
  844SOL    HW2 3432   6.183   0.097   6.898
  845SOL     OW 3433   4.877   3.747   3.658
  845SOL    HW1 3434   4.853   3.743   3.754
  845SOL    HW2 3435   4.883   3.654   3.621
  846SOL     OW 3436   2.215   1.109   5.763
  846SOL    HW1 3437   2.286   1.038   5.767
  846SOL    HW2 3438   2.131   1.074   5.803
  847SOL     OW 3439   1.574   3.780   1.048
  847SOL    HW1 3440   1.671   3.763   1.030
  847SOL    HW2 3441   1.539   3.849   0.983
  848SOL     OW 3442   6.977   6.860   6.026
  848SOL    HW1 3443   6.898   6.854   5.965
  848SOL    HW2 3444   6.984   6.777   6.081
  849SOL     OW 3445   6.322   4.058   6.493
  849SOL    HW1 3446   6.326   3.987   6.564
  849SOL    HW2 3447   6.284   4.141   6.532
  850SOL     OW 3448   5.225   1.295   4.598
  850SOL    HW1 3449   5.306   1.318   4.652
  850SOL    HW2 3450   5.145   1.340   4.637
  851SOL     OW 3451   0.192   2.792   1.074
  851SOL    HW1 3452   0.274   2.773   1.019
  851SOL    HW2 3453   0.148   2.875   1.039
  852SOL     OW 3454   1.032   4.104   0.274
  852SOL    HW1 3455   0.957   4.110   0.340
  852SOL    HW2 3456   1.008   4.040   0.201
  853SOL     OW 3457   0.944   4.705   1.183
  853SOL    HW1 3458   1.004   4.677   1.258
  853SOL    HW2 3459   0.954   4.803   1.166
  854SOL     OW 3460   5.333   5.300   0.616
  854SOL    HW1 3461   5.380   5.234   0.558
  854SOL    HW2 3462   5.360   5.286   0.711
  855SOL     OW 3463   6.728   0.395   1.919
  855SOL    HW1 3464   6.767   0.464   1.980
  855SOL    HW2 3465   6.652   0.436   1.867
  856SOL     OW 3466   1.164   2.076   6.621
  856SOL    HW1 3467   1.140   2.122   6.706
  856SOL    HW2 3468   1.081   2.053   6.570
  857SOL     OW 3469   6.136   4.791   1.957
  857SOL    HW1 3470   6.216   4.810   1.900
  857SOL    HW2 3471   6.119   4.693   1.959
  858SOL     OW 3472   3.188   3.911   1.174
  858SOL    HW1 3473   3.138   3.824   1.171
  858SOL    HW2 3474   3.161   3.968   1.097
  859SOL     OW 3475   5.944   0.068   5.014
  859SOL    HW1 3476   5.886   0.003   4.965
  859SOL    HW2 3477   6.005   0.018   5.076
  860SOL     OW 3478   6.617   2.665   0.637
  860SOL    HW1 3479   6.651   2.693   0.727
  860SOL    HW2 3480   6.518   2.676   0.634
  861SOL     OW 3481   2.513   5.223   4.110
  861SOL    HW1 3482   2.555   5.154   4.050
  861SOL    HW2 3483   2.566   5.228   4.195
  862SOL     OW 3484   1.219   4.103   3.729
  862SOL    HW1 3485   1.170   4.182   3.691
  862SOL    HW2 3486   1.227   4.114   3.828
  863SOL     OW 3487   5.830   0.993   0.048
  863SOL    HW1 3488   5.835   1.020   6.969
  863SOL    HW2 3489   5.917   1.013   0.092
  864SOL     OW 3490   4.097   5.403   4.033
  864SOL    HW1 3491   4.000   5.416   4.050
  864SOL    HW2 3492   4.120   5.306   4.038
  865SOL     OW 3493   1.349   6.426   6.106
  865SOL    HW1 3494   1.409   6.478   6.167
  865SOL    HW2 3495   1.361   6.328   6.121
  866SOL     OW 3496   2.534   1.036   1.302
  866SOL    HW1 3497   2.505   1.114   1.248
  866SOL    HW2 3498   2.488   0.953   1.269
  867SOL     OW 3499   5.215   3.844   0.329
  867SOL    HW1 3500   5.255   3.758   0.297
  867SOL    HW2 3501   5.287   3.901   0.370
  868SOL     OW 3502   6.170   1.259   0.841
  868SOL    HW1 3503   6.113   1.203   0.900
  868SOL    HW2 3504   6.224   1.322   0.897
  869SOL     OW 3505   0.273   4.285   3.149
  869SOL    HW1 3506   0.316   4.284   3.058
  869SOL    HW2 3507   0.237   4.377   3.167
  870SOL     OW 3508   3.767   3.507   0.048
  870SOL    HW1 3509   3.846   3.554   0.010
  870SOL    HW2 3510   3.783   3.486   0.144
  871SOL     OW 3511   4.847   2.338   2.791
  871SOL    HW1 3512   4.880   2.339   2.886
  871SOL    HW2 3513   4.765   2.282   2.785
  872SOL     OW 3514   5.507   3.088   3.845
  872SOL    HW1 3515   5.466   3.162   3.792
  872SOL    HW2 3516   5.436   3.041   3.897
  873SOL     OW 3517   5.981   6.256   5.334
  873SOL    HW1 3518   5.949   6.317   5.262
  873SOL    HW2 3519   5.912   6.186   5.352
  874SOL     OW 3520   0.328   3.717   6.197
  874SOL    HW1 3521   0.350   3.693   6.292
  874SOL    HW2 3522   0.397   3.780   6.162
  875SOL     OW 3523   5.375   4.583   0.533
  875SOL    HW1 3524   5.329   4.668   0.505
  875SOL    HW2 3525   5.310   4.526   0.583
  876SOL     OW 3526   1.284   4.589   2.315
  876SOL    HW1 3527   1.187   4.612   2.309
  876SOL    HW2 3528   1.338   4.667   2.284
  877SOL     OW 3529   3.650   4.650   5.615
  877SOL    HW1 3530   3.667   4.704   5.533
  877SOL    HW2 3531   3.718   4.577   5.621
  878SOL     OW 3532   3.839   5.998   4.856
  878SOL    HW1 3533   3.800   5.912   4.822
  878SOL    HW2 3534   3.773   6.072   4.843
  879SOL     OW 3535   3.711   1.771   0.963
  879SOL    HW1 3536   3.678   1.677   0.954
  879SOL    HW2 3537   3.744   1.786   1.057
  880SOL     OW 3538   2.888   3.622   4.950
  880SOL    HW1 3539   2.892   3.650   4.854
  880SOL    HW2 3540   2.793   3.614   4.978
  881SOL     OW 3541   5.923   3.483   5.651
  881SOL    HW1 3542   5.935   3.570   5.605
  881SOL    HW2 3543   5.826   3.464   5.663
  882SOL     OW 3544   1.176   2.695   4.270
  882SOL    HW1 3545   1.114   2.766   4.304
  882SOL    HW2 3546   1.239   2.736   4.204
  883SOL     OW 3547   3.812   0.673   0.272
  883SOL    HW1 3548   3.871   0.723   0.208
  883SOL    HW2 3549   3.856   0.671   0.362
  884SOL     OW 3550   6.851   4.226   6.997
  884SOL    HW1 3551   6.930   4.275   0.017
  884SOL    HW2 3552   6.810   4.169   0.051
  885SOL     OW 3553   4.118   6.565   5.197
  885SOL    HW1 3554   4.079   6.478   5.169
  885SOL    HW2 3555   4.050   6.638   5.183
  886SOL     OW 3556   4.436   0.508   0.655
  886SOL    HW1 3557   4.404   0.541   0.744
  886SOL    HW2 3558   4.510   0.441   0.668
  887SOL     OW 3559   3.837   5.858   3.586
  887SOL    HW1 3560   3.793   5.768   3.589
  887SOL    HW2 3561   3.772   5.926   3.555
  888SOL     OW 3562   6.772   6.115   3.272
  888SOL    HW1 3563   6.778   6.211   3.245
  888SOL    HW2 3564   6.803   6.057   3.197
  889SOL     OW 3565   6.918   1.351   6.255
  889SOL    HW1 3566   6.864   1.417   6.308
  889SOL    HW2 3567   6.887   1.352   6.160
  890SOL     OW 3568   2.799   5.195   2.617
  890SOL    HW1 3569   2.782   5.269   2.682
  890SOL    HW2 3570   2.838   5.117   2.666
  891SOL     OW 3571   6.610   3.479   0.404
  891SOL    HW1 3572   6.601   3.565   0.455
  891SOL    HW2 3573   6.593   3.496   0.307
  892SOL     OW 3574   3.448   3.362   4.893
  892SOL    HW1 3575   3.537   3.326   4.921
  892SOL    HW2 3576   3.381   3.288   4.892
  893SOL     OW 3577   2.003   6.631   2.574
  893SOL    HW1 3578   1.908   6.611   2.552
  893SOL    HW2 3579   2.037   6.702   2.512
  894SOL     OW 3580   1.264   2.542   2.918
  894SOL    HW1 3581   1.238   2.501   2.831
  894SOL    HW2 3582   1.192   2.605   2.949
  895SOL     OW 3583   1.115   4.819   3.921
  895SOL    HW1 3584   1.032   4.763   3.920
  895SOL    HW2 3585   1.132   4.856   3.830
  896SOL     OW 3586   6.074   5.529   1.424
  896SOL    HW1 3587   6.059   5.477   1.508
  896SOL    HW2 3588   5.986   5.565   1.392
  897SOL     OW 3589   3.775   0.333   6.562
  897SOL    HW1 3590   3.786   0.432   6.571
  897SOL    HW2 3591   3.778   0.291   6.652
  898SOL     OW 3592   4.026   5.934   2.450
  898SOL    HW1 3593   3.940   5.971   2.414
  898SOL    HW2 3594   4.087   5.914   2.374
  899SOL     OW 3595   0.222   5.870   0.286
  899SOL    HW1 3596   0.300   5.892   0.344
  899SOL    HW2 3597   0.181   5.954   0.251
  900SOL     OW 3598   4.911   6.376   6.492
  900SOL    HW1 3599   5.005   6.398   6.465
  900SOL    HW2 3600   4.847   6.428   6.436
  901SOL     OW 3601   1.056   0.977   4.221
  901SOL    HW1 3602   0.999   1.017   4.150
  901SOL    HW2 3603   1.152   0.994   4.200
  902SOL     OW 3604   1.353   2.919   1.072
  902SOL    HW1 3605   1.412   2.947   1.148
  902SOL    HW2 3606   1.326   2.824   1.086
  903SOL     OW 3607   0.674   3.502   6.887
  903SOL    HW1 3608   0.650   3.432   6.820
  903SOL    HW2 3609   0.669   3.463   6.979
  904SOL     OW 3610   2.328   2.798   2.511
  904SOL    HW1 3611   2.384   2.874   2.544
  904SOL    HW2 3612   2.324   2.801   2.411
  905SOL     OW 3613   5.268   4.592   6.024
  905SOL    HW1 3614   5.168   4.583   6.023
  905SOL    HW2 3615   5.307   4.537   5.950
  906SOL     OW 3616   0.808   2.259   6.555
  906SOL    HW1 3617   0.881   2.316   6.592
  906SOL    HW2 3618   0.755   2.312   6.489
  907SOL     OW 3619   5.217   2.510   1.461
  907SOL    HW1 3620   5.199   2.607   1.443
  907SOL    HW2 3621   5.194   2.489   1.556
  908SOL     OW 3622   2.421   4.809   3.097
  908SOL    HW1 3623   2.351   4.738   3.098
  908SOL    HW2 3624   2.378   4.898   3.115
  909SOL     OW 3625   3.543   5.911   2.099
  909SOL    HW1 3626   3.452   5.950   2.086
  909SOL    HW2 3627   3.545   5.858   2.184
  910SOL     OW 3628   3.499   1.224   1.107
  910SOL    HW1 3629   3.436   1.299   1.128
  910SOL    HW2 3630   3.446   1.143   1.082
  911SOL     OW 3631   0.681   5.866   6.640
  911SOL    HW1 3632   0.769   5.913   6.648
  911SOL    HW2 3633   0.673   5.796   6.712
  912SOL     OW 3634   4.850   0.816   3.536
  912SOL    HW1 3635   4.814   0.753   3.605
  912SOL    HW2 3636   4.950   0.822   3.545
  913SOL     OW 3637   2.616   0.907   3.860
  913SOL    HW1 3638   2.629   0.986   3.920
  913SOL    HW2 3639   2.541   0.851   3.893
  914SOL     OW 3640   2.520   6.166   5.187
  914SOL    HW1 3641   2.483   6.146   5.096
  914SOL    HW2 3642   2.585   6.242   5.180
  915SOL     OW 3643   6.884   3.458   1.074
  915SOL    HW1 3644   6.818   3.393   1.038
  915SOL    HW2 3645   6.970   3.411   1.094
  916SOL     OW 3646   2.177   3.198   2.652
  916SOL    HW1 3647   2.086   3.193   2.610
  916SOL    HW2 3648   2.245   3.210   2.580
  917SOL     OW 3649   6.973   0.307   2.188
  917SOL    HW1 3650   6.890   0.341   2.142
  917SOL    HW2 3651   0.023   0.282   2.119
  918SOL     OW 3652   3.461   0.254   1.450
  918SOL    HW1 3653   3.372   0.217   1.476
  918SOL    HW2 3654   3.493   0.316   1.522
  919SOL     OW 3655   6.685   6.683   3.384
  919SOL    HW1 3656   6.758   6.649   3.443
  919SOL    HW2 3657   6.606   6.709   3.440
  920SOL     OW 3658   2.742   4.877   2.554
  920SOL    HW1 3659   2.686   4.794   2.555
  920SOL    HW2 3660   2.690   4.952   2.515
  921SOL     OW 3661   4.001   5.479   3.344
  921SOL    HW1 3662   3.908   5.473   3.382
  921SOL    HW2 3663   4.068   5.463   3.416
  922SOL     OW 3664   3.049   3.118   4.603
  922SOL    HW1 3665   3.090   3.054   4.537
  922SOL    HW2 3666   3.037   3.072   4.691
  923SOL     OW 3667   2.321   3.950   5.649
  923SOL    HW1 3668   2.341   3.852   5.658
  923SOL    HW2 3669   2.407   4.001   5.650
  924SOL     OW 3670   6.537   2.911   2.895
  924SOL    HW1 3671   6.614   2.869   2.943
  924SOL    HW2 3672   6.453   2.897   2.948
  925SOL     OW 3673   0.091   2.375   6.714
  925SOL    HW1 3674   0.079   2.289   6.762
  925SOL    HW2 3675   0.018   2.385   6.646
  926SOL     OW 3676   6.543   1.221   1.065
  926SOL    HW1 3677   6.509   1.130   1.042
  926SOL    HW2 3678   6.642   1.224   1.051
  927SOL     OW 3679   5.415   4.247   2.803
  927SOL    HW1 3680   5.467   4.230   2.720
  927SOL    HW2 3681   5.426   4.170   2.866
  928SOL     OW 3682   1.316   6.620   0.080
  928SOL    HW1 3683   1.286   6.587   0.170
  928SOL    HW2 3684   1.256   6.583   0.009
  929SOL     OW 3685   0.556   0.196   0.251
  929SOL    HW1 3686   0.595   0.105   0.260
  929SOL    HW2 3687   0.459   0.194   0.276
  930SOL     OW 3688   5.160   6.104   4.665
  930SOL    HW1 3689   5.152   6.140   4.757
  930SOL    HW2 3690   5.198   6.011   4.669
  931SOL     OW 3691   5.804   1.347   4.861
  931SOL    HW1 3692   5.801   1.277   4.789
  931SOL    HW2 3693   5.779   1.307   4.948
  932SOL     OW 3694   3.209   0.469   3.724
  932SOL    HW1 3695   3.287   0.410   3.745
  932SOL    HW2 3696   3.180   0.454   3.629
  933SOL     OW 3697   1.861   5.890   3.730
  933SOL    HW1 3698   1.828   5.969   3.782
  933SOL    HW2 3699   1.824   5.894   3.637
  934SOL     OW 3700   1.673   6.910   6.821
  934SOL    HW1 3701   1.739   6.837   6.804
  934SOL    HW2 3702   1.721   6.998   6.823
  935SOL     OW 3703   4.831   4.406   3.461
  935SOL    HW1 3704   4.862   4.480   3.401
  935SOL    HW2 3705   4.910   4.358   3.498
  936SOL     OW 3706   0.373   0.774   6.255
  936SOL    HW1 3707   0.292   0.785   6.312
  936SOL    HW2 3708   0.399   0.678   6.252
  937SOL     OW 3709   5.108   1.731   5.785
  937SOL    HW1 3710   5.144   1.744   5.878
  937SOL    HW2 3711   5.098   1.634   5.767
  938SOL     OW 3712   6.034   5.258   6.099
  938SOL    HW1 3713   6.015   5.203   6.180
  938SOL    HW2 3714   6.013   5.354   6.119
  939SOL     OW 3715   6.874   6.865   4.728
  939SOL    HW1 3716   6.904   6.954   4.694
  939SOL    HW2 3717   6.837   6.811   4.652
  940SOL     OW 3718   1.451   3.890   1.467
  940SOL    HW1 3719   1.387   3.923   1.398
  940SOL    HW2 3720   1.444   3.947   1.549
  941SOL     OW 3721   5.346   1.226   6.455
  941SOL    HW1 3722   5.287   1.185   6.524
  941SOL    HW2 3723   5.373   1.155   6.389
  942SOL     OW 3724   5.700   0.194   3.133
  942SOL    HW1 3725   5.626   0.127   3.124
  942SOL    HW2 3726   5.788   0.147   3.127
  943SOL     OW 3727   2.074   3.618   3.772
  943SOL    HW1 3728   2.043   3.713   3.761
  943SOL    HW2 3729   2.119   3.588   3.688
  944SOL     OW 3730   0.202   4.624   6.143
  944SOL    HW1 3731   0.197   4.532   6.182
  944SOL    HW2 3732   0.170   4.690   6.211
  945SOL     OW 3733   6.536   3.258   6.028
  945SOL    HW1 3734   6.546   3.306   5.940
  945SOL    HW2 3735   6.469   3.307   6.085
  946SOL     OW 3736   5.156   3.769   5.412
  946SOL    HW1 3737   5.195   3.737   5.325
  946SOL    HW2 3738   5.110   3.693   5.458
  947SOL     OW 3739   3.894   3.014   3.329
  947SOL    HW1 3740   3.886   3.114   3.335
  947SOL    HW2 3741   3.893   2.986   3.233
  948SOL     OW 3742   4.632   0.588   2.873
  948SOL    HW1 3743   4.725   0.552   2.869
  948SOL    HW2 3744   4.631   0.682   2.840
  949SOL     OW 3745   1.412   5.540   0.114
  949SOL    HW1 3746   1.424   5.444   0.140
  949SOL    HW2 3747   1.471   5.598   0.171
  950SOL     OW 3748   4.759   5.592   1.833
  950SOL    HW1 3749   4.735   5.513   1.889
  950SOL    HW2 3750   4.696   5.667   1.850
  951SOL     OW 3751   1.745   0.623   4.113
  951SOL    HW1 3752   1.693   0.619   4.028
  951SOL    HW2 3753   1.704   0.692   4.174
  952SOL     OW 3754   4.471   2.076   3.314
  952SOL    HW1 3755   4.478   1.993   3.370
  952SOL    HW2 3756   4.406   2.139   3.356
  953SOL     OW 3757   5.211   4.915   4.121
  953SOL    HW1 3758   5.258   4.946   4.204
  953SOL    HW2 3759   5.207   4.815   4.120
  954SOL     OW 3760   4.113   5.926   1.264
  954SOL    HW1 3761   4.038   5.993   1.264
  954SOL    HW2 3762   4.190   5.962   1.210
  955SOL     OW 3763   0.256   3.809   1.987
  955SOL    HW1 3764   0.178   3.748   2.006
  955SOL    HW2 3765   0.299   3.835   2.074
  956SOL     OW 3766   6.593   0.247   2.117
  956SOL    HW1 3767   6.628   0.309   2.047
  956SOL    HW2 3768   6.520   0.191   2.078
  957SOL     OW 3769   5.680   3.259   4.043
  957SOL    HW1 3770   5.768   3.239   4.001
  957SOL    HW2 3771   5.610   3.198   4.005
  958SOL     OW 3772   3.932   1.608   1.654
  958SOL    HW1 3773   3.833   1.611   1.638
  958SOL    HW2 3774   3.979   1.577   1.571
  959SOL     OW 3775   3.683   6.112   3.579
  959SOL    HW1 3776   3.640   6.190   3.626
  959SOL    HW2 3777   3.668   6.121   3.480
  960SOL     OW 3778   0.723   6.326   2.337
  960SOL    HW1 3779   0.733   6.426   2.336
  960SOL    HW2 3780   0.784   6.286   2.269
  961SOL     OW 3781   4.174   6.077   3.347
  961SOL    HW1 3782   4.200   6.081   3.251
  961SOL    HW2 3783   4.244   6.027   3.399
  962SOL     OW 3784   0.370   1.774   5.233
  962SOL    HW1 3785   0.413   1.686   5.213
  962SOL    HW2 3786   0.273   1.771   5.209
  963SOL     OW 3787   5.569   1.544   6.513
  963SOL    HW1 3788   5.481   1.560   6.469
  963SOL    HW2 3789   5.637   1.609   6.477
  964SOL     OW 3790   5.330   4.721   0.187
  964SOL    HW1 3791   5.339   4.818   0.162
  964SOL    HW2 3792   5.407   4.693   0.243
  965SOL     OW 3793   5.361   1.840   1.754
  965SOL    HW1 3794   5.385   1.890   1.838
  965SOL    HW2 3795   5.343   1.906   1.681
  966SOL     OW 3796   5.896   3.007   2.277
  966SOL    HW1 3797   5.870   2.913   2.297
  966SOL    HW2 3798   5.824   3.069   2.309
  967SOL     OW 3799   2.878   4.251   1.436
  967SOL    HW1 3800   2.939   4.190   1.386
  967SOL    HW2 3801   2.789   4.254   1.392
  968SOL     OW 3802   3.650   0.109   2.162
  968SOL    HW1 3803   3.740   0.090   2.202
  968SOL    HW2 3804   3.579   0.074   2.222
  969SOL     OW 3805   2.140   5.313   5.573
  969SOL    HW1 3806   2.041   5.328   5.573
  969SOL    HW2 3807   2.181   5.355   5.493
  970SOL     OW 3808   5.873   1.053   6.757
  970SOL    HW1 3809   5.961   1.064   6.711
  970SOL    HW2 3810   5.842   0.958   6.746
  971SOL     OW 3811   0.376   2.869   2.489
  971SOL    HW1 3812   0.371   2.967   2.469
  971SOL    HW2 3813   0.438   2.825   2.425
  972SOL     OW 3814   5.857   2.348   1.591
  972SOL    HW1 3815   5.926   2.355   1.519
  972SOL    HW2 3816   5.781   2.292   1.559
  973SOL     OW 3817   0.021   5.054   6.608
  973SOL    HW1 3818   0.086   5.103   6.549
  973SOL    HW2 3819   0.072   4.998   6.673
  974SOL     OW 3820   5.311   6.526   2.454
  974SOL    HW1 3821   5.383   6.461   2.432
  974SOL    HW2 3822   5.256   6.545   2.373
  975SOL     OW 3823   2.007   0.690   6.463
  975SOL    HW1 3824   1.945   0.676   6.386
  975SOL    HW2 3825   2.077   0.619   6.462
  976SOL     OW 3826   0.191   3.535   2.561
  976SOL    HW1 3827   0.254   3.558   2.635
  976SOL    HW2 3828   0.178   3.615   2.502
  977SOL     OW 3829   0.640   6.664   1.799
  977SOL    HW1 3830   0.635   6.623   1.890
  977SOL    HW2 3831   0.708   6.615   1.744
  978SOL     OW 3832   5.682   3.245   5.417
  978SOL    HW1 3833   5.775   3.282   5.407
  978SOL    HW2 3834   5.674   3.161   5.362
  979SOL     OW 3835   0.094   2.555   0.118
  979SOL    HW1 3836   0.037   2.478   0.145
  979SOL    HW2 3837   0.189   2.526   0.108
  980SOL     OW 3838   4.391   2.019   3.658
  980SOL    HW1 3839   4.403   2.087   3.730
  980SOL    HW2 3840   4.480   1.999   3.616
  981SOL     OW 3841   0.210   2.060   4.956
  981SOL    HW1 3842   0.146   2.104   4.893
  981SOL    HW2 3843   0.263   1.991   4.907
  982SOL     OW 3844   1.588   1.864   4.954
  982SOL    HW1 3845   1.489   1.877   4.955
  982SOL    HW2 3846   1.609   1.767   4.963
  983SOL     OW 3847   5.743   2.985   3.791
  983SOL    HW1 3848   5.781   3.010   3.702
  983SOL    HW2 3849   5.664   3.043   3.811
  984SOL     OW 3850   2.566   2.483   4.809
  984SOL    HW1 3851   2.506   2.555   4.846
  984SOL    HW2 3852   2.605   2.431   4.885
  985SOL     OW 3853   6.280   2.956   4.960
  985SOL    HW1 3854   6.306   2.860   4.969
  985SOL    HW2 3855   6.271   2.998   5.050
  986SOL     OW 3856   4.519   4.545   1.257
  986SOL    HW1 3857   4.425   4.576   1.274
  986SOL    HW2 3858   4.546   4.572   1.164
  987SOL     OW 3859   4.739   6.825   2.600
  987SOL    HW1 3860   4.681   6.748   2.574
  987SOL    HW2 3861   4.717   6.854   2.693
  988SOL     OW 3862   3.530   3.887   2.124
  988SOL    HW1 3863   3.589   3.965   2.144
  988SOL    HW2 3864   3.438   3.905   2.159
  989SOL     OW 3865   6.622   1.683   6.020
  989SOL    HW1 3866   6.581   1.714   6.105
  989SOL    HW2 3867   6.702   1.740   5.999
  990SOL     OW 3868   4.449   1.214   2.193
  990SOL    HW1 3869   4.498   1.193   2.109
  990SOL    HW2 3870   4.351   1.210   2.176
  991SOL     OW 3871   0.769   4.010   4.702
  991SOL    HW1 3872   0.732   4.004   4.609
  991SOL    HW2 3873   0.734   3.935   4.757
  992SOL     OW 3874   0.314   3.525   1.121
  992SOL    HW1 3875   0.404   3.488   1.146
  992SOL    HW2 3876   0.310   3.621   1.147
  993SOL     OW 3877   6.727   4.960   0.397
  993SOL    HW1 3878   6.639   4.919   0.421
  993SOL    HW2 3879   6.791   4.949   0.473
  994SOL     OW 3880   4.127   4.863   1.559
  994SOL    HW1 3881   4.126   4.963   1.561
  994SOL    HW2 3882   4.082   4.830   1.476
  995SOL     OW 3883   4.005   2.750   5.745
  995SOL    HW1 3884   3.945   2.735   5.823
  995SOL    HW2 3885   4.004   2.671   5.685
  996SOL     OW 3886   3.382   5.458   4.424
  996SOL    HW1 3887   3.345   5.368   4.443
  996SOL    HW2 3888   3.478   5.461   4.452
  997SOL     OW 3889   1.029   0.051   3.482
  997SOL    HW1 3890   1.041   0.071   3.579
  997SOL    HW2 3891   0.986   0.129   3.437
  998SOL     OW 3892   5.214   0.677   5.258
  998SOL    HW1 3893   5.138   0.730   5.221
  998SOL    HW2 3894   5.225   0.593   5.205
  999SOL     OW 3895   5.283   4.487   2.742
  999SOL    HW1 3896   5.336   4.408   2.773
  999SOL    HW2 3897   5.338   4.542   2.679
 1000SOL     OW 3898   3.279   1.681   1.598
 1000SOL    HW1 3899   3.238   1.624   1.527
 1000SOL    HW2 3900   3.362   1.725   1.562
 1001SOL     OW 3901   5.306   5.889   1.064
 1001SOL    HW1 3902   5.250   5.969   1.040
 1001SOL    HW2 3903   5.300   5.873   1.163
 1002SOL     OW 3904   5.827   2.030   1.124
 1002SOL    HW1 3905   5.734   2.053   1.155
 1002SOL    HW2 3906   5.852   1.940   1.158
 1003SOL     OW 3907   1.974   6.431   2.893
 1003SOL    HW1 3908   2.026   6.515   2.903
 1003SOL    HW2 3909   1.884   6.443   2.936
 1004SOL     OW 3910   0.598   0.851   2.114
 1004SOL    HW1 3911   0.550   0.869   2.029
 1004SOL    HW2 3912   0.557   0.907   2.187
 1005SOL     OW 3913   2.147   2.323   4.131
 1005SOL    HW1 3914   2.048   2.325   4.121
 1005SOL    HW2 3915   2.172   2.343   4.226
 1006SOL     OW 3916   1.368   4.535   0.359
 1006SOL    HW1 3917   1.364   4.572   0.452
 1006SOL    HW2 3918   1.408   4.603   0.298
 1007SOL     OW 3919   4.499   0.520   5.028
 1007SOL    HW1 3920   4.421   0.459   5.016
 1007SOL    HW2 3921   4.467   0.611   5.053
 1008SOL     OW 3922   0.793   3.049   6.031
 1008SOL    HW1 3923   0.839   2.989   6.097
 1008SOL    HW2 3924   0.707   3.081   6.069
 1009SOL     OW 3925   0.443   4.917   5.328
 1009SOL    HW1 3926   0.372   4.848   5.343
 1009SOL    HW2 3927   0.417   4.976   5.252
 1010SOL     OW 3928   2.976   1.819   0.079
 1010SOL    HW1 3929   3.031   1.879   0.136
 1010SOL    HW2 3930   2.983   1.725   0.114
 1011SOL     OW 3931   1.695   5.387   2.871
 1011SOL    HW1 3932   1.761   5.449   2.828
 1011SOL    HW2 3933   1.603   5.424   2.862
 1012SOL     OW 3934   0.233   6.619   2.630
 1012SOL    HW1 3935   0.273   6.710   2.614
 1012SOL    HW2 3936   0.134   6.628   2.642
 1013SOL     OW 3937   1.078   1.663   6.663
 1013SOL    HW1 3938   0.978   1.663   6.663
 1013SOL    HW2 3939   1.111   1.731   6.730
 1014SOL     OW 3940   6.722   4.502   5.614
 1014SOL    HW1 3941   6.694   4.595   5.589
 1014SOL    HW2 3942   6.707   4.441   5.536
 1015SOL     OW 3943   2.756   6.551   6.051
 1015SOL    HW1 3944   2.681   6.487   6.034
 1015SOL    HW2 3945   2.718   6.641   6.072
 1016SOL     OW 3946   4.083   3.917   6.881
 1016SOL    HW1 3947   4.096   3.966   6.795
 1016SOL    HW2 3948   3.986   3.923   6.908
 1017SOL     OW 3949   4.338   2.737   1.409
 1017SOL    HW1 3950   4.351   2.825   1.363
 1017SOL    HW2 3951   4.292   2.752   1.496
 1018SOL     OW 3952   0.714   4.557   4.375
 1018SOL    HW1 3953   0.759   4.573   4.287
 1018SOL    HW2 3954   0.773   4.590   4.448
 1019SOL     OW 3955   6.896   6.569   0.773
 1019SOL    HW1 3956   6.951   6.506   0.828
 1019SOL    HW2 3957   6.882   6.531   0.682
 1020SOL     OW 3958   6.378   1.043   1.279
 1020SOL    HW1 3959   6.404   1.063   1.373
 1020SOL    HW2 3960   6.307   1.108   1.250
 1021SOL     OW 3961   5.661   6.988   1.587
 1021SOL    HW1 3962   5.630   0.022   1.666
 1021SOL    HW2 3963   5.672   0.032   1.509
 1022SOL     OW 3964   2.901   4.377   5.447
 1022SOL    HW1 3965   2.816   4.325   5.459
 1022SOL    HW2 3966   2.904   4.414   5.354
 1023SOL     OW 3967   0.276   0.841   2.789
 1023SOL    HW1 3968   0.266   0.763   2.727
 1023SOL    HW2 3969   0.373   0.856   2.807
 1024SOL     OW 3970   0.564   2.997   4.253
 1024SOL    HW1 3971   0.470   2.975   4.230
 1024SOL    HW2 3972   0.604   3.052   4.179
 1025SOL     OW 3973   3.970   3.892   1.557
 1025SOL    HW1 3974   3.974   3.796   1.529
 1025SOL    HW2 3975   3.925   3.898   1.646
 1026SOL     OW 3976   2.485   2.725   1.755
 1026SOL    HW1 3977   2.551   2.660   1.793
 1026SOL    HW2 3978   2.530   2.813   1.740
 1027SOL     OW 3979   3.460   6.693   2.263
 1027SOL    HW1 3980   3.452   6.722   2.359
 1027SOL    HW2 3981   3.500   6.602   2.260
 1028SOL     OW 3982   1.907   7.002   2.303
 1028SOL    HW1 3983   1.828   0.041   2.279
 1028SOL    HW2 3984   1.990   0.025   2.263
 1029SOL     OW 3985   1.415   0.646   6.292
 1029SOL    HW1 3986   1.485   0.685   6.353
 1029SOL    HW2 3987   1.332   0.702   6.297
 1030SOL     OW 3988   3.358   3.083   1.989
 1030SOL    HW1 3989   3.401   3.131   2.065
 1030SOL    HW2 3990   3.414   3.094   1.906
 1031SOL     OW 3991   4.350   4.048   1.321
 1031SOL    HW1 3992   4.358   3.956   1.360
 1031SOL    HW2 3993   4.254   4.074   1.317
 1032SOL     OW 3994   2.014   1.886   6.275
 1032SOL    HW1 3995   2.018   1.801   6.327
 1032SOL    HW2 3996   1.920   1.901   6.244
 1033SOL     OW 3997   1.352   6.136   1.612
 1033SOL    HW1 3998   1.320   6.056   1.664
 1033SOL    HW2 3999   1.449   6.125   1.592
 1034SOL     OW 4000   0.676   5.194   4.447
 1034SOL    HW1 4001   0.733   5.112   4.453
 1034SOL    HW2 4002   0.730   5.274   4.474
 1035SOL     OW 4003   0.297   1.414   4.900
 1035SOL    HW1 4004   0.339   1.329   4.867
 1035SOL    HW2 4005   0.343   1.493   4.859
 1036SOL     OW 4006   3.947   0.464   1.951
 1036SOL    HW1 4007   4.040   0.491   1.977
 1036SOL    HW2 4008   3.935   0.366   1.969
 1037SOL     OW 4009   1.547   1.349   2.231
 1037SOL    HW1 4010   1.466   1.363   2.173
 1037SOL    HW2 4011   1.575   1.437   2.271
 1038SOL     OW 4012   1.845   1.001   5.531
 1038SOL    HW1 4013   1.852   1.078   5.596
 1038SOL    HW2 4014   1.790   1.030   5.452
 1039SOL     OW 4015   3.809   3.725   4.439
 1039SOL    HW1 4016   3.886   3.683   4.487
 1039SOL    HW2 4017   3.723   3.696   4.482
 1040SOL     OW 4018   5.438   1.299   2.540
 1040SOL    HW1 4019   5.387   1.285   2.455
 1040SOL    HW2 4020   5.487   1.215   2.563
 1041SOL     OW 4021   0.076   6.384   3.494
 1041SOL    HW1 4022   0.092   6.437   3.578
 1041SOL    HW2 4023   7.011   6.329   3.504
 1042SOL     OW 4024   4.271   5.422   2.583
 1042SOL    HW1 4025   4.186   5.454   2.540
 1042SOL    HW2 4026   4.249   5.351   2.650
 1043SOL     OW 4027   2.992   2.200   3.898
 1043SOL    HW1 4028   2.916   2.247   3.942
 1043SOL    HW2 4029   2.977   2.197   3.799
 1044SOL     OW 4030   6.009   5.233   2.612
 1044SOL    HW1 4031   6.054   5.149   2.580
 1044SOL    HW2 4032   5.913   5.214   2.630
 1045SOL     OW 4033   3.862   0.291   2.588
 1045SOL    HW1 4034   3.809   0.374   2.606
 1045SOL    HW2 4035   3.894   0.253   2.674
 1046SOL     OW 4036   1.469   1.048   0.426
 1046SOL    HW1 4037   1.565   1.051   0.400
 1046SOL    HW2 4038   1.413   1.021   0.348
 1047SOL     OW 4039   1.780   0.349   4.212
 1047SOL    HW1 4040   1.826   0.357   4.300
 1047SOL    HW2 4041   1.786   0.435   4.162
 1048SOL     OW 4042   4.248   6.128   3.033
 1048SOL    HW1 4043   4.331   6.134   2.978
 1048SOL    HW2 4044   4.217   6.033   3.036
 1049SOL     OW 4045   6.679   6.233   3.930
 1049SOL    HW1 4046   6.593   6.275   3.900
 1049SOL    HW2 4047   6.756   6.281   3.887
 1050SOL     OW 4048   3.416   5.164   1.675
 1050SOL    HW1 4049   3.460   5.076   1.695
 1050SOL    HW2 4050   3.364   5.156   1.590
 1051SOL     OW 4051   0.679   5.335   0.368
 1051SOL    HW1 4052   0.660   5.382   0.454
 1051SOL    HW2 4053   0.599   5.341   0.308
 1052SOL     OW 4054   4.384   0.790   5.043
 1052SOL    HW1 4055   4.341   0.836   4.965
 1052SOL    HW2 4056   4.374   0.846   5.125
 1053SOL     OW 4057   5.740   4.524   3.122
 1053SOL    HW1 4058   5.749   4.595   3.052
 1053SOL    HW2 4059   5.725   4.567   3.211
 1054SOL     OW 4060   3.164   3.652   0.785
 1054SOL    HW1 4061   3.112   3.626   0.866
 1054SOL    HW2 4062   3.184   3.571   0.730
 1055SOL     OW 4063   3.966   6.311   5.191
 1055SOL    HW1 4064   3.933   6.351   5.106
 1055SOL    HW2 4065   3.954   6.211   5.189
 1056SOL     OW 4066   2.517   3.806   0.000
 1056SOL    HW1 4067   2.553   3.742   0.069
 1056SOL    HW2 4068   2.418   3.794   7.010
 1057SOL     OW 4069   3.307   3.565   1.710
 1057SOL    HW1 4070   3.342   3.523   1.626
 1057SOL    HW2 4071   3.298   3.663   1.697
 1058SOL     OW 4072   4.908   2.319   3.526
 1058SOL    HW1 4073   4.814   2.314   3.490
 1058SOL    HW2 4074   4.921   2.246   3.594
 1059SOL     OW 4075   3.034   0.608   2.255
 1059SOL    HW1 4076   3.106   0.629   2.189
 1059SOL    HW2 4077   2.974   0.688   2.264
 1060SOL     OW 4078   0.301   4.982   4.432
 1060SOL    HW1 4079   0.358   5.027   4.363
 1060SOL    HW2 4080   0.212   5.028   4.437
 1061SOL     OW 4081   6.831   3.068   0.034
 1061SOL    HW1 4082   6.797   2.985   7.006
 1061SOL    HW2 4083   6.772   3.090   0.111
 1062SOL     OW 4084   5.340   5.167   5.849
 1062SOL    HW1 4085   5.268   5.229   5.879
 1062SOL    HW2 4086   5.309   5.118   5.768
 1063SOL     OW 4087   1.120   5.757   0.805
 1063SOL    HW1 4088   1.034   5.802   0.832
 1063SOL    HW2 4089   1.197   5.811   0.837
 1064SOL     OW 4090   1.913   4.431   2.832
 1064SOL    HW1 4091   1.940   4.386   2.747
 1064SOL    HW2 4092   1.907   4.529   2.817
 1065SOL     OW 4093   4.401   0.861   3.895
 1065SOL    HW1 4094   4.465   0.935   3.875
 1065SOL    HW2 4095   4.307   0.892   3.878
 1066SOL     OW 4096   5.196   6.558   2.693
 1066SOL    HW1 4097   5.117   6.619   2.685
 1066SOL    HW2 4098   5.247   6.559   2.607
 1067SOL     OW 4099   0.724   3.231   0.761
 1067SOL    HW1 4100   0.719   3.142   0.715
 1067SOL    HW2 4101   0.671   3.227   0.846
 1068SOL     OW 4102   6.212   4.872   2.237
 1068SOL    HW1 4103   6.167   4.822   2.312
 1068SOL    HW2 4104   6.177   4.837   2.149
 1069SOL     OW 4105   4.905   5.731   0.713
 1069SOL    HW1 4106   4.885   5.634   0.723
 1069SOL    HW2 4107   4.904   5.755   0.616
 1070SOL     OW 4108   0.322   0.723   1.495
 1070SOL    HW1 4109   0.387   0.753   1.425
 1070SOL    HW2 4110   0.252   0.793   1.508
 1071SOL     OW 4111   1.310   1.007   4.162
 1071SOL    HW1 4112   1.285   1.100   4.132
 1071SOL    HW2 4113   1.365   1.013   4.245
 1072SOL     OW 4114   1.761   0.879   0.938
 1072SOL    HW1 4115   1.694   0.890   1.011
 1072SOL    HW2 4116   1.739   0.940   0.862
 1073SOL     OW 4117   4.741   0.133   2.822
 1073SOL    HW1 4118   4.681   0.110   2.899
 1073SOL    HW2 4119   4.835   0.113   2.847
 1074SOL     OW 4120   2.020   5.545   1.721
 1074SOL    HW1 4121   2.034   5.451   1.689
 1074SOL    HW2 4122   1.952   5.546   1.794
 1075SOL     OW 4123   5.457   0.358   3.537
 1075SOL    HW1 4124   5.394   0.326   3.466
 1075SOL    HW2 4125   5.550   0.329   3.514
 1076SOL     OW 4126   0.819   2.768   5.616
 1076SOL    HW1 4127   0.731   2.768   5.569
 1076SOL    HW2 4128   0.842   2.674   5.644
 1077SOL     OW 4129   5.942   0.143   0.972
 1077SOL    HW1 4130   5.948   0.133   0.872
 1077SOL    HW2 4131   5.868   0.206   0.995
 1078SOL     OW 4132   0.605   0.593   2.215
 1078SOL    HW1 4133   0.599   0.686   2.178
 1078SOL    HW2 4134   0.628   0.530   2.142
 1079SOL     OW 4135   1.506   6.406   2.181
 1079SOL    HW1 4136   1.546   6.337   2.121
 1079SOL    HW2 4137   1.574   6.435   2.249
 1080SOL     OW 4138   1.799   5.656   3.159
 1080SOL    HW1 4139   1.762   5.563   3.156
 1080SOL    HW2 4140   1.789   5.693   3.251
 1081SOL     OW 4141   6.610   4.881   5.757
 1081SOL    HW1 4142   6.647   4.789   5.750
 1081SOL    HW2 4143   6.539   4.884   5.827
 1082SOL     OW 4144   5.400   2.339   5.209
 1082SOL    HW1 4145   5.384   2.423   5.260
 1082SOL    HW2 4146   5.475   2.288   5.251
 1083SOL     OW 4147   4.702   4.340   0.424
 1083SOL    HW1 4148   4.648   4.258   0.409
 1083SOL    HW2 4149   4.800   4.317   0.421
 1084SOL     OW 4150   5.815   6.085   6.482
 1084SOL    HW1 4151   5.878   6.118   6.411
 1084SOL    HW2 4152   5.866   6.034   6.551
 1085SOL     OW 4153   1.996   3.641   4.753
 1085SOL    HW1 4154   2.066   3.599   4.695
 1085SOL    HW2 4155   1.977   3.581   4.831
 1086SOL     OW 4156   0.606   4.984   0.224
 1086SOL    HW1 4157   0.632   5.020   0.314
 1086SOL    HW2 4158   0.684   4.937   0.183
 1087SOL     OW 4159   6.578   2.178   5.293
 1087SOL    HW1 4160   6.521   2.103   5.327
 1087SOL    HW2 4161   6.525   2.236   5.232
 1088SOL     OW 4162   0.582   3.810   2.952
 1088SOL    HW1 4163   0.623   3.900   2.937
 1088SOL    HW2 4164   0.501   3.818   3.010
 1089SOL     OW 4165   0.522   6.267   4.670
 1089SOL    HW1 4166   0.589   6.323   4.717
 1089SOL    HW2 4167   0.478   6.205   4.735
 1090SOL     OW 4168   2.852   1.925   3.263
 1090SOL    HW1 4169   2.876   1.879   3.178
 1090SOL    HW2 4170   2.884   1.871   3.341
 1091SOL     OW 4171   2.951   1.968   4.480
 1091SOL    HW1 4172   3.015   1.893   4.495
 1091SOL    HW2 4173   2.894   1.980   4.562
 1092SOL     OW 4174   0.811   4.463   1.066
 1092SOL    HW1 4175   0.859   4.544   1.099
 1092SOL    HW2 4176   0.731   4.491   1.013
 1093SOL     OW 4177   2.198   0.637   1.661
 1093SOL    HW1 4178   2.196   0.550   1.611
 1093SOL    HW2 4179   2.293   0.659   1.685
 1094SOL     OW 4180   1.034   6.799   2.352
 1094SOL    HW1 4181   0.941   6.797   2.316
 1094SOL    HW2 4182   1.055   6.712   2.396
 1095SOL     OW 4183   1.252   2.993   6.264
 1095SOL    HW1 4184   1.346   2.974   6.236
 1095SOL    HW2 4185   1.199   3.024   6.186
 1096SOL     OW 4186   3.495   4.343   1.699
 1096SOL    HW1 4187   3.538   4.422   1.743
 1096SOL    HW2 4188   3.511   4.262   1.756
 1097SOL     OW 4189   2.566   4.621   3.695
 1097SOL    HW1 4190   2.549   4.525   3.676
 1097SOL    HW2 4191   2.490   4.676   3.663
 1098SOL     OW 4192   4.313   3.406   6.799
 1098SOL    HW1 4193   4.317   3.309   6.777
 1098SOL    HW2 4194   4.381   3.427   6.870
 1099SOL     OW 4195   3.428   1.170   6.132
 1099SOL    HW1 4196   3.461   1.228   6.207
 1099SOL    HW2 4197   3.332   1.190   6.115
 1100SOL     OW 4198   4.284   1.489   4.449
 1100SOL    HW1 4199   4.219   1.490   4.525
 1100SOL    HW2 4200   4.364   1.434   4.474
 1101SOL     OW 4201   5.589   3.068   5.743
 1101SOL    HW1 4202   5.626   3.082   5.651
 1101SOL    HW2 4203   5.621   3.141   5.803
 1102SOL     OW 4204   0.662   0.224   4.864
 1102SOL    HW1 4205   0.705   0.138   4.892
 1102SOL    HW2 4206   0.566   0.225   4.893
 1103SOL     OW 4207   4.308   1.989   0.096
 1103SOL    HW1 4208   4.248   2.009   0.173
 1103SOL    HW2 4209   4.397   2.032   0.111
 1104SOL     OW 4210   1.834   3.174   5.539
 1104SOL    HW1 4211   1.801   3.263   5.509
 1104SOL    HW2 4212   1.902   3.140   5.474
 1105SOL     OW 4213   5.706   3.667   5.070
 1105SOL    HW1 4214   5.778   3.629   5.127
 1105SOL    HW2 4215   5.624   3.683   5.126
 1106SOL     OW 4216   6.784   2.348   1.160
 1106SOL    HW1 4217   6.753   2.321   1.251
 1106SOL    HW2 4218   6.858   2.415   1.169
 1107SOL     OW 4219   0.919   0.657   0.062
 1107SOL    HW1 4220   0.835   0.677   0.012
 1107SOL    HW2 4221   0.912   0.689   0.156
 1108SOL     OW 4222   3.387   6.880   5.406
 1108SOL    HW1 4223   3.466   6.940   5.400
 1108SOL    HW2 4224   3.355   6.877   5.501
 1109SOL     OW 4225   5.537   1.185   3.823
 1109SOL    HW1 4226   5.481   1.214   3.745
 1109SOL    HW2 4227   5.561   1.088   3.812
 1110SOL     OW 4228   3.843   2.069   3.084
 1110SOL    HW1 4229   3.774   2.136   3.059
 1110SOL    HW2 4230   3.888   2.035   3.002
 1111SOL     OW 4231   4.456   5.565   6.300
 1111SOL    HW1 4232   4.501   5.496   6.356
 1111SOL    HW2 4233   4.515   5.589   6.223
 1112SOL     OW 4234   5.657   1.110   2.630
 1112SOL    HW1 4235   5.719   1.179   2.667
 1112SOL    HW2 4236   5.699   1.020   2.637
 1113SOL     OW 4237   5.683   4.319   1.738
 1113SOL    HW1 4238   5.607   4.383   1.750
 1113SOL    HW2 4239   5.647   4.226   1.730
 1114SOL     OW 4240   3.179   1.696   6.013
 1114SOL    HW1 4241   3.100   1.750   5.985
 1114SOL    HW2 4242   3.182   1.611   5.961
 1115SOL     OW 4243   3.986   3.133   5.820
 1115SOL    HW1 4244   4.074   3.123   5.775
 1115SOL    HW2 4245   3.953   3.227   5.809
 1116SOL     OW 4246   4.602   6.447   5.639
 1116SOL    HW1 4247   4.696   6.479   5.649
 1116SOL    HW2 4248   4.602   6.362   5.586
 1117SOL     OW 4249   1.873   2.621   2.082
 1117SOL    HW1 4250   1.945   2.565   2.123
 1117SOL    HW2 4251   1.842   2.579   1.997
 1118SOL     OW 4252   3.458   4.579   0.676
 1118SOL    HW1 4253   3.408   4.658   0.640
 1118SOL    HW2 4254   3.555   4.601   0.682
 1119SOL     OW 4255   4.334   4.581   1.961
 1119SOL    HW1 4256   4.313   4.485   1.943
 1119SOL    HW2 4257   4.251   4.630   1.986
 1120SOL     OW 4258   5.964   6.526   0.452
 1120SOL    HW1 4259   5.936   6.513   0.547
 1120SOL    HW2 4260   5.890   6.570   0.401
 1121SOL     OW 4261   6.138   4.374   4.492
 1121SOL    HW1 4262   6.197   4.420   4.425
 1121SOL    HW2 4263   6.078   4.309   4.445
 1122SOL     OW 4264   4.857   2.472   1.616
 1122SOL    HW1 4265   4.886   2.496   1.524
 1122SOL    HW2 4266   4.818   2.380   1.616
 1123SOL     OW 4267   5.338   1.863   2.997
 1123SOL    HW1 4268   5.337   1.926   3.075
 1123SOL    HW2 4269   5.250   1.864   2.951
 1124SOL     OW 4270   0.007   3.802   5.118
 1124SOL    HW1 4271   6.974   3.882   5.086
 1124SOL    HW2 4272   0.068   3.769   5.045
 1125SOL     OW 4273   2.491   2.281   3.865
 1125SOL    HW1 4274   2.492   2.181   3.867
 1125SOL    HW2 4275   2.584   2.314   3.848
 1126SOL     OW 4276   5.472   5.396   0.050
 1126SOL    HW1 4277   5.412   5.438   0.118
 1126SOL    HW2 4278   5.483   5.299   0.071
 1127SOL     OW 4279   5.301   5.401   4.495
 1127SOL    HW1 4280   5.396   5.376   4.513
 1127SOL    HW2 4281   5.267   5.348   4.417
 1128SOL     OW 4282   6.082   1.142   4.790
 1128SOL    HW1 4283   6.153   1.212   4.796
 1128SOL    HW2 4284   6.124   1.051   4.791
 1129SOL     OW 4285   1.517   0.379   1.117
 1129SOL    HW1 4286   1.548   0.404   1.209
 1129SOL    HW2 4287   1.442   0.312   1.124
 1130SOL     OW 4288   2.730   4.970   0.641
 1130SOL    HW1 4289   2.780   4.901   0.587
 1130SOL    HW2 4290   2.701   5.044   0.580
 1131SOL     OW 4291   1.349   6.045   5.859
 1131SOL    HW1 4292   1.316   6.102   5.783
 1131SOL    HW2 4293   1.448   6.056   5.869
 1132SOL     OW 4294   5.330   0.291   2.538
 1132SOL    HW1 4295   5.276   0.247   2.609
 1132SOL    HW2 4296   5.395   0.355   2.580
 1133SOL     OW 4297   0.480   1.178   0.550
 1133SOL    HW1 4298   0.519   1.178   0.458
 1133SOL    HW2 4299   0.469   1.083   0.581
 1134SOL     OW 4300   5.159   6.979   2.494
 1134SOL    HW1 4301   5.101   0.018   2.435
 1134SOL    HW2 4302   5.253   6.980   2.460
 1135SOL     OW 4303   2.789   0.159   3.575
 1135SOL    HW1 4304   2.790   0.059   3.583
 1135SOL    HW2 4305   2.796   0.199   3.667
 1136SOL     OW 4306   4.499   4.983   3.382
 1136SOL    HW1 4307   4.442   4.905   3.407
 1136SOL    HW2 4308   4.520   4.978   3.284
 1137SOL     OW 4309   1.110   6.232   0.107
 1137SOL    HW1 4310   1.083   6.216   0.011
 1137SOL    HW2 4311   1.205   6.262   0.110
 1138SOL     OW 4312   0.382   1.175   6.410
 1138SOL    HW1 4313   0.466   1.193   6.462
 1138SOL    HW2 4314   0.307   1.156   6.473
 1139SOL     OW 4315   3.161   4.929   2.753
 1139SOL    HW1 4316   3.063   4.923   2.736
 1139SOL    HW2 4317   3.190   5.025   2.746
 1140SOL     OW 4318   2.877   1.319   2.606
 1140SOL    HW1 4319   2.840   1.271   2.526
 1140SOL    HW2 4320   2.968   1.285   2.626
 1141SOL     OW 4321   0.907   6.300   6.893
 1141SOL    HW1 4322   0.871   6.246   6.817
 1141SOL    HW2 4323   0.862   6.273   6.978
 1142SOL     OW 4324   3.134   0.088   4.249
 1142SOL    HW1 4325   3.190   0.009   4.225
 1142SOL    HW2 4326   3.184   0.147   4.313
 1143SOL     OW 4327   2.280   2.846   3.355
 1143SOL    HW1 4328   2.255   2.788   3.433
 1143SOL    HW2 4329   2.272   2.942   3.381
 1144SOL     OW 4330   6.097   4.275   4.101
 1144SOL    HW1 4331   6.004   4.269   4.064
 1144SOL    HW2 4332   6.128   4.183   4.126
 1145SOL     OW 4333   6.387   3.972   1.555
 1145SOL    HW1 4334   6.325   3.926   1.491
 1145SOL    HW2 4335   6.382   3.927   1.644
 1146SOL     OW 4336   6.877   1.033   2.560
 1146SOL    HW1 4337   6.945   1.080   2.504
 1146SOL    HW2 4338   6.876   1.073   2.651
 1147SOL     OW 4339   3.014   5.644   1.728
 1147SOL    HW1 4340   2.969   5.722   1.685
 1147SOL    HW2 4341   2.983   5.559   1.685
 1148SOL     OW 4342   4.358   5.994   0.174
 1148SOL    HW1 4343   4.372   6.089   0.204
 1148SOL    HW2 4344   4.436   5.966   0.118
 1149SOL     OW 4345   6.055   3.118   2.863
 1149SOL    HW1 4346   6.063   3.135   2.765
 1149SOL    HW2 4347   6.115   3.043   2.889
 1150SOL     OW 4348   0.637   3.885   0.424
 1150SOL    HW1 4349   0.600   3.861   0.334
 1150SOL    HW2 4350   0.729   3.847   0.433
 1151SOL     OW 4351   5.575   4.562   6.153
 1151SOL    HW1 4352   5.630   4.506   6.091
 1151SOL    HW2 4353   5.551   4.509   6.234
 1152SOL     OW 4354   4.934   5.216   0.125
 1152SOL    HW1 4355   4.893   5.153   0.059
 1152SOL    HW2 4356   4.884   5.211   0.211
 1153SOL     OW 4357   0.637   0.211   1.904
 1153SOL    HW1 4358   0.604   0.270   1.830
 1153SOL    HW2 4359   0.583   0.127   1.906
 1154SOL     OW 4360   6.728   4.397   1.527
 1154SOL    HW1 4361   6.763   4.398   1.433
 1154SOL    HW2 4362   6.630   4.379   1.526
 1155SOL     OW 4363   2.381   4.513   5.928
 1155SOL    HW1 4364   2.318   4.588   5.909
 1155SOL    HW2 4365   2.331   4.426   5.925
 1156SOL     OW 4366   4.469   1.882   4.916
 1156SOL    HW1 4367   4.384   1.919   4.878
 1156SOL    HW2 4368   4.447   1.810   4.982
 1157SOL     OW 4369   5.354   1.386   6.152
 1157SOL    HW1 4370   5.398   1.297   6.170
 1157SOL    HW2 4371   5.362   1.444   6.234
 1158SOL     OW 4372   6.987   5.186   5.351
 1158SOL    HW1 4373   0.015   5.233   5.426
 1158SOL    HW2 4374   0.024   5.107   5.322
 1159SOL     OW 4375   6.532   0.048   3.513
 1159SOL    HW1 4376   6.550   0.130   3.460
 1159SOL    HW2 4377   6.619   0.005   3.539
 1160SOL     OW 4378   5.255   4.526   0.913
 1160SOL    HW1 4379   5.272   4.623   0.897
 1160SOL    HW2 4380   5.316   4.471   0.856
 1161SOL     OW 4381   6.225   5.836   5.747
 1161SOL    HW1 4382   6.150   5.774   5.772
 1161SOL    HW2 4383   6.304   5.819   5.806
 1162SOL     OW 4384   2.870   2.885   6.895
 1162SOL    HW1 4385   2.804   2.886   6.970
 1162SOL    HW2 4386   2.830   2.838   6.816
 1163SOL     OW 4387   6.621   3.741   1.800
 1163SOL    HW1 4388   6.664   3.757   1.711
 1163SOL    HW2 4389   6.639   3.647   1.829
 1164SOL     OW 4390   5.335   2.960   4.019
 1164SOL    HW1 4391   5.244   2.997   4.035
 1164SOL    HW2 4392   5.390   2.968   4.102
 1165SOL     OW 4393   3.974   5.091   3.545
 1165SOL    HW1 4394   3.923   5.013   3.509
 1165SOL    HW2 4395   3.994   5.154   3.470
 1166SOL     OW 4396   3.538   6.919   0.067
 1166SOL    HW1 4397   3.590   6.853   0.121
 1166SOL    HW2 4398   3.454   6.877   0.034
 1167SOL     OW 4399   4.006   6.726   0.457
 1167SOL    HW1 4400   4.021   6.747   0.361
 1167SOL    HW2 4401   3.992   6.628   0.468
 1168SOL     OW 4402   5.738   2.609   2.507
 1168SOL    HW1 4403   5.745   2.658   2.594
 1168SOL    HW2 4404   5.643   2.581   2.492
 1169SOL     OW 4405   4.885   2.662   5.796
 1169SOL    HW1 4406   4.896   2.725   5.718
 1169SOL    HW2 4407   4.911   2.708   5.880
 1170SOL     OW 4408   5.186   0.164   2.710
 1170SOL    HW1 4409   5.148   0.097   2.646
 1170SOL    HW2 4410   5.255   0.119   2.767
 1171SOL     OW 4411   2.505   6.678   6.805
 1171SOL    HW1 4412   2.484   6.587   6.769
 1171SOL    HW2 4413   2.584   6.673   6.865
 1172SOL     OW 4414   3.343   3.817   1.581
 1172SOL    HW1 4415   3.258   3.855   1.543
 1172SOL    HW2 4416   3.359   3.855   1.672
 1173SOL     OW 4417   3.421   1.580   0.424
 1173SOL    HW1 4418   3.471   1.523   0.488
 1173SOL    HW2 4419   3.323   1.578   0.446
 1174SOL     OW 4420   2.454   4.644   1.597
 1174SOL    HW1 4421   2.500   4.665   1.511
 1174SOL    HW2 4422   2.519   4.657   1.673
 1175SOL     OW 4423   4.241   4.895   6.599
 1175SOL    HW1 4424   4.206   4.809   6.562
 1175SOL    HW2 4425   4.321   4.877   6.656
 1176SOL     OW 4426   5.730   3.769   6.432
 1176SOL    HW1 4427   5.809   3.821   6.466
 1176SOL    HW2 4428   5.754   3.726   6.345
 1177SOL     OW 4429   0.071   3.507   4.604
 1177SOL    HW1 4430   0.045   3.603   4.613
 1177SOL    HW2 4431   0.119   3.492   4.518
 1178SOL     OW 4432   4.068   3.998   0.568
 1178SOL    HW1 4433   4.033   3.963   0.481
 1178SOL    HW2 4434   4.028   4.088   0.586
 1179SOL     OW 4435   2.068   6.287   0.988
 1179SOL    HW1 4436   2.051   6.311   0.892
 1179SOL    HW2 4437   2.164   6.306   1.010
 1180SOL     OW 4438   2.644   5.962   4.402
 1180SOL    HW1 4439   2.596   5.986   4.318
 1180SOL    HW2 4440   2.704   5.884   4.385
 1181SOL     OW 4441   0.027   4.657   5.449
 1181SOL    HW1 4442   0.003   4.565   5.479
 1181SOL    HW2 4443   7.008   4.725   5.513
 1182SOL     OW 4444   4.162   5.077   3.743
 1182SOL    HW1 4445   4.076   5.076   3.691
 1182SOL    HW2 4446   4.239   5.083   3.680
 1183SOL     OW 4447   2.911   4.257   1.710
 1183SOL    HW1 4448   2.891   4.344   1.756
 1183SOL    HW2 4449   2.900   4.268   1.612
 1184SOL     OW 4450   0.222   1.539   5.504
 1184SOL    HW1 4451   0.210   1.498   5.413
 1184SOL    HW2 4452   0.189   1.633   5.503
 1185SOL     OW 4453   1.203   0.861   0.539
 1185SOL    HW1 4454   1.114   0.880   0.497
 1185SOL    HW2 4455   1.246   0.784   0.492
 1186SOL     OW 4456   4.661   6.365   5.033
 1186SOL    HW1 4457   4.597   6.392   5.106
 1186SOL    HW2 4458   4.713   6.444   5.003
 1187SOL     OW 4459   5.094   0.406   4.878
 1187SOL    HW1 4460   4.994   0.407   4.878
 1187SOL    HW2 4461   5.127   0.361   4.794
 1188SOL     OW 4462   2.861   5.152   6.188
 1188SOL    HW1 4463   2.958   5.177   6.193
 1188SOL    HW2 4464   2.853   5.055   6.164
 1189SOL     OW 4465   6.141   2.077   1.938
 1189SOL    HW1 4466   6.093   1.991   1.923
 1189SOL    HW2 4467   6.079   2.154   1.921
 1190SOL     OW 4468   3.321   5.750   2.839
 1190SOL    HW1 4469   3.401   5.755   2.900
 1190SOL    HW2 4470   3.299   5.842   2.807
 1191SOL     OW 4471   4.372   5.188   4.505
 1191SOL    HW1 4472   4.322   5.192   4.419
 1191SOL    HW2 4473   4.447   5.254   4.503
 1192SOL     OW 4474   5.273   5.107   3.237
 1192SOL    HW1 4475   5.231   5.018   3.251
 1192SOL    HW2 4476   5.318   5.109   3.148
 1193SOL     OW 4477   0.462   2.272   5.797
 1193SOL    HW1 4478   0.534   2.213   5.833
 1193SOL    HW2 4479   0.399   2.297   5.870
 1194SOL     OW 4480   6.134   1.062   1.470
 1194SOL    HW1 4481   6.208   1.061   1.537
 1194SOL    HW2 4482   6.163   1.111   1.388
 1195SOL     OW 4483   6.729   3.703   0.219
 1195SOL    HW1 4484   6.811   3.734   0.267
 1195SOL    HW2 4485   6.741   3.607   0.192
 1196SOL     OW 4486   6.690   4.758   3.425
 1196SOL    HW1 4487   6.689   4.683   3.492
 1196SOL    HW2 4488   6.597   4.780   3.398
 1197SOL     OW 4489   4.437   6.684   4.704
 1197SOL    HW1 4490   4.374   6.620   4.747
 1197SOL    HW2 4491   4.411   6.697   4.609
 1198SOL     OW 4492   1.796   3.633   2.767
 1198SOL    HW1 4493   1.810   3.555   2.706
 1198SOL    HW2 4494   1.829   3.716   2.723
 1199SOL     OW 4495   3.775   3.731   2.388
 1199SOL    HW1 4496   3.747   3.790   2.312
 1199SOL    HW2 4497   3.748   3.636   2.368
 1200SOL     OW 4498   3.133   4.101   4.892
 1200SOL    HW1 4499   3.150   4.197   4.912
 1200SOL    HW2 4500   3.035   4.082   4.898
 1201SOL     OW 4501   0.951   1.351   4.151
 1201SOL    HW1 4502   0.913   1.267   4.111
 1201SOL    HW2 4503   0.883   1.424   4.145
 1202SOL     OW 4504   0.067   5.328   5.568
 1202SOL    HW1 4505   0.167   5.325   5.571
 1202SOL    HW2 4506   0.036   5.423   5.577
 1203SOL     OW 4507   0.301   5.257   0.527
 1203SOL    HW1 4508   0.297   5.250   0.626
 1203SOL    HW2 4509   0.304   5.354   0.500
 1204SOL     OW 4510   4.862   1.309   1.172
 1204SOL    HW1 4511   4.801   1.338   1.098
 1204SOL    HW2 4512   4.840   1.361   1.255
 1205SOL     OW 4513   3.995   3.212   0.571
 1205SOL    HW1 4514   3.936   3.292   0.587
 1205SOL    HW2 4515   4.065   3.235   0.504
 1206SOL     OW 4516   2.543   2.696   5.560
 1206SOL    HW1 4517   2.526   2.779   5.614
 1206SOL    HW2 4518   2.519   2.713   5.465
 1207SOL     OW 4519   0.971   0.023   1.191
 1207SOL    HW1 4520   0.976   0.123   1.182
 1207SOL    HW2 4521   0.877   7.011   1.170
 1208SOL     OW 4522   3.769   3.721   1.361
 1208SOL    HW1 4523   3.774   3.721   1.461
 1208SOL    HW2 4524   3.831   3.652   1.324
 1209SOL     OW 4525   5.152   0.468   3.563
 1209SOL    HW1 4526   5.055   0.469   3.588
 1209SOL    HW2 4527   5.208   0.481   3.646
 1210SOL     OW 4528   4.344   6.892   3.696
 1210SOL    HW1 4529   4.424   6.891   3.636
 1210SOL    HW2 4530   4.266   6.933   3.648
 1211SOL     OW 4531   1.107   2.810   2.933
 1211SOL    HW1 4532   1.024   2.861   2.912
 1211SOL    HW2 4533   1.183   2.874   2.948
 1212SOL     OW 4534   6.683   0.423   6.196
 1212SOL    HW1 4535   6.692   0.461   6.104
 1212SOL    HW2 4536   6.774   0.396   6.230
 1213SOL     OW 4537   6.312   2.758   1.387
 1213SOL    HW1 4538   6.221   2.727   1.358
 1213SOL    HW2 4539   6.302   2.835   1.449
 1214SOL     OW 4540   0.994   3.623   0.137
 1214SOL    HW1 4541   0.958   3.640   0.045
 1214SOL    HW2 4542   1.037   3.533   0.140
 1215SOL     OW 4543   0.512   4.603   3.269
 1215SOL    HW1 4544   0.489   4.669   3.340
 1215SOL    HW2 4545   0.451   4.616   3.191
 1216SOL     OW 4546   5.183   0.405   0.663
 1216SOL    HW1 4547   5.187   0.505   0.669
 1216SOL    HW2 4548   5.250   0.365   0.726
 1217SOL     OW 4549   2.568   4.376   0.926
 1217SOL    HW1 4550   2.492   4.375   0.860
 1217SOL    HW2 4551   2.596   4.471   0.942
 1218SOL     OW 4552   1.157   3.246   4.955
 1218SOL    HW1 4553   1.105   3.256   4.870
 1218SOL    HW2 4554   1.252   3.221   4.934
 1219SOL     OW 4555   5.644   6.013   1.748
 1219SOL    HW1 4556   5.560   6.006   1.801
 1219SOL    HW2 4557   5.714   5.954   1.789
 1220SOL     OW 4558   1.000   4.862   2.848
 1220SOL    HW1 4559   0.934   4.848   2.774
 1220SOL    HW2 4560   0.969   4.813   2.930
 1221SOL     OW 4561   4.375   4.449   6.198
 1221SOL    HW1 4562   4.393   4.373   6.136
 1221SOL    HW2 4563   4.350   4.530   6.145
 1222SOL     OW 4564   6.579   1.216   6.639
 1222SOL    HW1 4565   6.565   1.250   6.546
 1222SOL    HW2 4566   6.644   1.140   6.637
 1223SOL     OW 4567   4.014   1.995   0.608
 1223SOL    HW1 4568   3.924   1.964   0.577
 1223SOL    HW2 4569   4.050   1.930   0.676
 1224SOL     OW 4570   3.748   5.913   0.455
 1224SOL    HW1 4571   3.673   5.952   0.403
 1224SOL    HW2 4572   3.712   5.856   0.529
 1225SOL     OW 4573   3.278   3.338   6.740
 1225SOL    HW1 4574   3.213   3.310   6.669
 1225SOL    HW2 4575   3.238   3.320   6.830
 1226SOL     OW 4576   2.592   6.760   1.501
 1226SOL    HW1 4577   2.614   6.838   1.560
 1226SOL    HW2 4578   2.664   6.692   1.507
 1227SOL     OW 4579   5.653   4.831   6.214
 1227SOL    HW1 4580   5.707   4.888   6.151
 1227SOL    HW2 4581   5.637   4.742   6.173
 1228SOL     OW 4582   2.963   2.072   6.139
 1228SOL    HW1 4583   3.053   2.034   6.118
 1228SOL    HW2 4584   2.905   2.064   6.058
 1229SOL     OW 4585   3.455   5.258   6.458
 1229SOL    HW1 4586   3.466   5.184   6.390
 1229SOL    HW2 4587   3.542   5.272   6.505
 1230SOL     OW 4588   4.894   6.568   2.300
 1230SOL    HW1 4589   4.875   6.502   2.228
 1230SOL    HW2 4590   4.852   6.656   2.277
 1231SOL     OW 4591   1.709   2.030   4.785
 1231SOL    HW1 4592   1.706   2.109   4.847
 1231SOL    HW2 4593   1.647   1.959   4.818
 1232SOL     OW 4594   0.499   2.299   5.528
 1232SOL    HW1 4595   0.582   2.355   5.536
 1232SOL    HW2 4596   0.465   2.277   5.620
 1233SOL     OW 4597   0.966   5.144   5.089
 1233SOL    HW1 4598   0.954   5.129   5.187
 1233SOL    HW2 4599   1.064   5.152   5.068
 1234SOL     OW 4600   6.428   2.842   5.810
 1234SOL    HW1 4601   6.359   2.880   5.871
 1234SOL    HW2 4602   6.402   2.857   5.715
 1235SOL     OW 4603   6.121   5.193   2.893
 1235SOL    HW1 4604   6.221   5.185   2.899
 1235SOL    HW2 4605   6.097   5.279   2.846
 1236SOL     OW 4606   4.830   0.819   6.868
 1236SOL    HW1 4607   4.738   0.843   6.837
 1236SOL    HW2 4608   4.850   0.869   6.952
 1237SOL     OW 4609   2.449   4.373   6.263
 1237SOL    HW1 4610   2.437   4.413   6.172
 1237SOL    HW2 4611   2.545   4.381   6.291
 1238SOL     OW 4612   1.096   1.212   0.973
 1238SOL    HW1 4613   1.049   1.292   0.935
 1238SOL    HW2 4614   1.192   1.214   0.948
 1239SOL     OW 4615   6.877   6.143   6.371
 1239SOL    HW1 4616   6.948   6.133   6.440
 1239SOL    HW2 4617   6.798   6.190   6.411
 1240SOL     OW 4618   5.375   6.211   1.237
 1240SOL    HW1 4619   5.362   6.126   1.288
 1240SOL    HW2 4620   5.463   6.209   1.190
 1241SOL     OW 4621   5.272   3.283   4.071
 1241SOL    HW1 4622   5.342   3.273   4.142
 1241SOL    HW2 4623   5.197   3.220   4.089
 1242SOL     OW 4624   0.717   3.889   1.557
 1242SOL    HW1 4625   0.633   3.853   1.517
 1242SOL    HW2 4626   0.792   3.826   1.539
 1243SOL     OW 4627   0.205   6.719   5.066
 1243SOL    HW1 4628   0.221   6.766   5.153
 1243SOL    HW2 4629   0.202   6.787   4.992
 1244SOL     OW 4630   5.795   6.902   4.877
 1244SOL    HW1 4631   5.757   6.971   4.815
 1244SOL    HW2 4632   5.817   6.819   4.826
 1245SOL     OW 4633   5.626   4.641   0.606
 1245SOL    HW1 4634   5.538   4.604   0.576
 1245SOL    HW2 4635   5.700   4.581   0.574
 1246SOL     OW 4636   2.918   0.184   1.015
 1246SOL    HW1 4637   2.875   0.212   1.101
 1246SOL    HW2 4638   2.872   0.102   0.980
 1247SOL     OW 4639   0.923   6.644   6.287
 1247SOL    HW1 4640   0.985   6.707   6.240
 1247SOL    HW2 4641   0.976   6.571   6.330
 1248SOL     OW 4642   1.820   0.153   4.716
 1248SOL    HW1 4643   1.763   0.158   4.634
 1248SOL    HW2 4644   1.837   0.057   4.739
 1249SOL     OW 4645   6.139   1.898   2.570
 1249SOL    HW1 4646   6.159   1.988   2.608
 1249SOL    HW2 4647   6.121   1.907   2.472
 1250SOL     OW 4648   5.882   5.281   3.899
 1250SOL    HW1 4649   5.884   5.363   3.957
 1250SOL    HW2 4650   5.955   5.219   3.927
 1251SOL     OW 4651   2.819   0.674   3.564
 1251SOL    HW1 4652   2.877   0.637   3.637
 1251SOL    HW2 4653   2.811   0.773   3.574
 1252SOL     OW 4654   4.621   3.240   6.485
 1252SOL    HW1 4655   4.555   3.167   6.496
 1252SOL    HW2 4656   4.644   3.279   6.574
 1253SOL     OW 4657   2.905   6.039   2.890
 1253SOL    HW1 4658   2.823   6.085   2.855
 1253SOL    HW2 4659   2.924   5.958   2.835
 1254SOL     OW 4660   0.984   3.023   2.293
 1254SOL    HW1 4661   0.982   3.084   2.214
 1254SOL    HW2 4662   0.906   2.961   2.289
 1255SOL     OW 4663   5.825   1.729   5.453
 1255SOL    HW1 4664   5.850   1.686   5.366
 1255SOL    HW2 4665   5.907   1.760   5.500
 1256SOL     OW 4666   6.992   6.508   3.174
 1256SOL    HW1 4667   6.907   6.524   3.225
 1256SOL    HW2 4668   6.973   6.453   3.093
 1257SOL     OW 4669   7.004   6.382   5.255
 1257SOL    HW1 4670   0.036   6.348   5.334
 1257SOL    HW2 4671   6.965   6.305   5.204
 1258SOL     OW 4672   1.921   5.272   2.626
 1258SOL    HW1 4673   1.848   5.224   2.578
 1258SOL    HW2 4674   2.000   5.212   2.634
 1259SOL     OW 4675   4.367   0.586   3.836
 1259SOL    HW1 4676   4.271   0.570   3.810
 1259SOL    HW2 4677   4.374   0.674   3.882
 1260SOL     OW 4678   1.599   1.749   0.739
 1260SOL    HW1 4679   1.683   1.802   0.744
 1260SOL    HW2 4680   1.529   1.793   0.796
 1261SOL     OW 4681   6.727   5.735   6.598
 1261SOL    HW1 4682   6.643   5.688   6.625
 1261SOL    HW2 4683   6.730   5.743   6.499
 1262SOL     OW 4684   5.473   4.506   1.118
 1262SOL    HW1 4685   5.394   4.500   1.057
 1262SOL    HW2 4686   5.453   4.569   1.193
 1263SOL     OW 4687   0.242   2.551   2.007
 1263SOL    HW1 4688   0.156   2.559   2.057
 1263SOL    HW2 4689   0.234   2.596   1.918
 1264SOL     OW 4690   6.556   4.830   0.744
 1264SOL    HW1 4691   6.585   4.910   0.796
 1264SOL    HW2 4692   6.479   4.787   0.791
 1265SOL     OW 4693   5.825   5.448   4.517
 1265SOL    HW1 4694   5.842   5.537   4.474
 1265SOL    HW2 4695   5.815   5.379   4.445
 1266SOL     OW 4696   0.738   1.551   4.407
 1266SOL    HW1 4697   0.765   1.639   4.447
 1266SOL    HW2 4698   0.810   1.519   4.346
 1267SOL     OW 4699   4.716   0.568   1.334
 1267SOL    HW1 4700   4.668   0.483   1.355
 1267SOL    HW2 4701   4.720   0.580   1.235
 1268SOL     OW 4702   2.543   2.563   0.706
 1268SOL    HW1 4703   2.523   2.466   0.695
 1268SOL    HW2 4704   2.621   2.587   0.649
 1269SOL     OW 4705   5.642   4.107   4.609
 1269SOL    HW1 4706   5.670   4.039   4.542
 1269SOL    HW2 4707   5.667   4.198   4.576
 1270SOL     OW 4708   1.316   3.622   3.609
 1270SOL    HW1 4709   1.307   3.709   3.658
 1270SOL    HW2 4710   1.401   3.577   3.637
 1271SOL     OW 4711   2.627   2.070   3.229
 1271SOL    HW1 4712   2.694   1.998   3.244
 1271SOL    HW2 4713   2.554   2.037   3.170
 1272SOL     OW 4714   5.868   4.116   0.109
 1272SOL    HW1 4715   5.866   4.207   0.066
 1272SOL    HW2 4716   5.777   4.074   0.102
 1273SOL     OW 4717   0.523   2.925   6.916
 1273SOL    HW1 4718   0.558   2.907   7.008
 1273SOL    HW2 4719   0.574   3.000   6.875
 1274SOL     OW 4720   0.008   4.649   1.770
 1274SOL    HW1 4721   0.082   4.652   1.837
 1274SOL    HW2 4722   6.972   4.565   1.783
 1275SOL     OW 4723   3.924   1.218   4.453
 1275SOL    HW1 4724   4.002   1.171   4.495
 1275SOL    HW2 4725   3.957   1.289   4.391
 1276SOL     OW 4726   6.412   5.114   5.434
 1276SOL    HW1 4727   6.449   5.034   5.388
 1276SOL    HW2 4728   6.463   5.195   5.407
 1277SOL     OW 4729   1.601   5.566   5.935
 1277SOL    HW1 4730   1.651   5.494   5.887
 1277SOL    HW2 4731   1.650   5.652   5.927
 1278SOL     OW 4732   1.109   6.844   5.357
 1278SOL    HW1 4733   1.074   6.761   5.315
 1278SOL    HW2 4734   1.052   6.869   5.435
 1279SOL     OW 4735   2.279   4.732   0.369
 1279SOL    HW1 4736   2.313   4.825   0.354
 1279SOL    HW2 4737   2.329   4.668   0.310
 1280SOL     OW 4738   4.527   6.300   4.258
 1280SOL    HW1 4739   4.567   6.356   4.330
 1280SOL    HW2 4740   4.468   6.231   4.299
 1281SOL     OW 4741   2.369   6.383   3.316
 1281SOL    HW1 4742   2.364   6.420   3.408
 1281SOL    HW2 4743   2.454   6.331   3.306
 1282SOL     OW 4744   6.708   2.581   0.387
 1282SOL    HW1 4745   6.796   2.535   0.404
 1282SOL    HW2 4746   6.670   2.613   0.473
 1283SOL     OW 4747   6.381   3.915   5.459
 1283SOL    HW1 4748   6.323   3.867   5.524
 1283SOL    HW2 4749   6.428   3.848   5.401
 1284SOL     OW 4750   4.743   1.716   1.720
 1284SOL    HW1 4751   4.825   1.658   1.724
 1284SOL    HW2 4752   4.706   1.728   1.813
 1285SOL     OW 4753   4.275   1.778   6.157
 1285SOL    HW1 4754   4.274   1.874   6.131
 1285SOL    HW2 4755   4.186   1.753   6.197
 1286SOL     OW 4756   4.276   3.854   1.508
 1286SOL    HW1 4757   4.322   3.772   1.543
 1286SOL    HW2 4758   4.273   3.923   1.580
 1287SOL     OW 4759   5.466   4.772   4.800
 1287SOL    HW1 4760   5.477   4.839   4.873
 1287SOL    HW2 4761   5.440   4.684   4.839
 1288SOL     OW 4762   3.800   3.252   6.704
 1288SOL    HW1 4763   3.701   3.252   6.688
 1288SOL    HW2 4764   3.837   3.161   6.685
 1289SOL     OW 4765   6.840   6.752   0.950
 1289SOL    HW1 4766   6.756   6.805   0.949
 1289SOL    HW2 4767   6.852   6.707   0.861
 1290SOL     OW 4768   0.872   6.347   0.190
 1290SOL    HW1 4769   0.874   6.323   0.287
 1290SOL    HW2 4770   0.964   6.342   0.153
 1291SOL     OW 4771   0.590   4.229   3.928
 1291SOL    HW1 4772   0.625   4.175   4.005
 1291SOL    HW2 4773   0.652   4.222   3.851
 1292SOL     OW 4774   0.148   5.943   2.373
 1292SOL    HW1 4775   0.175   6.008   2.445
 1292SOL    HW2 4776   0.229   5.912   2.325
 1293SOL     OW 4777   1.574   2.534   0.297
 1293SOL    HW1 4778   1.588   2.490   0.208
 1293SOL    HW2 4779   1.594   2.469   0.370
 1294SOL     OW 4780   0.721   3.411   6.085
 1294SOL    HW1 4781   0.701   3.471   6.008
 1294SOL    HW2 4782   0.655   3.335   6.087
 1295SOL     OW 4783   0.380   3.565   1.416
 1295SOL    HW1 4784   0.352   3.476   1.380
 1295SOL    HW2 4785   0.418   3.620   1.342
 1296SOL     OW 4786   3.608   6.561   5.234
 1296SOL    HW1 4787   3.604   6.492   5.306
 1296SOL    HW2 4788   3.643   6.646   5.272
 1297SOL     OW 4789   0.014   0.285   1.446
 1297SOL    HW1 4790   0.019   0.302   1.544
 1297SOL    HW2 4791   0.092   0.231   1.417
 1298SOL     OW 4792   5.396   5.743   3.642
 1298SOL    HW1 4793   5.301   5.772   3.652
 1298SOL    HW2 4794   5.428   5.702   3.728
 1299SOL     OW 4795   2.192   2.747   3.622
 1299SOL    HW1 4796   2.132   2.824   3.601
 1299SOL    HW2 4797   2.140   2.662   3.616
 1300SOL     OW 4798   1.469   3.411   0.724
 1300SOL    HW1 4799   1.452   3.314   0.704
 1300SOL    HW2 4800   1.533   3.448   0.657
 1301SOL     OW 4801   0.245   6.280   0.998
 1301SOL    HW1 4802   0.235   6.192   0.952
 1301SOL    HW2 4803   0.281   6.265   1.090
 1302SOL     OW 4804   4.676   6.691   5.364
 1302SOL    HW1 4805   4.663   6.671   5.267
 1302SOL    HW2 4806   4.634   6.619   5.419
 1303SOL     OW 4807   3.674   2.058   1.769
 1303SOL    HW1 4808   3.771   2.038   1.764
 1303SOL    HW2 4809   3.661   2.150   1.808
 1304SOL     OW 4810   1.711   0.559   0.120
 1304SOL    HW1 4811   1.806   0.529   0.125
 1304SOL    HW2 4812   1.708   0.659   0.112
 1305SOL     OW 4813   5.504   3.282   0.497
 1305SOL    HW1 4814   5.586   3.335   0.474
 1305SOL    HW2 4815   5.529   3.199   0.546
 1306SOL     OW 4816   1.110   5.428   3.769
 1306SOL    HW1 4817   1.040   5.415   3.839
 1306SOL    HW2 4818   1.142   5.523   3.772
 1307SOL     OW 4819   1.871   4.498   3.934
 1307SOL    HW1 4820   1.967   4.509   3.909
 1307SOL    HW2 4821   1.813   4.528   3.858
 1308SOL     OW 4822   6.485   0.063   5.596
 1308SOL    HW1 4823   6.529   0.018   5.519
 1308SOL    HW2 4824   6.470   0.159   5.575
 1309SOL     OW 4825   5.687   4.899   5.080
 1309SOL    HW1 4826   5.715   4.994   5.093
 1309SOL    HW2 4827   5.766   4.838   5.091
 1310SOL     OW 4828   6.414   3.918   3.925
 1310SOL    HW1 4829   6.388   3.838   3.979
 1310SOL    HW2 4830   6.380   3.908   3.831
 1311SOL     OW 4831   6.741   5.380   5.670
 1311SOL    HW1 4832   6.758   5.288   5.634
 1311SOL    HW2 4833   6.646   5.406   5.653
 1312SOL     OW 4834   1.180   6.569   6.412
 1312SOL    HW1 4835   1.222   6.641   6.357
 1312SOL    HW2 4836   1.174   6.599   6.508
 1313SOL     OW 4837   0.408   4.765   2.747
 1313SOL    HW1 4838   0.506   4.743   2.750
 1313SOL    HW2 4839   0.376   4.759   2.652
 1314SOL     OW 4840   4.178   1.653   4.795
 1314SOL    HW1 4841   4.110   1.610   4.735
 1314SOL    HW2 4842   4.226   1.582   4.847
 1315SOL     OW 4843   0.380   1.906   2.730
 1315SOL    HW1 4844   0.313   1.846   2.772
 1315SOL    HW2 4845   0.334   1.964   2.662
 1316SOL     OW 4846   2.681   6.835   6.037
 1316SOL    HW1 4847   2.620   6.913   6.025
 1316SOL    HW2 4848   2.752   6.837   5.967
 1317SOL     OW 4849   1.985   4.295   5.735
 1317SOL    HW1 4850   2.011   4.203   5.708
 1317SOL    HW2 4851   1.992   4.356   5.657
 1318SOL     OW 4852   0.652   2.794   1.058
 1318SOL    HW1 4853   0.704   2.721   1.103
 1318SOL    HW2 4854   0.715   2.853   1.007
 1319SOL     OW 4855   6.772   6.061   0.599
 1319SOL    HW1 4856   6.835   6.097   0.668
 1319SOL    HW2 4857   6.810   5.978   0.559
 1320SOL     OW 4858   3.819   4.845   6.520
 1320SOL    HW1 4859   3.871   4.766   6.487
 1320SOL    HW2 4860   3.724   4.837   6.489
 1321SOL     OW 4861   5.467   2.386   6.554
 1321SOL    HW1 4862   5.509   2.356   6.469
 1321SOL    HW2 4863   5.395   2.323   6.580
 1322SOL     OW 4864   4.162   1.697   3.973
 1322SOL    HW1 4865   4.127   1.608   4.000
 1322SOL    HW2 4866   4.238   1.686   3.909
 1323SOL     OW 4867   4.186   0.135   6.115
 1323SOL    HW1 4868   4.106   0.081   6.139
 1323SOL    HW2 4869   4.206   0.124   6.018
 1324SOL     OW 4870   0.698   3.912   6.984
 1324SOL    HW1 4871   0.690   4.012   6.980
 1324SOL    HW2 4872   0.795   3.887   6.981
 1325SOL     OW 4873   2.683   6.344   4.293
 1325SOL    HW1 4874   2.597   6.320   4.337
 1325SOL    HW2 4875   2.680   6.317   4.196
 1326SOL     OW 4876   5.037   3.532   5.478
 1326SOL    HW1 4877   5.010   3.530   5.574
 1326SOL    HW2 4878   4.968   3.487   5.423
 1327SOL     OW 4879   1.172   6.418   0.926
 1327SOL    HW1 4880   1.198   6.465   1.010
 1327SOL    HW2 4881   1.194   6.474   0.847
 1328SOL     OW 4882   2.489   3.334   1.396
 1328SOL    HW1 4883   2.492   3.234   1.398
 1328SOL    HW2 4884   2.580   3.369   1.371
 1329SOL     OW 4885   0.670   2.083   2.002
 1329SOL    HW1 4886   0.696   1.990   2.026
 1329SOL    HW2 4887   0.747   2.145   2.019
 1330SOL     OW 4888   1.098   1.152   2.088
 1330SOL    HW1 4889   1.013   1.106   2.062
 1330SOL    HW2 4890   1.097   1.246   2.054
 1331SOL     OW 4891   4.890   3.213   2.736
 1331SOL    HW1 4892   4.859   3.118   2.727
 1331SOL    HW2 4893   4.850   3.268   2.663
 1332SOL     OW 4894   2.754   0.079   6.598
 1332SOL    HW1 4895   2.806   0.000   6.632
 1332SOL    HW2 4896   2.811   0.132   6.535
 1333SOL     OW 4897   3.292   3.523   3.924
 1333SOL    HW1 4898   3.345   3.505   3.841
 1333SOL    HW2 4899   3.316   3.613   3.960
 1334SOL     OW 4900   6.103   1.361   4.025
 1334SOL    HW1 4901   6.148   1.284   4.071
 1334SOL    HW2 4902   6.162   1.393   3.951
 1335SOL     OW 4903   2.182   1.927   1.974
 1335SOL    HW1 4904   2.177   2.014   2.024
 1335SOL    HW2 4905   2.246   1.866   2.020
 1336SOL     OW 4906   2.495   2.244   5.138
 1336SOL    HW1 4907   2.570   2.300   5.103
 1336SOL    HW2 4908   2.409   2.293   5.124
 1337SOL     OW 4909   1.347   1.260   3.217
 1337SOL    HW1 4910   1.432   1.250   3.268
 1337SOL    HW2 4911   1.323   1.171   3.176
 1338SOL     OW 4912   6.275   2.256   4.831
 1338SOL    HW1 4913   6.210   2.245   4.906
 1338SOL    HW2 4914   6.368   2.247   4.865
 1339SOL     OW 4915   6.077   2.358   6.571
 1339SOL    HW1 4916   6.148   2.356   6.500
 1339SOL    HW2 4917   5.987   2.346   6.528
 1340SOL     OW 4918   6.140   2.131   2.932
 1340SOL    HW1 4919   6.118   2.195   3.005
 1340SOL    HW2 4920   6.116   2.038   2.961
 1341SOL     OW 4921   4.809   6.583   6.671
 1341SOL    HW1 4922   4.753   6.557   6.749
 1341SOL    HW2 4923   4.816   6.506   6.607
 1342SOL     OW 4924   3.088   5.605   5.974
 1342SOL    HW1 4925   3.186   5.601   5.991
 1342SOL    HW2 4926   3.061   5.699   5.954
 1343SOL     OW 4927   5.235   5.704   2.204
 1343SOL    HW1 4928   5.139   5.676   2.194
 1343SOL    HW2 4929   5.284   5.635   2.258
 1344SOL     OW 4930   0.715   6.194   4.506
 1344SOL    HW1 4931   0.638   6.207   4.569
 1344SOL    HW2 4932   0.793   6.248   4.537
 1345SOL     OW 4933   0.748   6.083   3.228
 1345SOL    HW1 4934   0.713   5.996   3.264
 1345SOL    HW2 4935   0.790   6.067   3.138
 1346SOL     OW 4936   1.139   5.521   4.728
 1346SOL    HW1 4937   1.097   5.442   4.683
 1346SOL    HW2 4938   1.073   5.595   4.734
 1347SOL     OW 4939   6.940   6.497   5.958
 1347SOL    HW1 4940   7.006   6.566   5.986
 1347SOL    HW2 4941   6.904   6.450   6.039
 1348SOL     OW 4942   5.731   6.556   4.005
 1348SOL    HW1 4943   5.658   6.591   3.946
 1348SOL    HW2 4944   5.804   6.518   3.948
 1349SOL     OW 4945   4.904   3.123   5.674
 1349SOL    HW1 4946   4.867   3.131   5.766
 1349SOL    HW2 4947   4.910   3.027   5.648
 1350SOL     OW 4948   5.372   4.852   5.907
 1350SOL    HW1 4949   5.408   4.939   5.940
 1350SOL    HW2 4950   5.350   4.793   5.985
 1351SOL     OW 4951   5.837   1.754   2.821
 1351SOL    HW1 4952   5.809   1.821   2.890
 1351SOL    HW2 4953   5.782   1.766   2.738
 1352SOL     OW 4954   6.850   5.691   3.677
 1352SOL    HW1 4955   6.762   5.647   3.697
 1352SOL    HW2 4956   6.874   5.674   3.581
 1353SOL     OW 4957   0.403   2.864   0.323
 1353SOL    HW1 4958   0.450   2.797   0.380
 1353SOL    HW2 4959   0.449   2.952   0.329
 1354SOL     OW 4960   0.982   4.047   1.612
 1354SOL    HW1 4961   0.907   3.987   1.581
 1354SOL    HW2 4962   1.070   4.003   1.593
 1355SOL     OW 4963   5.506   2.482   4.104
 1355SOL    HW1 4964   5.486   2.388   4.130
 1355SOL    HW2 4965   5.422   2.536   4.110
 1356SOL     OW 4966   3.716   3.484   2.306
 1356SOL    HW1 4967   3.696   3.396   2.348
 1356SOL    HW2 4968   3.732   3.473   2.208
 1357SOL     OW 4969   0.640   3.975   6.161
 1357SOL    HW1 4970   0.562   4.035   6.179
 1357SOL    HW2 4971   0.696   4.015   6.089
 1358SOL     OW 4972   4.181   6.812   6.075
 1358SOL    HW1 4973   4.252   6.741   6.069
 1358SOL    HW2 4974   4.151   6.821   6.170
 1359SOL     OW 4975   5.717   4.898   2.652
 1359SOL    HW1 4976   5.683   4.859   2.567
 1359SOL    HW2 4977   5.751   4.991   2.635
 1360SOL     OW 4978   2.534   3.392   0.430
 1360SOL    HW1 4979   2.566   3.338   0.508
 1360SOL    HW2 4980   2.581   3.481   0.430
 1361SOL     OW 4981   6.092   4.590   5.800
 1361SOL    HW1 4982   6.178   4.567   5.755
 1361SOL    HW2 4983   6.026   4.622   5.732
 1362SOL     OW 4984   3.241   4.059   3.940
 1362SOL    HW1 4985   3.265   4.084   3.846
 1362SOL    HW2 4986   3.301   4.107   4.004
 1363SOL     OW 4987   6.495   5.086   3.129
 1363SOL    HW1 4988   6.468   5.010   3.187
 1363SOL    HW2 4989   6.579   5.062   3.080
 1364SOL     OW 4990   5.953   4.370   0.895
 1364SOL    HW1 4991   5.863   4.374   0.939
 1364SOL    HW2 4992   5.970   4.456   0.847
 1365SOL     OW 4993   0.799   4.629   6.062
 1365SOL    HW1 4994   0.877   4.626   6.000
 1365SOL    HW2 4995   0.722   4.579   6.022
 1366SOL     OW 4996   1.534   5.078   6.930
 1366SOL    HW1 4997   1.568   5.015   6.860
 1366SOL    HW2 4998   1.440   5.105   6.908
 1367SOL     OW 4999   1.357   0.198   3.442
 1367SOL    HW1 5000   1.332   0.128   3.508
 1367SOL    HW2 5001   1.433   0.165   3.386
 1368SOL     OW 5002   6.142   0.280   3.620
 1368SOL    HW1 5003   6.187   0.246   3.538
 1368SOL    HW2 5004   6.070   0.215   3.648
 1369SOL     OW 5005   2.510   6.719   1.811
 1369SOL    HW1 5006   2.558   6.790   1.758
 1369SOL    HW2 5007   2.577   6.665   1.862
 1370SOL     OW 5008   3.804   0.542   1.165
 1370SOL    HW1 5009   3.802   0.580   1.258
 1370SOL    HW2 5010   3.826   0.444   1.170
 1371SOL     OW 5011   6.000   1.818   4.206
 1371SOL    HW1 5012   5.903   1.797   4.217
 1371SOL    HW2 5013   6.038   1.845   4.295
 1372SOL     OW 5014   1.408   3.257   0.014
 1372SOL    HW1 5015   1.454   3.341   7.003
 1372SOL    HW2 5016   1.475   3.193   0.052
 1373SOL     OW 5017   5.585   3.667   0.114
 1373SOL    HW1 5018   5.547   3.749   0.072
 1373SOL    HW2 5019   5.515   3.596   0.119
 1374SOL     OW 5020   4.418   2.636   0.312
 1374SOL    HW1 5021   4.323   2.605   0.313
 1374SOL    HW2 5022   4.471   2.584   0.378
 1375SOL     OW 5023   0.223   4.038   6.469
 1375SOL    HW1 5024   0.161   4.043   6.391
 1375SOL    HW2 5025   0.169   4.030   6.553
 1376SOL     OW 5026   4.828   3.949   4.080
 1376SOL    HW1 5027   4.901   3.922   4.143
 1376SOL    HW2 5028   4.810   3.875   4.016
 1377SOL     OW 5029   6.967   3.796   5.642
 1377SOL    HW1 5030   6.887   3.851   5.616
 1377SOL    HW2 5031   6.944   3.741   5.723
 1378SOL     OW 5032   6.528   0.952   4.737
 1378SOL    HW1 5033   6.568   1.043   4.751
 1378SOL    HW2 5034   6.552   0.920   4.645
 1379SOL     OW 5035   3.118   0.077   2.482
 1379SOL    HW1 5036   3.128   0.140   2.559
 1379SOL    HW2 5037   3.062   0.120   2.411
 1380SOL     OW 5038   0.283   0.261   2.722
 1380SOL    HW1 5039   0.218   0.333   2.699
 1380SOL    HW2 5040   0.242   0.199   2.789
 1381SOL     OW 5041   5.558   2.106   6.830
 1381SOL    HW1 5042   5.655   2.131   6.830
 1381SOL    HW2 5043   5.502   2.188   6.842
 1382SOL     OW 5044   4.781   4.545   0.586
 1382SOL    HW1 5045   4.720   4.622   0.603
 1382SOL    HW2 5046   4.734   4.477   0.530
 1383SOL     OW 5047   0.650   0.091   0.636
 1383SOL    HW1 5048   0.564   0.048   0.663
 1383SOL    HW2 5049   0.723   0.022   0.636
 1384SOL     OW 5050   3.859   0.986   2.282
 1384SOL    HW1 5051   3.901   1.032   2.361
 1384SOL    HW2 5052   3.904   0.898   2.268
 1385SOL     OW 5053   0.997   3.064   2.567
 1385SOL    HW1 5054   0.913   3.014   2.589
 1385SOL    HW2 5055   1.000   3.081   2.468
 1386SOL     OW 5056   2.408   1.107   4.507
 1386SOL    HW1 5057   2.352   1.143   4.582
 1386SOL    HW2 5058   2.505   1.119   4.530
 1387SOL     OW 5059   4.013   6.307   3.413
 1387SOL    HW1 5060   4.087   6.242   3.396
 1387SOL    HW2 5061   3.953   6.311   3.332
 1388SOL     OW 5062   0.349   6.232   3.505
 1388SOL    HW1 5063   0.374   6.304   3.440
 1388SOL    HW2 5064   0.262   6.190   3.476
 1389SOL     OW 5065   0.579   1.345   3.989
 1389SOL    HW1 5066   0.642   1.422   4.002
 1389SOL    HW2 5067   0.557   1.337   3.892
 1390SOL     OW 5068   4.564   2.019   6.008
 1390SOL    HW1 5069   4.604   2.043   6.096
 1390SOL    HW2 5070   4.465   2.030   6.012
 1391SOL     OW 5071   6.629   0.747   5.660
 1391SOL    HW1 5072   6.616   0.652   5.691
 1391SOL    HW2 5073   6.540   0.792   5.653
 1392SOL     OW 5074   5.405   5.419   6.175
 1392SOL    HW1 5075   5.439   5.325   6.186
 1392SOL    HW2 5076   5.389   5.459   6.265
 1393SOL     OW 5077   5.402   2.910   6.668
 1393SOL    HW1 5078   5.403   2.811   6.655
 1393SOL    HW2 5079   5.480   2.936   6.726
 1394SOL     OW 5080   3.714   6.963   3.486
 1394SOL    HW1 5081   3.773   6.992   3.561
 1394SOL    HW2 5082   3.674   6.874   3.508
 1395SOL     OW 5083   1.532   3.902   3.226
 1395SOL    HW1 5084   1.576   3.813   3.239
 1395SOL    HW2 5085   1.433   3.889   3.215
 1396SOL     OW 5086   1.489   6.876   3.525
 1396SOL    HW1 5087   1.449   6.791   3.491
 1396SOL    HW2 5088   1.418   6.933   3.565
 1397SOL     OW 5089   0.788   6.656   4.569
 1397SOL    HW1 5090   0.788   6.576   4.629
 1397SOL    HW2 5091   0.708   6.713   4.590
 1398SOL     OW 5092   0.923   1.855   0.097
 1398SOL    HW1 5093   0.868   1.891   0.173
 1398SOL    HW2 5094   0.862   1.820   0.026
 1399SOL     OW 5095   4.508   0.187   0.389
 1399SOL    HW1 5096   4.523   0.092   0.418
 1399SOL    HW2 5097   4.596   0.229   0.367
 1400SOL     OW 5098   6.249   1.154   4.109
 1400SOL    HW1 5099   6.195   1.070   4.113
 1400SOL    HW2 5100   6.334   1.142   4.159
 1401SOL     OW 5101   6.083   6.820   4.388
 1401SOL    HW1 5102   6.172   6.850   4.354
 1401SOL    HW2 5103   6.076   6.721   4.378
 1402SOL     OW 5104   5.532   4.308   0.067
 1402SOL    HW1 5105   5.547   4.209   0.077
 1402SOL    HW2 5106   5.523   4.330   6.987
 1403SOL     OW 5107   2.296   2.331   1.118
 1403SOL    HW1 5108   2.301   2.416   1.171
 1403SOL    HW2 5109   2.319   2.253   1.177
 1404SOL     OW 5110   4.645   6.952   0.183
 1404SOL    HW1 5111   4.599   6.977   0.099
 1404SOL    HW2 5112   4.740   6.985   0.180
 1405SOL     OW 5113   2.532   3.619   0.213
 1405SOL    HW1 5114   2.507   3.534   0.167
 1405SOL    HW2 5115   2.452   3.657   0.260
 1406SOL     OW 5116   2.351   5.079   0.872
 1406SOL    HW1 5117   2.356   5.044   0.965
 1406SOL    HW2 5118   2.356   5.003   0.807
 1407SOL     OW 5119   1.703   3.615   3.257
 1407SOL    HW1 5120   1.743   3.625   3.348
 1407SOL    HW2 5121   1.629   3.548   3.259
 1408SOL     OW 5122   5.164   6.486   6.759
 1408SOL    HW1 5123   5.244   6.545   6.771
 1408SOL    HW2 5124   5.114   6.513   6.677
 1409SOL     OW 5125   0.165   1.086   5.310
 1409SOL    HW1 5126   0.108   1.025   5.365
 1409SOL    HW2 5127   0.258   1.051   5.308
 1410SOL     OW 5128   3.415   3.988   6.987
 1410SOL    HW1 5129   3.475   3.924   0.018
 1410SOL    HW2 5130   3.327   3.992   0.016
 1411SOL     OW 5131   3.696   6.047   6.098
 1411SOL    HW1 5132   3.608   6.080   6.133
 1411SOL    HW2 5133   3.762   6.122   6.097
 1412SOL     OW 5134   0.851   4.688   1.890
 1412SOL    HW1 5135   0.822   4.782   1.875
 1412SOL    HW2 5136   0.794   4.646   1.960
 1413SOL     OW 5137   1.897   1.784   4.406
 1413SOL    HW1 5138   1.859   1.857   4.463
 1413SOL    HW2 5139   1.880   1.805   4.309
 1414SOL     OW 5140   1.471   2.612   1.735
 1414SOL    HW1 5141   1.542   2.552   1.773
 1414SOL    HW2 5142   1.485   2.705   1.767
 1415SOL     OW 5143   3.167   2.155   4.420
 1415SOL    HW1 5144   3.099   2.136   4.491
 1415SOL    HW2 5145   3.256   2.122   4.451
 1416SOL     OW 5146   4.155   0.150   4.506
 1416SOL    HW1 5147   4.155   0.250   4.509
 1416SOL    HW2 5148   4.244   0.115   4.533
 1417SOL     OW 5149   3.502   3.016   6.190
 1417SOL    HW1 5150   3.580   3.078   6.200
 1417SOL    HW2 5151   3.418   3.065   6.214
 1418SOL     OW 5152   2.848   3.255   0.441
 1418SOL    HW1 5153   2.938   3.287   0.411
 1418SOL    HW2 5154   2.792   3.332   0.468
 1419SOL     OW 5155   1.784   5.495   4.405
 1419SOL    HW1 5156   1.749   5.548   4.482
 1419SOL    HW2 5157   1.799   5.556   4.327
 1420SOL     OW 5158   4.009   5.501   2.524
 1420SOL    HW1 5159   4.040   5.546   2.440
 1420SOL    HW2 5160   3.939   5.434   2.503
 1421SOL     OW 5161   1.421   4.659   4.386
 1421SOL    HW1 5162   1.469   4.744   4.364
 1421SOL    HW2 5163   1.479   4.581   4.363
 1422SOL     OW 5164   2.899   4.582   5.651
 1422SOL    HW1 5165   2.995   4.606   5.669
 1422SOL    HW2 5166   2.895   4.518   5.574
 1423SOL     OW 5167   4.182   1.905   4.889
 1423SOL    HW1 5168   4.100   1.953   4.920
 1423SOL    HW2 5169   4.158   1.810   4.867
 1424SOL     OW 5170   5.967   3.328   0.207
 1424SOL    HW1 5171   5.988   3.414   0.253
 1424SOL    HW2 5172   6.009   3.252   0.257
 1425SOL     OW 5173   2.352   5.901   4.855
 1425SOL    HW1 5174   2.450   5.896   4.877
 1425SOL    HW2 5175   2.320   5.811   4.825
 1426SOL     OW 5176   1.884   1.948   5.867
 1426SOL    HW1 5177   1.850   1.880   5.803
 1426SOL    HW2 5178   1.967   1.915   5.912
 1427SOL     OW 5179   0.298   0.902   3.550
 1427SOL    HW1 5180   0.242   0.857   3.480
 1427SOL    HW2 5181   0.388   0.922   3.511
 1428SOL     OW 5182   6.981   2.406   1.567
 1428SOL    HW1 5183   6.984   2.394   1.666
 1428SOL    HW2 5184   6.894   2.446   1.540
 1429SOL     OW 5185   5.448   2.022   0.262
 1429SOL    HW1 5186   5.536   2.001   0.305
 1429SOL    HW2 5187   5.385   1.946   0.277
 1430SOL     OW 5188   2.139   3.910   4.606
 1430SOL    HW1 5189   2.103   3.817   4.612
 1430SOL    HW2 5190   2.098   3.957   4.527
 1431SOL     OW 5191   2.448   2.227   6.401
 1431SOL    HW1 5192   2.401   2.315   6.413
 1431SOL    HW2 5193   2.545   2.238   6.425
 1432SOL     OW 5194   2.239   0.905   1.823
 1432SOL    HW1 5195   2.200   0.821   1.786
 1432SOL    HW2 5196   2.262   0.967   1.748
 1433SOL     OW 5197   3.308   6.619   3.921
 1433SOL    HW1 5198   3.216   6.609   3.960
 1433SOL    HW2 5199   3.352   6.529   3.918
 1434SOL     OW 5200   6.765   1.526   6.380
 1434SOL    HW1 5201   6.804   1.612   6.347
 1434SOL    HW2 5202   6.695   1.545   6.449
 1435SOL     OW 5203   0.008   0.811   3.928
 1435SOL    HW1 5204   0.102   0.801   3.896
 1435SOL    HW2 5205   6.975   0.870   3.866
 1436SOL     OW 5206   6.050   3.356   0.672
 1436SOL    HW1 5207   6.009   3.403   0.594
 1436SOL    HW2 5208   6.084   3.423   0.738
 1437SOL     OW 5209   3.459   0.940   5.309
 1437SOL    HW1 5210   3.549   0.897   5.310
 1437SOL    HW2 5211   3.469   1.038   5.293
 1438SOL     OW 5212   3.060   0.884   1.644
 1438SOL    HW1 5213   3.079   0.811   1.710
 1438SOL    HW2 5214   3.089   0.971   1.682
 1439SOL     OW 5215   0.579   5.482   0.576
 1439SOL    HW1 5216   0.483   5.489   0.603
 1439SOL    HW2 5217   0.638   5.497   0.656
 1440SOL     OW 5218   3.708   3.250   4.597
 1440SOL    HW1 5219   3.726   3.349   4.599
 1440SOL    HW2 5220   3.610   3.235   4.588
 1441SOL     OW 5221   6.244   3.243   3.788
 1441SOL    HW1 5222   6.190   3.199   3.716
 1441SOL    HW2 5223   6.303   3.176   3.832
 1442SOL     OW 5224   6.227   4.474   0.611
 1442SOL    HW1 5225   6.305   4.470   0.549
 1442SOL    HW2 5226   6.257   4.455   0.704
 1443SOL     OW 5227   1.186   1.923   4.276
 1443SOL    HW1 5228   1.213   1.959   4.365
 1443SOL    HW2 5229   1.105   1.864   4.287
 1444SOL     OW 5230   4.563   6.323   1.495
 1444SOL    HW1 5231   4.495   6.255   1.521
 1444SOL    HW2 5232   4.539   6.362   1.406
 1445SOL     OW 5233   0.766   2.873   2.323
 1445SOL    HW1 5234   0.794   2.778   2.316
 1445SOL    HW2 5235   0.669   2.881   2.301
 1446SOL     OW 5236   5.087   2.699   6.760
 1446SOL    HW1 5237   5.141   2.738   6.834
 1446SOL    HW2 5238   5.122   2.608   6.737
 1447SOL     OW 5239   6.494   0.116   4.944
 1447SOL    HW1 5240   6.503   0.215   4.948
 1447SOL    HW2 5241   6.478   0.087   4.850
 1448SOL     OW 5242   5.628   1.898   0.460
 1448SOL    HW1 5243   5.685   1.938   0.532
 1448SOL    HW2 5244   5.615   1.801   0.479
 1449SOL     OW 5245   6.303   6.815   6.669
 1449SOL    HW1 5246   6.244   6.777   6.598
 1449SOL    HW2 5247   6.398   6.790   6.651
 1450SOL     OW 5248   0.152   2.519   2.345
 1450SOL    HW1 5249   0.100   2.568   2.275
 1450SOL    HW2 5250   0.160   2.575   2.427
 1451SOL     OW 5251   3.190   0.855   2.753
 1451SOL    HW1 5252   3.282   0.846   2.790
 1451SOL    HW2 5253   3.196   0.886   2.658
 1452SOL     OW 5254   5.207   2.134   4.412
 1452SOL    HW1 5255   5.255   2.055   4.448
 1452SOL    HW2 5256   5.165   2.185   4.488
 1453SOL     OW 5257   6.161   3.675   5.257
 1453SOL    HW1 5258   6.147   3.771   5.231
 1453SOL    HW2 5259   6.098   3.617   5.205
 1454SOL     OW 5260   6.173   2.975   2.042
 1454SOL    HW1 5261   6.217   3.064   2.033
 1454SOL    HW2 5262   6.149   2.941   1.951
 1455SOL     OW 5263   1.548   0.185   1.731
 1455SOL    HW1 5264   1.619   0.233   1.783
 1455SOL    HW2 5265   1.459   0.204   1.773
 1456SOL     OW 5266   6.719   6.681   5.570
 1456SOL    HW1 5267   6.783   6.630   5.629
 1456SOL    HW2 5268   6.634   6.696   5.619
 1457SOL     OW 5269   1.554   0.410   1.398
 1457SOL    HW1 5270   1.488   0.340   1.371
 1457SOL    HW2 5271   1.615   0.373   1.468
 1458SOL     OW 5272   4.862   6.547   4.008
 1458SOL    HW1 5273   4.940   6.483   4.002
 1458SOL    HW2 5274   4.861   6.605   3.927
 1459SOL     OW 5275   2.900   4.286   6.422
 1459SOL    HW1 5276   2.964   4.298   6.498
 1459SOL    HW2 5277   2.895   4.370   6.369
 1460SOL     OW 5278   0.297   5.285   5.922
 1460SOL    HW1 5279   0.217   5.284   5.982
 1460SOL    HW2 5280   0.313   5.193   5.887
 1461SOL     OW 5281   7.004   4.655   3.276
 1461SOL    HW1 5282   6.969   4.730   3.333
 1461SOL    HW2 5283   6.935   4.583   3.269
 1462SOL     OW 5284   6.552   1.274   6.356
 1462SOL    HW1 5285   6.483   1.295   6.287
 1462SOL    HW2 5286   6.621   1.346   6.358
 1463SOL     OW 5287   7.015   5.928   6.251
 1463SOL    HW1 5288   0.038   5.884   6.331
 1463SOL    HW2 5289   6.960   6.006   6.281
 1464SOL     OW 5290   6.448   6.560   0.890
 1464SOL    HW1 5291   6.511   6.491   0.854
 1464SOL    HW2 5292   6.498   6.623   0.949
 1465SOL     OW 5293   1.448   1.631   2.734
 1465SOL    HW1 5294   1.376   1.650   2.666
 1465SOL    HW2 5295   1.514   1.568   2.694
 1466SOL     OW 5296   0.790   0.138   2.902
 1466SOL    HW1 5297   0.863   0.190   2.946
 1466SOL    HW2 5298   0.728   0.101   2.972
 1467SOL     OW 5299   2.270   0.214   1.914
 1467SOL    HW1 5300   2.285   0.227   1.816
 1467SOL    HW2 5301   2.290   0.299   1.962
 1468SOL     OW 5302   5.393   5.939   2.653
 1468SOL    HW1 5303   5.371   5.934   2.556
 1468SOL    HW2 5304   5.419   6.032   2.677
 1469SOL     OW 5305   0.590   0.316   2.748
 1469SOL    HW1 5306   0.617   0.235   2.799
 1469SOL    HW2 5307   0.520   0.293   2.681
 1470SOL     OW 5308   1.376   0.849   2.384
 1470SOL    HW1 5309   1.359   0.763   2.433
 1470SOL    HW2 5310   1.288   0.891   2.360
 1471SOL     OW 5311   0.766   0.887   0.200
 1471SOL    HW1 5312   0.742   0.942   0.120
 1471SOL    HW2 5313   0.730   0.795   0.189
 1472SOL     OW 5314   4.330   5.626   4.621
 1472SOL    HW1 5315   4.298   5.686   4.694
 1472SOL    HW2 5316   4.409   5.574   4.653
 1473SOL     OW 5317   5.502   6.618   3.882
 1473SOL    HW1 5318   5.471   6.713   3.893
 1473SOL    HW2 5319   5.423   6.559   3.865
 1474SOL     OW 5320   6.648   5.954   4.018
 1474SOL    HW1 5321   6.714   5.936   3.945
 1474SOL    HW2 5322   6.639   6.053   4.031
 1475SOL     OW 5323   6.948   0.462   1.253
 1475SOL    HW1 5324   6.993   0.390   1.306
 1475SOL    HW2 5325   6.975   0.455   1.157
 1476SOL     OW 5326   1.081   1.305   1.236
 1476SOL    HW1 5327   1.086   1.272   1.142
 1476SOL    HW2 5328   1.073   1.227   1.298
 1477SOL     OW 5329   2.470   0.469   6.643
 1477SOL    HW1 5330   2.428   0.559   6.652
 1477SOL    HW2 5331   2.523   0.465   6.557
 1478SOL     OW 5332   5.336   4.298   0.743
 1478SOL    HW1 5333   5.417   4.283   0.687
 1478SOL    HW2 5334   5.351   4.261   0.835
 1479SOL     OW 5335   1.684   3.583   6.724
 1479SOL    HW1 5336   1.664   3.620   6.633
 1479SOL    HW2 5337   1.765   3.628   6.761
 1480SOL     OW 5338   2.585   0.150   0.203
 1480SOL    HW1 5339   2.576   0.239   0.246
 1480SOL    HW2 5340   2.658   0.153   0.134
 1481SOL     OW 5341   6.671   1.676   4.757
 1481SOL    HW1 5342   6.595   1.699   4.696
 1481SOL    HW2 5343   6.757   1.681   4.706
 1482SOL     OW 5344   5.511   1.910   1.001
 1482SOL    HW1 5345   5.412   1.909   0.989
 1482SOL    HW2 5346   5.553   1.962   0.927
 1483SOL     OW 5347   0.316   2.789   6.237
 1483SOL    HW1 5348   0.258   2.855   6.189
 1483SOL    HW2 5349   0.374   2.741   6.171
 1484SOL     OW 5350   6.240   4.426   3.867
 1484SOL    HW1 5351   6.319   4.480   3.896
 1484SOL    HW2 5352   6.173   4.424   3.941
 1485SOL     OW 5353   4.550   1.877   3.095
 1485SOL    HW1 5354   4.507   1.949   3.150
 1485SOL    HW2 5355   4.642   1.905   3.068
 1486SOL     OW 5356   4.934   2.785   3.150
 1486SOL    HW1 5357   4.863   2.801   3.220
 1486SOL    HW2 5358   5.005   2.726   3.188
 1487SOL     OW 5359   6.058   2.615   6.883
 1487SOL    HW1 5360   6.100   2.629   6.793
 1487SOL    HW2 5361   6.124   2.574   6.945
 1488SOL     OW 5362   6.361   1.912   2.895
 1488SOL    HW1 5363   6.262   1.912   2.882
 1488SOL    HW2 5364   6.407   1.889   2.809
 1489SOL     OW 5365   3.763   4.997   4.308
 1489SOL    HW1 5366   3.803   4.994   4.216
 1489SOL    HW2 5367   3.663   4.989   4.300
 1490SOL     OW 5368   1.361   2.667   1.253
 1490SOL    HW1 5369   1.423   2.689   1.328
 1490SOL    HW2 5370   1.266   2.676   1.283
 1491SOL     OW 5371   6.585   3.666   3.569
 1491SOL    HW1 5372   6.589   3.583   3.625
 1491SOL    HW2 5373   6.676   3.708   3.565
 1492SOL     OW 5374   6.001   1.824   1.629
 1492SOL    HW1 5375   5.961   1.899   1.577
 1492SOL    HW2 5376   5.929   1.762   1.659
 1493SOL     OW 5377   5.141   0.727   4.807
 1493SOL    HW1 5378   5.169   0.646   4.858
 1493SOL    HW2 5379   5.060   0.706   4.753
 1494SOL     OW 5380   4.303   2.028   6.000
 1494SOL    HW1 5381   4.243   1.996   5.927
 1494SOL    HW2 5382   4.298   2.128   6.005
 1495SOL     OW 5383   0.498   3.155   3.707
 1495SOL    HW1 5384   0.596   3.152   3.727
 1495SOL    HW2 5385   0.484   3.157   3.608
 1496SOL     OW 5386   1.086   0.557   2.282
 1496SOL    HW1 5387   1.096   0.623   2.207
 1496SOL    HW2 5388   1.018   0.590   2.347
 1497SOL     OW 5389   0.593   4.211   2.735
 1497SOL    HW1 5390   0.529   4.185   2.662
 1497SOL    HW2 5391   0.541   4.246   2.813
 1498SOL     OW 5392   1.448   4.699   6.133
 1498SOL    HW1 5393   1.349   4.689   6.143
 1498SOL    HW2 5394   1.491   4.695   6.223
 1499SOL     OW 5395   1.025   3.384   5.498
 1499SOL    HW1 5396   1.045   3.400   5.594
 1499SOL    HW2 5397   1.028   3.470   5.448
 1500SOL     OW 5398   5.812   6.437   6.996
 1500SOL    HW1 5399   5.780   6.425   0.072
 1500SOL    HW2 5400   5.796   6.352   6.945
 1501SOL     OW 5401   4.012   1.267   6.424
 1501SOL    HW1 5402   3.961   1.353   6.430
 1501SOL    HW2 5403   4.067   1.267   6.340
 1502SOL     OW 5404   6.098   6.732   1.514
 1502SOL    HW1 5405   6.026   6.733   1.583
 1502SOL    HW2 5406   6.129   6.638   1.500
 1503SOL     OW 5407   2.890   1.574   1.527
 1503SOL    HW1 5408   2.904   1.611   1.619
 1503SOL    HW2 5409   2.897   1.648   1.460
 1504SOL     OW 5410   1.767   0.705   5.194
 1504SOL    HW1 5411   1.715   0.772   5.141
 1504SOL    HW2 5412   1.813   0.752   5.270
 1505SOL     OW 5413   5.468   0.763   6.849
 1505SOL    HW1 5414   5.400   0.718   6.791
 1505SOL    HW2 5415   5.471   0.716   6.938
 1506SOL     OW 5416   1.848   5.648   2.194
 1506SOL    HW1 5417   1.773   5.693   2.242
 1506SOL    HW2 5418   1.846   5.672   2.097
 1507SOL     OW 5419   1.442   2.005   5.412
 1507SOL    HW1 5420   1.354   1.977   5.451
 1507SOL    HW2 5421   1.441   2.104   5.395
 1508SOL     OW 5422   5.824   0.579   0.869
 1508SOL    HW1 5423   5.803   0.484   0.891
 1508SOL    HW2 5424   5.912   0.604   0.910
 1509SOL     OW 5425   3.985   1.985   6.140
 1509SOL    HW1 5426   4.007   1.943   6.228
 1509SOL    HW2 5427   3.891   2.018   6.141
 1510SOL     OW 5428   5.972   2.036   3.968
 1510SOL    HW1 5429   5.934   1.956   4.014
 1510SOL    HW2 5430   5.953   2.031   3.870
 1511SOL     OW 5431   2.348   2.764   0.646
 1511SOL    HW1 5432   2.406   2.682   0.650
 1511SOL    HW2 5433   2.316   2.777   0.552
 1512SOL     OW 5434   0.178   6.822   1.725
 1512SOL    HW1 5435   0.110   6.771   1.672
 1512SOL    HW2 5436   0.196   6.909   1.680
 1513SOL     OW 5437   4.589   0.230   3.910
 1513SOL    HW1 5438   4.689   0.227   3.920
 1513SOL    HW2 5439   4.565   0.294   3.837
 1514SOL     OW 5440   5.620   2.538   4.831
 1514SOL    HW1 5441   5.700   2.587   4.797
 1514SOL    HW2 5442   5.537   2.582   4.798
 1515SOL     OW 5443   6.827   3.506   5.685
 1515SOL    HW1 5444   6.756   3.442   5.714
 1515SOL    HW2 5445   6.879   3.536   5.764
 1516SOL     OW 5446   0.689   0.169   1.066
 1516SOL    HW1 5447   0.715   0.080   1.028
 1516SOL    HW2 5448   0.721   0.241   1.004
 1517SOL     OW 5449   4.603   5.792   3.522
 1517SOL    HW1 5450   4.516   5.760   3.485
 1517SOL    HW2 5451   4.585   5.849   3.602
 1518SOL     OW 5452   0.059   3.245   0.114
 1518SOL    HW1 5453   0.048   3.241   0.214
 1518SOL    HW2 5454   0.071   3.153   0.078
 1519SOL     OW 5455   0.159   4.384   1.999
 1519SOL    HW1 5456   0.097   4.360   1.924
 1519SOL    HW2 5457   0.238   4.324   1.997
 1520SOL     OW 5458   1.499   3.341   2.489
 1520SOL    HW1 5459   1.443   3.273   2.442
 1520SOL    HW2 5460   1.570   3.294   2.542
 1521SOL     OW 5461   2.129   3.493   6.858
 1521SOL    HW1 5462   2.065   3.445   6.799
 1521SOL    HW2 5463   2.175   3.428   6.918
 1522SOL     OW 5464   6.517   1.526   5.462
 1522SOL    HW1 5465   6.571   1.559   5.540
 1522SOL    HW2 5466   6.551   1.570   5.379
 1523SOL     OW 5467   5.090   4.102   6.997
 1523SOL    HW1 5468   5.089   4.196   6.964
 1523SOL    HW2 5469   5.017   4.050   6.952
 1524SOL     OW 5470   1.111   1.768   1.748
 1524SOL    HW1 5471   1.050   1.728   1.680
 1524SOL    HW2 5472   1.198   1.792   1.704
 1525SOL     OW 5473   5.433   2.645   6.610
 1525SOL    HW1 5474   5.416   2.692   6.524
 1525SOL    HW2 5475   5.442   2.547   6.594
 1526SOL     OW 5476   1.079   1.540   0.486
 1526SOL    HW1 5477   1.100   1.453   0.531
 1526SOL    HW2 5478   1.130   1.614   0.531
 1527SOL     OW 5479   3.714   0.749   5.330
 1527SOL    HW1 5480   3.725   0.706   5.420
 1527SOL    HW2 5481   3.791   0.810   5.313
 1528SOL     OW 5482   5.275   6.346   2.853
 1528SOL    HW1 5483   5.334   6.366   2.932
 1528SOL    HW2 5484   5.254   6.431   2.805
 1529SOL     OW 5485   3.626   1.631   0.064
 1529SOL    HW1 5486   3.682   1.548   0.055
 1529SOL    HW2 5487   3.609   1.670   6.991
 1530SOL     OW 5488   3.020   0.474   1.528
 1530SOL    HW1 5489   3.062   0.563   1.510
 1530SOL    HW2 5490   3.051   0.441   1.617
 1531SOL     OW 5491   5.962   1.034   5.331
 1531SOL    HW1 5492   5.981   1.084   5.246
 1531SOL    HW2 5493   6.044   0.985   5.360
 1532SOL     OW 5494   2.555   2.395   5.411
 1532SOL    HW1 5495   2.550   2.459   5.488
 1532SOL    HW2 5496   2.465   2.355   5.395
 1533SOL     OW 5497   0.068   3.346   6.158
 1533SOL    HW1 5498   0.116   3.345   6.070
 1533SOL    HW2 5499   6.997   3.300   6.148
 1534SOL     OW 5500   1.880   5.158   0.042
 1534SOL    HW1 5501   1.963   5.147   7.005
 1534SOL    HW2 5502   1.898   5.219   0.119
 1535SOL     OW 5503   5.180   6.036   4.128
 1535SOL    HW1 5504   5.178   6.037   4.228
 1535SOL    HW2 5505   5.087   6.044   4.093
 1536SOL     OW 5506   3.673   4.827   5.297
 1536SOL    HW1 5507   3.745   4.872   5.350
 1536SOL    HW2 5508   3.677   4.857   5.202
 1537SOL     OW 5509   4.172   5.876   3.054
 1537SOL    HW1 5510   4.129   5.822   3.126
 1537SOL    HW2 5511   4.101   5.925   3.003
 1538SOL     OW 5512   3.348   5.400   5.642
 1538SOL    HW1 5513   3.265   5.448   5.670
 1538SOL    HW2 5514   3.374   5.334   5.712
 1539SOL     OW 5515   3.941   4.326   1.442
 1539SOL    HW1 5516   3.877   4.337   1.518
 1539SOL    HW2 5517   3.890   4.305   1.358
 1540SOL     OW 5518   0.890   0.176   5.586
 1540SOL    HW1 5519   0.958   0.238   5.546
 1540SOL    HW2 5520   0.895   0.181   5.686
 1541SOL     OW 5521   3.311   2.979   1.591
 1541SOL    HW1 5522   3.321   2.902   1.654
 1541SOL    HW2 5523   3.353   2.956   1.504
 1542SOL     OW 5524   6.655   5.971   1.413
 1542SOL    HW1 5525   6.670   5.881   1.373
 1542SOL    HW2 5526   6.684   6.042   1.348
 1543SOL     OW 5527   3.091   3.096   3.717
 1543SOL    HW1 5528   3.030   3.090   3.796
 1543SOL    HW2 5529   3.145   3.180   3.724
 1544SOL     OW 5530   3.133   3.680   2.473
 1544SOL    HW1 5531   3.057   3.682   2.409
 1544SOL    HW2 5532   3.218   3.664   2.424
 1545SOL     OW 5533   5.497   0.831   5.095
 1545SOL    HW1 5534   5.477   0.878   5.009
 1545SOL    HW2 5535   5.421   0.772   5.120
 1546SOL     OW 5536   5.154   6.718   5.939
 1546SOL    HW1 5537   5.188   6.676   5.856
 1546SOL    HW2 5538   5.055   6.730   5.932
 1547SOL     OW 5539   2.315   4.326   2.772
 1547SOL    HW1 5540   2.294   4.420   2.747
 1547SOL    HW2 5541   2.334   4.320   2.870
 1548SOL     OW 5542   4.543   3.968   5.728
 1548SOL    HW1 5543   4.582   3.925   5.647
 1548SOL    HW2 5544   4.498   3.897   5.784
 1549SOL     OW 5545   5.546   0.946   2.256
 1549SOL    HW1 5546   5.629   0.955   2.202
 1549SOL    HW2 5547   5.564   0.890   2.337
 1550SOL     OW 5548   2.860   6.789   5.853
 1550SOL    HW1 5549   2.898   6.696   5.849
 1550SOL    HW2 5550   2.867   6.832   5.763
 1551SOL     OW 5551   1.737   3.455   0.799
 1551SOL    HW1 5552   1.646   3.436   0.835
 1551SOL    HW2 5553   1.759   3.551   0.813
 1552SOL     OW 5554   0.594   0.140   1.530
 1552SOL    HW1 5555   0.685   0.112   1.561
 1552SOL    HW2 5556   0.569   0.227   1.572
 1553SOL     OW 5557   6.410   2.060   6.437
 1553SOL    HW1 5558   6.463   2.142   6.459
 1553SOL    HW2 5559   6.379   2.017   6.522
 1554SOL     OW 5560   3.752   2.137   2.403
 1554SOL    HW1 5561   3.687   2.061   2.412
 1554SOL    HW2 5562   3.722   2.197   2.329
 1555SOL     OW 5563   4.380   2.298   5.974
 1555SOL    HW1 5564   4.475   2.317   5.952
 1555SOL    HW2 5565   4.321   2.332   5.901
 1556SOL     OW 5566   4.019   1.178   0.213
 1556SOL    HW1 5567   3.971   1.226   0.287
 1556SOL    HW2 5568   3.956   1.161   0.138
 1557SOL     OW 5569   3.174   1.842   0.747
 1557SOL    HW1 5570   3.247   1.822   0.681
 1557SOL    HW2 5571   3.201   1.920   0.803
 1558SOL     OW 5572   6.055   1.511   4.568
 1558SOL    HW1 5573   6.027   1.415   4.566
 1558SOL    HW2 5574   6.028   1.553   4.654
 1559SOL     OW 5575   0.321   3.139   1.034
 1559SOL    HW1 5576   0.420   3.149   1.030
 1559SOL    HW2 5577   0.290   3.083   0.957
 1560SOL     OW 5578   2.610   1.123   6.872
 1560SOL    HW1 5579   2.661   1.054   6.924
 1560SOL    HW2 5580   2.556   1.178   6.934
 1561SOL     OW 5581   5.248   5.210   3.593
 1561SOL    HW1 5582   5.229   5.284   3.658
 1561SOL    HW2 5583   5.205   5.232   3.505
 1562SOL     OW 5584   3.790   6.571   1.884
 1562SOL    HW1 5585   3.745   6.609   1.964
 1562SOL    HW2 5586   3.875   6.621   1.866
 1563SOL     OW 5587   2.122   1.825   5.988
 1563SOL    HW1 5588   2.071   1.740   5.975
 1563SOL    HW2 5589   2.139   1.839   6.085
 1564SOL     OW 5590   1.438   2.364   2.525
 1564SOL    HW1 5591   1.508   2.432   2.545
 1564SOL    HW2 5592   1.416   2.366   2.427
 1565SOL     OW 5593   3.861   4.986   4.583
 1565SOL    HW1 5594   3.953   4.957   4.557
 1565SOL    HW2 5595   3.810   5.012   4.502
 1566SOL     OW 5596   6.067   5.601   4.882
 1566SOL    HW1 5597   6.022   5.518   4.848
 1566SOL    HW2 5598   6.121   5.642   4.809
 1567SOL     OW 5599   6.177   5.503   0.306
 1567SOL    HW1 5600   6.199   5.586   0.357
 1567SOL    HW2 5601   6.255   5.478   0.248
 1568SOL     OW 5602   2.305   6.434   2.883
 1568SOL    HW1 5603   2.262   6.499   2.822
 1568SOL    HW2 5604   2.235   6.378   2.928
 1569SOL     OW 5605   3.806   6.593   3.146
 1569SOL    HW1 5606   3.868   6.659   3.189
 1569SOL    HW2 5607   3.759   6.637   3.070
 1570SOL     OW 5608   1.582   6.620   0.053
 1570SOL    HW1 5609   1.499   6.574   0.083
 1570SOL    HW2 5610   1.604   6.694   0.117
 1571SOL     OW 5611   0.508   2.145   3.245
 1571SOL    HW1 5612   0.602   2.172   3.222
 1571SOL    HW2 5613   0.510   2.061   3.300
 1572SOL     OW 5614   1.835   5.351   2.220
 1572SOL    HW1 5615   1.846   5.450   2.223
 1572SOL    HW2 5616   1.918   5.310   2.181
 1573SOL     OW 5617   5.649   5.191   2.126
 1573SOL    HW1 5618   5.696   5.160   2.209
 1573SOL    HW2 5619   5.707   5.256   2.077
 1574SOL     OW 5620   6.718   2.803   3.085
 1574SOL    HW1 5621   6.652   2.747   3.135
 1574SOL    HW2 5622   6.809   2.762   3.094
 1575SOL     OW 5623   2.852   0.964   1.983
 1575SOL    HW1 5624   2.882   1.037   2.045
 1575SOL    HW2 5625   2.841   1.002   1.891
 1576SOL     OW 5626   0.816   6.837   3.473
 1576SOL    HW1 5627   0.880   6.908   3.504
 1576SOL    HW2 5628   0.770   6.868   3.390
 1577SOL     OW 5629   2.165   0.681   5.436
 1577SOL    HW1 5630   2.262   0.670   5.455
 1577SOL    HW2 5631   2.112   0.660   5.519
 1578SOL     OW 5632   4.938   1.082   6.005
 1578SOL    HW1 5633   4.868   1.152   6.019
 1578SOL    HW2 5634   4.941   1.058   5.908
 1579SOL     OW 5635   0.030   1.887   1.701
 1579SOL    HW1 5636   0.097   1.942   1.751
 1579SOL    HW2 5637   7.001   1.826   1.764
 1580SOL     OW 5638   3.478   4.124   3.290
 1580SOL    HW1 5639   3.474   4.035   3.245
 1580SOL    HW2 5640   3.554   4.177   3.253
 1581SOL     OW 5641   6.976   4.393   5.509
 1581SOL    HW1 5642   6.889   4.343   5.505
 1581SOL    HW2 5643   0.027   4.338   5.557
 1582SOL     OW 5644   3.247   6.426   4.731
 1582SOL    HW1 5645   3.316   6.382   4.788
 1582SOL    HW2 5646   3.285   6.443   4.640
 1583SOL     OW 5647   1.256   5.792   4.053
 1583SOL    HW1 5648   1.166   5.756   4.077
 1583SOL    HW2 5649   1.315   5.793   4.134
 1584SOL     OW 5650   0.883   5.303   6.075
 1584SOL    HW1 5651   0.885   5.253   5.989
 1584SOL    HW2 5652   0.808   5.269   6.132
 1585SOL     OW 5653   4.178   1.935   2.527
 1585SOL    HW1 5654   4.233   1.941   2.610
 1585SOL    HW2 5655   4.106   2.004   2.528
 1586SOL     OW 5656   3.479   5.090   2.894
 1586SOL    HW1 5657   3.400   5.131   2.850
 1586SOL    HW2 5658   3.526   5.160   2.949
 1587SOL     OW 5659   2.292   5.079   5.085
 1587SOL    HW1 5660   2.233   5.142   5.034
 1587SOL    HW2 5661   2.273   5.088   5.183
 1588SOL     OW 5662   4.811   0.874   1.879
 1588SOL    HW1 5663   4.764   0.900   1.963
 1588SOL    HW2 5664   4.909   0.891   1.889
 1589SOL     OW 5665   0.436   3.341   2.353
 1589SOL    HW1 5666   0.354   3.398   2.343
 1589SOL    HW2 5667   0.460   3.335   2.450
 1590SOL     OW 5668   5.251   0.779   3.861
 1590SOL    HW1 5669   5.153   0.776   3.880
 1590SOL    HW2 5670   5.298   0.829   3.933
 1591SOL     OW 5671   6.867   6.165   0.829
 1591SOL    HW1 5672   6.859   6.077   0.875
 1591SOL    HW2 5673   6.888   6.236   0.896
 1592SOL     OW 5674   2.396   3.576   6.777
 1592SOL    HW1 5675   2.408   3.566   6.678
 1592SOL    HW2 5676   2.298   3.571   6.799
 1593SOL     OW 5677   0.831   6.781   5.890
 1593SOL    HW1 5678   0.924   6.768   5.925
 1593SOL    HW2 5679   0.817   6.877   5.867
 1594SOL     OW 5680   0.485   6.079   1.995
 1594SOL    HW1 5681   0.495   6.175   2.020
 1594SOL    HW2 5682   0.458   6.025   2.075
 1595SOL     OW 5683   1.096   4.808   0.878
 1595SOL    HW1 5684   1.025   4.850   0.935
 1595SOL    HW2 5685   1.137   4.731   0.928
 1596SOL     OW 5686   6.631   3.103   2.732
 1596SOL    HW1 5687   6.727   3.107   2.759
 1596SOL    HW2 5688   6.584   3.032   2.786
 1597SOL     OW 5689   1.300   6.172   1.043
 1597SOL    HW1 5690   1.243   6.188   1.124
 1597SOL    HW2 5691   1.266   6.228   0.967
 1598SOL     OW 5692   1.169   4.930   6.129
 1598SOL    HW1 5693   1.242   4.955   6.193
 1598SOL    HW2 5694   1.116   4.854   6.166
 1599SOL     OW 5695   5.318   4.936   5.267
 1599SOL    HW1 5696   5.315   4.919   5.169
 1599SOL    HW2 5697   5.394   4.996   5.290
 1600SOL     OW 5698   2.931   1.536   2.896
 1600SOL    HW1 5699   3.022   1.574   2.878
 1600SOL    HW2 5700   2.941   1.447   2.940
 1601SOL     OW 5701   6.910   6.974   3.962
 1601SOL    HW1 5702   6.983   6.908   3.942
 1601SOL    HW2 5703   6.949   0.048   3.969
 1602SOL     OW 5704   4.377   4.990   4.008
 1602SOL    HW1 5705   4.282   5.021   4.007
 1602SOL    HW2 5706   4.389   4.920   4.079
 1603SOL     OW 5707   3.086   5.214   3.236
 1603SOL    HW1 5708   3.157   5.269   3.281
 1603SOL    HW2 5709   3.090   5.121   3.271
 1604SOL     OW 5710   4.323   4.656   1.541
 1604SOL    HW1 5711   4.247   4.717   1.562
 1604SOL    HW2 5712   4.312   4.620   1.448
 1605SOL     OW 5713   6.944   5.680   1.723
 1605SOL    HW1 5714   6.899   5.725   1.801
 1605SOL    HW2 5715   6.880   5.676   1.646
 1606SOL     OW 5716   3.812   5.590   5.655
 1606SOL    HW1 5717   3.911   5.605   5.660
 1606SOL    HW2 5718   3.793   5.499   5.618
 1607SOL     OW 5719   4.284   0.256   0.740
 1607SOL    HW1 5720   4.326   0.267   0.831
 1607SOL    HW2 5721   4.232   0.338   0.718
 1608SOL     OW 5722   6.631   0.937   2.548
 1608SOL    HW1 5723   6.723   0.975   2.555
 1608SOL    HW2 5724   6.602   0.902   2.637
 1609SOL     OW 5725   3.475   6.723   0.428
 1609SOL    HW1 5726   3.497   6.632   0.461
 1609SOL    HW2 5727   3.376   6.733   0.420
 1610SOL     OW 5728   5.287   6.035   0.396
 1610SOL    HW1 5729   5.384   6.012   0.387
 1610SOL    HW2 5730   5.257   6.017   0.489
 1611SOL     OW 5731   2.409   3.668   0.589
 1611SOL    HW1 5732   2.367   3.584   0.623
 1611SOL    HW2 5733   2.359   3.701   0.508
 1612SOL     OW 5734   3.921   6.883   1.218
 1612SOL    HW1 5735   3.875   6.925   1.139
 1612SOL    HW2 5736   3.925   6.949   1.292
 1613SOL     OW 5737   1.596   6.024   1.792
 1613SOL    HW1 5738   1.552   5.958   1.852
 1613SOL    HW2 5739   1.565   6.116   1.815
 1614SOL     OW 5740   5.920   1.770   6.225
 1614SOL    HW1 5741   5.833   1.768   6.275
 1614SOL    HW2 5742   5.980   1.840   6.263
 1615SOL     OW 5743   6.029   6.239   0.264
 1615SOL    HW1 5744   6.093   6.200   0.331
 1615SOL    HW2 5745   5.997   6.328   0.296
 1616SOL     OW 5746   4.153   0.610   4.260
 1616SOL    HW1 5747   4.095   0.528   4.263
 1616SOL    HW2 5748   4.199   0.621   4.348
 1617SOL     OW 5749   5.484   6.338   3.029
 1617SOL    HW1 5750   5.570   6.379   3.000
 1617SOL    HW2 5751   5.500   6.242   3.055
 1618SOL     OW 5752   1.966   6.699   3.104
 1618SOL    HW1 5753   2.055   6.656   3.123
 1618SOL    HW2 5754   1.925   6.728   3.190
 1619SOL     OW 5755   0.082   4.846   0.233
 1619SOL    HW1 5756   0.133   4.932   0.230
 1619SOL    HW2 5757   0.072   4.817   0.328
 1620SOL     OW 5758   3.629   4.646   1.493
 1620SOL    HW1 5759   3.707   4.673   1.549
 1620SOL    HW2 5760   3.546   4.647   1.548
 1621SOL     OW 5761   6.249   0.364   1.591
 1621SOL    HW1 5762   6.149   0.370   1.586
 1621SOL    HW2 5763   6.276   0.271   1.615
 1622SOL     OW 5764   0.804   3.604   5.365
 1622SOL    HW1 5765   0.782   3.698   5.390
 1622SOL    HW2 5766   0.856   3.603   5.280
 1623SOL     OW 5767   0.454   2.634   4.835
 1623SOL    HW1 5768   0.547   2.638   4.800
 1623SOL    HW2 5769   0.449   2.678   4.924
 1624SOL     OW 5770   4.271   0.956   5.544
 1624SOL    HW1 5771   4.278   1.051   5.573
 1624SOL    HW2 5772   4.323   0.898   5.606
 1625SOL     OW 5773   1.602   4.871   6.765
 1625SOL    HW1 5774   1.515   4.822   6.761
 1625SOL    HW2 5775   1.671   4.813   6.809
 1626SOL     OW 5776   3.223   1.185   0.808
 1626SOL    HW1 5777   3.287   1.142   0.871
 1626SOL    HW2 5778   3.217   1.131   0.724
 1627SOL     OW 5779   5.434   2.813   3.629
 1627SOL    HW1 5780   5.498   2.740   3.605
 1627SOL    HW2 5781   5.429   2.821   3.728
 1628SOL     OW 5782   4.384   5.683   0.096
 1628SOL    HW1 5783   4.336   5.618   0.037
 1628SOL    HW2 5784   4.318   5.746   0.137
 1629SOL     OW 5785   2.379   1.013   3.704
 1629SOL    HW1 5786   2.410   0.979   3.792
 1629SOL    HW2 5787   2.362   1.112   3.710
 1630SOL     OW 5788   0.288   4.655   5.531
 1630SOL    HW1 5789   0.347   4.617   5.459
 1630SOL    HW2 5790   0.195   4.662   5.496
 1631SOL     OW 5791   0.641   3.507   0.247
 1631SOL    HW1 5792   0.670   3.585   0.192
 1631SOL    HW2 5793   0.567   3.534   0.308
 1632SOL     OW 5794   4.856   2.950   2.668
 1632SOL    HW1 5795   4.825   2.874   2.611
 1632SOL    HW2 5796   4.907   2.914   2.747
 1633SOL     OW 5797   4.814   3.957   4.448
 1633SOL    HW1 5798   4.841   4.032   4.388
 1633SOL    HW2 5799   4.806   3.873   4.396
 1634SOL     OW 5800   4.413   6.788   4.443
 1634SOL    HW1 5801   4.510   6.778   4.420
 1634SOL    HW2 5802   4.392   6.885   4.456
 1635SOL     OW 5803   0.324   5.223   6.625
 1635SOL    HW1 5804   0.325   5.289   6.700
 1635SOL    HW2 5805   0.395   5.247   6.559
 1636SOL     OW 5806   3.050   4.815   1.518
 1636SOL    HW1 5807   2.998   4.737   1.484
 1636SOL    HW2 5808   3.085   4.795   1.609
 1637SOL     OW 5809   0.136   6.550   3.714
 1637SOL    HW1 5810   0.197   6.520   3.787
 1637SOL    HW2 5811   0.070   6.616   3.751
 1638SOL     OW 5812   0.913   3.377   2.424
 1638SOL    HW1 5813   0.878   3.454   2.476
 1638SOL    HW2 5814   0.837   3.329   2.380
 1639SOL     OW 5815   5.429   5.158   1.526
 1639SOL    HW1 5816   5.521   5.180   1.557
 1639SOL    HW2 5817   5.403   5.068   1.560
 1640SOL     OW 5818   6.187   0.752   0.562
 1640SOL    HW1 5819   6.257   0.795   0.619
 1640SOL    HW2 5820   6.192   0.790   0.469
 1641SOL     OW 5821   6.117   1.697   3.809
 1641SOL    HW1 5822   6.144   1.720   3.903
 1641SOL    HW2 5823   6.127   1.778   3.751
 1642SOL     OW 5824   6.497   3.343   6.878
 1642SOL    HW1 5825   6.593   3.327   6.855
 1642SOL    HW2 5826   6.474   3.290   6.960
 1643SOL     OW 5827   2.922   4.797   3.371
 1643SOL    HW1 5828   2.863   4.718   3.386
 1643SOL    HW2 5829   2.977   4.814   3.452
 1644SOL     OW 5830   5.619   3.511   6.714
 1644SOL    HW1 5831   5.718   3.518   6.701
 1644SOL    HW2 5832   5.582   3.601   6.737
 1645SOL     OW 5833   2.779   5.706   6.336
 1645SOL    HW1 5834   2.859   5.647   6.329
 1645SOL    HW2 5835   2.804   5.791   6.382
 1646SOL     OW 5836   2.791   6.795   0.593
 1646SOL    HW1 5837   2.737   6.713   0.612
 1646SOL    HW2 5838   2.860   6.806   0.664
 1647SOL     OW 5839   5.866   2.265   4.233
 1647SOL    HW1 5840   5.895   2.250   4.327
 1647SOL    HW2 5841   5.801   2.194   4.206
 1648SOL     OW 5842   5.151   5.956   6.879
 1648SOL    HW1 5843   5.228   5.917   6.829
 1648SOL    HW2 5844   5.098   6.014   6.818
 1649SOL     OW 5845   3.399   1.551   4.245
 1649SOL    HW1 5846   3.470   1.523   4.309
 1649SOL    HW2 5847   3.421   1.641   4.209
 1650SOL     OW 5848   0.566   5.727   4.893
 1650SOL    HW1 5849   0.494   5.795   4.906
 1650SOL    HW2 5850   0.539   5.641   4.938
 1651SOL     OW 5851   0.369   2.457   1.716
 1651SOL    HW1 5852   0.277   2.476   1.680
 1651SOL    HW2 5853   0.427   2.538   1.703
 1652SOL     OW 5854   1.621   3.135   2.620
 1652SOL    HW1 5855   1.659   3.134   2.713
 1652SOL    HW2 5856   1.524   3.110   2.624
 1653SOL     OW 5857   0.977   6.457   0.486
 1653SOL    HW1 5858   0.992   6.360   0.468
 1653SOL    HW2 5859   0.990   6.476   0.583
 1654SOL     OW 5860   6.728   3.252   1.621
 1654SOL    HW1 5861   6.634   3.228   1.596
 1654SOL    HW2 5862   6.745   3.348   1.600
 1655SOL     OW 5863   6.891   2.254   4.478
 1655SOL    HW1 5864   6.834   2.262   4.560
 1655SOL    HW2 5865   6.873   2.166   4.434
 1656SOL     OW 5866   2.006   5.140   2.898
 1656SOL    HW1 5867   1.954   5.204   2.840
 1656SOL    HW2 5868   1.959   5.052   2.900
 1657SOL     OW 5869   5.815   0.392   4.332
 1657SOL    HW1 5870   5.913   0.410   4.322
 1657SOL    HW2 5871   5.766   0.478   4.339
 1658SOL     OW 5872   6.024   1.121   1.020
 1658SOL    HW1 5873   5.979   1.034   1.043
 1658SOL    HW2 5874   5.958   1.196   1.028
 1659SOL     OW 5875   3.410   0.391   0.121
 1659SOL    HW1 5876   3.385   0.325   0.051
 1659SOL    HW2 5877   3.342   0.390   0.194
 1660SOL     OW 5878   1.796   6.269   2.199
 1660SOL    HW1 5879   1.810   6.326   2.118
 1660SOL    HW2 5880   1.869   6.201   2.205
 1661SOL     OW 5881   1.744   6.646   1.608
 1661SOL    HW1 5882   1.834   6.690   1.613
 1661SOL    HW2 5883   1.692   6.683   1.531
 1662SOL     OW 5884   0.363   1.040   4.315
 1662SOL    HW1 5885   0.387   0.981   4.392
 1662SOL    HW2 5886   0.442   1.054   4.257
 1663SOL     OW 5887   4.464   5.376   3.426
 1663SOL    HW1 5888   4.421   5.394   3.337
 1663SOL    HW2 5889   4.560   5.402   3.423
 1664SOL     OW 5890   2.083   6.006   4.877
 1664SOL    HW1 5891   2.127   5.929   4.832
 1664SOL    HW2 5892   2.138   6.089   4.862
 1665SOL     OW 5893   6.648   3.464   1.934
 1665SOL    HW1 5894   6.696   3.531   1.990
 1665SOL    HW2 5895   6.695   3.376   1.940
 1666SOL     OW 5896   5.778   0.707   0.115
 1666SOL    HW1 5897   5.775   0.615   0.075
 1666SOL    HW2 5898   5.804   0.773   0.045
 1667SOL     OW 5899   0.172   6.262   1.545
 1667SOL    HW1 5900   0.074   6.269   1.562
 1667SOL    HW2 5901   0.206   6.174   1.579
 1668SOL     OW 5902   4.693   5.279   3.703
 1668SOL    HW1 5903   4.631   5.244   3.773
 1668SOL    HW2 5904   4.713   5.376   3.721
 1669SOL     OW 5905   6.882   4.101   5.881
 1669SOL    HW1 5906   6.903   4.193   5.848
 1669SOL    HW2 5907   6.787   4.078   5.859
 1670SOL     OW 5908   6.794   4.389   5.166
 1670SOL    HW1 5909   6.853   4.430   5.096
 1670SOL    HW2 5910   6.840   4.309   5.206
 1671SOL     OW 5911   5.659   1.809   3.594
 1671SOL    HW1 5912   5.602   1.810   3.676
 1671SOL    HW2 5913   5.707   1.722   3.588
 1672SOL     OW 5914   2.317   3.423   0.709
 1672SOL    HW1 5915   2.382   3.405   0.783
 1672SOL    HW2 5916   2.288   3.337   0.669
 1673SOL     OW 5917   1.381   1.882   4.699
 1673SOL    HW1 5918   1.322   1.909   4.623
 1673SOL    HW2 5919   1.406   1.785   4.688
 1674SOL     OW 5920   0.492   3.255   2.101
 1674SOL    HW1 5921   0.511   3.313   2.022
 1674SOL    HW2 5922   0.502   3.309   2.185
 1675SOL     OW 5923   4.420   0.405   0.247
 1675SOL    HW1 5924   4.469   0.487   0.275
 1675SOL    HW2 5925   4.441   0.331   0.311
 1676SOL     OW 5926   2.290   2.760   2.000
 1676SOL    HW1 5927   2.319   2.759   1.905
 1676SOL    HW2 5928   2.323   2.676   2.045
 1677SOL     OW 5929   3.673   3.866   3.819
 1677SOL    HW1 5930   3.626   3.953   3.808
 1677SOL    HW2 5931   3.765   3.881   3.855
 1678SOL     OW 5932   6.877   4.752   2.597
 1678SOL    HW1 5933   6.950   4.793   2.542
 1678SOL    HW2 5934   6.788   4.785   2.564
 1679SOL     OW 5935   2.192   1.195   4.680
 1679SOL    HW1 5936   2.237   1.248   4.751
 1679SOL    HW2 5937   2.104   1.237   4.657
 1680SOL     OW 5938   0.469   3.640   5.673
 1680SOL    HW1 5939   0.494   3.734   5.649
 1680SOL    HW2 5940   0.370   3.631   5.673
 1681SOL     OW 5941   0.464   5.407   6.258
 1681SOL    HW1 5942   0.365   5.399   6.250
 1681SOL    HW2 5943   0.502   5.439   6.171
 1682SOL     OW 5944   1.124   0.426   5.792
 1682SOL    HW1 5945   1.193   0.369   5.836
 1682SOL    HW2 5946   1.118   0.402   5.695
 1683SOL     OW 5947   5.557   5.346   2.879
 1683SOL    HW1 5948   5.518   5.254   2.874
 1683SOL    HW2 5949   5.534   5.387   2.967
 1684SOL     OW 5950   0.387   5.908   2.225
 1684SOL    HW1 5951   0.453   5.941   2.293
 1684SOL    HW2 5952   0.424   5.827   2.180
 1685SOL     OW 5953   1.804   1.292   5.409
 1685SOL    HW1 5954   1.887   1.296   5.464
 1685SOL    HW2 5955   1.724   1.308   5.467
 1686SOL     OW 5956   2.202   6.397   4.161
 1686SOL    HW1 5957   2.139   6.349   4.222
 1686SOL    HW2 5958   2.169   6.490   4.145
 1687SOL     OW 5959   1.508   2.819   1.904
 1687SOL    HW1 5960   1.460   2.905   1.920
 1687SOL    HW2 5961   1.502   2.762   1.986
 1688SOL     OW 5962   2.232   1.706   3.691
 1688SOL    HW1 5963   2.155   1.718   3.629
 1688SOL    HW2 5964   2.199   1.676   3.781
 1689SOL     OW 5965   6.442   1.154   2.586
 1689SOL    HW1 5966   6.385   1.078   2.618
 1689SOL    HW2 5967   6.530   1.119   2.555
 1690SOL     OW 5968   1.151   2.459   4.850
 1690SOL    HW1 5969   1.224   2.409   4.803
 1690SOL    HW2 5970   1.095   2.507   4.783
 1691SOL     OW 5971   5.452   3.056   4.261
 1691SOL    HW1 5972   5.485   3.123   4.328
 1691SOL    HW2 5973   5.518   3.047   4.187
 1692SOL     OW 5974   4.253   6.225   1.302
 1692SOL    HW1 5975   4.170   6.193   1.348
 1692SOL    HW2 5976   4.253   6.325   1.300
 1693SOL     OW 5977   6.985   2.332   3.270
 1693SOL    HW1 5978   6.941   2.326   3.359
 1693SOL    HW2 5979   0.040   2.400   3.273
 1694SOL     OW 5980   6.543   1.902   3.732
 1694SOL    HW1 5981   6.527   1.805   3.748
 1694SOL    HW2 5982   6.589   1.914   3.644
 1695SOL     OW 5983   3.813   0.784   6.286
 1695SOL    HW1 5984   3.756   0.849   6.235
 1695SOL    HW2 5985   3.776   0.692   6.277
 1696SOL     OW 5986   3.417   5.853   1.234
 1696SOL    HW1 5987   3.484   5.928   1.240
 1696SOL    HW2 5988   3.465   5.765   1.238
 1697SOL     OW 5989   6.497   1.642   0.623
 1697SOL    HW1 5990   6.553   1.579   0.568
 1697SOL    HW2 5991   6.555   1.691   0.687
 1698SOL     OW 5992   3.807   0.015   1.024
 1698SOL    HW1 5993   3.725   0.063   0.993
 1698SOL    HW2 5994   3.873   0.010   0.950
 1699SOL     OW 5995   2.158   1.619   6.847
 1699SOL    HW1 5996   2.096   1.697   6.836
 1699SOL    HW2 5997   2.237   1.631   6.787
 1700SOL     OW 5998   6.285   4.314   3.581
 1700SOL    HW1 5999   6.280   4.215   3.569
 1700SOL    HW2 6000   6.268   4.336   3.678
 1701SOL     OW 6001   5.549   5.748   5.674
 1701SOL    HW1 6002   5.502   5.688   5.738
 1701SOL    HW2 6003   5.531   5.718   5.580
 1702SOL     OW 6004   6.354   1.434   0.958
 1702SOL    HW1 6005   6.364   1.503   1.030
 1702SOL    HW2 6006   6.414   1.357   0.977
 1703SOL     OW 6007   3.518   1.727   6.841
 1703SOL    HW1 6008   3.535   1.818   6.800
 1703SOL    HW2 6009   3.420   1.714   6.852
 1704SOL     OW 6010   0.842   2.467   0.351
 1704SOL    HW1 6011   0.884   2.497   0.436
 1704SOL    HW2 6012   0.766   2.405   0.372
 1705SOL     OW 6013   3.262   2.192   1.703
 1705SOL    HW1 6014   3.231   2.260   1.637
 1705SOL    HW2 6015   3.189   2.172   1.768
 1706SOL     OW 6016   4.996   1.332   1.695
 1706SOL    HW1 6017   5.086   1.347   1.734
 1706SOL    HW2 6018   4.926   1.346   1.765
 1707SOL     OW 6019   4.453   2.371   2.815
 1707SOL    HW1 6020   4.425   2.312   2.891
 1707SOL    HW2 6021   4.389   2.358   2.739
 1708SOL     OW 6022   4.606   5.781   1.618
 1708SOL    HW1 6023   4.687   5.723   1.608
 1708SOL    HW2 6024   4.523   5.727   1.607
 1709SOL     OW 6025   3.429   6.727   3.055
 1709SOL    HW1 6026   3.346   6.715   3.000
 1709SOL    HW2 6027   3.403   6.751   3.149
 1710SOL     OW 6028   4.247   4.871   3.115
 1710SOL    HW1 6029   4.291   4.810   3.181
 1710SOL    HW2 6030   4.272   4.966   3.134
 1711SOL     OW 6031   1.731   5.669   4.642
 1711SOL    HW1 6032   1.643   5.717   4.640
 1711SOL    HW2 6033   1.805   5.736   4.647
 1712SOL     OW 6034   6.596   1.903   4.919
 1712SOL    HW1 6035   6.577   1.834   4.850
 1712SOL    HW2 6036   6.678   1.877   4.971
 1713SOL     OW 6037   4.760   2.171   2.264
 1713SOL    HW1 6038   4.823   2.138   2.194
 1713SOL    HW2 6039   4.675   2.118   2.260
 1714SOL     OW 6040   3.953   1.671   5.817
 1714SOL    HW1 6041   4.016   1.594   5.825
 1714SOL    HW2 6042   4.002   1.757   5.836
 1715SOL     OW 6043   2.270   6.135   3.584
 1715SOL    HW1 6044   2.327   6.074   3.640
 1715SOL    HW2 6045   2.207   6.185   3.643
 1716SOL     OW 6046   4.013   6.843   4.100
 1716SOL    HW1 6047   3.986   6.893   4.183
 1716SOL    HW2 6048   4.112   6.828   4.102
 1717SOL     OW 6049   3.405   5.996   4.966
 1717SOL    HW1 6050   3.479   6.050   5.006
 1717SOL    HW2 6051   3.351   5.954   5.039
 1718SOL     OW 6052   2.804   1.466   2.284
 1718SOL    HW1 6053   2.842   1.413   2.359
 1718SOL    HW2 6054   2.788   1.406   2.206
 1719SOL     OW 6055   1.935   3.247   0.961
 1719SOL    HW1 6056   1.854   3.302   0.983
 1719SOL    HW2 6057   1.909   3.172   0.901
 1720SOL     OW 6058   6.924   3.186   6.483
 1720SOL    HW1 6059   6.858   3.141   6.542
 1720SOL    HW2 6060   7.011   3.136   6.487
 1721SOL     OW 6061   2.006   6.736   1.690
 1721SOL    HW1 6062   2.034   6.829   1.712
 1721SOL    HW2 6063   2.042   6.673   1.758
 1722SOL     OW 6064   3.811   1.568   3.670
 1722SOL    HW1 6065   3.794   1.665   3.687
 1722SOL    HW2 6066   3.810   1.551   3.572
 1723SOL     OW 6067   5.304   2.540   0.037
 1723SOL    HW1 6068   5.292   2.635   0.008
 1723SOL    HW2 6069   5.400   2.513   0.023
 1724SOL     OW 6070   0.530   2.838   2.232
 1724SOL    HW1 6071   0.515   2.740   2.215
 1724SOL    HW2 6072   0.456   2.890   2.190
 1725SOL     OW 6073   1.636   4.733   6.321
 1725SOL    HW1 6074   1.618   4.812   6.379
 1725SOL    HW2 6075   1.729   4.700   6.336
 1726SOL     OW 6076   5.389   4.067   4.262
 1726SOL    HW1 6077   5.387   4.153   4.211
 1726SOL    HW2 6078   5.353   4.083   4.354
 1727SOL     OW 6079   4.097   3.761   3.708
 1727SOL    HW1 6080   4.016   3.714   3.674
 1727SOL    HW2 6081   4.162   3.774   3.633
 1728SOL     OW 6082   5.854   4.957   5.441
 1728SOL    HW1 6083   5.892   4.975   5.532
 1728SOL    HW2 6084   5.769   4.906   5.451
 1729SOL     OW 6085   2.102   3.668   3.326
 1729SOL    HW1 6086   2.136   3.754   3.362
 1729SOL    HW2 6087   2.112   3.667   3.226
 1730SOL     OW 6088   2.519   0.515   4.997
 1730SOL    HW1 6089   2.496   0.612   5.003
 1730SOL    HW2 6090   2.488   0.479   4.909
 1731SOL     OW 6091   0.048   4.340   3.644
 1731SOL    HW1 6092   0.047   4.421   3.585
 1731SOL    HW2 6093   0.079   4.261   3.590
 1732SOL     OW 6094   2.191   4.751   5.866
 1732SOL    HW1 6095   2.205   4.827   5.803
 1732SOL    HW2 6096   2.093   4.739   5.884
 1733SOL     OW 6097   1.705   4.110   1.583
 1733SOL    HW1 6098   1.696   4.013   1.560
 1733SOL    HW2 6099   1.630   4.161   1.541
 1734SOL     OW 6100   5.036   2.744   1.186
 1734SOL    HW1 6101   5.109   2.778   1.246
 1734SOL    HW2 6102   5.014   2.650   1.211
 1735SOL     OW 6103   4.570   5.372   6.464
 1735SOL    HW1 6104   4.658   5.342   6.427
 1735SOL    HW2 6105   4.555   5.327   6.553
 1736SOL     OW 6106   3.864   3.612   0.961
 1736SOL    HW1 6107   3.847   3.694   0.906
 1736SOL    HW2 6108   3.955   3.575   0.939
 1737SOL     OW 6109   5.156   6.876   4.582
 1737SOL    HW1 6110   5.201   6.965   4.583
 1737SOL    HW2 6111   5.091   6.869   4.658
 1738SOL     OW 6112   2.781   2.296   4.454
 1738SOL    HW1 6113   2.696   2.277   4.406
 1738SOL    HW2 6114   2.776   2.258   4.546
 1739SOL     OW 6115   0.114   1.368   4.406
 1739SOL    HW1 6116   0.097   1.297   4.474
 1739SOL    HW2 6117   0.212   1.389   4.403
 1740SOL     OW 6118   0.270   2.351   5.383
 1740SOL    HW1 6119   0.350   2.348   5.443
 1740SOL    HW2 6120   0.290   2.302   5.298
 1741SOL     OW 6121   2.377   0.989   4.292
 1741SOL    HW1 6122   2.283   0.955   4.284
 1741SOL    HW2 6123   2.389   1.034   4.380
 1742SOL     OW 6124   5.711   0.254   5.278
 1742SOL    HW1 6125   5.649   0.315   5.328
 1742SOL    HW2 6126   5.684   0.250   5.182
 1743SOL     OW 6127   0.792   1.430   2.545
 1743SOL    HW1 6128   0.716   1.380   2.587
 1743SOL    HW2 6129   0.877   1.407   2.593
 1744SOL     OW 6130   6.102   3.622   3.160
 1744SOL    HW1 6131   6.146   3.683   3.094
 1744SOL    HW2 6132   6.170   3.559   3.197
 1745SOL     OW 6133   5.697   6.364   2.583
 1745SOL    HW1 6134   5.726   6.294   2.647
 1745SOL    HW2 6135   5.767   6.375   2.512
 1746SOL     OW 6136   1.718   4.599   4.155
 1746SOL    HW1 6137   1.723   4.699   4.159
 1746SOL    HW2 6138   1.753   4.567   4.067
 1747SOL     OW 6139   4.117   1.282   2.627
 1747SOL    HW1 6140   4.080   1.332   2.549
 1747SOL    HW2 6141   4.081   1.189   2.628
 1748SOL     OW 6142   6.877   1.919   4.595
 1748SOL    HW1 6143   6.942   1.866   4.540
 1748SOL    HW2 6144   6.792   1.931   4.545
 1749SOL     OW 6145   1.888   6.988   5.878
 1749SOL    HW1 6146   1.939   0.047   5.917
 1749SOL    HW2 6147   1.882   6.999   5.779
 1750SOL     OW 6148   5.563   0.067   4.204
 1750SOL    HW1 6149   5.540   0.032   4.295
 1750SOL    HW2 6150   5.568   0.167   4.207
 1751SOL     OW 6151   4.803   1.659   4.762
 1751SOL    HW1 6152   4.853   1.579   4.793
 1751SOL    HW2 6153   4.775   1.645   4.667
 1752SOL     OW 6154   6.150   0.792   2.002
 1752SOL    HW1 6155   6.077   0.833   1.947
 1752SOL    HW2 6156   6.199   0.724   1.948
 1753SOL     OW 6157   6.845   0.589   1.494
 1753SOL    HW1 6158   6.903   0.564   1.571
 1753SOL    HW2 6159   6.886   0.556   1.409
 1754SOL     OW 6160   2.132   5.046   6.311
 1754SOL    HW1 6161   2.066   5.008   6.376
 1754SOL    HW2 6162   2.163   5.136   6.344
 1755SOL     OW 6163   6.771   5.100   6.627
 1755SOL    HW1 6164   6.869   5.102   6.649
 1755SOL    HW2 6165   6.739   5.005   6.627
 1756SOL     OW 6166   4.170   5.457   6.154
 1756SOL    HW1 6167   4.230   5.497   6.085
 1756SOL    HW2 6168   4.224   5.435   6.236
 1757SOL     OW 6169   3.512   5.574   5.226
 1757SOL    HW1 6170   3.543   5.508   5.158
 1757SOL    HW2 6171   3.511   5.532   5.316
 1758SOL     OW 6172   1.796   1.113   3.946
 1758SOL    HW1 6173   1.703   1.076   3.952
 1758SOL    HW2 6174   1.793   1.212   3.954
 1759SOL     OW 6175   2.449   6.615   5.471
 1759SOL    HW1 6176   2.509   6.630   5.550
 1759SOL    HW2 6177   2.430   6.518   5.461
 1760SOL     OW 6178   6.074   0.897   3.698
 1760SOL    HW1 6179   6.028   0.980   3.727
 1760SOL    HW2 6180   6.173   0.907   3.711
 1761SOL     OW 6181   0.724   1.308   1.901
 1761SOL    HW1 6182   0.650   1.371   1.924
 1761SOL    HW2 6183   0.739   1.308   1.802
 1762SOL     OW 6184   0.094   1.811   4.699
 1762SOL    HW1 6185   0.164   1.819   4.628
 1762SOL    HW2 6186   0.039   1.895   4.701
 1763SOL     OW 6187   0.893   4.998   4.442
 1763SOL    HW1 6188   0.968   4.993   4.508
 1763SOL    HW2 6189   0.910   4.933   4.368
 1764SOL     OW 6190   1.642   3.202   2.083
 1764SOL    HW1 6191   1.698   3.212   2.000
 1764SOL    HW2 6192   1.627   3.292   2.124
 1765SOL     OW 6193   3.390   0.819   1.736
 1765SOL    HW1 6194   3.327   0.896   1.744
 1765SOL    HW2 6195   3.413   0.784   1.827
 1766SOL     OW 6196   5.709   4.340   3.887
 1766SOL    HW1 6197   5.651   4.346   3.805
 1766SOL    HW2 6198   5.758   4.426   3.899
 1767SOL     OW 6199   0.692   4.462   3.854
 1767SOL    HW1 6200   0.638   4.536   3.894
 1767SOL    HW2 6201   0.658   4.374   3.886
 1768SOL     OW 6202   3.468   1.321   0.191
 1768SOL    HW1 6203   3.492   1.395   0.129
 1768SOL    HW2 6204   3.534   1.246   0.181
 1769SOL     OW 6205   5.890   1.289   0.020
 1769SOL    HW1 6206   5.892   1.389   0.024
 1769SOL    HW2 6207   5.807   1.256   0.064
 1770SOL     OW 6208   0.390   4.663   5.109
 1770SOL    HW1 6209   0.315   4.702   5.163
 1770SOL    HW2 6210   0.456   4.735   5.087
 1771SOL     OW 6211   1.667   5.357   0.647
 1771SOL    HW1 6212   1.685   5.260   0.632
 1771SOL    HW2 6213   1.591   5.368   0.711
 1772SOL     OW 6214   3.587   5.677   3.520
 1772SOL    HW1 6215   3.539   5.662   3.434
 1772SOL    HW2 6216   3.523   5.664   3.596
 1773SOL     OW 6217   2.067   2.181   5.951
 1773SOL    HW1 6218   2.088   2.138   6.040
 1773SOL    HW2 6219   2.017   2.266   5.967
 1774SOL     OW 6220   5.411   6.623   1.462
 1774SOL    HW1 6221   5.491   6.563   1.468
 1774SOL    HW2 6222   5.415   6.691   1.534
 1775SOL     OW 6223   1.923   5.484   6.024
 1775SOL    HW1 6224   1.891   5.527   6.108
 1775SOL    HW2 6225   1.844   5.456   5.969
 1776SOL     OW 6226   5.053   0.234   6.161
 1776SOL    HW1 6227   5.134   0.266   6.210
 1776SOL    HW2 6228   4.986   0.198   6.226
 1777SOL     OW 6229   3.201   6.925   6.493
 1777SOL    HW1 6230   3.280   6.974   6.530
 1777SOL    HW2 6231   3.192   6.837   6.540
 1778SOL     OW 6232   4.800   2.187   4.312
 1778SOL    HW1 6233   4.753   2.272   4.289
 1778SOL    HW2 6234   4.882   2.178   4.255
 1779SOL     OW 6235   5.299   0.369   5.874
 1779SOL    HW1 6236   5.243   0.433   5.927
 1779SOL    HW2 6237   5.243   0.291   5.846
 1780SOL     OW 6238   1.554   3.348   5.671
 1780SOL    HW1 6239   1.540   3.443   5.699
 1780SOL    HW2 6240   1.614   3.302   5.736
 1781SOL     OW 6241   5.567   6.481   5.050
 1781SOL    HW1 6242   5.591   6.563   5.104
 1781SOL    HW2 6243   5.550   6.405   5.112
 1782SOL     OW 6244   2.324   1.073   2.842
 1782SOL    HW1 6245   2.310   1.054   2.744
 1782SOL    HW2 6246   2.377   1.157   2.852
 1783SOL     OW 6247   3.053   3.748   6.655
 1783SOL    HW1 6248   2.975   3.754   6.717
 1783SOL    HW2 6249   3.104   3.663   6.673
 1784SOL     OW 6250   2.085   1.515   1.428
 1784SOL    HW1 6251   2.138   1.431   1.429
 1784SOL    HW2 6252   2.048   1.533   1.519
 1785SOL     OW 6253   6.348   6.862   4.296
 1785SOL    HW1 6254   6.425   6.882   4.357
 1785SOL    HW2 6255   6.379   6.807   4.219
 1786SOL     OW 6256   2.135   5.042   6.878
 1786SOL    HW1 6257   2.229   5.026   6.847
 1786SOL    HW2 6258   2.077   5.064   6.800
 1787SOL     OW 6259   2.441   1.721   6.073
 1787SOL    HW1 6260   2.365   1.681   6.124
 1787SOL    HW2 6261   2.412   1.743   5.981
 1788SOL     OW 6262   4.646   4.042   6.723
 1788SOL    HW1 6263   4.640   4.098   6.640
 1788SOL    HW2 6264   4.556   4.002   6.742
 1789SOL     OW 6265   5.649   3.171   1.647
 1789SOL    HW1 6266   5.730   3.144   1.596
 1789SOL    HW2 6267   5.673   3.185   1.743
 1790SOL     OW 6268   2.861   1.091   4.391
 1790SOL    HW1 6269   2.818   1.038   4.318
 1790SOL    HW2 6270   2.918   1.163   4.351
 1791SOL     OW 6271   6.991   1.416   3.896
 1791SOL    HW1 6272   6.972   1.464   3.810
 1791SOL    HW2 6273   6.940   1.331   3.899
 1792SOL     OW 6274   6.935   1.597   4.684
 1792SOL    HW1 6275   6.989   1.674   4.717
 1792SOL    HW2 6276   6.976   1.560   4.601
 1793SOL     OW 6277   6.754   1.718   4.404
 1793SOL    HW1 6278   6.701   1.802   4.406
 1793SOL    HW2 6279   6.722   1.660   4.329
 1794SOL     OW 6280   5.442   6.684   5.500
 1794SOL    HW1 6281   5.379   6.606   5.496
 1794SOL    HW2 6282   5.424   6.737   5.582
 1795SOL     OW 6283   6.380   4.911   1.842
 1795SOL    HW1 6284   6.477   4.892   1.824
 1795SOL    HW2 6285   6.367   5.009   1.856
 1796SOL     OW 6286   2.556   1.463   5.871
 1796SOL    HW1 6287   2.556   1.552   5.825
 1796SOL    HW2 6288   2.642   1.450   5.919
 1797SOL     OW 6289   1.139   6.974   5.699
 1797SOL    HW1 6290   1.053   6.958   5.650
 1797SOL    HW2 6291   1.172   0.049   5.680
 1798SOL     OW 6292   3.317   3.118   4.894
 1798SOL    HW1 6293   3.232   3.154   4.932
 1798SOL    HW2 6294   3.325   3.021   4.917
 1799SOL     OW 6295   4.602   2.878   6.696
 1799SOL    HW1 6296   4.659   2.857   6.775
 1799SOL    HW2 6297   4.506   2.864   6.721
 1800SOL     OW 6298   4.877   4.854   3.444
 1800SOL    HW1 6299   4.817   4.925   3.408
 1800SOL    HW2 6300   4.861   4.843   3.542
 1801SOL     OW 6301   0.772   1.805   2.030
 1801SOL    HW1 6302   0.740   1.714   2.005
 1801SOL    HW2 6303   0.844   1.834   1.966
 1802SOL     OW 6304   6.025   6.100   3.175
 1802SOL    HW1 6305   6.024   6.162   3.097
 1802SOL    HW2 6306   6.083   6.137   3.247
 1803SOL     OW 6307   0.246   6.950   2.150
 1803SOL    HW1 6308   0.267   0.029   2.164
 1803SOL    HW2 6309   0.314   6.909   2.089
 1804SOL     OW 6310   3.922   3.116   4.772
 1804SOL    HW1 6311   3.836   3.129   4.723
 1804SOL    HW2 6312   3.991   3.179   4.736
 1805SOL     OW 6313   0.793   5.522   5.902
 1805SOL    HW1 6314   0.807   5.463   5.982
 1805SOL    HW2 6315   0.835   5.480   5.821
 1806SOL     OW 6316   0.644   3.078   1.940
 1806SOL    HW1 6317   0.581   3.129   1.997
 1806SOL    HW2 6318   0.624   3.095   1.843
 1807SOL     OW 6319   5.294   2.809   6.961
 1807SOL    HW1 6320   5.247   2.895   6.982
 1807SOL    HW2 6321   5.389   2.828   6.938
 1808SOL     OW 6322   5.820   3.696   4.653
 1808SOL    HW1 6323   5.826   3.772   4.588
 1808SOL    HW2 6324   5.908   3.648   4.656
 1809SOL     OW 6325   3.171   1.811   5.685
 1809SOL    HW1 6326   3.172   1.719   5.646
 1809SOL    HW2 6327   3.079   1.849   5.681
 1810SOL     OW 6328   0.988   0.820   5.209
 1810SOL    HW1 6329   0.951   0.820   5.117
 1810SOL    HW2 6330   0.918   0.852   5.273
 1811SOL     OW 6331   5.281   4.738   1.843
 1811SOL    HW1 6332   5.211   4.681   1.886
 1811SOL    HW2 6333   5.320   4.689   1.764
 1812SOL     OW 6334   3.817   6.553   6.261
 1812SOL    HW1 6335   3.842   6.466   6.219
 1812SOL    HW2 6336   3.790   6.537   6.356
 1813SOL     OW 6337   5.282   4.819   2.251
 1813SOL    HW1 6338   5.193   4.782   2.275
 1813SOL    HW2 6339   5.296   4.907   2.296
 1814SOL     OW 6340   6.220   0.327   0.862
 1814SOL    HW1 6341   6.264   0.238   0.847
 1814SOL    HW2 6342   6.161   0.348   0.784
 1815SOL     OW 6343   6.525   0.085   2.541
 1815SOL    HW1 6344   6.465   0.013   2.573
 1815SOL    HW2 6345   6.550   0.068   2.446
 1816SOL     OW 6346   3.747   4.966   6.225
 1816SOL    HW1 6347   3.793   5.033   6.282
 1816SOL    HW2 6348   3.796   4.878   6.229
 1817SOL     OW 6349   3.592   1.205   2.897
 1817SOL    HW1 6350   3.574   1.276   2.965
 1817SOL    HW2 6351   3.636   1.127   2.942
 1818SOL     OW 6352   1.654   6.806   0.236
 1818SOL    HW1 6353   1.583   6.813   0.307
 1818SOL    HW2 6354   1.743   6.828   0.276
 1819SOL     OW 6355   1.593   5.021   2.159
 1819SOL    HW1 6356   1.534   4.954   2.205
 1819SOL    HW2 6357   1.660   4.972   2.102
 1820SOL     OW 6358   3.658   0.107   2.643
 1820SOL    HW1 6359   3.731   0.173   2.624
 1820SOL    HW2 6360   3.672   0.025   2.586
 1821SOL     OW 6361   3.216   0.713   2.056
 1821SOL    HW1 6362   3.204   0.806   2.090
 1821SOL    HW2 6363   3.294   0.670   2.102
 1822SOL     OW 6364   1.274   3.489   1.608
 1822SOL    HW1 6365   1.259   3.391   1.593
 1822SOL    HW2 6366   1.346   3.501   1.676
 1823SOL     OW 6367   3.127   5.956   3.105
 1823SOL    HW1 6368   3.033   5.965   3.071
 1823SOL    HW2 6369   3.190   6.002   3.042
 1824SOL     OW 6370   3.946   3.659   0.443
 1824SOL    HW1 6371   4.018   3.622   0.502
 1824SOL    HW2 6372   3.987   3.717   0.373
 1825SOL     OW 6373   0.423   3.032   4.855
 1825SOL    HW1 6374   0.446   3.096   4.782
 1825SOL    HW2 6375   0.494   3.033   4.925
 1826SOL     OW 6376   2.973   1.156   0.919
 1826SOL    HW1 6377   2.918   1.226   0.965
 1826SOL    HW2 6378   3.070   1.176   0.933
 1827SOL     OW 6379   5.212   5.559   1.346
 1827SOL    HW1 6380   5.136   5.616   1.315
 1827SOL    HW2 6381   5.176   5.476   1.389
 1828SOL     OW 6382   1.950   3.311   6.417
 1828SOL    HW1 6383   1.954   3.248   6.339
 1828SOL    HW2 6384   1.911   3.263   6.496
 1829SOL     OW 6385   3.914   6.882   3.847
 1829SOL    HW1 6386   3.952   6.878   3.939
 1829SOL    HW2 6387   3.915   6.790   3.806
 1830SOL     OW 6388   5.978   6.694   5.038
 1830SOL    HW1 6389   5.899   6.732   5.087
 1830SOL    HW2 6390   5.956   6.688   4.941
 1831SOL     OW 6391   5.239   5.849   2.936
 1831SOL    HW1 6392   5.200   5.940   2.949
 1831SOL    HW2 6393   5.307   5.853   2.862
 1832SOL     OW 6394   3.118   3.006   6.963
 1832SOL    HW1 6395   3.021   2.989   6.945
 1832SOL    HW2 6396   3.173   2.962   6.893
 1833SOL     OW 6397   5.303   0.590   1.186
 1833SOL    HW1 6398   5.376   0.636   1.236
 1833SOL    HW2 6399   5.338   0.555   1.099
 1834SOL     OW 6400   2.327   3.565   1.370
 1834SOL    HW1 6401   2.383   3.639   1.332
 1834SOL    HW2 6402   2.384   3.483   1.383
 1835SOL     OW 6403   1.194   4.922   1.496
 1835SOL    HW1 6404   1.131   4.998   1.510
 1835SOL    HW2 6405   1.280   4.939   1.545
 1836SOL     OW 6406   5.508   2.426   2.052
 1836SOL    HW1 6407   5.493   2.468   1.962
 1836SOL    HW2 6408   5.441   2.462   2.117
 1837SOL     OW 6409   1.790   0.375   5.881
 1837SOL    HW1 6410   1.751   0.444   5.942
 1837SOL    HW2 6411   1.764   0.396   5.787
 1838SOL     OW 6412   6.219   0.571   6.271
 1838SOL    HW1 6413   6.238   0.627   6.190
 1838SOL    HW2 6414   6.185   0.630   6.345
 1839SOL     OW 6415   6.128   1.034   6.258
 1839SOL    HW1 6416   6.033   1.050   6.284
 1839SOL    HW2 6417   6.133   0.954   6.197
 1840SOL     OW 6418   4.178   0.388   2.511
 1840SOL    HW1 6419   4.196   0.471   2.459
 1840SOL    HW2 6420   4.205   0.308   2.458
 1841SOL     OW 6421   2.164   0.132   3.214
 1841SOL    HW1 6422   2.241   0.111   3.154
 1841SOL    HW2 6423   2.152   0.058   3.280
 1842SOL     OW 6424   0.737   5.447   0.809
 1842SOL    HW1 6425   0.835   5.456   0.824
 1842SOL    HW2 6426   0.690   5.434   0.896
 1843SOL     OW 6427   4.849   0.414   4.031
 1843SOL    HW1 6428   4.827   0.435   4.126
 1843SOL    HW2 6429   4.945   0.437   4.014
 1844SOL     OW 6430   4.560   1.517   5.584
 1844SOL    HW1 6431   4.510   1.448   5.637
 1844SOL    HW2 6432   4.628   1.561   5.642
 1845SOL     OW 6433   3.140   6.994   3.933
 1845SOL    HW1 6434   3.072   0.049   3.925
 1845SOL    HW2 6435   3.185   7.001   4.022
 1846SOL     OW 6436   5.201   1.032   3.300
 1846SOL    HW1 6437   5.101   1.029   3.304
 1846SOL    HW2 6438   5.231   0.993   3.213
 1847SOL     OW 6439   1.291   0.071   4.861
 1847SOL    HW1 6440   1.276   0.079   4.959
 1847SOL    HW2 6441   1.293   6.992   4.835
 1848SOL     OW 6442   1.546   6.489   4.191
 1848SOL    HW1 6443   1.631   6.444   4.161
 1848SOL    HW2 6444   1.569   6.576   4.235
 1849SOL     OW 6445   4.576   2.607   1.421
 1849SOL    HW1 6446   4.492   2.637   1.377
 1849SOL    HW2 6447   4.562   2.600   1.520
 1850SOL     OW 6448   6.103   1.697   2.766
 1850SOL    HW1 6449   6.010   1.728   2.784
 1850SOL    HW2 6450   6.139   1.742   2.685
 1851SOL     OW 6451   0.930   3.591   6.897
 1851SOL    HW1 6452   0.982   3.508   6.875
 1851SOL    HW2 6453   0.832   3.570   6.894
 1852SOL     OW 6454   0.535   4.841   1.825
 1852SOL    HW1 6455   0.504   4.871   1.734
 1852SOL    HW2 6456   0.630   4.869   1.839
 1853SOL     OW 6457   0.177   2.547   3.200
 1853SOL    HW1 6458   0.134   2.582   3.116
 1853SOL    HW2 6459   0.267   2.509   3.178
 1854SOL     OW 6460   1.239   5.321   3.014
 1854SOL    HW1 6461   1.176   5.248   2.987
 1854SOL    HW2 6462   1.189   5.407   3.019
 1855SOL     OW 6463   5.105   3.097   5.232
 1855SOL    HW1 6464   5.200   3.095   5.263
 1855SOL    HW2 6465   5.050   3.150   5.297
 1856SOL     OW 6466   3.936   3.276   6.307
 1856SOL    HW1 6467   3.888   3.363   6.304
 1856SOL    HW2 6468   3.994   3.273   6.388
 1857SOL     OW 6469   4.774   1.346   0.238
 1857SOL    HW1 6470   4.846   1.415   0.229
 1857SOL    HW2 6471   4.789   1.275   0.168
 1858SOL     OW 6472   5.920   2.889   3.144
 1858SOL    HW1 6473   5.928   2.822   3.071
 1858SOL    HW2 6474   5.861   2.854   3.216
 1859SOL     OW 6475   4.817   1.592   3.629
 1859SOL    HW1 6476   4.804   1.554   3.720
 1859SOL    HW2 6477   4.790   1.524   3.560
 1860SOL     OW 6478   0.863   1.899   5.780
 1860SOL    HW1 6479   0.817   1.818   5.816
 1860SOL    HW2 6480   0.853   1.902   5.681
 1861SOL     OW 6481   5.165   0.598   3.029
 1861SOL    HW1 6482   5.077   0.636   3.056
 1861SOL    HW2 6483   5.154   0.503   3.001
 1862SOL     OW 6484   1.237   6.702   6.670
 1862SOL    HW1 6485   1.330   6.676   6.698
 1862SOL    HW2 6486   1.171   6.667   6.738
 1863SOL     OW 6487   6.990   3.169   1.623
 1863SOL    HW1 6488   0.006   3.122   1.704
 1863SOL    HW2 6489   6.891   3.182   1.630
 1864SOL     OW 6490   3.647   5.753   4.038
 1864SOL    HW1 6491   3.694   5.709   3.961
 1864SOL    HW2 6492   3.551   5.767   4.015
 1865SOL     OW 6493   3.482   0.967   1.373
 1865SOL    HW1 6494   3.425   0.906   1.319
 1865SOL    HW2 6495   3.437   1.056   1.382
 1866SOL     OW 6496   6.412   4.707   3.668
 1866SOL    HW1 6497   6.325   4.668   3.638
 1866SOL    HW2 6498   6.443   4.773   3.599
 1867SOL     OW 6499   2.101   3.503   1.210
 1867SOL    HW1 6500   2.188   3.534   1.248
 1867SOL    HW2 6501   2.110   3.491   1.111
 1868SOL     OW 6502   4.948   3.527   5.741
 1868SOL    HW1 6503   4.934   3.473   5.824
 1868SOL    HW2 6504   4.906   3.617   5.753
 1869SOL     OW 6505   5.656   2.938   4.070
 1869SOL    HW1 6506   5.700   2.979   3.990
 1869SOL    HW2 6507   5.705   2.855   4.096
 1870SOL     OW 6508   1.016   3.274   4.691
 1870SOL    HW1 6509   0.951   3.199   4.681
 1870SOL    HW2 6510   0.971   3.350   4.739
 1871SOL     OW 6511   6.813   6.590   0.196
 1871SOL    HW1 6512   6.793   6.553   0.105
 1871SOL    HW2 6513   6.902   6.635   0.195
 1872SOL     OW 6514   3.814   2.248   0.327
 1872SOL    HW1 6515   3.786   2.212   0.238
 1872SOL    HW2 6516   3.784   2.186   0.399
 1873SOL     OW 6517   6.205   0.915   5.451
 1873SOL    HW1 6518   6.272   0.899   5.379
 1873SOL    HW2 6519   6.157   0.830   5.471
 1874SOL     OW 6520   0.956   1.195   6.983
 1874SOL    HW1 6521   0.943   1.287   0.002
 1874SOL    HW2 6522   1.007   1.140   0.032
 1875SOL     OW 6523   6.370   6.426   0.507
 1875SOL    HW1 6524   6.290   6.472   0.544
 1875SOL    HW2 6525   6.442   6.422   0.577
 1876SOL     OW 6526   5.124   6.504   6.142
 1876SOL    HW1 6527   5.139   6.594   6.101
 1876SOL    HW2 6528   5.136   6.433   6.072
 1877SOL     OW 6529   0.466   1.805   3.121
 1877SOL    HW1 6530   0.442   1.754   3.038
 1877SOL    HW2 6531   0.562   1.835   3.115
 1878SOL     OW 6532   6.919   4.191   3.315
 1878SOL    HW1 6533   6.841   4.144   3.358
 1878SOL    HW2 6534   7.001   4.135   3.324
 1879SOL     OW 6535   2.593   5.361   3.816
 1879SOL    HW1 6536   2.542   5.445   3.797
 1879SOL    HW2 6537   2.648   5.337   3.737
 1880SOL     OW 6538   1.100   2.679   3.173
 1880SOL    HW1 6539   1.088   2.735   3.091
 1880SOL    HW2 6540   1.044   2.596   3.164
 1881SOL     OW 6541   0.927   1.948   3.535
 1881SOL    HW1 6542   0.925   1.863   3.587
 1881SOL    HW2 6543   0.855   1.946   3.465
 1882SOL     OW 6544   0.858   5.473   6.786
 1882SOL    HW1 6545   0.956   5.477   6.771
 1882SOL    HW2 6546   0.813   5.444   6.701
 1883SOL     OW 6547   0.941   3.707   3.497
 1883SOL    HW1 6548   0.915   3.614   3.523
 1883SOL    HW2 6549   0.871   3.771   3.527
 1884SOL     OW 6550   5.441   1.241   1.471
 1884SOL    HW1 6551   5.487   1.329   1.485
 1884SOL    HW2 6552   5.359   1.255   1.415
 1885SOL     OW 6553   6.778   2.064   0.584
 1885SOL    HW1 6554   6.838   2.086   0.660
 1885SOL    HW2 6555   6.798   1.972   0.550
 1886SOL     OW 6556   1.996   2.162   0.331
 1886SOL    HW1 6557   2.025   2.257   0.342
 1886SOL    HW2 6558   2.024   2.109   0.412
 1887SOL     OW 6559   0.426   4.038   5.858
 1887SOL    HW1 6560   0.449   4.115   5.798
 1887SOL    HW2 6561   0.507   3.980   5.869
 1888SOL     OW 6562   2.445   1.614   6.459
 1888SOL    HW1 6563   2.435   1.576   6.551
 1888SOL    HW2 6564   2.429   1.713   6.463
 1889SOL     OW 6565   4.141   3.747   6.374
 1889SOL    HW1 6566   4.180   3.697   6.451
 1889SOL    HW2 6567   4.095   3.830   6.408
 1890SOL     OW 6568   1.450   5.563   6.156
 1890SOL    HW1 6569   1.482   5.611   6.237
 1890SOL    HW2 6570   1.518   5.570   6.083
 1891SOL     OW 6571   5.117   2.708   3.985
 1891SOL    HW1 6572   5.061   2.626   3.969
 1891SOL    HW2 6573   5.205   2.698   3.938
 1892SOL     OW 6574   3.633   6.488   1.179
 1892SOL    HW1 6575   3.558   6.550   1.154
 1892SOL    HW2 6576   3.603   6.393   1.172
 1893SOL     OW 6577   3.759   2.020   4.865
 1893SOL    HW1 6578   3.666   2.052   4.880
 1893SOL    HW2 6579   3.792   2.054   4.777
 1894SOL     OW 6580   4.358   3.202   1.413
 1894SOL    HW1 6581   4.447   3.195   1.369
 1894SOL    HW2 6582   4.304   3.121   1.393
 1895SOL     OW 6583   6.600   0.547   2.545
 1895SOL    HW1 6584   6.656   0.486   2.601
 1895SOL    HW2 6585   6.550   0.493   2.478
 1896SOL     OW 6586   6.962   1.126   2.822
 1896SOL    HW1 6587   6.996   1.042   2.862
 1896SOL    HW2 6588   6.977   1.202   2.885
 1897SOL     OW 6589   6.396   5.357   3.078
 1897SOL    HW1 6590   6.432   5.265   3.093
 1897SOL    HW2 6591   6.375   5.370   2.982
 1898SOL     OW 6592   3.697   6.373   1.728
 1898SOL    HW1 6593   3.730   6.464   1.752
 1898SOL    HW2 6594   3.776   6.313   1.711
 1899SOL     OW 6595   1.247   3.019   2.732
 1899SOL    HW1 6596   1.155   3.034   2.695
 1899SOL    HW2 6597   1.256   3.065   2.820
 1900SOL     OW 6598   1.293   0.287   5.943
 1900SOL    HW1 6599   1.241   0.201   5.949
 1900SOL    HW2 6600   1.328   0.310   6.034
 1901SOL     OW 6601   2.456   1.233   1.079
 1901SOL    HW1 6602   2.515   1.185   1.014
 1901SOL    HW2 6603   2.361   1.228   1.048
 1902SOL     OW 6604   1.790   2.399   5.040
 1902SOL    HW1 6605   1.856   2.382   4.966
 1902SOL    HW2 6606   1.712   2.336   5.030
 1903SOL     OW 6607   6.864   3.555   3.863
 1903SOL    HW1 6608   6.916   3.481   3.905
 1903SOL    HW2 6609   6.768   3.530   3.857
 1904SOL     OW 6610   6.900   0.316   3.920
 1904SOL    HW1 6611   6.923   0.328   3.823
 1904SOL    HW2 6612   6.984   0.307   3.974
 1905SOL     OW 6613   0.327   2.470   4.069
 1905SOL    HW1 6614   0.277   2.385   4.079
 1905SOL    HW2 6615   0.406   2.469   4.130
 1906SOL     OW 6616   2.549   6.882   5.601
 1906SOL    HW1 6617   2.472   6.819   5.614
 1906SOL    HW2 6618   2.550   6.914   5.507
 1907SOL     OW 6619   3.368   7.006   3.602
 1907SOL    HW1 6620   3.340   6.942   3.530
 1907SOL    HW2 6621   3.404   6.954   3.679
 1908SOL     OW 6622   4.617   0.938   4.841
 1908SOL    HW1 6623   4.680   1.008   4.806
 1908SOL    HW2 6624   4.666   0.852   4.852
 1909SOL     OW 6625   1.785   4.487   3.535
 1909SOL    HW1 6626   1.832   4.554   3.592
 1909SOL    HW2 6627   1.793   4.514   3.439
 1910SOL     OW 6628   5.797   2.221   6.249
 1910SOL    HW1 6629   5.809   2.196   6.153
 1910SOL    HW2 6630   5.707   2.191   6.280
 1911SOL     OW 6631   5.643   1.552   5.799
 1911SOL    HW1 6632   5.623   1.577   5.705
 1911SOL    HW2 6633   5.742   1.545   5.812
 1912SOL     OW 6634   3.878   6.597   2.181
 1912SOL    HW1 6635   3.904   6.680   2.131
 1912SOL    HW2 6636   3.929   6.519   2.145
 1913SOL     OW 6637   2.000   6.239   5.229
 1913SOL    HW1 6638   2.058   6.285   5.162
 1913SOL    HW2 6639   1.925   6.193   5.181
 1914SOL     OW 6640   2.958   2.465   6.891
 1914SOL    HW1 6641   2.873   2.446   6.841
 1914SOL    HW2 6642   2.979   2.388   6.952
 1915SOL     OW 6643   3.232   1.218   5.126
 1915SOL    HW1 6644   3.278   1.228   5.038
 1915SOL    HW2 6645   3.298   1.186   5.195
 1916SOL     OW 6646   3.764   5.642   0.683
 1916SOL    HW1 6647   3.773   5.559   0.737
 1916SOL    HW2 6648   3.701   5.626   0.607
 1917SOL     OW 6649   4.072   3.296   4.616
 1917SOL    HW1 6650   4.017   3.290   4.532
 1917SOL    HW2 6651   4.169   3.291   4.593
 1918SOL     OW 6652   6.670   6.275   6.464
 1918SOL    HW1 6653   6.643   6.300   6.558
 1918SOL    HW2 6654   6.589   6.245   6.413
 1919SOL     OW 6655   1.368   6.472   2.480
 1919SOL    HW1 6656   1.356   6.387   2.532
 1919SOL    HW2 6657   1.417   6.453   2.395
 1920SOL     OW 6658   0.497   4.894   3.385
 1920SOL    HW1 6659   0.541   4.899   3.296
 1920SOL    HW2 6660   0.440   4.976   3.398
 1921SOL     OW 6661   0.646   4.339   0.315
 1921SOL    HW1 6662   0.665   4.414   0.379
 1921SOL    HW2 6663   0.589   4.373   0.240
 1922SOL     OW 6664   3.656   3.995   1.294
 1922SOL    HW1 6665   3.706   3.908   1.303
 1922SOL    HW2 6666   3.715   4.063   1.251
 1923SOL     OW 6667   2.803   0.924   6.995
 1923SOL    HW1 6668   2.898   0.941   6.969
 1923SOL    HW2 6669   2.800   0.855   0.050
 1924SOL     OW 6670   5.262   5.614   2.501
 1924SOL    HW1 6671   5.295   5.556   2.575
 1924SOL    HW2 6672   5.333   5.624   2.432
 1925SOL     OW 6673   2.876   3.585   2.010
 1925SOL    HW1 6674   2.960   3.570   1.957
 1925SOL    HW2 6675   2.861   3.507   2.071
 1926SOL     OW 6676   0.814   6.963   4.151
 1926SOL    HW1 6677   0.852   6.930   4.237
 1926SOL    HW2 6678   0.806   0.045   4.155
 1927SOL     OW 6679   3.032   5.226   6.545
 1927SOL    HW1 6680   3.067   5.163   6.476
 1927SOL    HW2 6681   3.021   5.178   6.632
 1928SOL     OW 6682   6.676   3.635   6.046
 1928SOL    HW1 6683   6.708   3.706   6.108
 1928SOL    HW2 6684   6.576   3.636   6.041
 1929SOL     OW 6685   0.837   5.599   1.088
 1929SOL    HW1 6686   0.806   5.526   1.149
 1929SOL    HW2 6687   0.911   5.650   1.132
 1930SOL     OW 6688   4.462   4.171   6.917
 1930SOL    HW1 6689   4.380   4.171   6.859
 1930SOL    HW2 6690   4.531   4.110   6.877
 1931SOL     OW 6691   0.082   3.294   3.746
 1931SOL    HW1 6692   0.019   3.309   3.822
 1931SOL    HW2 6693   0.167   3.253   3.781
 1932SOL     OW 6694   5.038   4.197   2.483
 1932SOL    HW1 6695   5.013   4.168   2.391
 1932SOL    HW2 6696   5.043   4.118   2.543
 1933SOL     OW 6697   3.138   4.471   0.512
 1933SOL    HW1 6698   3.075   4.485   0.588
 1933SOL    HW2 6699   3.161   4.374   0.506
 1934SOL     OW 6700   0.417   0.466   5.675
 1934SOL    HW1 6701   0.367   0.519   5.743
 1934SOL    HW2 6702   0.352   0.427   5.610
 1935SOL     OW 6703   3.430   0.304   5.067
 1935SOL    HW1 6704   3.347   0.288   5.121
 1935SOL    HW2 6705   3.429   0.398   5.033
 1936SOL     OW 6706   6.007   3.987   3.963
 1936SOL    HW1 6707   5.926   3.930   3.971
 1936SOL    HW2 6708   6.037   3.989   3.867
 1937SOL     OW 6709   4.499   6.426   1.251
 1937SOL    HW1 6710   4.459   6.514   1.228
 1937SOL    HW2 6711   4.474   6.359   1.182
 1938SOL     OW 6712   4.110   1.263   2.910
 1938SOL    HW1 6713   4.101   1.163   2.914
 1938SOL    HW2 6714   4.127   1.291   2.816
 1939SOL     OW 6715   0.361   6.254   4.431
 1939SOL    HW1 6716   0.410   6.267   4.517
 1939SOL    HW2 6717   0.262   6.261   4.446
 1940SOL     OW 6718   5.071   5.114   6.033
 1940SOL    HW1 6719   5.116   5.201   6.012
 1940SOL    HW2 6720   5.066   5.102   6.132
 1941SOL     OW 6721   0.013   3.774   3.288
 1941SOL    HW1 6722   7.011   3.684   3.247
 1941SOL    HW2 6723   0.020   3.765   3.387
 1942SOL     OW 6724   6.325   0.665   2.897
 1942SOL    HW1 6725   6.325   0.639   2.994
 1942SOL    HW2 6726   6.259   0.739   2.882
 1943SOL     OW 6727   3.191   6.175   2.532
 1943SOL    HW1 6728   3.281   6.164   2.490
 1943SOL    HW2 6729   3.166   6.272   2.533
 1944SOL     OW 6730   5.188   2.227   6.548
 1944SOL    HW1 6731   5.180   2.128   6.563
 1944SOL    HW2 6732   5.209   2.244   6.452
 1945SOL     OW 6733   3.766   6.022   2.381
 1945SOL    HW1 6734   3.761   6.048   2.477
 1945SOL    HW2 6735   3.757   5.923   2.372
 1946SOL     OW 6736   6.407   0.890   0.655
 1946SOL    HW1 6737   6.462   0.808   0.638
 1946SOL    HW2 6738   6.464   0.962   0.694
 1947SOL     OW 6739   4.965   6.622   3.770
 1947SOL    HW1 6740   5.030   6.579   3.833
 1947SOL    HW2 6741   4.946   6.560   3.695
 1948SOL     OW 6742   6.164   5.967   3.956
 1948SOL    HW1 6743   6.122   5.885   3.919
 1948SOL    HW2 6744   6.263   5.953   3.966
 1949SOL     OW 6745   4.584   4.557   5.610
 1949SOL    HW1 6746   4.627   4.626   5.669
 1949SOL    HW2 6747   4.647   4.482   5.595
 1950SOL     OW 6748   3.635   3.991   0.888
 1950SOL    HW1 6749   3.562   3.991   0.956
 1950SOL    HW2 6750   3.639   4.081   0.844
 1951SOL     OW 6751   6.092   3.869   0.713
 1951SOL    HW1 6752   6.134   3.796   0.767
 1951SOL    HW2 6753   6.007   3.835   0.673
 1952SOL     OW 6754   3.522   2.483   0.022
 1952SOL    HW1 6755   3.489   2.557   0.081
 1952SOL    HW2 6756   3.620   2.495   0.007
 1953SOL     OW 6757   6.481   2.932   0.044
 1953SOL    HW1 6758   6.566   2.912   7.013
 1953SOL    HW2 6759   6.476   2.876   0.127
 1954SOL     OW 6760   5.730   0.900   4.243
 1954SOL    HW1 6761   5.652   0.946   4.201
 1954SOL    HW2 6762   5.711   0.801   4.247
 1955SOL     OW 6763   1.645   1.046   2.779
 1955SOL    HW1 6764   1.659   1.119   2.846
 1955SOL    HW2 6765   1.721   0.981   2.784
 1956SOL     OW 6766   5.806   0.389   2.469
 1956SOL    HW1 6767   5.795   0.316   2.536
 1956SOL    HW2 6768   5.808   0.351   2.377
 1957SOL     OW 6769   6.406   5.267   4.735
 1957SOL    HW1 6770   6.379   5.232   4.825
 1957SOL    HW2 6771   6.492   5.223   4.707
 1958SOL     OW 6772   6.067   2.686   3.660
 1958SOL    HW1 6773   5.975   2.667   3.693
 1958SOL    HW2 6774   6.085   2.784   3.663
 1959SOL     OW 6775   0.118   1.630   6.253
 1959SOL    HW1 6776   0.164   1.548   6.287
 1959SOL    HW2 6777   0.063   1.670   6.327
 1960SOL     OW 6778   6.826   4.095   0.746
 1960SOL    HW1 6779   6.780   4.034   0.681
 1960SOL    HW2 6780   6.758   4.135   0.808
 1961SOL     OW 6781   5.948   4.754   4.403
 1961SOL    HW1 6782   5.973   4.690   4.475
 1961SOL    HW2 6783   5.872   4.811   4.434
 1962SOL     OW 6784   2.731   6.720   3.290
 1962SOL    HW1 6785   2.721   6.753   3.384
 1962SOL    HW2 6786   2.710   6.622   3.288
 1963SOL     OW 6787   0.849   0.714   1.139
 1963SOL    HW1 6788   0.830   0.666   1.225
 1963SOL    HW2 6789   0.875   0.808   1.159
 1964SOL     OW 6790   4.441   3.029   1.682
 1964SOL    HW1 6791   4.510   3.055   1.749
 1964SOL    HW2 6792   4.466   3.066   1.593
 1965SOL     OW 6793   1.149   3.522   3.433
 1965SOL    HW1 6794   1.226   3.562   3.484
 1965SOL    HW2 6795   1.071   3.584   3.438
 1966SOL     OW 6796   6.998   5.589   5.549
 1966SOL    HW1 6797   0.010   5.648   5.624
 1966SOL    HW2 6798   6.909   5.550   5.571
 1967SOL     OW 6799   4.725   2.280   4.943
 1967SOL    HW1 6800   4.724   2.182   4.962
 1967SOL    HW2 6801   4.632   2.316   4.947
 1968SOL     OW 6802   3.516   6.005   0.354
 1968SOL    HW1 6803   3.461   6.061   0.291
 1968SOL    HW2 6804   3.460   5.928   0.386
 1969SOL     OW 6805   0.668   1.918   1.734
 1969SOL    HW1 6806   0.611   1.931   1.653
 1969SOL    HW2 6807   0.610   1.908   1.815
 1970SOL     OW 6808   2.405   0.243   5.725
 1970SOL    HW1 6809   2.456   0.158   5.733
 1970SOL    HW2 6810   2.354   0.244   5.639
 1971SOL     OW 6811   6.781   6.972   6.577
 1971SOL    HW1 6812   6.777   0.007   6.492
 1971SOL    HW2 6813   6.868   6.923   6.582
 1972SOL     OW 6814   5.734   2.408   2.787
 1972SOL    HW1 6815   5.773   2.438   2.699
 1972SOL    HW2 6816   5.675   2.480   2.823
 1973SOL     OW 6817   2.289   3.446   0.373
 1973SOL    HW1 6818   2.383   3.432   0.402
 1973SOL    HW2 6819   2.234   3.367   0.397
 1974SOL     OW 6820   6.274   6.446   4.213
 1974SOL    HW1 6821   6.237   6.382   4.145
 1974SOL    HW2 6822   6.207   6.457   4.287
 1975SOL     OW 6823   2.354   1.368   2.946
 1975SOL    HW1 6824   2.352   1.378   2.846
 1975SOL    HW2 6825   2.331   1.455   2.989
 1976SOL     OW 6826   0.264   5.431   6.943
 1976SOL    HW1 6827   0.353   5.448   6.900
 1976SOL    HW2 6828   0.234   5.513   6.991
 1977SOL     OW 6829   1.129   3.366   3.224
 1977SOL    HW1 6830   1.035   3.342   3.198
 1977SOL    HW2 6831   1.127   3.417   3.309
 1978SOL     OW 6832   0.895   0.973   3.770
 1978SOL    HW1 6833   0.797   0.986   3.790
 1978SOL    HW2 6834   0.906   0.935   3.679
 1979SOL     OW 6835   6.322   4.298   5.343
 1979SOL    HW1 6836   6.408   4.252   5.365
 1979SOL    HW2 6837   6.278   4.252   5.266
 1980SOL     OW 6838   2.875   0.910   6.281
 1980SOL    HW1 6839   2.778   0.892   6.264
 1980SOL    HW2 6840   2.889   0.923   6.379
 1981SOL     OW 6841   6.431   2.250   2.648
 1981SOL    HW1 6842   6.416   2.344   2.617
 1981SOL    HW2 6843   6.345   2.200   2.643
 1982SOL     OW 6844   0.243   3.966   4.887
 1982SOL    HW1 6845   0.258   4.010   4.976
 1982SOL    HW2 6846   0.291   4.016   4.816
 1983SOL     OW 6847   0.599   1.428   3.028
 1983SOL    HW1 6848   0.673   1.365   3.006
 1983SOL    HW2 6849   0.631   1.496   3.094
 1984SOL     OW 6850   5.475   1.406   4.667
 1984SOL    HW1 6851   5.422   1.448   4.593
 1984SOL    HW2 6852   5.543   1.345   4.627
 1985SOL     OW 6853   1.095   0.038   2.380
 1985SOL    HW1 6854   1.090   6.963   2.341
 1985SOL    HW2 6855   1.037   0.043   2.461
 1986SOL     OW 6856   1.441   0.184   6.930
 1986SOL    HW1 6857   1.485   0.097   6.907
 1986SOL    HW2 6858   1.500   0.237   6.990
 1987SOL     OW 6859   0.851   2.938   0.944
 1987SOL    HW1 6860   0.937   2.948   0.895
 1987SOL    HW2 6861   0.838   3.018   1.003
 1988SOL     OW 6862   4.860   4.726   1.125
 1988SOL    HW1 6863   4.793   4.697   1.194
 1988SOL    HW2 6864   4.868   4.825   1.127
 1989SOL     OW 6865   2.062   6.751   4.840
 1989SOL    HW1 6866   2.086   6.835   4.889
 1989SOL    HW2 6867   2.130   6.680   4.861
 1990SOL     OW 6868   2.996   6.387   0.676
 1990SOL    HW1 6869   2.953   6.423   0.594
 1990SOL    HW2 6870   3.074   6.329   0.651
 1991SOL     OW 6871   4.138   4.953   6.359
 1991SOL    HW1 6872   4.197   4.948   6.440
 1991SOL    HW2 6873   4.164   4.881   6.295
 1992SOL     OW 6874   0.650   7.005   6.682
 1992SOL    HW1 6875   0.662   0.078   6.642
 1992SOL    HW2 6876   0.739   6.964   6.697
 1993SOL     OW 6877   3.900   3.706   4.199
 1993SOL    HW1 6878   3.977   3.642   4.198
 1993SOL    HW2 6879   3.843   3.688   4.280
 1994SOL     OW 6880   1.155   1.803   0.532
 1994SOL    HW1 6881   1.213   1.867   0.582
 1994SOL    HW2 6882   1.141   1.836   0.439
 1995SOL     OW 6883   6.425   2.093   1.982
 1995SOL    HW1 6884   6.330   2.069   1.960
 1995SOL    HW2 6885   6.473   2.119   1.898
 1996SOL     OW 6886   2.756   3.984   0.766
 1996SOL    HW1 6887   2.681   3.998   0.701
 1996SOL    HW2 6888   2.796   3.893   0.752
 1997SOL     OW 6889   4.712   0.358   5.100
 1997SOL    HW1 6890   4.700   0.266   5.136
 1997SOL    HW2 6891   4.623   0.403   5.092
 1998SOL     OW 6892   3.055   3.871   6.426
 1998SOL    HW1 6893   3.056   3.831   6.517
 1998SOL    HW2 6894   2.986   3.826   6.370
 1999SOL     OW 6895   3.214   6.467   1.465
 1999SOL    HW1 6896   3.226   6.422   1.554
 1999SOL    HW2 6897   3.294   6.525   1.447
 2000SOL     OW 6898   3.835   1.911   5.105
 2000SOL    HW1 6899   3.857   1.977   5.177
 2000SOL    HW2 6900   3.811   1.960   5.021
 2001SOL     OW 6901   3.241   1.784   1.857
 2001SOL    HW1 6902   3.298   1.866   1.857
 2001SOL    HW2 6903   3.258   1.731   1.774
 2002SOL     OW 6904   1.316   5.348   6.227
 2002SOL    HW1 6905   1.359   5.431   6.191
 2002SOL    HW2 6906   1.287   5.290   6.150
 2003SOL     OW 6907   6.169   6.674   3.360
 2003SOL    HW1 6908   6.149   6.739   3.434
 2003SOL    HW2 6909   6.225   6.719   3.291
 2004SOL     OW 6910   4.483   1.539   5.297
 2004SOL    HW1 6911   4.440   1.454   5.268
 2004SOL    HW2 6912   4.532   1.523   5.383
 2005SOL     OW 6913   0.803   4.580   6.728
 2005SOL    HW1 6914   0.884   4.599   6.783
 2005SOL    HW2 6915   0.824   4.506   6.663
 2006SOL     OW 6916   5.715   4.824   4.106
 2006SOL    HW1 6917   5.725   4.907   4.162
 2006SOL    HW2 6918   5.662   4.756   4.156
 2007SOL     OW 6919   4.029   5.052   1.088
 2007SOL    HW1 6920   4.024   5.143   1.128
 2007SOL    HW2 6921   4.007   5.057   0.991
 2008SOL     OW 6922   1.477   5.700   3.080
 2008SOL    HW1 6923   1.557   5.731   3.028
 2008SOL    HW2 6924   1.465   5.602   3.067
 2009SOL     OW 6925   6.042   6.943   1.730
 2009SOL    HW1 6926   6.136   6.916   1.708
 2009SOL    HW2 6927   6.013   7.016   1.669
 2010SOL     OW 6928   1.692   1.568   1.428
 2010SOL    HW1 6929   1.677   1.570   1.527
 2010SOL    HW2 6930   1.772   1.624   1.405
 2011SOL     OW 6931   6.382   1.183   5.113
 2011SOL    HW1 6932   6.367   1.252   5.042
 2011SOL    HW2 6933   6.429   1.225   5.190
 2012SOL     OW 6934   1.138   3.246   1.532
 2012SOL    HW1 6935   1.124   3.216   1.438
 2012SOL    HW2 6936   1.186   3.175   1.583
 2013SOL     OW 6937   6.196   0.922   3.244
 2013SOL    HW1 6938   6.105   0.902   3.281
 2013SOL    HW2 6939   6.197   1.015   3.206
 2014SOL     OW 6940   2.133   5.262   3.098
 2014SOL    HW1 6941   2.068   5.294   3.167
 2014SOL    HW2 6942   2.087   5.199   3.036
 2015SOL     OW 6943   2.293   2.439   0.520
 2015SOL    HW1 6944   2.201   2.470   0.544
 2015SOL    HW2 6945   2.320   2.479   0.432
 2016SOL     OW 6946   1.250   5.480   5.057
 2016SOL    HW1 6947   1.272   5.467   4.961
 2016SOL    HW2 6948   1.334   5.470   5.112
 2017SOL     OW 6949   2.511   6.792   4.181
 2017SOL    HW1 6950   2.558   6.873   4.215
 2017SOL    HW2 6951   2.571   6.712   4.190
 2018SOL     OW 6952   6.014   6.968   6.323
 2018SOL    HW1 6953   6.001   6.877   6.283
 2018SOL    HW2 6954   5.976   0.020   6.262
 2019SOL     OW 6955   4.820   2.409   2.364
 2019SOL    HW1 6956   4.732   2.453   2.345
 2019SOL    HW2 6957   4.815   2.312   2.339
 2020SOL     OW 6958   0.878   5.538   5.487
 2020SOL    HW1 6959   0.977   5.546   5.491
 2020SOL    HW2 6960   0.837   5.628   5.472
 2021SOL     OW 6961   2.364   5.432   3.206
 2021SOL    HW1 6962   2.430   5.462   3.137
 2021SOL    HW2 6963   2.289   5.384   3.161
 2022SOL     OW 6964   1.758   3.117   2.861
 2022SOL    HW1 6965   1.857   3.134   2.865
 2022SOL    HW2 6966   1.740   3.022   2.885
 2023SOL     OW 6967   5.977   1.389   6.505
 2023SOL    HW1 6968   5.928   1.423   6.585
 2023SOL    HW2 6969   6.022   1.465   6.459
 2024SOL     OW 6970   6.768   6.960   3.140
 2024SOL    HW1 6971   6.796   6.974   3.235
 2024SOL    HW2 6972   6.824   7.017   3.080
 2025SOL     OW 6973   2.228   2.845   2.253
 2025SOL    HW1 6974   2.243   2.841   2.154
 2025SOL    HW2 6975   2.220   2.752   2.289
 2026SOL     OW 6976   1.137   2.673   6.169
 2026SOL    HW1 6977   1.096   2.751   6.121
 2026SOL    HW2 6978   1.234   2.690   6.183
 2027SOL     OW 6979   0.979   1.444   0.890
 2027SOL    HW1 6980   0.885   1.460   0.922
 2027SOL    HW2 6981   0.979   1.437   0.790
 2028SOL     OW 6982   2.953   1.267   6.269
 2028SOL    HW1 6983   2.952   1.173   6.235
 2028SOL    HW2 6984   2.865   1.311   6.251
 2029SOL     OW 6985   6.827   0.677   0.784
 2029SOL    HW1 6986   6.860   0.756   0.836
 2029SOL    HW2 6987   6.774   0.618   0.844
 2030SOL     OW 6988   2.465   0.816   3.234
 2030SOL    HW1 6989   2.482   0.860   3.146
 2030SOL    HW2 6990   2.481   0.881   3.308
 2031SOL     OW 6991   5.666   6.290   2.146
 2031SOL    HW1 6992   5.620   6.306   2.058
 2031SOL    HW2 6993   5.762   6.316   2.138
 2032SOL     OW 6994   3.924   6.849   2.073
 2032SOL    HW1 6995   4.006   6.904   2.091
 2032SOL    HW2 6996   3.862   6.900   2.013
 2033SOL     OW 6997   3.818   3.968   6.668
 2033SOL    HW1 6998   3.796   3.872   6.686
 2033SOL    HW2 6999   3.733   4.020   6.660
 2034SOL     OW 7000   3.304   6.767   4.394
 2034SOL    HW1 7001   3.262   6.679   4.371
 2034SOL    HW2 7002   3.367   6.754   4.470
 2035SOL     OW 7003   0.151   0.636   1.895
 2035SOL    HW1 7004   0.235   0.592   1.927
 2035SOL    HW2 7005   0.091   0.652   1.973
 2036SOL     OW 7006   1.439   5.467   2.914
 2036SOL    HW1 7007   1.372   5.394   2.924
 2036SOL    HW2 7008   1.429   5.511   2.825
 2037SOL     OW 7009   0.748   2.969   5.784
 2037SOL    HW1 7010   0.774   2.990   5.878
 2037SOL    HW2 7011   0.788   2.882   5.756
 2038SOL     OW 7012   1.811   1.945   6.998
 2038SOL    HW1 7013   1.733   1.995   0.017
 2038SOL    HW2 7014   1.890   2.007   6.991
 2039SOL     OW 7015   0.219   5.235   2.821
 2039SOL    HW1 7016   0.317   5.218   2.831
 2039SOL    HW2 7017   0.205   5.316   2.765
 2040SOL     OW 7018   3.935   3.228   5.014
 2040SOL    HW1 7019   3.923   3.158   4.944
 2040SOL    HW2 7020   3.847   3.251   5.055
 2041SOL     OW 7021   6.478   5.727   5.666
 2041SOL    HW1 7022   6.405   5.785   5.630
 2041SOL    HW2 7023   6.487   5.741   5.764
 2042SOL     OW 7024   5.799   4.892   6.893
 2042SOL    HW1 7025   5.725   4.825   6.885
 2042SOL    HW2 7026   5.830   4.918   6.801
 2043SOL     OW 7027   6.456   4.332   2.845
 2043SOL    HW1 7028   6.479   4.367   2.754
 2043SOL    HW2 7029   6.359   4.350   2.864
 2044SOL     OW 7030   4.868   0.076   1.744
 2044SOL    HW1 7031   4.839   0.066   1.839
 2044SOL    HW2 7032   4.869   7.004   1.699
 2045SOL     OW 7033   2.849   4.811   4.030
 2045SOL    HW1 7034   2.777   4.742   4.021
 2045SOL    HW2 7035   2.875   4.843   3.939
 2046SOL     OW 7036   0.365   1.387   4.165
 2046SOL    HW1 7037   0.407   1.463   4.214
 2046SOL    HW2 7038   0.432   1.346   4.103
 2047SOL     OW 7039   4.950   2.328   0.295
 2047SOL    HW1 7040   5.027   2.264   0.287
 2047SOL    HW2 7041   4.913   2.323   0.388
 2048SOL     OW 7042   1.800   5.728   0.802
 2048SOL    HW1 7043   1.819   5.630   0.792
 2048SOL    HW2 7044   1.862   5.780   0.743
 2049SOL     OW 7045   4.963   1.696   6.561
 2049SOL    HW1 7046   4.872   1.654   6.564
 2049SOL    HW2 7047   4.955   1.790   6.528
 2050SOL     OW 7048   0.425   3.214   2.824
 2050SOL    HW1 7049   0.428   3.115   2.842
 2050SOL    HW2 7050   0.340   3.251   2.859
 2051SOL     OW 7051   1.010   5.767   1.208
 2051SOL    HW1 7052   0.957   5.815   1.278
 2051SOL    HW2 7053   1.016   5.824   1.126
 2052SOL     OW 7054   0.478   4.354   0.821
 2052SOL    HW1 7055   0.404   4.371   0.886
 2052SOL    HW2 7056   0.525   4.269   0.847
 2053SOL     OW 7057   5.496   7.013   5.151
 2053SOL    HW1 7058   5.482   0.043   5.238
 2053SOL    HW2 7059   5.477   6.915   5.163
 2054SOL     OW 7060   3.934   3.245   2.012
 2054SOL    HW1 7061   3.910   3.151   1.987
 2054SOL    HW2 7062   3.988   3.244   2.097
 2055SOL     OW 7063   6.292   3.445   3.272
 2055SOL    HW1 7064   6.297   3.362   3.217
 2055SOL    HW2 7065   6.309   3.422   3.368
 2056SOL     OW 7066   2.433   0.353   3.165
 2056SOL    HW1 7067   2.525   0.334   3.131
 2056SOL    HW2 7068   2.403   0.278   3.224
 2057SOL     OW 7069   5.289   3.310   3.770
 2057SOL    HW1 7070   5.277   3.318   3.870
 2057SOL    HW2 7071   5.219   3.249   3.733
 2058SOL     OW 7072   0.751   1.867   3.004
 2058SOL    HW1 7073   0.851   1.865   3.004
 2058SOL    HW2 7074   0.719   1.863   2.909
 2059SOL     OW 7075   2.555   6.360   5.945
 2059SOL    HW1 7076   2.571   6.284   6.009
 2059SOL    HW2 7077   2.514   6.325   5.861
 2060SOL     OW 7078   5.632   4.709   0.884
 2060SOL    HW1 7079   5.659   4.614   0.904
 2060SOL    HW2 7080   5.625   4.721   0.785
 2061SOL     OW 7081   0.333   2.301   2.955
 2061SOL    HW1 7082   0.277   2.300   2.873
 2061SOL    HW2 7083   0.410   2.238   2.944
 2062SOL     OW 7084   6.148   6.858   3.553
 2062SOL    HW1 7085   6.167   6.807   3.637
 2062SOL    HW2 7086   6.078   6.927   3.572
 2063SOL     OW 7087   1.775   0.187   6.137
 2063SOL    HW1 7088   1.818   0.256   6.195
 2063SOL    HW2 7089   1.741   0.230   6.054
 2064SOL     OW 7090   0.894   2.712   5.946
 2064SOL    HW1 7091   0.921   2.636   5.887
 2064SOL    HW2 7092   0.953   2.790   5.929
 2065SOL     OW 7093   6.750   2.786   4.592
 2065SOL    HW1 7094   6.761   2.880   4.558
 2065SOL    HW2 7095   6.822   2.766   4.659
 2066SOL     OW 7096   0.786   5.578   3.270
 2066SOL    HW1 7097   0.723   5.507   3.239
 2066SOL    HW2 7098   0.875   5.537   3.289
 2067SOL     OW 7099   0.102   5.353   0.924
 2067SOL    HW1 7100   0.058   5.319   1.008
 2067SOL    HW2 7101   0.032   5.382   0.859
 2068SOL     OW 7102   1.492   1.479   5.219
 2068SOL    HW1 7103   1.589   1.481   5.246
 2068SOL    HW2 7104   1.438   1.440   5.294
 2069SOL     OW 7105   0.876   3.250   3.174
 2069SOL    HW1 7106   0.801   3.195   3.208
 2069SOL    HW2 7107   0.891   3.231   3.077
 2070SOL     OW 7108   1.561   0.592   2.110
 2070SOL    HW1 7109   1.501   0.672   2.115
 2070SOL    HW2 7110   1.535   0.536   2.031
 2071SOL     OW 7111   5.599   6.018   5.232
 2071SOL    HW1 7112   5.679   6.043   5.287
 2071SOL    HW2 7113   5.570   5.925   5.254
 2072SOL     OW 7114   4.239   0.090   2.472
 2072SOL    HW1 7115   4.222   0.108   2.569
 2072SOL    HW2 7116   4.330   0.125   2.448
 2073SOL     OW 7117   3.949   6.814   4.471
 2073SOL    HW1 7118   4.028   6.755   4.454
 2073SOL    HW2 7119   3.882   6.765   4.528
 2074SOL     OW 7120   1.443   2.950   0.329
 2074SOL    HW1 7121   1.409   2.859   0.306
 2074SOL    HW2 7122   1.468   2.954   0.425
 2075SOL     OW 7123   5.303   3.143   1.353
 2075SOL    HW1 7124   5.258   3.231   1.368
 2075SOL    HW2 7125   5.329   3.135   1.257
 2076SOL     OW 7126   5.510   0.161   6.414
 2076SOL    HW1 7127   5.443   0.112   6.470
 2076SOL    HW2 7128   5.602   0.139   6.445
 2077SOL     OW 7129   5.583   2.839   2.220
 2077SOL    HW1 7130   5.505   2.821   2.159
 2077SOL    HW2 7131   5.554   2.896   2.296
 2078SOL     OW 7132   1.181   5.615   6.291
 2078SOL    HW1 7133   1.169   5.517   6.280
 2078SOL    HW2 7134   1.276   5.640   6.271
 2079SOL     OW 7135   5.203   1.812   3.529
 2079SOL    HW1 7136   5.240   1.720   3.532
 2079SOL    HW2 7137   5.215   1.850   3.438
 2080SOL     OW 7138   1.759   0.945   4.612
 2080SOL    HW1 7139   1.678   0.891   4.590
 2080SOL    HW2 7140   1.799   0.912   4.697
 2081SOL     OW 7141   1.363   5.471   4.231
 2081SOL    HW1 7142   1.426   5.547   4.246
 2081SOL    HW2 7143   1.278   5.489   4.280
 2082SOL     OW 7144   0.083   6.845   3.384
 2082SOL    HW1 7145   0.172   6.889   3.378
 2082SOL    HW2 7146   0.012   6.908   3.352
 2083SOL     OW 7147   5.915   4.921   6.653
 2083SOL    HW1 7148   5.862   4.870   6.585
 2083SOL    HW2 7149   5.937   5.012   6.617
 2084SOL     OW 7150   1.532   3.880   3.721
 2084SOL    HW1 7151   1.575   3.790   3.716
 2084SOL    HW2 7152   1.448   3.880   3.666
 2085SOL     OW 7153   4.292   0.641   6.681
 2085SOL    HW1 7154   4.205   0.682   6.655
 2085SOL    HW2 7155   4.300   0.639   6.781
 2086SOL     OW 7156   4.317   6.592   5.649
 2086SOL    HW1 7157   4.249   6.645   5.700
 2086SOL    HW2 7158   4.407   6.603   5.692
 2087SOL     OW 7159   5.035   0.394   1.444
 2087SOL    HW1 7160   5.009   0.485   1.475
 2087SOL    HW2 7161   4.984   0.372   1.360
 2088SOL     OW 7162   2.813   6.020   0.175
 2088SOL    HW1 7163   2.749   5.958   0.220
 2088SOL    HW2 7164   2.847   5.979   0.091
 2089SOL     OW 7165   5.544   2.172   6.356
 2089SOL    HW1 7166   5.544   2.104   6.429
 2089SOL    HW2 7167   5.469   2.154   6.293
 2090SOL     OW 7168   3.560   3.203   5.894
 2090SOL    HW1 7169   3.633   3.172   5.834
 2090SOL    HW2 7170   3.471   3.179   5.855
 2091SOL     OW 7171   0.014   5.866   0.709
 2091SOL    HW1 7172   0.111   5.863   0.733
 2091SOL    HW2 7173   7.016   5.810   0.628
 2092SOL     OW 7174   5.737   4.413   6.777
 2092SOL    HW1 7175   5.769   4.375   6.690
 2092SOL    HW2 7176   5.685   4.344   6.827
 2093SOL     OW 7177   2.409   2.148   1.301
 2093SOL    HW1 7178   2.443   2.090   1.375
 2093SOL    HW2 7179   2.478   2.217   1.278
 2094SOL     OW 7180   5.696   1.714   0.986
 2094SOL    HW1 7181   5.762   1.742   0.916
 2094SOL    HW2 7182   5.626   1.784   0.996
 2095SOL     OW 7183   5.563   0.059   4.702
 2095SOL    HW1 7184   5.611   0.146   4.712
 2095SOL    HW2 7185   5.504   0.045   4.781
 2096SOL     OW 7186   4.794   3.972   2.912
 2096SOL    HW1 7187   4.860   3.982   2.986
 2096SOL    HW2 7188   4.725   4.044   2.919
 2097SOL     OW 7189   2.812   2.767   6.617
 2097SOL    HW1 7190   2.813   2.832   6.541
 2097SOL    HW2 7191   2.756   2.688   6.592
 2098SOL     OW 7192   4.195   6.015   2.748
 2098SOL    HW1 7193   4.241   5.944   2.696
 2098SOL    HW2 7194   4.124   5.974   2.806
 2099SOL     OW 7195   2.319   3.057   6.002
 2099SOL    HW1 7196   2.226   3.088   6.023
 2099SOL    HW2 7197   2.315   2.972   5.949
 2100SOL     OW 7198   4.566   2.801   6.175
 2100SOL    HW1 7199   4.494   2.800   6.106
 2100SOL    HW2 7200   4.609   2.711   6.181
 2101SOL     OW 7201   1.433   6.210   2.616
 2101SOL    HW1 7202   1.420   6.141   2.687
 2101SOL    HW2 7203   1.461   6.166   2.531
 2102SOL     OW 7204   6.618   4.587   2.103
 2102SOL    HW1 7205   6.582   4.653   2.169
 2102SOL    HW2 7206   6.542   4.542   2.057
 2103SOL     OW 7207   3.855   4.443   5.590
 2103SOL    HW1 7208   3.942   4.429   5.637
 2103SOL    HW2 7209   3.795   4.365   5.606
 2104SOL     OW 7210   2.014   3.874   1.107
 2104SOL    HW1 7211   2.039   3.841   1.198
 2104SOL    HW2 7212   2.023   3.973   1.104
 2105SOL     OW 7213   5.098   6.073   5.426
 2105SOL    HW1 7214   5.032   6.053   5.498
 2105SOL    HW2 7215   5.123   5.988   5.380
 2106SOL     OW 7216   4.714   3.953   1.264
 2106SOL    HW1 7217   4.793   3.956   1.326
 2106SOL    HW2 7218   4.661   4.037   1.274
 2107SOL     OW 7219   4.861   2.338   5.184
 2107SOL    HW1 7220   4.949   2.299   5.157
 2107SOL    HW2 7221   4.799   2.338   5.106
 2108SOL     OW 7222   6.623   6.154   5.169
 2108SOL    HW1 7223   6.614   6.215   5.248
 2108SOL    HW2 7224   6.566   6.072   5.184
 2109SOL     OW 7225   4.226   6.399   2.454
 2109SOL    HW1 7226   4.232   6.494   2.421
 2109SOL    HW2 7227   4.129   6.373   2.462
 2110SOL     OW 7228   2.528   1.990   7.003
 2110SOL    HW1 7229   2.555   1.946   6.918
 2110SOL    HW2 7230   2.450   1.942   0.025
 2111SOL     OW 7231   1.059   2.427   6.945
 2111SOL    HW1 7232   1.031   2.459   6.854
 2111SOL    HW2 7233   0.983   2.379   6.989
 2112SOL     OW 7234   5.272   3.567   0.293
 2112SOL    HW1 7235   5.286   3.482   0.342
 2112SOL    HW2 7236   5.291   3.554   0.196
 2113SOL     OW 7237   1.692   2.033   5.217
 2113SOL    HW1 7238   1.782   2.017   5.257
 2113SOL    HW2 7239   1.628   2.061   5.289
 2114SOL     OW 7240   1.396   2.260   0.115
 2114SOL    HW1 7241   1.319   2.306   0.160
 2114SOL    HW2 7242   1.367   2.169   0.085
 2115SOL     OW 7243   2.120   3.422   2.824
 2115SOL    HW1 7244   2.155   3.335   2.792
 2115SOL    HW2 7245   2.045   3.406   2.889
 2116SOL     OW 7246   0.103   4.964   3.136
 2116SOL    HW1 7247   0.086   4.918   3.223
 2116SOL    HW2 7248   0.028   4.945   3.073
 2117SOL     OW 7249   0.054   5.431   1.700
 2117SOL    HW1 7250   0.146   5.441   1.736
 2117SOL    HW2 7251   0.015   5.521   1.681
 2118SOL     OW 7252   5.871   3.553   1.774
 2118SOL    HW1 7253   5.892   3.492   1.697
 2118SOL    HW2 7254   5.926   3.636   1.766
 2119SOL     OW 7255   1.573   6.190   1.149
 2119SOL    HW1 7256   1.573   6.164   1.246
 2119SOL    HW2 7257   1.483   6.174   1.110
 2120SOL     OW 7258   6.682   5.175   4.164
 2120SOL    HW1 7259   6.634   5.206   4.083
 2120SOL    HW2 7260   6.755   5.240   4.187
 2121SOL     OW 7261   1.259   3.966   5.656
 2121SOL    HW1 7262   1.288   3.954   5.751
 2121SOL    HW2 7263   1.321   3.916   5.596
 2122SOL     OW 7264   5.481   3.832   6.321
 2122SOL    HW1 7265   5.417   3.779   6.377
 2122SOL    HW2 7266   5.575   3.812   6.348
 2123SOL     OW 7267   6.560   5.770   1.969
 2123SOL    HW1 7268   6.588   5.696   2.031
 2123SOL    HW2 7269   6.641   5.819   1.937
 2124SOL     OW 7270   2.666   1.957   1.836
 2124SOL    HW1 7271   2.710   2.047   1.832
 2124SOL    HW2 7272   2.677   1.918   1.928
 2125SOL     OW 7273   1.968   0.473   2.205
 2125SOL    HW1 7274   1.933   0.421   2.283
 2125SOL    HW2 7275   1.987   0.411   2.129
 2126SOL     OW 7276   3.513   1.563   6.569
 2126SOL    HW1 7277   3.483   1.620   6.492
 2126SOL    HW2 7278   3.584   1.611   6.621
 2127SOL     OW 7279   0.476   3.262   4.759
 2127SOL    HW1 7280   0.389   3.292   4.799
 2127SOL    HW2 7281   0.486   3.302   4.668
 2128SOL     OW 7282   6.761   3.281   3.485
 2128SOL    HW1 7283   6.854   3.246   3.497
 2128SOL    HW2 7284   6.759   3.344   3.408
 2129SOL     OW 7285   4.262   3.465   5.248
 2129SOL    HW1 7286   4.225   3.401   5.180
 2129SOL    HW2 7287   4.240   3.431   5.340
 2130SOL     OW 7288   3.364   0.480   2.186
 2130SOL    HW1 7289   3.351   0.449   2.280
 2130SOL    HW2 7290   3.458   0.463   2.158
 2131SOL     OW 7291   5.826   0.321   1.294
 2131SOL    HW1 7292   5.915   0.364   1.281
 2131SOL    HW2 7293   5.836   0.221   1.288
 2132SOL     OW 7294   3.297   0.600   1.607
 2132SOL    HW1 7295   3.309   0.532   1.679
 2132SOL    HW2 7296   3.335   0.688   1.637
 2133SOL     OW 7297   3.027   3.116   0.879
 2133SOL    HW1 7298   3.118   3.156   0.880
 2133SOL    HW2 7299   2.992   3.116   0.785
 2134SOL     OW 7300   6.860   2.010   6.886
 2134SOL    HW1 7301   6.792   2.035   6.817
 2134SOL    HW2 7302   6.842   1.917   6.919
 2135SOL     OW 7303   1.385   3.318   4.532
 2135SOL    HW1 7304   1.301   3.265   4.547
 2135SOL    HW2 7305   1.369   3.414   4.556
 2136SOL     OW 7306   1.589   3.392   3.393
 2136SOL    HW1 7307   1.678   3.346   3.393
 2136SOL    HW2 7308   1.525   3.340   3.336
 2137SOL     OW 7309   2.547   5.205   4.933
 2137SOL    HW1 7310   2.515   5.199   5.028
 2137SOL    HW2 7311   2.474   5.177   4.871
 2138SOL     OW 7312   6.661   0.295   2.911
 2138SOL    HW1 7313   6.687   0.348   2.830
 2138SOL    HW2 7314   6.633   0.203   2.882
 2139SOL     OW 7315   4.099   0.799   3.604
 2139SOL    HW1 7316   4.096   0.809   3.703
 2139SOL    HW2 7317   4.192   0.778   3.575
 2140SOL     OW 7318   3.711   6.600   3.854
 2140SOL    HW1 7319   3.808   6.587   3.836
 2140SOL    HW2 7320   3.678   6.527   3.915
 2141SOL     OW 7321   6.646   3.602   2.396
 2141SOL    HW1 7322   6.636   3.697   2.428
 2141SOL    HW2 7323   6.581   3.585   2.323
 2142SOL     OW 7324   1.757   1.302   2.905
 2142SOL    HW1 7325   1.662   1.313   2.935
 2142SOL    HW2 7326   1.816   1.361   2.961
 2143SOL     OW 7327   3.280   4.472   1.413
 2143SOL    HW1 7328   3.197   4.507   1.370
 2143SOL    HW2 7329   3.331   4.548   1.454
 2144SOL     OW 7330   1.045   5.705   3.674
 2144SOL    HW1 7331   0.950   5.689   3.701
 2144SOL    HW2 7332   1.068   5.802   3.687
 2145SOL     OW 7333   4.584   5.961   3.831
 2145SOL    HW1 7334   4.568   6.027   3.904
 2145SOL    HW2 7335   4.516   5.888   3.836
 2146SOL     OW 7336   2.305   3.941   1.783
 2146SOL    HW1 7337   2.310   3.951   1.883
 2146SOL    HW2 7338   2.350   4.018   1.739
 2147SOL     OW 7339   6.617   1.265   5.824
 2147SOL    HW1 7340   6.560   1.345   5.844
 2147SOL    HW2 7341   6.625   1.253   5.725
 2148SOL     OW 7342   6.182   3.064   5.467
 2148SOL    HW1 7343   6.183   3.008   5.384
 2148SOL    HW2 7344   6.244   3.026   5.534
 2149SOL     OW 7345   3.216   1.609   1.010
 2149SOL    HW1 7346   3.143   1.656   0.959
 2149SOL    HW2 7347   3.275   1.677   1.053
 2150SOL     OW 7348   2.421   2.496   1.998
 2150SOL    HW1 7349   2.440   2.420   2.061
 2150SOL    HW2 7350   2.483   2.491   1.920
 2151SOL     OW 7351   1.299   0.190   5.164
 2151SOL    HW1 7352   1.275   0.100   5.200
 2151SOL    HW2 7353   1.216   0.235   5.129
 2152SOL     OW 7354   2.864   5.929   2.094
 2152SOL    HW1 7355   2.769   5.957   2.081
 2152SOL    HW2 7356   2.921   6.011   2.105
 2153SOL     OW 7357   4.398   1.404   2.945
 2153SOL    HW1 7358   4.480   1.358   2.980
 2153SOL    HW2 7359   4.374   1.366   2.856
 2154SOL     OW 7360   5.248   1.029   5.068
 2154SOL    HW1 7361   5.261   1.122   5.035
 2154SOL    HW2 7362   5.254   0.965   4.991
 2155SOL     OW 7363   2.693   5.814   0.514
 2155SOL    HW1 7364   2.755   5.868   0.571
 2155SOL    HW2 7365   2.631   5.761   0.572
 2156SOL     OW 7366   1.401   2.090   4.884
 2156SOL    HW1 7367   1.393   2.026   4.808
 2156SOL    HW2 7368   1.340   2.062   4.959
 2157SOL     OW 7369   6.082   0.387   2.981
 2157SOL    HW1 7370   6.159   0.387   2.917
 2157SOL    HW2 7371   6.090   0.308   3.042
 2158SOL     OW 7372   3.417   5.985   0.946
 2158SOL    HW1 7373   3.357   5.905   0.955
 2158SOL    HW2 7374   3.508   5.964   0.981
 2159SOL     OW 7375   1.074   6.602   5.263
 2159SOL    HW1 7376   1.154   6.548   5.238
 2159SOL    HW2 7377   0.996   6.575   5.205
 2160SOL     OW 7378   4.317   3.963   0.058
 2160SOL    HW1 7379   4.250   3.932   7.008
 2160SOL    HW2 7380   4.364   4.044   0.024
 2161SOL     OW 7381   5.363   5.018   2.431
 2161SOL    HW1 7382   5.296   5.080   2.389
 2161SOL    HW2 7383   5.417   5.070   2.498
 2162SOL     OW 7384   2.407   0.443   1.980
 2162SOL    HW1 7385   2.336   0.491   2.032
 2162SOL    HW2 7386   2.496   0.484   1.999
 2163SOL     OW 7387   1.725   4.948   6.144
 2163SOL    HW1 7388   1.674   4.862   6.148
 2163SOL    HW2 7389   1.667   5.018   6.104
 2164SOL     OW 7390   1.703   2.400   6.684
 2164SOL    HW1 7391   1.793   2.443   6.685
 2164SOL    HW2 7392   1.677   2.374   6.778
 2165SOL     OW 7393   0.042   2.213   2.567
 2165SOL    HW1 7394   0.052   2.115   2.548
 2165SOL    HW2 7395   7.000   2.225   2.647
 2166SOL     OW 7396   1.223   2.217   5.245
 2166SOL    HW1 7397   1.229   2.148   5.172
 2166SOL    HW2 7398   1.284   2.293   5.223
 2167SOL     OW 7399   1.378   2.383   3.296
 2167SOL    HW1 7400   1.312   2.336   3.237
 2167SOL    HW2 7401   1.437   2.315   3.340
 2168SOL     OW 7402   0.559   2.333   3.552
 2168SOL    HW1 7403   0.630   2.320   3.483
 2168SOL    HW2 7404   0.603   2.354   3.640
 2169SOL     OW 7405   5.292   1.765   0.006
 2169SOL    HW1 7406   5.386   1.767   0.039
 2169SOL    HW2 7407   5.274   1.680   6.975
 2170SOL     OW 7408   0.153   4.244   5.611
 2170SOL    HW1 7409   0.208   4.228   5.530
 2170SOL    HW2 7410   0.112   4.157   5.641
 2171SOL     OW 7411   0.038   5.604   1.272
 2171SOL    HW1 7412   6.979   5.540   1.284
 2171SOL    HW2 7413   0.124   5.554   1.280
 2172SOL     OW 7414   2.096   2.265   6.749
 2172SOL    HW1 7415   2.034   2.265   6.670
 2172SOL    HW2 7416   2.093   2.355   6.794
 2173SOL     OW 7417   3.979   0.843   5.227
 2173SOL    HW1 7418   3.916   0.845   5.149
 2173SOL    HW2 7419   4.046   0.917   5.217
 2174SOL     OW 7420   5.557   5.926   4.984
 2174SOL    HW1 7421   5.548   5.972   4.896
 2174SOL    HW2 7422   5.592   5.991   5.052
 2175SOL     OW 7423   2.167   2.836   4.708
 2175SOL    HW1 7424   2.180   2.906   4.638
 2175SOL    HW2 7425   2.080   2.789   4.693
 2176SOL     OW 7426   6.425   2.220   0.818
 2176SOL    HW1 7427   6.433   2.193   0.722
 2176SOL    HW2 7428   6.447   2.317   0.828
 2177SOL     OW 7429   0.080   2.061   4.028
 2177SOL    HW1 7430   0.015   1.987   4.047
 2177SOL    HW2 7431   0.124   2.045   3.940
 2178SOL     OW 7432   2.142   2.147   1.411
 2178SOL    HW1 7433   2.225   2.158   1.358
 2178SOL    HW2 7434   2.165   2.120   1.505
 2179SOL     OW 7435   2.064   5.225   5.129
 2179SOL    HW1 7436   2.060   5.321   5.158
 2179SOL    HW2 7437   1.972   5.190   5.115
 2180SOL     OW 7438   1.666   2.120   1.717
 2180SOL    HW1 7439   1.581   2.130   1.769
 2180SOL    HW2 7440   1.656   2.164   1.627
 2181SOL     OW 7441   5.102   4.747   4.407
 2181SOL    HW1 7442   5.004   4.745   4.424
 2181SOL    HW2 7443   5.151   4.732   4.493
 2182SOL     OW 7444   1.626   3.920   4.254
 2182SOL    HW1 7445   1.654   3.902   4.160
 2182SOL    HW2 7446   1.648   3.841   4.311
 2183SOL     OW 7447   2.686   4.375   5.710
 2183SOL    HW1 7448   2.760   4.441   5.711
 2183SOL    HW2 7449   2.605   4.416   5.669
 2184SOL     OW 7450   3.840   1.479   6.452
 2184SOL    HW1 7451   3.793   1.516   6.371
 2184SOL    HW2 7452   3.790   1.506   6.534
 2185SOL     OW 7453   0.365   0.903   1.103
 2185SOL    HW1 7454   0.354   0.993   1.061
 2185SOL    HW2 7455   0.437   0.852   1.055
 2186SOL     OW 7456   0.569   6.030   1.724
 2186SOL    HW1 7457   0.532   6.051   1.815
 2186SOL    HW2 7458   0.538   6.100   1.659
 2187SOL     OW 7459   6.575   6.249   2.949
 2187SOL    HW1 7460   6.537   6.283   2.863
 2187SOL    HW2 7461   6.543   6.156   2.965
 2188SOL     OW 7462   0.189   6.087   4.612
 2188SOL    HW1 7463   0.176   6.015   4.544
 2188SOL    HW2 7464   0.104   6.139   4.622
 2189SOL     OW 7465   1.928   6.294   0.606
 2189SOL    HW1 7466   2.025   6.299   0.582
 2189SOL    HW2 7467   1.906   6.363   0.674
 2190SOL     OW 7468   0.243   3.516   2.243
 2190SOL    HW1 7469   0.256   3.500   2.145
 2190SOL    HW2 7470   0.197   3.604   2.256
 2191SOL     OW 7471   3.021   2.125   6.871
 2191SOL    HW1 7472   2.930   2.101   6.835
 2191SOL    HW2 7473   3.089   2.113   6.798
 2192SOL     OW 7474   4.898   1.116   2.314
 2192SOL    HW1 7475   4.893   1.045   2.384
 2192SOL    HW2 7476   4.990   1.117   2.275
 2193SOL     OW 7477   5.415   5.790   0.076
 2193SOL    HW1 7478   5.498   5.791   0.021
 2193SOL    HW2 7479   5.358   5.713   0.049
 2194SOL     OW 7480   2.399   4.482   5.656
 2194SOL    HW1 7481   2.341   4.449   5.731
 2194SOL    HW2 7482   2.350   4.472   5.570
 2195SOL     OW 7483   0.315   0.268   4.410
 2195SOL    HW1 7484   0.282   0.349   4.458
 2195SOL    HW2 7485   0.239   0.205   4.395
 2196SOL     OW 7486   3.191   6.847   5.217
 2196SOL    HW1 7487   3.170   6.928   5.162
 2196SOL    HW2 7488   3.254   6.872   5.291
 2197SOL     OW 7489   2.983   3.554   0.265
 2197SOL    HW1 7490   3.048   3.488   0.225
 2197SOL    HW2 7491   3.032   3.618   0.323
 2198SOL     OW 7492   5.488   0.533   0.397
 2198SOL    HW1 7493   5.540   0.607   0.440
 2198SOL    HW2 7494   5.548   0.481   0.336
 2199SOL     OW 7495   4.685   0.668   3.260
 2199SOL    HW1 7496   4.695   0.765   3.240
 2199SOL    HW2 7497   4.589   0.642   3.253
 2200SOL     OW 7498   2.956   1.915   4.921
 2200SOL    HW1 7499   2.888   1.917   4.848
 2200SOL    HW2 7500   2.962   1.823   4.959
 2201SOL     OW 7501   6.972   2.649   3.057
 2201SOL    HW1 7502   7.006   2.573   3.003
 2201SOL    HW2 7503   6.970   2.732   3.001
 2202SOL     OW 7504   2.730   5.596   2.451
 2202SOL    HW1 7505   2.702   5.644   2.534
 2202SOL    HW2 7506   2.728   5.659   2.373
 2203SOL     OW 7507   1.607   2.500   0.886
 2203SOL    HW1 7508   1.659   2.455   0.814
 2203SOL    HW2 7509   1.659   2.577   0.923
 2204SOL     OW 7510   4.107   1.466   1.821
 2204SOL    HW1 7511   4.026   1.509   1.781
 2204SOL    HW2 7512   4.186   1.482   1.761
 2205SOL     OW 7513   0.713   0.006   5.806
 2205SOL    HW1 7514   0.684   0.024   5.900
 2205SOL    HW2 7515   0.633   0.001   5.746
 2206SOL     OW 7516   3.160   5.030   6.413
 2206SOL    HW1 7517   3.147   4.968   6.335
 2206SOL    HW2 7518   3.218   4.986   6.481
 2207SOL     OW 7519   3.342   4.881   6.549
 2207SOL    HW1 7520   3.339   4.797   6.496
 2207SOL    HW2 7521   3.412   4.873   6.620
 2208SOL     OW 7522   1.736   6.287   3.209
 2208SOL    HW1 7523   1.797   6.212   3.188
 2208SOL    HW2 7524   1.761   6.367   3.154
 2209SOL     OW 7525   1.466   6.423   5.263
 2209SOL    HW1 7526   1.389   6.441   5.324
 2209SOL    HW2 7527   1.550   6.412   5.316
 2210SOL     OW 7528   6.774   4.871   4.525
 2210SOL    HW1 7529   6.738   4.911   4.441
 2210SOL    HW2 7530   6.831   4.792   4.503
 2211SOL     OW 7531   6.088   0.313   1.145
 2211SOL    HW1 7532   6.185   0.294   1.157
 2211SOL    HW2 7533   6.056   0.269   1.061
 2212SOL     OW 7534   2.235   5.962   6.834
 2212SOL    HW1 7535   2.194   5.994   6.919
 2212SOL    HW2 7536   2.163   5.938   6.769
 2213SOL     OW 7537   3.305   1.998   5.449
 2213SOL    HW1 7538   3.359   2.041   5.521
 2213SOL    HW2 7539   3.254   1.921   5.488
 2214SOL     OW 7540   3.685   3.347   5.136
 2214SOL    HW1 7541   3.739   3.430   5.150
 2214SOL    HW2 7542   3.589   3.366   5.157
 2215SOL     OW 7543   6.055   0.932   0.389
 2215SOL    HW1 7544   6.004   0.951   0.473
 2215SOL    HW2 7545   6.117   1.007   0.369
 2216SOL     OW 7546   1.587   0.954   6.293
 2216SOL    HW1 7547   1.616   1.045   6.322
 2216SOL    HW2 7548   1.582   0.893   6.372
 2217SOL     OW 7549   4.303   6.867   1.842
 2217SOL    HW1 7550   4.260   6.798   1.784
 2217SOL    HW2 7551   4.292   6.957   1.800
 2218SOL     OW 7552   6.713   5.893   0.080
 2218SOL    HW1 7553   6.631   5.947   0.095
 2218SOL    HW2 7554   6.690   5.809   0.031
 2219SOL     OW 7555   5.392   1.862   1.429
 2219SOL    HW1 7556   5.386   1.940   1.491
 2219SOL    HW2 7557   5.300   1.831   1.405
 2220SOL     OW 7558   1.884   7.007   5.105
 2220SOL    HW1 7559   1.860   6.966   5.017
 2220SOL    HW2 7560   1.830   0.072   5.119
 2221SOL     OW 7561   6.328   1.086   5.616
 2221SOL    HW1 7562   6.310   1.184   5.614
 2221SOL    HW2 7563   6.262   1.039   5.557
 2222SOL     OW 7564   4.797   0.936   0.120
 2222SOL    HW1 7565   4.857   0.966   0.194
 2222SOL    HW2 7566   4.759   0.846   0.143
 2223SOL     OW 7567   5.752   0.810   4.956
 2223SOL    HW1 7568   5.828   0.777   5.011
 2223SOL    HW2 7569   5.668   0.764   4.984
 2224SOL     OW 7570   0.239   3.621   0.812
 2224SOL    HW1 7571   0.332   3.628   0.846
 2224SOL    HW2 7572   0.199   3.534   0.840
 2225SOL     OW 7573   6.849   6.282   3.564
 2225SOL    HW1 7574   6.774   6.326   3.515
 2225SOL    HW2 7575   6.841   6.183   3.555
 2226SOL     OW 7576   3.724   5.070   0.936
 2226SOL    HW1 7577   3.761   5.104   1.022
 2226SOL    HW2 7578   3.624   5.072   0.939
 2227SOL     OW 7579   5.103   3.656   6.805
 2227SOL    HW1 7580   5.140   3.568   6.835
 2227SOL    HW2 7581   5.122   3.669   6.708
 2228SOL     OW 7582   3.612   4.794   1.206
 2228SOL    HW1 7583   3.597   4.761   1.299
 2228SOL    HW2 7584   3.552   4.745   1.143
 2229SOL     OW 7585   4.690   2.767   5.036
 2229SOL    HW1 7586   4.757   2.815   5.093
 2229SOL    HW2 7587   4.720   2.769   4.940
 2230SOL     OW 7588   5.525   6.694   6.947
 2230SOL    HW1 7589   5.528   6.596   6.965
 2230SOL    HW2 7590   5.530   6.710   6.849
 2231SOL     OW 7591   0.725   0.963   1.600
 2231SOL    HW1 7592   0.748   1.038   1.662
 2231SOL    HW2 7593   0.633   0.976   1.564
 2232SOL     OW 7594   0.806   2.743   5.312
 2232SOL    HW1 7595   0.906   2.745   5.307
 2232SOL    HW2 7596   0.776   2.652   5.340
 2233SOL     OW 7597   2.303   3.790   0.313
 2233SOL    HW1 7598   2.262   3.779   0.222
 2233SOL    HW2 7599   2.237   3.835   0.373
 2234SOL     OW 7600   4.107   1.819   1.747
 2234SOL    HW1 7601   4.169   1.779   1.813
 2234SOL    HW2 7602   4.037   1.752   1.721
 2235SOL     OW 7603   2.795   6.892   1.211
 2235SOL    HW1 7604   2.817   6.934   1.299
 2235SOL    HW2 7605   2.873   6.838   1.179
 2236SOL     OW 7606   1.783   4.420   6.257
 2236SOL    HW1 7607   1.876   4.451   6.234
 2236SOL    HW2 7608   1.730   4.497   6.291
 2237SOL     OW 7609   5.888   4.548   3.919
 2237SOL    HW1 7610   5.852   4.626   3.868
 2237SOL    HW2 7611   5.935   4.580   4.001
 2238SOL     OW 7612   4.610   4.713   1.555
 2238SOL    HW1 7613   4.513   4.689   1.566
 2238SOL    HW2 7614   4.647   4.668   1.474
 2239SOL     OW 7615   4.095   5.123   4.020
 2239SOL    HW1 7616   4.108   5.105   3.923
 2239SOL    HW2 7617   4.011   5.079   4.052
 2240SOL     OW 7618   4.823   5.819   3.839
 2240SOL    HW1 7619   4.738   5.873   3.845
 2240SOL    HW2 7620   4.900   5.881   3.825
 2241SOL     OW 7621   0.245   5.515   3.488
 2241SOL    HW1 7622   0.194   5.446   3.436
 2241SOL    HW2 7623   0.237   5.496   3.586
 2242SOL     OW 7624   5.319   2.760   2.845
 2242SOL    HW1 7625   5.400   2.818   2.833
 2242SOL    HW2 7626   5.274   2.747   2.756
 2243SOL     OW 7627   1.667   6.713   6.113
 2243SOL    HW1 7628   1.766   6.718   6.097
 2243SOL    HW2 7629   1.624   6.798   6.083
 2244SOL     OW 7630   1.648   6.648   1.924
 2244SOL    HW1 7631   1.661   6.553   1.953
 2244SOL    HW2 7632   1.657   6.654   1.825
 2245SOL     OW 7633   0.502   2.509   1.077
 2245SOL    HW1 7634   0.412   2.483   1.042
 2245SOL    HW2 7635   0.503   2.497   1.176
 2246SOL     OW 7636   1.012   1.914   4.867
 2246SOL    HW1 7637   0.989   1.960   4.781
 2246SOL    HW2 7638   1.013   1.815   4.853
 2247SOL     OW 7639   3.539   3.191   3.991
 2247SOL    HW1 7640   3.476   3.132   4.041
 2247SOL    HW2 7641   3.620   3.139   3.964
 2248SOL     OW 7642   5.770   4.004   5.763
 2248SOL    HW1 7643   5.729   3.937   5.701
 2248SOL    HW2 7644   5.849   4.045   5.719
 2249SOL     OW 7645   6.204   6.462   2.862
 2249SOL    HW1 7646   6.209   6.443   2.960
 2249SOL    HW2 7647   6.267   6.537   2.839
 2250SOL     OW 7648   4.231   3.759   6.110
 2250SOL    HW1 7649   4.215   3.752   6.208
 2250SOL    HW2 7650   4.145   3.783   6.064
 2251SOL     OW 7651   5.372   0.293   6.739
 2251SOL    HW1 7652   5.322   0.206   6.747
 2251SOL    HW2 7653   5.367   0.341   6.826
 2252SOL     OW 7654   4.738   2.794   2.204
 2252SOL    HW1 7655   4.758   2.819   2.299
 2252SOL    HW2 7656   4.767   2.869   2.144
 2253SOL     OW 7657   0.994   3.695   6.662
 2253SOL    HW1 7658   0.979   3.651   6.751
 2253SOL    HW2 7659   0.925   3.767   6.649
 2254SOL     OW 7660   3.676   2.560   5.676
 2254SOL    HW1 7661   3.604   2.548   5.744
 2254SOL    HW2 7662   3.640   2.538   5.585
 2255SOL     OW 7663   4.780   2.958   6.127
 2255SOL    HW1 7664   4.702   2.910   6.165
 2255SOL    HW2 7665   4.834   2.895   6.071
 2256SOL     OW 7666   5.319   6.014   1.751
 2256SOL    HW1 7667   5.383   5.939   1.736
 2256SOL    HW2 7668   5.284   6.046   1.663
 2257SOL     OW 7669   0.214   2.008   4.501
 2257SOL    HW1 7670   0.156   2.074   4.549
 2257SOL    HW2 7671   0.162   1.966   4.427
 2258SOL     OW 7672   1.120   5.310   5.509
 2258SOL    HW1 7673   1.110   5.385   5.444
 2258SOL    HW2 7674   1.095   5.341   5.601
 2259SOL     OW 7675   5.298   3.917   6.604
 2259SOL    HW1 7676   5.242   3.936   6.684
 2259SOL    HW2 7677   5.262   3.837   6.556
 2260SOL     OW 7678   6.121   4.120   1.849
 2260SOL    HW1 7679   6.075   4.134   1.761
 2260SOL    HW2 7680   6.219   4.140   1.838
 2261SOL     OW 7681   6.377   5.867   0.269
 2261SOL    HW1 7682   6.291   5.896   0.228
 2261SOL    HW2 7683   6.434   5.948   0.288
 2262SOL     OW 7684   5.940   1.335   3.232
 2262SOL    HW1 7685   6.004   1.310   3.160
 2262SOL    HW2 7686   5.940   1.263   3.302
 2263SOL     OW 7687   3.182   5.428   0.278
 2263SOL    HW1 7688   3.175   5.370   0.359
 2263SOL    HW2 7689   3.171   5.372   0.195
 2264SOL     OW 7690   2.578   4.368   0.322
 2264SOL    HW1 7691   2.625   4.349   0.236
 2264SOL    HW2 7692   2.568   4.284   0.374
 2265SOL     OW 7693   0.368   0.730   4.545
 2265SOL    HW1 7694   0.352   0.807   4.607
 2265SOL    HW2 7695   0.466   0.711   4.538
 2266SOL     OW 7696   4.939   2.012   0.162
 2266SOL    HW1 7697   4.846   2.038   0.191
 2266SOL    HW2 7698   4.935   1.927   0.110
 2267SOL     OW 7699   4.980   2.296   4.790
 2267SOL    HW1 7700   5.008   2.224   4.853
 2267SOL    HW2 7701   4.884   2.319   4.807
 2268SOL     OW 7702   6.408   3.619   6.873
 2268SOL    HW1 7703   6.353   3.631   6.790
 2268SOL    HW2 7704   6.444   3.526   6.876
 2269SOL     OW 7705   5.934   5.503   5.292
 2269SOL    HW1 7706   5.863   5.453   5.342
 2269SOL    HW2 7707   6.001   5.539   5.358
 2270SOL     OW 7708   3.278   2.791   6.121
 2270SOL    HW1 7709   3.362   2.814   6.073
 2270SOL    HW2 7710   3.278   2.835   6.211
 2271SOL     OW 7711   5.562   3.720   0.723
 2271SOL    HW1 7712   5.483   3.677   0.679
 2271SOL    HW2 7713   5.622   3.649   0.760
 2272SOL     OW 7714   5.920   2.743   6.164
 2272SOL    HW1 7715   5.984   2.709   6.096
 2272SOL    HW2 7716   5.866   2.667   6.200
 2273SOL     OW 7717   1.792   0.398   1.914
 2273SOL    HW1 7718   1.788   0.498   1.918
 2273SOL    HW2 7719   1.873   0.370   1.863
 2274SOL     OW 7720   6.980   2.443   6.479
 2274SOL    HW1 7721   0.021   2.519   6.449
 2274SOL    HW2 7722   6.890   2.478   6.504
 2275SOL     OW 7723   6.471   0.376   4.004
 2275SOL    HW1 7724   6.568   0.397   3.989
 2275SOL    HW2 7725   6.456   0.353   4.100
 2276SOL     OW 7726   2.492   4.832   0.779
 2276SOL    HW1 7727   2.542   4.906   0.732
 2276SOL    HW2 7728   2.477   4.757   0.715
 2277SOL     OW 7729   3.968   4.035   4.930
 2277SOL    HW1 7730   3.903   4.027   4.855
 2277SOL    HW2 7731   4.033   4.109   4.911
 2278SOL     OW 7732   6.336   5.105   4.323
 2278SOL    HW1 7733   6.274   5.037   4.362
 2278SOL    HW2 7734   6.408   5.126   4.390
 2279SOL     OW 7735   5.258   6.374   4.682
 2279SOL    HW1 7736   5.234   6.295   4.626
 2279SOL    HW2 7737   5.357   6.387   4.681
 2280SOL     OW 7738   6.497   6.862   4.629
 2280SOL    HW1 7739   6.552   6.866   4.546
 2280SOL    HW2 7740   6.544   6.807   4.698
 2281SOL     OW 7741   3.404   1.202   2.483
 2281SOL    HW1 7742   3.373   1.270   2.417
 2281SOL    HW2 7743   3.369   1.225   2.574
 2282SOL     OW 7744   4.917   0.183   4.452
 2282SOL    HW1 7745   4.857   0.115   4.408
 2282SOL    HW2 7746   5.007   0.181   4.408
 2283SOL     OW 7747   0.486   4.568   1.737
 2283SOL    HW1 7748   0.407   4.594   1.681
 2283SOL    HW2 7749   0.526   4.650   1.778
 2284SOL     OW 7750   1.135   2.343   6.453
 2284SOL    HW1 7751   1.035   2.340   6.454
 2284SOL    HW2 7752   1.170   2.251   6.473
 2285SOL     OW 7753   2.527   2.058   0.603
 2285SOL    HW1 7754   2.625   2.051   0.618
 2285SOL    HW2 7755   2.483   1.970   0.623
 2286SOL     OW 7756   0.062   0.401   4.141
 2286SOL    HW1 7757   0.008   0.387   4.223
 2286SOL    HW2 7758   0.136   0.465   4.160
 2287SOL     OW 7759   1.310   1.009   3.107
 2287SOL    HW1 7760   1.293   1.001   3.009
 2287SOL    HW2 7761   1.343   0.922   3.142
 2288SOL     OW 7762   5.972   5.387   4.738
 2288SOL    HW1 7763   5.914   5.406   4.658
 2288SOL    HW2 7764   6.048   5.330   4.710
 2289SOL     OW 7765   0.792   4.936   1.865
 2289SOL    HW1 7766   0.836   5.004   1.924
 2289SOL    HW2 7767   0.786   4.971   1.772
 2290SOL     OW 7768   1.181   4.558   0.963
 2290SOL    HW1 7769   1.263   4.543   0.908
 2290SOL    HW2 7770   1.204   4.548   1.060
 2291SOL     OW 7771   2.556   2.714   6.259
 2291SOL    HW1 7772   2.594   2.631   6.300
 2291SOL    HW2 7773   2.467   2.734   6.299
 2292SOL     OW 7774   5.941   1.908   5.013
 2292SOL    HW1 7775   6.017   1.850   5.043
 2292SOL    HW2 7776   5.912   1.879   4.922
 2293SOL     OW 7777   5.360   6.829   1.287
 2293SOL    HW1 7778   5.380   6.749   1.344
 2293SOL    HW2 7779   5.362   6.803   1.190
 2294SOL     OW 7780   3.070   1.079   6.708
 2294SOL    HW1 7781   3.033   1.155   6.655
 2294SOL    HW2 7782   3.025   0.994   6.680
 2295SOL     OW 7783   0.538   2.593   2.822
 2295SOL    HW1 7784   0.524   2.530   2.899
 2295SOL    HW2 7785   0.453   2.641   2.803
 2296SOL     OW 7786   3.845   5.548   1.498
 2296SOL    HW1 7787   3.810   5.455   1.514
 2296SOL    HW2 7788   3.781   5.614   1.537
 2297SOL     OW 7789   4.744   4.733   5.774
 2297SOL    HW1 7790   4.722   4.824   5.809
 2297SOL    HW2 7791   4.822   4.738   5.713
 2298SOL     OW 7792   3.993   3.215   1.745
 2298SOL    HW1 7793   3.941   3.228   1.830
 2298SOL    HW2 7794   4.060   3.289   1.735
 2299SOL     OW 7795   4.165   5.292   5.297
 2299SOL    HW1 7796   4.206   5.299   5.388
 2299SOL    HW2 7797   4.235   5.266   5.231
 2300SOL     OW 7798   2.254   6.126   1.526
 2300SOL    HW1 7799   2.189   6.052   1.510
 2300SOL    HW2 7800   2.271   6.176   1.441
 2301SOL     OW 7801   3.432   3.023   2.644
 2301SOL    HW1 7802   3.332   3.029   2.653
 2301SOL    HW2 7803   3.469   2.971   2.721
 2302SOL     OW 7804   3.765   0.352   0.767
 2302SOL    HW1 7805   3.773   0.260   0.729
 2302SOL    HW2 7806   3.671   0.383   0.760
 2303SOL     OW 7807   2.838   3.198   6.252
 2303SOL    HW1 7808   2.919   3.139   6.257
 2303SOL    HW2 7809   2.771   3.168   6.320
 2304SOL     OW 7810   4.617   6.675   3.328
 2304SOL    HW1 7811   4.624   6.638   3.421
 2304SOL    HW2 7812   4.708   6.702   3.296
 2305SOL     OW 7813   2.618   6.533   2.510
 2305SOL    HW1 7814   2.549   6.578   2.566
 2305SOL    HW2 7815   2.616   6.571   2.417
 2306SOL     OW 7816   3.024   5.064   2.036
 2306SOL    HW1 7817   2.976   5.072   1.949
 2306SOL    HW2 7818   3.120   5.089   2.024
 2307SOL     OW 7819   6.656   3.978   3.068
 2307SOL    HW1 7820   6.731   4.035   3.037
 2307SOL    HW2 7821   6.683   3.927   3.149
 2308SOL     OW 7822   0.985   5.270   1.179
 2308SOL    HW1 7823   1.053   5.214   1.133
 2308SOL    HW2 7824   1.008   5.367   1.167
 2309SOL     OW 7825   1.859   0.734   6.851
 2309SOL    HW1 7826   1.883   0.637   6.847
 2309SOL    HW2 7827   1.760   0.744   6.859
 2310SOL     OW 7828   5.228   6.422   0.490
 2310SOL    HW1 7829   5.137   6.389   0.466
 2310SOL    HW2 7830   5.293   6.346   0.489
 2311SOL     OW 7831   2.026   6.693   1.406
 2311SOL    HW1 7832   1.975   6.773   1.374
 2311SOL    HW2 7833   2.042   6.702   1.504
 2312SOL     OW 7834   4.049   6.316   3.026
 2312SOL    HW1 7835   4.062   6.405   2.983
 2312SOL    HW2 7836   4.130   6.259   3.010
 2313SOL     OW 7837   5.950   6.084   1.204
 2313SOL    HW1 7838   5.936   6.100   1.107
 2313SOL    HW2 7839   6.047   6.086   1.225
 2314SOL     OW 7840   6.176   6.638   3.990
 2314SOL    HW1 7841   6.127   6.601   4.069
 2314SOL    HW2 7842   6.266   6.671   4.019
 2315SOL     OW 7843   4.955   3.648   6.275
 2315SOL    HW1 7844   4.870   3.596   6.291
 2315SOL    HW2 7845   5.020   3.590   6.227
 2316SOL     OW 7846   3.691   0.922   4.154
 2316SOL    HW1 7847   3.677   0.937   4.251
 2316SOL    HW2 7848   3.740   0.836   4.140
 2317SOL     OW 7849   0.577   5.820   3.645
 2317SOL    HW1 7850   0.477   5.813   3.650
 2317SOL    HW2 7851   0.610   5.884   3.715
 2318SOL     OW 7852   1.913   2.716   4.445
 2318SOL    HW1 7853   1.899   2.767   4.530
 2318SOL    HW2 7854   2.010   2.715   4.423
 2319SOL     OW 7855   2.079   4.659   4.156
 2319SOL    HW1 7856   2.050   4.642   4.250
 2319SOL    HW2 7857   1.998   4.661   4.096
 2320SOL     OW 7858   0.892   2.405   4.921
 2320SOL    HW1 7859   0.983   2.410   4.879
 2320SOL    HW2 7860   0.833   2.474   4.880
 2321SOL     OW 7861   2.308   0.414   0.289
 2321SOL    HW1 7862   2.286   0.492   0.230
 2321SOL    HW2 7863   2.226   0.358   0.302
 2322SOL     OW 7864   2.469   1.533   3.635
 2322SOL    HW1 7865   2.385   1.586   3.623
 2322SOL    HW2 7866   2.536   1.588   3.685
 2323SOL     OW 7867   2.738   4.960   1.909
 2323SOL    HW1 7868   2.684   4.972   1.992
 2323SOL    HW2 7869   2.750   4.863   1.890
 2324SOL     OW 7870   6.450   6.707   1.435
 2324SOL    HW1 7871   6.480   6.777   1.369
 2324SOL    HW2 7872   6.386   6.645   1.391
 2325SOL     OW 7873   1.551   5.096   1.266
 2325SOL    HW1 7874   1.528   5.000   1.279
 2325SOL    HW2 7875   1.475   5.144   1.222
 2326SOL     OW 7876   3.035   5.409   6.170
 2326SOL    HW1 7877   3.053   5.468   6.091
 2326SOL    HW2 7878   3.083   5.446   6.250
 2327SOL     OW 7879   6.708   2.409   3.896
 2327SOL    HW1 7880   6.726   2.405   3.995
 2327SOL    HW2 7881   6.789   2.382   3.846
 2328SOL     OW 7882   3.104   2.100   2.513
 2328SOL    HW1 7883   3.085   2.105   2.415
 2328SOL    HW2 7884   3.019   2.113   2.564
 2329SOL     OW 7885   1.391   3.807   5.261
 2329SOL    HW1 7886   1.464   3.853   5.310
 2329SOL    HW2 7887   1.332   3.876   5.217
 2330SOL     OW 7888   0.741   4.269   1.458
 2330SOL    HW1 7889   0.771   4.250   1.552
 2330SOL    HW2 7890   0.812   4.240   1.394
 2331SOL     OW 7891   5.221   4.916   0.903
 2331SOL    HW1 7892   5.160   4.948   0.831
 2331SOL    HW2 7893   5.203   4.967   0.987
 2332SOL     OW 7894   4.707   1.995   5.001
 2332SOL    HW1 7895   4.688   2.014   5.098
 2332SOL    HW2 7896   4.625   1.957   4.958
 2333SOL     OW 7897   0.832   5.264   2.961
 2333SOL    HW1 7898   0.770   5.230   3.032
 2333SOL    HW2 7899   0.784   5.264   2.873
 2334SOL     OW 7900   2.507   0.297   6.964
 2334SOL    HW1 7901   2.491   0.248   0.032
 2334SOL    HW2 7902   2.600   0.334   6.963
 2335SOL     OW 7903   5.686   0.872   3.047
 2335SOL    HW1 7904   5.650   0.965   3.034
 2335SOL    HW2 7905   5.685   0.823   2.960
 2336SOL     OW 7906   4.466   2.404   4.948
 2336SOL    HW1 7907   4.366   2.403   4.947
 2336SOL    HW2 7908   4.498   2.443   5.035
 2337SOL     OW 7909   4.670   0.894   2.854
 2337SOL    HW1 7910   4.578   0.861   2.834
 2337SOL    HW2 7911   4.690   0.973   2.796
 2338SOL     OW 7912   1.446   2.064   6.136
 2338SOL    HW1 7913   1.472   2.034   6.044
 2338SOL    HW2 7914   1.347   2.058   6.146
 2339SOL     OW 7915   4.005   3.879   5.163
 2339SOL    HW1 7916   4.009   3.919   5.072
 2339SOL    HW2 7917   4.037   3.784   5.159
 2340SOL     OW 7918   5.584   4.490   0.270
 2340SOL    HW1 7919   5.559   4.432   0.192
 2340SOL    HW2 7920   5.680   4.518   0.261
 2341SOL     OW 7921   4.892   4.420   1.173
 2341SOL    HW1 7922   4.974   4.399   1.227
 2341SOL    HW2 7923   4.920   4.451   1.082
 2342SOL     OW 7924   0.514   6.924   5.126
 2342SOL    HW1 7925   0.527   6.826   5.108
 2342SOL    HW2 7926   0.602   6.965   5.148
 2343SOL     OW 7927   2.438   5.984   2.644
 2343SOL    HW1 7928   2.416   6.002   2.548
 2343SOL    HW2 7929   2.453   6.071   2.691
 2344SOL     OW 7930   1.736   0.597   0.982
 2344SOL    HW1 7931   1.749   0.691   0.951
 2344SOL    HW2 7932   1.739   0.594   1.082
 2345SOL     OW 7933   3.531   5.514   5.494
 2345SOL    HW1 7934   3.466   5.471   5.557
 2345SOL    HW2 7935   3.605   5.450   5.473
 2346SOL     OW 7936   5.188   2.508   4.806
 2346SOL    HW1 7937   5.260   2.479   4.868
 2346SOL    HW2 7938   5.122   2.434   4.793
 2347SOL     OW 7939   2.494   3.278   1.688
 2347SOL    HW1 7940   2.453   3.263   1.598
 2347SOL    HW2 7941   2.437   3.342   1.740
 2348SOL     OW 7942   3.619   6.150   3.318
 2348SOL    HW1 7943   3.692   6.210   3.288
 2348SOL    HW2 7944   3.530   6.194   3.302
 2349SOL     OW 7945   0.841   4.926   6.126
 2349SOL    HW1 7946   0.758   4.876   6.104
 2349SOL    HW2 7947   0.839   5.016   6.083
 2350SOL     OW 7948   4.853   6.853   6.290
 2350SOL    HW1 7949   4.780   6.819   6.349
 2350SOL    HW2 7950   4.815   6.881   6.202
 2351SOL     OW 7951   3.602   5.326   2.662
 2351SOL    HW1 7952   3.546   5.337   2.745
 2351SOL    HW2 7953   3.544   5.292   2.588
 2352SOL     OW 7954   1.185   4.170   2.111
 2352SOL    HW1 7955   1.112   4.138   2.052
 2352SOL    HW2 7956   1.250   4.096   2.128
 2353SOL     OW 7957   2.979   4.710   5.333
 2353SOL    HW1 7958   2.888   4.748   5.352
 2353SOL    HW2 7959   2.969   4.618   5.294
 2354SOL     OW 7960   2.682   1.830   6.200
 2354SOL    HW1 7961   2.590   1.798   6.178
 2354SOL    HW2 7962   2.720   1.879   6.122
 2355SOL     OW 7963   1.167   5.488   6.771
 2355SOL    HW1 7964   1.143   5.584   6.782
 2355SOL    HW2 7965   1.264   5.475   6.791
 2356SOL     OW 7966   2.213   4.040   0.738
 2356SOL    HW1 7967   2.186   3.944   0.742
 2356SOL    HW2 7968   2.244   4.063   0.646
 2357SOL     OW 7969   4.555   5.247   4.089
 2357SOL    HW1 7970   4.531   5.162   4.137
 2357SOL    HW2 7971   4.525   5.242   3.994
 2358SOL     OW 7972   2.738   5.267   5.609
 2358SOL    HW1 7973   2.811   5.295   5.547
 2358SOL    HW2 7974   2.774   5.201   5.675
 2359SOL     OW 7975   0.039   1.090   6.001
 2359SOL    HW1 7976   0.103   1.157   6.037
 2359SOL    HW2 7977   6.966   1.106   6.040
 2360SOL     OW 7978   5.127   5.899   6.072
 2360SOL    HW1 7979   5.031   5.889   6.047
 2360SOL    HW2 7980   5.142   5.863   6.164
 2361SOL     OW 7981   2.833   1.071   5.221
 2361SOL    HW1 7982   2.776   1.007   5.169
 2361SOL    HW2 7983   2.786   1.159   5.228
 2362SOL     OW 7984   2.877   0.740   4.787
 2362SOL    HW1 7985   2.955   0.790   4.824
 2362SOL    HW2 7986   2.825   0.799   4.726
 2363SOL     OW 7987   4.290   2.600   5.590
 2363SOL    HW1 7988   4.202   2.552   5.590
 2363SOL    HW2 7989   4.276   2.696   5.568
 2364SOL     OW 7990   0.735   2.229   3.113
 2364SOL    HW1 7991   0.671   2.184   3.051
 2364SOL    HW2 7992   0.772   2.311   3.069
 2365SOL     OW 7993   6.296   2.477   6.440
 2365SOL    HW1 7994   6.314   2.466   6.342
 2365SOL    HW2 7995   6.282   2.574   6.460
 2366SOL     OW 7996   1.397   4.480   5.910
 2366SOL    HW1 7997   1.370   4.426   5.830
 2366SOL    HW2 7998   1.478   4.534   5.888
 2367SOL     OW 7999   3.741   3.714   6.800
 2367SOL    HW1 8000   3.770   3.621   6.779
 2367SOL    HW2 8001   3.642   3.720   6.789
 2368SOL     OW 8002   5.128   6.742   3.270
 2368SOL    HW1 8003   5.175   6.741   3.181
 2368SOL    HW2 8004   5.195   6.757   3.343
 2369SOL     OW 8005   2.023   2.688   5.407
 2369SOL    HW1 8006   1.948   2.670   5.344
 2369SOL    HW2 8007   1.994   2.751   5.478
 2370SOL     OW 8008   4.850   4.263   6.760
 2370SOL    HW1 8009   4.927   4.260   6.696
 2370SOL    HW2 8010   4.813   4.171   6.772
 2371SOL     OW 8011   0.656   6.074   1.416
 2371SOL    HW1 8012   0.664   6.168   1.449
 2371SOL    HW2 8013   0.747   6.038   1.397
 2372SOL     OW 8014   0.285   2.243   1.246
 2372SOL    HW1 8015   0.217   2.224   1.317
 2372SOL    HW2 8016   0.370   2.274   1.288
 2373SOL     OW 8017   0.262   0.024   6.980
 2373SOL    HW1 8018   0.338   7.004   6.928
 2373SOL    HW2 8019   0.176   7.014   6.937
 2374SOL     OW 8020   6.292   0.520   3.597
 2374SOL    HW1 8021   6.328   0.538   3.688
 2374SOL    HW2 8022   6.250   0.430   3.595
 2375SOL     OW 8023   1.848   6.460   4.460
 2375SOL    HW1 8024   1.880   6.497   4.373
 2375SOL    HW2 8025   1.920   6.470   4.529
 2376SOL     OW 8026   5.621   2.113   4.189
 2376SOL    HW1 8027   5.535   2.159   4.212
 2376SOL    HW2 8028   5.613   2.074   4.097
 2377SOL     OW 8029   3.340   4.076   2.912
 2377SOL    HW1 8030   3.290   3.991   2.928
 2377SOL    HW2 8031   3.276   4.153   2.907
 2378SOL     OW 8032   4.470   2.449   7.006
 2378SOL    HW1 8033   4.530   2.376   6.972
 2378SOL    HW2 8034   4.459   2.519   6.936
 2379SOL     OW 8035   6.483   1.900   6.915
 2379SOL    HW1 8036   6.453   1.987   6.956
 2379SOL    HW2 8037   6.554   1.918   6.847
 2380SOL     OW 8038   0.028   6.805   5.534
 2380SOL    HW1 8039   6.977   6.751   5.485
 2380SOL    HW2 8040   0.091   6.743   5.581
 2381SOL     OW 8041   2.205   4.084   4.076
 2381SOL    HW1 8042   2.153   4.168   4.061
 2381SOL    HW2 8043   2.246   4.087   4.168
 2382SOL     OW 8044   2.292   5.253   3.585
 2382SOL    HW1 8045   2.200   5.292   3.586
 2382SOL    HW2 8046   2.355   5.318   3.543
 2383SOL     OW 8047   6.065   6.506   6.989
 2383SOL    HW1 8048   6.092   6.510   0.067
 2383SOL    HW2 8049   5.974   6.465   6.982
 2384SOL     OW 8050   6.427   6.359   2.162
 2384SOL    HW1 8051   6.378   6.276   2.191
 2384SOL    HW2 8052   6.511   6.333   2.114
 2385SOL     OW 8053   6.274   6.604   1.242
 2385SOL    HW1 8054   6.234   6.684   1.196
 2385SOL    HW2 8055   6.202   6.537   1.259
 2386SOL     OW 8056   5.213   4.635   4.171
 2386SOL    HW1 8057   5.310   4.626   4.190
 2386SOL    HW2 8058   5.163   4.651   4.256
 2387SOL     OW 8059   0.340   1.951   3.730
 2387SOL    HW1 8060   0.322   2.013   3.807
 2387SOL    HW2 8061   0.395   1.999   3.662
 2388SOL     OW 8062   1.148   2.189   3.812
 2388SOL    HW1 8063   1.211   2.141   3.751
 2388SOL    HW2 8064   1.176   2.172   3.907
 2389SOL     OW 8065   5.358   3.283   3.370
 2389SOL    HW1 8066   5.425   3.334   3.423
 2389SOL    HW2 8067   5.351   3.190   3.406
 2390SOL     OW 8068   3.068   4.004   4.311
 2390SOL    HW1 8069   3.104   3.914   4.284
 2390SOL    HW2 8070   2.987   4.025   4.257
 2391SOL     OW 8071   4.447   4.233   5.754
 2391SOL    HW1 8072   4.504   4.151   5.744
 2391SOL    HW2 8073   4.429   4.273   5.664
 2392SOL     OW 8074   3.653   6.879   5.164
 2392SOL    HW1 8075   3.636   6.958   5.224
 2392SOL    HW2 8076   3.639   6.907   5.069
 2393SOL     OW 8077   4.168   4.818   0.178
 2393SOL    HW1 8078   4.094   4.754   0.159
 2393SOL    HW2 8079   4.185   4.875   0.098
 2394SOL     OW 8080   1.844   3.135   4.297
 2394SOL    HW1 8081   1.896   3.144   4.213
 2394SOL    HW2 8082   1.748   3.158   4.280
 2395SOL     OW 8083   6.327   2.658   0.631
 2395SOL    HW1 8084   6.313   2.654   0.730
 2395SOL    HW2 8085   6.276   2.584   0.588
 2396SOL     OW 8086   4.226   5.304   0.980
 2396SOL    HW1 8087   4.173   5.388   0.981
 2396SOL    HW2 8088   4.268   5.291   1.070
 2397SOL     OW 8089   0.230   3.752   0.120
 2397SOL    HW1 8090   0.153   3.688   0.127
 2397SOL    HW2 8091   0.203   3.841   0.155
 2398SOL     OW 8092   3.106   4.089   6.303
 2398SOL    HW1 8093   3.025   4.148   6.298
 2398SOL    HW2 8094   3.083   4.006   6.353
 2399SOL     OW 8095   5.361   1.514   2.672
 2399SOL    HW1 8096   5.395   1.545   2.760
 2399SOL    HW2 8097   5.390   1.419   2.657
 2400SOL     OW 8098   3.621   5.274   0.161
 2400SOL    HW1 8099   3.577   5.196   0.204
 2400SOL    HW2 8100   3.701   5.301   0.214
 2401SOL     OW 8101   4.318   0.390   6.549
 2401SOL    HW1 8102   4.341   0.471   6.601
 2401SOL    HW2 8103   4.220   0.391   6.528
 2402SOL     OW 8104   0.843   1.970   4.211
 2402SOL    HW1 8105   0.858   1.876   4.240
 2402SOL    HW2 8106   0.928   2.009   4.176
 2403SOL     OW 8107   2.844   2.363   0.428
 2403SOL    HW1 8108   2.863   2.278   0.379
 2403SOL    HW2 8109   2.921   2.426   0.417
 2404SOL     OW 8110   5.886   1.230   1.697
 2404SOL    HW1 8111   5.842   1.314   1.666
 2404SOL    HW2 8112   5.899   1.233   1.796
 2405SOL     OW 8113   3.225   3.422   3.436
 2405SOL    HW1 8114   3.261   3.366   3.511
 2405SOL    HW2 8115   3.141   3.380   3.400
 2406SOL     OW 8116   1.707   7.004   3.406
 2406SOL    HW1 8117   1.618   6.978   3.442
 2406SOL    HW2 8118   1.699   0.072   3.356
 2407SOL     OW 8119   5.462   2.535   2.505
 2407SOL    HW1 8120   5.442   2.486   2.590
 2407SOL    HW2 8121   5.380   2.539   2.449
 2408SOL     OW 8122   3.903   4.897   3.203
 2408SOL    HW1 8123   3.842   4.883   3.124
 2408SOL    HW2 8124   3.994   4.920   3.170
 2409SOL     OW 8125   1.523   2.699   1.461
 2409SOL    HW1 8126   1.497   2.645   1.541
 2409SOL    HW2 8127   1.616   2.673   1.432
 2410SOL     OW 8128   4.908   2.150   6.319
 2410SOL    HW1 8129   4.905   2.250   6.323
 2410SOL    HW2 8130   4.964   2.121   6.242
 2411SOL     OW 8131   4.686   5.478   5.881
 2411SOL    HW1 8132   4.602   5.445   5.838
 2411SOL    HW2 8133   4.665   5.515   5.971
 2412SOL     OW 8134   3.581   4.722   0.263
 2412SOL    HW1 8135   3.504   4.658   0.271
 2412SOL    HW2 8136   3.580   4.763   0.172
 2413SOL     OW 8137   6.687   2.253   0.228
 2413SOL    HW1 8138   6.633   2.204   0.297
 2413SOL    HW2 8139   6.642   2.341   0.207
 2414SOL     OW 8140   5.158   4.242   1.943
 2414SOL    HW1 8141   5.195   4.150   1.931
 2414SOL    HW2 8142   5.092   4.261   1.870
 2415SOL     OW 8143   0.927   6.739   1.414
 2415SOL    HW1 8144   1.006   6.792   1.445
 2415SOL    HW2 8145   0.863   6.799   1.366
 2416SOL     OW 8146   3.642   2.080   5.290
 2416SOL    HW1 8147   3.544   2.097   5.287
 2416SOL    HW2 8148   3.664   2.003   5.230
 2417SOL     OW 8149   4.162   3.423   5.917
 2417SOL    HW1 8150   4.074   3.411   5.872
 2417SOL    HW2 8151   4.227   3.356   5.881
 2418SOL     OW 8152   3.069   3.822   3.961
 2418SOL    HW1 8153   3.115   3.909   3.946
 2418SOL    HW2 8154   3.071   3.769   3.876
 2419SOL     OW 8155   0.672   6.390   3.743
 2419SOL    HW1 8156   0.688   6.298   3.707
 2419SOL    HW2 8157   0.574   6.403   3.759
 2420SOL     OW 8158   3.644   1.520   1.848
 2420SOL    HW1 8159   3.645   1.558   1.755
 2420SOL    HW2 8160   3.698   1.436   1.850
 2421SOL     OW 8161   2.892   1.194   4.969
 2421SOL    HW1 8162   2.825   1.265   4.945
 2421SOL    HW2 8163   2.884   1.173   5.066
 2422SOL     OW 8164   6.177   0.560   2.209
 2422SOL    HW1 8165   6.216   0.624   2.275
 2422SOL    HW2 8166   6.080   0.578   2.197
 2423SOL     OW 8167   1.646   6.349   3.815
 2423SOL    HW1 8168   1.691   6.380   3.899
 2423SOL    HW2 8169   1.561   6.399   3.802
 2424SOL     OW 8170   5.930   6.305   6.049
 2424SOL    HW1 8171   5.875   6.373   6.000
 2424SOL    HW2 8172   5.891   6.214   6.034
 2425SOL     OW 8173   6.260   0.152   4.404
 2425SOL    HW1 8174   6.186   0.130   4.467
 2425SOL    HW2 8175   6.227   0.147   4.310
 2426SOL     OW 8176   0.535   4.677   3.898
 2426SOL    HW1 8177   0.532   4.763   3.848
 2426SOL    HW2 8178   0.443   4.640   3.906
 2427SOL     OW 8179   5.990   5.429   6.833
 2427SOL    HW1 8180   6.007   5.436   6.932
 2427SOL    HW2 8181   5.891   5.427   6.817
 2428SOL     OW 8182   0.179   0.222   3.344
 2428SOL    HW1 8183   0.205   0.154   3.412
 2428SOL    HW2 8184   0.080   0.234   3.344
 2429SOL     OW 8185   6.462   5.751   4.935
 2429SOL    HW1 8186   6.554   5.738   4.971
 2429SOL    HW2 8187   6.456   5.710   4.844
 2430SOL     OW 8188   6.222   2.204   1.004
 2430SOL    HW1 8189   6.168   2.124   0.978
 2430SOL    HW2 8190   6.289   2.224   0.932
 2431SOL     OW 8191   3.538   0.213   1.900
 2431SOL    HW1 8192   3.584   0.237   1.985
 2431SOL    HW2 8193   3.465   0.146   1.918
 2432SOL     OW 8194   3.590   6.662   3.330
 2432SOL    HW1 8195   3.677   6.659   3.281
 2432SOL    HW2 8196   3.605   6.699   3.422
 2433SOL     OW 8197   3.379   6.132   0.725
 2433SOL    HW1 8198   3.393   6.083   0.810
 2433SOL    HW2 8199   3.375   6.231   0.744
 2434SOL     OW 8200   4.776   1.146   3.837
 2434SOL    HW1 8201   4.776   1.108   3.744
 2434SOL    HW2 8202   4.869   1.172   3.863
 2435SOL     OW 8203   4.596   5.648   6.069
 2435SOL    HW1 8204   4.586   5.698   5.983
 2435SOL    HW2 8205   4.686   5.668   6.109
 2436SOL     OW 8206   1.906   6.498   1.208
 2436SOL    HW1 8207   1.971   6.480   1.134
 2436SOL    HW2 8208   1.948   6.557   1.277
 2437SOL     OW 8209   4.002   6.140   1.090
 2437SOL    HW1 8210   3.909   6.176   1.104
 2437SOL    HW2 8211   4.068   6.214   1.094
 2438SOL     OW 8212   3.733   1.651   5.656
 2438SOL    HW1 8213   3.694   1.739   5.628
 2438SOL    HW2 8214   3.800   1.666   5.729
 2439SOL     OW 8215   1.326   4.225   6.980
 2439SOL    HW1 8216   1.372   4.238   6.892
 2439SOL    HW2 8217   1.335   4.129   7.008
 2440SOL     OW 8218   4.266   6.502   4.838
 2440SOL    HW1 8219   4.329   6.493   4.915
 2440SOL    HW2 8220   4.211   6.585   4.849
 2441SOL     OW 8221   6.931   0.726   0.031
 2441SOL    HW1 8222   6.877   0.683   0.104
 2441SOL    HW2 8223   6.952   0.658   6.979
 2442SOL     OW 8224   6.738   5.883   4.294
 2442SOL    HW1 8225   6.725   5.950   4.221
 2442SOL    HW2 8226   6.661   5.820   4.296
 2443SOL     OW 8227   3.314   6.673   6.338
 2443SOL    HW1 8228   3.340   6.579   6.316
 2443SOL    HW2 8229   3.386   6.716   6.391
 2444SOL     OW 8230   3.868   4.698   6.277
 2444SOL    HW1 8231   3.849   4.631   6.349
 2444SOL    HW2 8232   3.929   4.658   6.209
 2445SOL     OW 8233   0.168   0.923   1.864
 2445SOL    HW1 8234   0.161   0.824   1.876
 2445SOL    HW2 8235   0.076   0.963   1.867
 2446SOL     OW 8236   0.235   3.257   4.241
 2446SOL    HW1 8237   0.178   3.195   4.187
 2446SOL    HW2 8238   0.327   3.258   4.204
 2447SOL     OW 8239   2.604   1.080   0.924
 2447SOL    HW1 8240   2.586   1.072   0.826
 2447SOL    HW2 8241   2.692   1.037   0.946
 2448SOL     OW 8242   0.943   0.441   5.260
 2448SOL    HW1 8243   0.994   0.519   5.296
 2448SOL    HW2 8244   0.862   0.474   5.212
 2449SOL     OW 8245   0.189   4.435   2.362
 2449SOL    HW1 8246   0.147   4.377   2.293
 2449SOL    HW2 8247   0.128   4.442   2.441
 2450SOL     OW 8248   3.051   4.840   4.235
 2450SOL    HW1 8249   3.119   4.863   4.166
 2450SOL    HW2 8250   2.983   4.778   4.195
 2451SOL     OW 8251   0.500   0.477   3.969
 2451SOL    HW1 8252   0.562   0.555   3.969
 2451SOL    HW2 8253   0.499   0.436   4.060
 2452SOL     OW 8254   2.327   2.367   3.185
 2452SOL    HW1 8255   2.317   2.414   3.097
 2452SOL    HW2 8256   2.424   2.369   3.212
 2453SOL     OW 8257   6.674   3.861   1.007
 2453SOL    HW1 8258   6.764   3.899   0.986
 2453SOL    HW2 8259   6.685   3.781   1.066
 2454SOL     OW 8260   3.865   1.343   0.380
 2454SOL    HW1 8261   3.780   1.313   0.423
 2454SOL    HW2 8262   3.883   1.438   0.403
 2455SOL     OW 8263   5.464   6.795   0.618
 2455SOL    HW1 8264   5.387   6.752   0.571
 2455SOL    HW2 8265   5.434   6.882   0.657
 2456SOL     OW 8266   5.926   0.680   0.371
 2456SOL    HW1 8267   5.966   0.768   0.399
 2456SOL    HW2 8268   5.877   0.692   0.285
 2457SOL     OW 8269   6.160   6.247   0.022
 2457SOL    HW1 8270   6.131   6.334   7.000
 2457SOL    HW2 8271   6.111   6.233   0.108
 2458SOL     OW 8272   2.839   5.366   4.157
 2458SOL    HW1 8273   2.805   5.320   4.239
 2458SOL    HW2 8274   2.767   5.422   4.117
 2459SOL     OW 8275   2.845   6.416   0.436
 2459SOL    HW1 8276   2.793   6.500   0.419
 2459SOL    HW2 8277   2.783   6.337   0.432
 2460SOL     OW 8278   2.494   0.707   1.676
 2460SOL    HW1 8279   2.586   0.674   1.652
 2460SOL    HW2 8280   2.476   0.793   1.629
 2461SOL     OW 8281   3.913   0.198   2.845
 2461SOL    HW1 8282   3.864   0.113   2.865
 2461SOL    HW2 8283   3.905   0.260   2.923
 2462SOL     OW 8284   2.678   5.151   0.144
 2462SOL    HW1 8285   2.737   5.222   0.107
 2462SOL    HW2 8286   2.670   5.076   0.078
 2463SOL     OW 8287   6.204   2.281   3.804
 2463SOL    HW1 8288   6.158   2.271   3.893
 2463SOL    HW2 8289   6.214   2.192   3.761
 2464SOL     OW 8290   1.664   4.460   1.716
 2464SOL    HW1 8291   1.720   4.390   1.760
 2464SOL    HW2 8292   1.719   4.543   1.701
 2465SOL     OW 8293   0.480   6.288   1.593
 2465SOL    HW1 8294   0.529   6.365   1.552
 2465SOL    HW2 8295   0.431   6.320   1.674
 2466SOL     OW 8296   3.604   1.470   2.157
 2466SOL    HW1 8297   3.689   1.436   2.196
 2466SOL    HW2 8298   3.594   1.434   2.064
 2467SOL     OW 8299   5.252   1.369   5.279
 2467SOL    HW1 8300   5.182   1.314   5.324
 2467SOL    HW2 8301   5.340   1.354   5.324
 2468SOL     OW 8302   5.520   6.382   2.347
 2468SOL    HW1 8303   5.557   6.356   2.258
 2468SOL    HW2 8304   5.595   6.406   2.409
 2469SOL     OW 8305   3.672   4.498   5.352
 2469SOL    HW1 8306   3.627   4.412   5.375
 2469SOL    HW2 8307   3.603   4.569   5.337
 2470SOL     OW 8308   3.465   4.228   5.671
 2470SOL    HW1 8309   3.401   4.286   5.622
 2470SOL    HW2 8310   3.436   4.133   5.665
 2471SOL     OW 8311   2.278   6.600   0.922
 2471SOL    HW1 8312   2.267   6.634   1.016
 2471SOL    HW2 8313   2.293   6.502   0.924
 2472SOL     OW 8314   4.765   1.554   3.990
 2472SOL    HW1 8315   4.808   1.633   3.947
 2472SOL    HW2 8316   4.736   1.489   3.920
 2473SOL     OW 8317   1.718   4.123   5.185
 2473SOL    HW1 8318   1.743   4.193   5.252
 2473SOL    HW2 8319   1.737   4.157   5.093
 2474SOL     OW 8320   0.284   5.475   0.318
 2474SOL    HW1 8321   0.323   5.391   0.280
 2474SOL    HW2 8322   0.277   5.544   0.246
 2475SOL     OW 8323   4.376   1.236   0.767
 2475SOL    HW1 8324   4.386   1.280   0.678
 2475SOL    HW2 8325   4.411   1.296   0.839
 2476SOL     OW 8326   1.010   2.891   3.800
 2476SOL    HW1 8327   1.048   2.818   3.743
 2476SOL    HW2 8328   1.084   2.949   3.833
 2477SOL     OW 8329   6.279   0.638   2.466
 2477SOL    HW1 8330   6.332   0.719   2.445
 2477SOL    HW2 8331   6.340   0.559   2.474
 2478SOL     OW 8332   5.924   0.020   2.448
 2478SOL    HW1 8333   6.012   0.025   2.496
 2478SOL    HW2 8334   5.853   0.061   2.504
 2479SOL     OW 8335   1.512   3.520   1.131
 2479SOL    HW1 8336   1.518   3.618   1.116
 2479SOL    HW2 8337   1.459   3.502   1.214
 2480SOL     OW 8338   5.676   4.418   0.954
 2480SOL    HW1 8339   5.632   4.351   0.894
 2480SOL    HW2 8340   5.623   4.427   1.038
 2481SOL     OW 8341   2.670   6.797   0.089
 2481SOL    HW1 8342   2.593   6.736   0.069
 2481SOL    HW2 8343   2.672   6.871   0.022
 2482SOL     OW 8344   5.588   2.835   5.454
 2482SOL    HW1 8345   5.643   2.754   5.432
 2482SOL    HW2 8346   5.545   2.823   5.544
 2483SOL     OW 8347   2.326   1.221   6.537
 2483SOL    HW1 8348   2.269   1.271   6.602
 2483SOL    HW2 8349   2.422   1.227   6.565
 2484SOL     OW 8350   2.146   0.524   0.608
 2484SOL    HW1 8351   2.168   0.548   0.513
 2484SOL    HW2 8352   2.130   0.608   0.660
 2485SOL     OW 8353   4.580   4.534   2.072
 2485SOL    HW1 8354   4.491   4.568   2.040
 2485SOL    HW2 8355   4.577   4.434   2.077
 2486SOL     OW 8356   3.253   5.170   2.707
 2486SOL    HW1 8357   3.186   5.234   2.670
 2486SOL    HW2 8358   3.334   5.171   2.649
 2487SOL     OW 8359   3.691   5.309   6.265
 2487SOL    HW1 8360   3.638   5.230   6.235
 2487SOL    HW2 8361   3.692   5.313   6.365
 2488SOL     OW 8362   2.115   3.819   2.308
 2488SOL    HW1 8363   2.090   3.744   2.247
 2488SOL    HW2 8364   2.142   3.899   2.254
 2489SOL     OW 8365   2.358   5.161   3.837
 2489SOL    HW1 8366   2.451   5.195   3.856
 2489SOL    HW2 8367   2.336   5.177   3.741
 2490SOL     OW 8368   6.799   5.415   1.022
 2490SOL    HW1 8369   6.732   5.396   1.094
 2490SOL    HW2 8370   6.777   5.362   0.940
 2491SOL     OW 8371   2.442   6.099   2.356
 2491SOL    HW1 8372   2.371   6.041   2.315
 2491SOL    HW2 8373   2.399   6.176   2.403
 2492SOL     OW 8374   3.943   2.827   6.946
 2492SOL    HW1 8375   3.865   2.880   6.912
 2492SOL    HW2 8376   4.014   2.889   6.978
 2493SOL     OW 8377   5.664   0.445   3.097
 2493SOL    HW1 8378   5.656   0.345   3.088
 2493SOL    HW2 8379   5.755   0.467   3.133
 2494SOL     OW 8380   5.912   3.477   2.592
 2494SOL    HW1 8381   5.872   3.494   2.502
 2494SOL    HW2 8382   5.982   3.406   2.584
 2495SOL     OW 8383   5.262   0.081   4.717
 2495SOL    HW1 8384   5.313   0.114   4.797
 2495SOL    HW2 8385   5.220   0.159   4.670
 2496SOL     OW 8386   1.276   4.823   6.469
 2496SOL    HW1 8387   1.339   4.860   6.401
 2496SOL    HW2 8388   1.185   4.864   6.456
 2497SOL     OW 8389   6.719   1.352   0.639
 2497SOL    HW1 8390   6.683   1.413   0.568
 2497SOL    HW2 8391   6.650   1.340   0.710
 2498SOL     OW 8392   2.855   2.210   3.396
 2498SOL    HW1 8393   2.784   2.223   3.465
 2498SOL    HW2 8394   2.866   2.112   3.378
 2499SOL     OW 8395   5.362   1.496   4.881
 2499SOL    HW1 8396   5.395   1.580   4.925
 2499SOL    HW2 8397   5.419   1.476   4.801
 2500SOL     OW 8398   4.448   3.206   6.104
 2500SOL    HW1 8399   4.393   3.140   6.053
 2500SOL    HW2 8400   4.397   3.292   6.112
 2501SOL     OW 8401   0.040   5.679   6.937
 2501SOL    HW1 8402   0.004   5.748   6.874
 2501SOL    HW2 8403   0.033   5.588   6.896
 2502SOL     OW 8404   2.633   6.229   3.346
 2502SOL    HW1 8405   2.562   6.168   3.310
 2502SOL    HW2 8406   2.689   6.180   3.412
 2503SOL     OW 8407   3.398   6.040   5.600
 2503SOL    HW1 8408   3.438   6.088   5.522
 2503SOL    HW2 8409   3.459   5.967   5.629
 2504SOL     OW 8410   2.907   6.090   5.035
 2504SOL    HW1 8411   2.907   6.041   4.948
 2504SOL    HW2 8412   2.879   6.027   5.108
 2505SOL     OW 8413   1.436   6.698   4.592
 2505SOL    HW1 8414   1.462   6.602   4.582
 2505SOL    HW2 8415   1.383   6.726   4.512
 2506SOL     OW 8416   6.612   3.003   6.157
 2506SOL    HW1 8417   6.694   2.992   6.213
 2506SOL    HW2 8418   6.596   3.100   6.139
 2507SOL     OW 8419   6.532   4.191   0.497
 2507SOL    HW1 8420   6.468   4.245   0.443
 2507SOL    HW2 8421   6.552   4.105   0.450
 2508SOL     OW 8422   2.592   1.695   2.521
 2508SOL    HW1 8423   2.597   1.783   2.475
 2508SOL    HW2 8424   2.679   1.676   2.566
 2509SOL     OW 8425   5.580   2.902   2.799
 2509SOL    HW1 8426   5.613   2.949   2.881
 2509SOL    HW2 8427   5.556   2.969   2.729
 2510SOL     OW 8428   3.586   4.231   0.723
 2510SOL    HW1 8429   3.554   4.290   0.797
 2510SOL    HW2 8430   3.629   4.287   0.651
 2511SOL     OW 8431   2.128   1.963   4.961
 2511SOL    HW1 8432   2.134   2.059   4.986
 2511SOL    HW2 8433   2.170   1.907   5.033
 2512SOL     OW 8434   5.538   5.075   5.346
 2512SOL    HW1 8435   5.613   5.079   5.280
 2512SOL    HW2 8436   5.561   5.011   5.419
 2513SOL     OW 8437   1.642   2.659   5.999
 2513SOL    HW1 8438   1.626   2.564   6.025
 2513SOL    HW2 8439   1.568   2.690   5.938
 2514SOL     OW 8440   0.473   3.267   4.103
 2514SOL    HW1 8441   0.519   3.330   4.166
 2514SOL    HW2 8442   0.541   3.211   4.056
 2515SOL     OW 8443   1.406   6.481   0.418
 2515SOL    HW1 8444   1.374   6.391   0.444
 2515SOL    HW2 8445   1.493   6.500   0.462
 2516SOL     OW 8446   6.411   5.998   2.640
 2516SOL    HW1 8447   6.387   5.967   2.548
 2516SOL    HW2 8448   6.327   6.015   2.693
 2517SOL     OW 8449   1.950   5.754   5.383
 2517SOL    HW1 8450   2.042   5.793   5.383
 2517SOL    HW2 8451   1.889   5.811   5.327
 2518SOL     OW 8452   1.827   3.226   0.345
 2518SOL    HW1 8453   1.754   3.283   0.308
 2518SOL    HW2 8454   1.840   3.248   0.442
 2519SOL     OW 8455   5.129   5.071   4.439
 2519SOL    HW1 8456   5.203   5.012   4.469
 2519SOL    HW2 8457   5.064   5.018   4.384
 2520SOL     OW 8458   0.587   3.230   1.054
 2520SOL    HW1 8459   0.685   3.214   1.070
 2520SOL    HW2 8460   0.575   3.317   1.006
 2521SOL     OW 8461   1.350   6.603   5.509
 2521SOL    HW1 8462   1.276   6.556   5.462
 2521SOL    HW2 8463   1.332   6.605   5.607
 2522SOL     OW 8464   1.055   2.913   5.578
 2522SOL    HW1 8465   1.044   2.814   5.565
 2522SOL    HW2 8466   0.969   2.959   5.555
 2523SOL     OW 8467   0.445   3.304   1.279
 2523SOL    HW1 8468   0.362   3.252   1.260
 2523SOL    HW2 8469   0.514   3.282   1.210
 2524SOL     OW 8470   0.708   6.221   4.219
 2524SOL    HW1 8471   0.728   6.188   4.311
 2524SOL    HW2 8472   0.743   6.314   4.208
 2525SOL     OW 8473   1.341   2.481   4.362
 2525SOL    HW1 8474   1.281   2.552   4.325
 2525SOL    HW2 8475   1.427   2.522   4.392
 2526SOL     OW 8476   0.880   3.699   5.783
 2526SOL    HW1 8477   0.919   3.610   5.760
 2526SOL    HW2 8478   0.924   3.770   5.727
 2527SOL     OW 8479   4.982   6.926   5.144
 2527SOL    HW1 8480   4.908   6.962   5.087
 2527SOL    HW2 8481   4.943   6.876   5.222
 2528SOL     OW 8482   5.936   4.710   1.216
 2528SOL    HW1 8483   5.849   4.759   1.211
 2528SOL    HW2 8484   5.967   4.706   1.311
 2529SOL     OW 8485   5.729   5.298   6.410
 2529SOL    HW1 8486   5.731   5.343   6.321
 2529SOL    HW2 8487   5.653   5.233   6.413
 2530SOL     OW 8488   1.249   6.135   5.026
 2530SOL    HW1 8489   1.220   6.109   5.118
 2530SOL    HW2 8490   1.173   6.178   4.978
 2531SOL     OW 8491   5.557   5.380   4.567
 2531SOL    HW1 8492   5.656   5.393   4.563
 2531SOL    HW2 8493   5.521   5.428   4.646
 2532SOL     OW 8494   0.416   6.076   0.581
 2532SOL    HW1 8495   0.444   6.057   0.487
 2532SOL    HW2 8496   0.385   6.171   0.588
 2533SOL     OW 8497   5.099   6.378   4.208
 2533SOL    HW1 8498   5.106   6.383   4.109
 2533SOL    HW2 8499   5.183   6.339   4.247
 2534SOL     OW 8500   2.434   0.560   3.349
 2534SOL    HW1 8501   2.456   0.490   3.281
 2534SOL    HW2 8502   2.464   0.649   3.316
 2535SOL     OW 8503   2.366   2.120   6.773
 2535SOL    HW1 8504   2.357   2.192   6.843
 2535SOL    HW2 8505   2.277   2.099   6.735
 2536SOL     OW 8506   0.840   2.068   3.818
 2536SOL    HW1 8507   0.918   2.094   3.874
 2536SOL    HW2 8508   0.871   2.039   3.728
 2537SOL     OW 8509   5.058   6.150   0.286
 2537SOL    HW1 8510   5.036   6.232   0.340
 2537SOL    HW2 8511   5.154   6.126   0.300
 2538SOL     OW 8512   2.054   4.212   5.340
 2538SOL    HW1 8513   2.110   4.130   5.350
 2538SOL    HW2 8514   2.064   4.248   5.247
 2539SOL     OW 8515   3.797   0.338   6.094
 2539SOL    HW1 8516   3.736   0.259   6.105
 2539SOL    HW2 8517   3.779   0.381   6.006
 2540SOL     OW 8518   4.998   0.622   1.142
 2540SOL    HW1 8519   5.094   0.595   1.153
 2540SOL    HW2 8520   4.968   0.597   1.051
 2541SOL     OW 8521   1.622   0.504   6.074
 2541SOL    HW1 8522   1.592   0.544   6.161
 2541SOL    HW2 8523   1.594   0.563   5.999
 2542SOL     OW 8524   3.895   2.124   4.654
 2542SOL    HW1 8525   3.856   2.087   4.570
 2542SOL    HW2 8526   3.979   2.174   4.633
 2543SOL     OW 8527   2.339   0.982   2.580
 2543SOL    HW1 8528   2.436   0.969   2.603
 2543SOL    HW2 8529   2.324   0.958   2.484
 2544SOL     OW 8530   0.283   5.055   2.254
 2544SOL    HW1 8531   0.184   5.057   2.243
 2544SOL    HW2 8532   0.326   5.052   2.163
 2545SOL     OW 8533   1.457   0.649   1.488
 2545SOL    HW1 8534   1.475   0.555   1.460
 2545SOL    HW2 8535   1.404   0.649   1.573
 2546SOL     OW 8536   5.795   3.170   1.416
 2546SOL    HW1 8537   5.884   3.124   1.407
 2546SOL    HW2 8538   5.796   3.256   1.364
 2547SOL     OW 8539   5.262   5.608   6.985
 2547SOL    HW1 8540   5.189   5.540   6.983
 2547SOL    HW2 8541   5.287   5.634   6.892
 2548SOL     OW 8542   2.510   0.784   5.103
 2548SOL    HW1 8543   2.437   0.844   5.069
 2548SOL    HW2 8544   2.594   0.800   5.051
 2549SOL     OW 8545   2.000   2.039   1.757
 2549SOL    HW1 8546   2.089   2.026   1.713
 2549SOL    HW2 8547   2.005   2.010   1.852
 2550SOL     OW 8548   5.680   1.266   6.766
 2550SOL    HW1 8549   5.763   1.210   6.763
 2550SOL    HW2 8550   5.600   1.207   6.779
 2551SOL     OW 8551   3.104   5.654   0.388
 2551SOL    HW1 8552   3.142   5.566   0.360
 2551SOL    HW2 8553   3.047   5.641   0.469
 2552SOL     OW 8554   1.766   5.148   6.490
 2552SOL    HW1 8555   1.700   5.203   6.439
 2552SOL    HW2 8556   1.856   5.191   6.486
 2553SOL     OW 8557   3.238   3.103   6.178
 2553SOL    HW1 8558   3.217   3.029   6.114
 2553SOL    HW2 8559   3.253   3.188   6.127
 2554SOL     OW 8560   1.725   5.747   6.686
 2554SOL    HW1 8561   1.705   5.829   6.740
 2554SOL    HW2 8562   1.768   5.678   6.744
 2555SOL     OW 8563   5.867   6.395   6.551
 2555SOL    HW1 8564   5.952   6.413   6.601
 2555SOL    HW2 8565   5.864   6.299   6.524
 2556SOL     OW 8566   4.386   6.240   0.949
 2556SOL    HW1 8567   4.329   6.320   0.967
 2556SOL    HW2 8568   4.352   6.192   0.868
 2557SOL     OW 8569   2.588   1.244   6.625
 2557SOL    HW1 8570   2.636   1.193   6.554
 2557SOL    HW2 8571   2.588   1.191   6.710
 2558SOL     OW 8572   4.110   3.629   5.105
 2558SOL    HW1 8573   4.164   3.571   5.165
 2558SOL    HW2 8574   4.150   3.629   5.013
 2559SOL     OW 8575   5.992   2.986   3.881
 2559SOL    HW1 8576   6.001   2.916   3.952
 2559SOL    HW2 8577   5.895   2.994   3.854
 2560SOL     OW 8578   4.923   3.498   3.541
 2560SOL    HW1 8579   4.930   3.520   3.444
 2560SOL    HW2 8580   4.898   3.402   3.552
 2561SOL     OW 8581   3.385   0.932   3.872
 2561SOL    HW1 8582   3.468   0.886   3.841
 2561SOL    HW2 8583   3.410   1.018   3.918
 2562SOL     OW 8584   2.434   5.456   3.472
 2562SOL    HW1 8585   2.533   5.472   3.471
 2562SOL    HW2 8586   2.400   5.451   3.378
 2563SOL     OW 8587   3.697   1.414   5.813
 2563SOL    HW1 8588   3.714   1.502   5.770
 2563SOL    HW2 8589   3.735   1.414   5.905
 2564SOL     OW 8590   1.791   6.446   0.112
 2564SOL    HW1 8591   1.883   6.482   0.096
 2564SOL    HW2 8592   1.724   6.509   0.075
 2565SOL     OW 8593   0.498   0.630   0.725
 2565SOL    HW1 8594   0.548   0.593   0.646
 2565SOL    HW2 8595   0.407   0.590   0.728
 2566SOL     OW 8596   1.294   6.616   0.753
 2566SOL    HW1 8597   1.302   6.716   0.749
 2566SOL    HW2 8598   1.380   6.577   0.784
 2567SOL     OW 8599   1.295   1.447   1.795
 2567SOL    HW1 8600   1.291   1.487   1.703
 2567SOL    HW2 8601   1.366   1.493   1.849
 2568SOL     OW 8602   3.354   0.025   0.533
 2568SOL    HW1 8603   3.396   0.026   0.442
 2568SOL    HW2 8604   3.371   6.954   0.577
 2569SOL     OW 8605   2.215   1.576   2.471
 2569SOL    HW1 8606   2.279   1.504   2.442
 2569SOL    HW2 8607   2.184   1.557   2.564
 2570SOL     OW 8608   4.757   6.570   6.349
 2570SOL    HW1 8609   4.832   6.614   6.299
 2570SOL    HW2 8610   4.698   6.640   6.390
 2571SOL     OW 8611   3.126   3.050   4.113
 2571SOL    HW1 8612   3.146   3.035   4.210
 2571SOL    HW2 8613   3.098   3.144   4.098
 2572SOL     OW 8614   1.564   6.485   0.841
 2572SOL    HW1 8615   1.501   6.414   0.808
 2572SOL    HW2 8616   1.645   6.441   0.880
 2573SOL     OW 8617   6.577   1.223   1.888
 2573SOL    HW1 8618   6.557   1.268   1.801
 2573SOL    HW2 8619   6.660   1.262   1.928
 2574SOL     OW 8620   6.131   3.133   0.328
 2574SOL    HW1 8621   6.116   3.090   0.417
 2574SOL    HW2 8622   6.224   3.170   0.324
 2575SOL     OW 8623   5.092   3.533   1.759
 2575SOL    HW1 8624   5.186   3.508   1.737
 2575SOL    HW2 8625   5.029   3.474   1.708
 2576SOL     OW 8626   3.975   6.611   3.853
 2576SOL    HW1 8627   3.983   6.512   3.869
 2576SOL    HW2 8628   4.057   6.657   3.885
 2577SOL     OW 8629   5.265   0.383   3.323
 2577SOL    HW1 8630   5.214   0.405   3.406
 2577SOL    HW2 8631   5.261   0.461   3.260
 2578SOL     OW 8632   4.207   2.954   5.718
 2578SOL    HW1 8633   4.135   2.887   5.732
 2578SOL    HW2 8634   4.234   2.954   5.622
 2579SOL     OW 8635   1.132   1.359   4.759
 2579SOL    HW1 8636   1.172   1.291   4.698
 2579SOL    HW2 8637   1.032   1.352   4.754
 2580SOL     OW 8638   1.685   2.931   6.495
 2580SOL    HW1 8639   1.759   2.984   6.537
 2580SOL    HW2 8640   1.697   2.834   6.518
 2581SOL     OW 8641   5.698   4.521   1.922
 2581SOL    HW1 8642   5.639   4.490   1.996
 2581SOL    HW2 8643   5.720   4.443   1.863
 2582SOL     OW 8644   1.855   4.699   2.816
 2582SOL    HW1 8645   1.851   4.777   2.879
 2582SOL    HW2 8646   1.883   4.731   2.726
 2583SOL     OW 8647   1.873   1.006   1.310
 2583SOL    HW1 8648   1.867   1.094   1.263
 2583SOL    HW2 8649   1.793   0.995   1.370
 2584SOL     OW 8650   3.717   5.679   0.222
 2584SOL    HW1 8651   3.675   5.670   0.312
 2584SOL    HW2 8652   3.653   5.650   0.151
 2585SOL     OW 8653   3.592   0.821   0.206
 2585SOL    HW1 8654   3.516   0.766   0.172
 2585SOL    HW2 8655   3.673   0.764   0.216
 2586SOL     OW 8656   5.090   1.661   4.398
 2586SOL    HW1 8657   5.001   1.697   4.370
 2586SOL    HW2 8658   5.088   1.638   4.495
 2587SOL     OW 8659   7.016   1.213   4.644
 2587SOL    HW1 8660   0.034   1.226   4.737
 2587SOL    HW2 8661   7.007   1.115   4.625
 2588SOL     OW 8662   4.671   0.340   0.063
 2588SOL    HW1 8663   4.605   0.322   0.136
 2588SOL    HW2 8664   4.753   0.382   0.101
 2589SOL     OW 8665   0.625   6.449   5.663
 2589SOL    HW1 8666   0.535   6.422   5.627
 2589SOL    HW2 8667   0.613   6.499   5.748
 2590SOL     OW 8668   3.401   6.442   2.544
 2590SOL    HW1 8669   3.407   6.428   2.643
 2590SOL    HW2 8670   3.323   6.391   2.508
 2591SOL     OW 8671   5.965   5.984   2.380
 2591SOL    HW1 8672   5.959   6.003   2.478
 2591SOL    HW2 8673   5.873   5.980   2.341
 2592SOL     OW 8674   2.664   7.008   1.001
 2592SOL    HW1 8675   2.714   7.000   0.915
 2592SOL    HW2 8676   2.717   6.965   1.074
 2593SOL     OW 8677   3.228   6.580   2.108
 2593SOL    HW1 8678   3.146   6.579   2.165
 2593SOL    HW2 8679   3.302   6.627   2.157
 2594SOL     OW 8680   6.923   6.101   5.933
 2594SOL    HW1 8681   7.005   6.153   5.907
 2594SOL    HW2 8682   6.947   6.004   5.942
 2595SOL     OW 8683   6.117   1.658   5.616
 2595SOL    HW1 8684   6.179   1.716   5.670
 2595SOL    HW2 8685   6.050   1.616   5.677
 2596SOL     OW 8686   3.982   2.224   1.917
 2596SOL    HW1 8687   4.017   2.200   2.008
 2596SOL    HW2 8688   3.883   2.232   1.920
 2597SOL     OW 8689   1.762   4.246   0.328
 2597SOL    HW1 8690   1.670   4.220   0.301
 2597SOL    HW2 8691   1.765   4.344   0.347
 2598SOL     OW 8692   5.978   1.248   4.568
 2598SOL    HW1 8693   5.997   1.197   4.652
 2598SOL    HW2 8694   5.971   1.185   4.491
 2599SOL     OW 8695   3.157   6.171   0.545
 2599SOL    HW1 8696   3.226   6.125   0.602
 2599SOL    HW2 8697   3.126   6.109   0.474
 2600SOL     OW 8698   5.003   3.645   4.755
 2600SOL    HW1 8699   4.971   3.636   4.661
 2600SOL    HW2 8700   4.929   3.619   4.818
 2601SOL     OW 8701   3.093   1.527   0.023
 2601SOL    HW1 8702   3.040   1.533   6.956
 2601SOL    HW2 8703   3.185   1.564   0.008
 2602SOL     OW 8704   6.687   4.992   3.877
 2602SOL    HW1 8705   6.631   4.913   3.902
 2602SOL    HW2 8706   6.630   5.074   3.876
 2603SOL     OW 8707   2.300   2.527   1.648
 2603SOL    HW1 8708   2.354   2.611   1.653
 2603SOL    HW2 8709   2.235   2.534   1.573
 2604SOL     OW 8710   5.332   1.207   2.800
 2604SOL    HW1 8711   5.341   1.241   2.707
 2604SOL    HW2 8712   5.390   1.260   2.861
 2605SOL     OW 8713   3.515   5.235   3.487
 2605SOL    HW1 8714   3.569   5.230   3.403
 2605SOL    HW2 8715   3.451   5.159   3.490
 2606SOL     OW 8716   6.532   4.777   0.473
 2606SOL    HW1 8717   6.530   4.677   0.471
 2606SOL    HW2 8718   6.540   4.808   0.567
 2607SOL     OW 8719   0.496   1.775   6.276
 2607SOL    HW1 8720   0.529   1.779   6.370
 2607SOL    HW2 8721   0.548   1.840   6.220
 2608SOL     OW 8722   3.816   5.827   2.591
 2608SOL    HW1 8723   3.782   5.739   2.623
 2608SOL    HW2 8724   3.894   5.812   2.530
 2609SOL     OW 8725   0.296   2.744   1.345
 2609SOL    HW1 8726   0.392   2.771   1.345
 2609SOL    HW2 8727   0.255   2.763   1.255
 2610SOL     OW 8728   6.643   4.912   4.271
 2610SOL    HW1 8729   6.656   4.832   4.212
 2610SOL    HW2 8730   6.641   4.995   4.215
 2611SOL     OW 8731   5.746   0.057   1.291
 2611SOL    HW1 8732   5.654   0.096   1.283
 2611SOL    HW2 8733   5.748   6.987   1.242
 2612SOL     OW 8734   0.165   6.261   6.141
 2612SOL    HW1 8735   0.224   6.292   6.067
 2612SOL    HW2 8736   0.170   6.162   6.150
 2613SOL     OW 8737   3.256   6.303   1.085
 2613SOL    HW1 8738   3.180   6.283   1.023
 2613SOL    HW2 8739   3.226   6.369   1.154
 2614SOL     OW 8740   6.405   6.748   6.296
 2614SOL    HW1 8741   6.377   6.802   6.376
 2614SOL    HW2 8742   6.337   6.758   6.224
 2615SOL     OW 8743   5.950   4.616   2.752
 2615SOL    HW1 8744   5.973   4.644   2.658
 2615SOL    HW2 8745   5.909   4.525   2.750
 2616SOL     OW 8746   3.848   3.619   3.684
 2616SOL    HW1 8747   3.787   3.672   3.743
 2616SOL    HW2 8748   3.800   3.538   3.650
 2617SOL     OW 8749   3.895   6.437   1.260
 2617SOL    HW1 8750   3.809   6.452   1.211
 2617SOL    HW2 8751   3.886   6.356   1.319
 2618SOL     OW 8752   0.363   6.363   3.746
 2618SOL    HW1 8753   0.361   6.311   3.661
 2618SOL    HW2 8754   0.292   6.328   3.808
 2619SOL     OW 8755   2.853   1.572   3.585
 2619SOL    HW1 8756   2.776   1.519   3.551
 2619SOL    HW2 8757   2.932   1.512   3.599
 2620SOL     OW 8758   0.695   5.830   3.301
 2620SOL    HW1 8759   0.647   5.847   3.388
 2620SOL    HW2 8760   0.697   5.732   3.283
 2621SOL     OW 8761   2.331   6.082   3.044
 2621SOL    HW1 8762   2.296   6.173   3.068
 2621SOL    HW2 8763   2.256   6.026   3.008
 2622SOL     OW 8764   2.674   2.220   0.087
 2622SOL    HW1 8765   2.708   2.228   7.011
 2622SOL    HW2 8766   2.595   2.158   0.088
 2623SOL     OW 8767   3.333   1.566   4.739
 2623SOL    HW1 8768   3.403   1.631   4.709
 2623SOL    HW2 8769   3.314   1.502   4.664
 2624SOL     OW 8770   6.425   3.322   4.792
 2624SOL    HW1 8771   6.438   3.226   4.818
 2624SOL    HW2 8772   6.505   3.355   4.743
 2625SOL     OW 8773   2.547   2.652   5.967
 2625SOL    HW1 8774   2.566   2.631   6.063
 2625SOL    HW2 8775   2.615   2.718   5.934
 2626SOL     OW 8776   0.632   0.641   4.668
 2626SOL    HW1 8777   0.643   0.731   4.625
 2626SOL    HW2 8778   0.585   0.651   4.755
 2627SOL     OW 8779   0.246   0.443   4.809
 2627SOL    HW1 8780   0.251   0.461   4.711
 2627SOL    HW2 8781   0.214   0.349   4.823
 2628SOL     OW 8782   2.789   5.598   6.622
 2628SOL    HW1 8783   2.844   5.580   6.704
 2628SOL    HW2 8784   2.692   5.598   6.646
 2629SOL     OW 8785   3.173   3.817   1.806
 2629SOL    HW1 8786   3.172   3.795   1.904
 2629SOL    HW2 8787   3.079   3.813   1.770
 2630SOL     OW 8788   3.016   1.773   3.466
 2630SOL    HW1 8789   2.972   1.712   3.532
 2630SOL    HW2 8790   3.075   1.719   3.405
 2631SOL     OW 8791   4.921   0.814   4.381
 2631SOL    HW1 8792   4.829   0.787   4.354
 2631SOL    HW2 8793   4.982   0.810   4.302
 2632SOL     OW 8794   2.854   2.120   6.410
 2632SOL    HW1 8795   2.879   2.088   6.318
 2632SOL    HW2 8796   2.827   2.042   6.466
 2633SOL     OW 8797   5.922   2.009   5.867
 2633SOL    HW1 8798   5.972   2.060   5.938
 2633SOL    HW2 8799   5.849   1.956   5.910
 2634SOL     OW 8800   1.945   4.254   2.592
 2634SOL    HW1 8801   2.023   4.191   2.587
 2634SOL    HW2 8802   1.861   4.205   2.569
 2635SOL     OW 8803   5.467   6.237   4.469
 2635SOL    HW1 8804   5.499   6.329   4.490
 2635SOL    HW2 8805   5.545   6.177   4.451
 2636SOL     OW 8806   4.704   0.793   5.384
 2636SOL    HW1 8807   4.772   0.719   5.384
 2636SOL    HW2 8808   4.625   0.767   5.439
 2637SOL     OW 8809   6.223   1.450   3.819
 2637SOL    HW1 8810   6.322   1.439   3.825
 2637SOL    HW2 8811   6.200   1.548   3.817
 2638SOL     OW 8812   0.071   6.711   2.995
 2638SOL    HW1 8813   7.016   6.725   2.928
 2638SOL    HW2 8814   0.036   6.656   3.071
 2639SOL     OW 8815   0.885   0.088   1.902
 2639SOL    HW1 8816   0.816   0.159   1.889
 2639SOL    HW2 8817   0.932   0.103   1.989
 2640SOL     OW 8818   6.874   6.147   5.094
 2640SOL    HW1 8819   6.894   6.051   5.073
 2640SOL    HW2 8820   6.781   6.154   5.130
 2641SOL     OW 8821   4.937   2.590   2.170
 2641SOL    HW1 8822   4.856   2.648   2.155
 2641SOL    HW2 8823   4.917   2.497   2.139
 2642SOL     OW 8824   5.225   6.903   4.325
 2642SOL    HW1 8825   5.241   7.001   4.326
 2642SOL    HW2 8826   5.201   6.872   4.417
 2643SOL     OW 8827   1.714   4.974   3.187
 2643SOL    HW1 8828   1.640   5.035   3.159
 2643SOL    HW2 8829   1.680   4.912   3.258
 2644SOL     OW 8830   6.443   4.903   5.952
 2644SOL    HW1 8831   6.473   4.827   6.009
 2644SOL    HW2 8832   6.377   4.959   6.002
 2645SOL     OW 8833   4.325   5.881   4.168
 2645SOL    HW1 8834   4.408   5.905   4.219
 2645SOL    HW2 8835   4.309   5.783   4.174
 2646SOL     OW 8836   5.780   0.064   6.740
 2646SOL    HW1 8837   5.699   0.073   6.798
 2646SOL    HW2 8838   5.863   0.069   6.796
 2647SOL     OW 8839   5.975   0.386   1.636
 2647SOL    HW1 8840   5.940   0.368   1.728
 2647SOL    HW2 8841   5.991   0.484   1.625
 2648SOL     OW 8842   0.189   0.512   3.344
 2648SOL    HW1 8843   0.269   0.508   3.283
 2648SOL    HW2 8844   0.162   0.419   3.369
 2649SOL     OW 8845   5.359   3.332   5.885
 2649SOL    HW1 8846   5.319   3.411   5.838
 2649SOL    HW2 8847   5.312   3.319   5.973
 2650SOL     OW 8848   1.148   3.815   4.189
 2650SOL    HW1 8849   1.086   3.738   4.202
 2650SOL    HW2 8850   1.099   3.891   4.147
 2651SOL     OW 8851   0.262   2.123   6.984
 2651SOL    HW1 8852   0.237   2.182   0.043
 2651SOL    HW2 8853   0.311   2.177   6.915
 2652SOL     OW 8854   2.912   3.752   3.601
 2652SOL    HW1 8855   2.830   3.808   3.589
 2652SOL    HW2 8856   2.990   3.810   3.626
 2653SOL     OW 8857   4.906   6.777   5.338
 2653SOL    HW1 8858   4.965   6.698   5.356
 2653SOL    HW2 8859   4.810   6.751   5.352
 2654SOL     OW 8860   4.588   4.219   1.319
 2654SOL    HW1 8861   4.642   4.268   1.387
 2654SOL    HW2 8862   4.550   4.136   1.360
 2655SOL     OW 8863   5.253   4.700   4.640
 2655SOL    HW1 8864   5.184   4.660   4.701
 2655SOL    HW2 8865   5.331   4.731   4.694
 2656SOL     OW 8866   4.072   4.785   4.422
 2656SOL    HW1 8867   4.033   4.700   4.388
 2656SOL    HW2 8868   4.039   4.862   4.367
 2657SOL     OW 8869   2.666   4.342   6.541
 2657SOL    HW1 8870   2.724   4.263   6.520
 2657SOL    HW2 8871   2.679   4.412   6.470
 2658SOL     OW 8872   5.039   3.929   0.635
 2658SOL    HW1 8873   4.957   3.903   0.687
 2658SOL    HW2 8874   5.055   4.027   0.645
 2659SOL     OW 8875   6.157   2.539   4.716
 2659SOL    HW1 8876   6.166   2.514   4.620
 2659SOL    HW2 8877   6.099   2.472   4.762
 2660SOL     OW 8878   0.713   1.498   0.980
 2660SOL    HW1 8879   0.648   1.433   0.941
 2660SOL    HW2 8880   0.723   1.481   1.078
 2661SOL     OW 8881   2.244   6.618   1.232
 2661SOL    HW1 8882   2.293   6.539   1.269
 2661SOL    HW2 8883   2.169   6.643   1.293
 2662SOL     OW 8884   4.216   0.604   5.520
 2662SOL    HW1 8885   4.165   0.668   5.463
 2662SOL    HW2 8886   4.152   0.544   5.568
 2663SOL     OW 8887   2.793   3.888   1.457
 2663SOL    HW1 8888   2.727   3.814   1.443
 2663SOL    HW2 8889   2.745   3.971   1.485
 2664SOL     OW 8890   3.832   3.996   4.707
 2664SOL    HW1 8891   3.734   3.990   4.726
 2664SOL    HW2 8892   3.847   4.018   4.610
 2665SOL     OW 8893   2.780   2.519   5.275
 2665SOL    HW1 8894   2.688   2.488   5.298
 2665SOL    HW2 8895   2.847   2.448   5.298
 2666SOL     OW 8896   4.883   3.644   1.891
 2666SOL    HW1 8897   4.885   3.602   1.982
 2666SOL    HW2 8898   4.957   3.606   1.836
 2667SOL     OW 8899   1.500   6.229   4.266
 2667SOL    HW1 8900   1.443   6.170   4.208
 2667SOL    HW2 8901   1.491   6.324   4.236
 2668SOL     OW 8902   6.112   3.109   3.552
 2668SOL    HW1 8903   6.118   3.105   3.452
 2668SOL    HW2 8904   6.028   3.064   3.582
 2669SOL     OW 8905   3.178   4.831   5.198
 2669SOL    HW1 8906   3.256   4.845   5.259
 2669SOL    HW2 8907   3.106   4.781   5.246
 2670SOL     OW 8908   5.695   1.784   6.371
 2670SOL    HW1 8909   5.621   1.781   6.303
 2670SOL    HW2 8910   5.705   1.876   6.407
 2671SOL     OW 8911   3.482   5.406   6.727
 2671SOL    HW1 8912   3.510   5.414   6.823
 2671SOL    HW2 8913   3.523   5.325   6.687
 2672SOL     OW 8914   6.562   5.187   6.857
 2672SOL    HW1 8915   6.539   5.196   6.760
 2672SOL    HW2 8916   6.616   5.104   6.870
 2673SOL     OW 8917   6.235   1.957   3.417
 2673SOL    HW1 8918   6.202   2.041   3.373
 2673SOL    HW2 8919   6.307   1.916   3.361
 2674SOL     OW 8920   1.657   4.287   3.920
 2674SOL    HW1 8921   1.661   4.260   3.823
 2674SOL    HW2 8922   1.733   4.349   3.941
 2675SOL     OW 8923   6.436   4.925   4.605
 2675SOL    HW1 8924   6.380   4.915   4.687
 2675SOL    HW2 8925   6.511   4.858   4.607
 2676SOL     OW 8926   4.746   1.283   1.868
 2676SOL    HW1 8927   4.790   1.320   1.950
 2676SOL    HW2 8928   4.696   1.200   1.891
 2677SOL     OW 8929   3.194   4.467   6.966
 2677SOL    HW1 8930   3.174   4.496   0.042
 2677SOL    HW2 8931   3.110   4.468   6.912
 2678SOL     OW 8932   0.004   4.744   1.431
 2678SOL    HW1 8933   0.075   4.680   1.402
 2678SOL    HW2 8934   6.991   4.720   1.523
 2679SOL     OW 8935   3.533   5.409   0.883
 2679SOL    HW1 8936   3.607   5.409   0.950
 2679SOL    HW2 8937   3.559   5.353   0.804
 2680SOL     OW 8938   0.967   2.012   1.019
 2680SOL    HW1 8939   0.909   1.950   0.966
 2680SOL    HW2 8940   0.911   2.081   1.064
 2681SOL     OW 8941   1.406   2.227   4.281
 2681SOL    HW1 8942   1.498   2.217   4.319
 2681SOL    HW2 8943   1.375   2.322   4.293
 2682SOL     OW 8944   5.415   3.827   2.794
 2682SOL    HW1 8945   5.325   3.842   2.754
 2682SOL    HW2 8946   5.406   3.768   2.875
 2683SOL     OW 8947   1.706   4.095   6.965
 2683SOL    HW1 8948   1.764   4.066   6.888
 2683SOL    HW2 8949   1.624   4.039   6.968
 2684SOL     OW 8950   4.546   5.379   1.656
 2684SOL    HW1 8951   4.585   5.306   1.712
 2684SOL    HW2 8952   4.553   5.466   1.704
 2685SOL     OW 8953   6.049   6.108   6.344
 2685SOL    HW1 8954   6.112   6.136   6.271
 2685SOL    HW2 8955   6.082   6.023   6.385
 2686SOL     OW 8956   1.571   1.325   5.554
 2686SOL    HW1 8957   1.486   1.365   5.518
 2686SOL    HW2 8958   1.595   1.369   5.640
 2687SOL     OW 8959   4.442   4.487   2.657
 2687SOL    HW1 8960   4.366   4.526   2.605
 2687SOL    HW2 8961   4.504   4.440   2.595
 2688SOL     OW 8962   4.786   5.822   0.077
 2688SOL    HW1 8963   4.723   5.833   0.000
 2688SOL    HW2 8964   4.862   5.885   0.067
 2689SOL     OW 8965   2.267   2.284   3.707
 2689SOL    HW1 8966   2.263   2.368   3.654
 2689SOL    HW2 8967   2.335   2.293   3.779
 2690SOL     OW 8968   3.213   3.778   4.249
 2690SOL    HW1 8969   3.228   3.779   4.150
 2690SOL    HW2 8970   3.232   3.686   4.285
 2691SOL     OW 8971   1.102   5.737   2.212
 2691SOL    HW1 8972   1.072   5.709   2.303
 2691SOL    HW2 8973   1.081   5.834   2.199
 2692SOL     OW 8974   4.246   4.669   3.551
 2692SOL    HW1 8975   4.338   4.633   3.565
 2692SOL    HW2 8976   4.215   4.717   3.633
 2693SOL     OW 8977   1.992   4.182   3.184
 2693SOL    HW1 8978   2.011   4.124   3.106
 2693SOL    HW2 8979   1.902   4.159   3.222
 2694SOL     OW 8980   4.172   6.809   2.779
 2694SOL    HW1 8981   4.077   6.810   2.749
 2694SOL    HW2 8982   4.233   6.809   2.700
 2695SOL     OW 8983   5.577   0.737   2.800
 2695SOL    HW1 8984   5.536   0.690   2.877
 2695SOL    HW2 8985   5.639   0.675   2.752
 2696SOL     OW 8986   3.832   3.593   5.142
 2696SOL    HW1 8987   3.769   3.627   5.072
 2696SOL    HW2 8988   3.926   3.607   5.111
 2697SOL     OW 8989   4.086   1.484   3.312
 2697SOL    HW1 8990   4.032   1.568   3.303
 2697SOL    HW2 8991   4.026   1.408   3.334
 2698SOL     OW 8992   2.099   5.594   0.394
 2698SOL    HW1 8993   2.114   5.520   0.328
 2698SOL    HW2 8994   2.013   5.578   0.443
 2699SOL     OW 8995   3.658   6.187   0.609
 2699SOL    HW1 8996   3.563   6.155   0.611
 2699SOL    HW2 8997   3.709   6.137   0.539
 2700SOL     OW 8998   2.172   4.171   1.357
 2700SOL    HW1 8999   2.126   4.162   1.269
 2700SOL    HW2 9000   2.104   4.190   1.429
 2701SOL     OW 9001   3.178   0.506   6.776
 2701SOL    HW1 9002   3.179   0.479   6.873
 2701SOL    HW2 9003   3.153   0.427   6.720
 2702SOL     OW 9004   0.774   2.728   2.712
 2702SOL    HW1 9005   0.703   2.665   2.744
 2702SOL    HW2 9006   0.852   2.676   2.678
 2703SOL     OW 9007   2.227   0.377   2.687
 2703SOL    HW1 9008   2.148   0.413   2.637
 2703SOL    HW2 9009   2.280   0.453   2.725
 2704SOL     OW 9010   0.235   6.054   0.842
 2704SOL    HW1 9011   0.189   6.072   0.756
 2704SOL    HW2 9012   0.260   5.957   0.846
 2705SOL     OW 9013   1.481   5.788   4.610
 2705SOL    HW1 9014   1.463   5.814   4.705
 2705SOL    HW2 9015   1.436   5.854   4.549
 2706SOL     OW 9016   0.332   0.561   1.084
 2706SOL    HW1 9017   0.422   0.605   1.081
 2706SOL    HW2 9018   0.264   0.623   1.046
 2707SOL     OW 9019   2.322   1.039   5.057
 2707SOL    HW1 9020   2.357   1.092   5.134
 2707SOL    HW2 9021   2.227   1.015   5.074
 2708SOL     OW 9022   1.203   2.114   0.864
 2708SOL    HW1 9023   1.107   2.092   0.880
 2708SOL    HW2 9024   1.235   2.178   0.933
 2709SOL     OW 9025   5.582   6.410   0.153
 2709SOL    HW1 9026   5.580   6.337   0.222
 2709SOL    HW2 9027   5.509   6.394   0.086
 2710SOL     OW 9028   0.678   3.538   2.489
 2710SOL    HW1 9029   0.647   3.454   2.533
 2710SOL    HW2 9030   0.670   3.614   2.553
 2711SOL     OW 9031   2.488   1.225   3.364
 2711SOL    HW1 9032   2.534   1.151   3.413
 2711SOL    HW2 9033   2.479   1.201   3.268
 2712SOL     OW 9034   3.210   4.970   1.102
 2712SOL    HW1 9035   3.258   4.905   1.044
 2712SOL    HW2 9036   3.274   5.010   1.168
 2713SOL     OW 9037   2.102   2.207   5.077
 2713SOL    HW1 9038   2.036   2.218   5.003
 2713SOL    HW2 9039   2.158   2.289   5.084
 2714SOL     OW 9040   4.639   2.044   0.150
 2714SOL    HW1 9041   4.661   1.992   0.068
 2714SOL    HW2 9042   4.645   2.142   0.129
 2715SOL     OW 9043   5.488   0.599   0.070
 2715SOL    HW1 9044   5.581   0.562   0.078
 2715SOL    HW2 9045   5.451   0.615   0.161
 2716SOL     OW 9046   5.271   5.119   2.898
 2716SOL    HW1 9047   5.269   5.174   2.815
 2716SOL    HW2 9048   5.358   5.070   2.904
 2717SOL     OW 9049   2.264   5.119   2.371
 2717SOL    HW1 9050   2.349   5.170   2.357
 2717SOL    HW2 9051   2.272   5.030   2.328
 2718SOL     OW 9052   1.679   3.550   5.223
 2718SOL    HW1 9053   1.594   3.557   5.276
 2718SOL    HW2 9054   1.713   3.642   5.202
 2719SOL     OW 9055   6.231   5.795   1.357
 2719SOL    HW1 9056   6.303   5.793   1.426
 2719SOL    HW2 9057   6.184   5.707   1.356
 2720SOL     OW 9058   1.980   6.255   2.669
 2720SOL    HW1 9059   1.897   6.272   2.616
 2720SOL    HW2 9060   2.000   6.336   2.725
 2721SOL     OW 9061   3.108   0.665   4.192
 2721SOL    HW1 9062   3.206   0.675   4.174
 2721SOL    HW2 9063   3.057   0.701   4.114
 2722SOL     OW 9064   6.572   5.570   2.162
 2722SOL    HW1 9065   6.666   5.561   2.193
 2722SOL    HW2 9066   6.509   5.550   2.237
 2723SOL     OW 9067   1.306   6.560   5.841
 2723SOL    HW1 9068   1.214   6.535   5.810
 2723SOL    HW2 9069   1.327   6.512   5.926
 2724SOL     OW 9070   2.495   6.979   6.306
 2724SOL    HW1 9071   2.549   6.896   6.316
 2724SOL    HW2 9072   2.492   7.005   6.209
 2725SOL     OW 9073   6.095   4.939   4.201
 2725SOL    HW1 9074   6.159   4.874   4.242
 2725SOL    HW2 9075   6.002   4.907   4.214
 2726SOL     OW 9076   6.936   3.960   0.960
 2726SOL    HW1 9077   6.982   3.872   0.952
 2726SOL    HW2 9078   6.908   3.992   0.869
 2727SOL     OW 9079   0.605   4.841   3.132
 2727SOL    HW1 9080   0.601   4.930   3.087
 2727SOL    HW2 9081   0.529   4.784   3.102
 2728SOL     OW 9082   3.653   0.099   6.039
 2728SOL    HW1 9083   3.735   0.043   6.050
 2728SOL    HW2 9084   3.582   0.046   5.992
 2729SOL     OW 9085   6.160   5.802   1.089
 2729SOL    HW1 9086   6.187   5.814   1.184
 2729SOL    HW2 9087   6.238   5.818   1.029
 2730SOL     OW 9088   1.772   5.348   1.768
 2730SOL    HW1 9089   1.730   5.258   1.760
 2730SOL    HW2 9090   1.704   5.413   1.801
 2731SOL     OW 9091   3.760   3.441   2.024
 2731SOL    HW1 9092   3.817   3.359   2.018
 2731SOL    HW2 9093   3.769   3.494   1.940
 2732SOL     OW 9094   5.463   3.243   2.261
 2732SOL    HW1 9095   5.375   3.275   2.297
 2732SOL    HW2 9096   5.500   3.312   2.198
 2733SOL     OW 9097   0.385   0.039   4.740
 2733SOL    HW1 9098   0.445   6.977   4.745
 2733SOL    HW2 9099   0.416   0.101   4.668
 2734SOL     OW 9100   2.354   5.938   1.951
 2734SOL    HW1 9101   2.299   5.901   2.026
 2734SOL    HW2 9102   2.384   6.031   1.974
 2735SOL     OW 9103   0.829   3.465   2.827
 2735SOL    HW1 9104   0.755   3.416   2.873
 2735SOL    HW2 9105   0.855   3.546   2.880
 2736SOL     OW 9106   4.382   0.031   4.583
 2736SOL    HW1 9107   4.445   0.072   4.518
 2736SOL    HW2 9108   4.433   7.014   4.662
 2737SOL     OW 9109   3.835   3.588   5.425
 2737SOL    HW1 9110   3.832   3.623   5.331
 2737SOL    HW2 9111   3.746   3.549   5.448
 2738SOL     OW 9112   5.840   4.857   3.850
 2738SOL    HW1 9113   5.940   4.857   3.853
 2738SOL    HW2 9114   5.804   4.844   3.943
 2739SOL     OW 9115   6.439   5.269   0.340
 2739SOL    HW1 9116   6.521   5.231   0.297
 2739SOL    HW2 9117   6.365   5.274   0.274
 2740SOL     OW 9118   6.193   3.544   2.173
 2740SOL    HW1 9119   6.207   3.642   2.186
 2740SOL    HW2 9120   6.113   3.529   2.115
 2741SOL     OW 9121   6.880   1.186   5.414
 2741SOL    HW1 9122   6.806   1.180   5.348
 2741SOL    HW2 9123   6.908   1.094   5.442
 2742SOL     OW 9124   1.788   4.463   6.759
 2742SOL    HW1 9125   1.816   4.407   6.838
 2742SOL    HW2 9126   1.717   4.414   6.708
 2743SOL     OW 9127   6.230   5.149   2.196
 2743SOL    HW1 9128   6.180   5.063   2.200
 2743SOL    HW2 9129   6.326   5.133   2.219
 2744SOL     OW 9130   4.599   1.875   0.403
 2744SOL    HW1 9131   4.592   1.789   0.353
 2744SOL    HW2 9132   4.611   1.951   0.339
 2745SOL     OW 9133   0.807   6.454   6.659
 2745SOL    HW1 9134   0.843   6.394   6.587
 2745SOL    HW2 9135   0.802   6.403   6.745
 2746SOL     OW 9136   2.742   1.950   3.621
 2746SOL    HW1 9137   2.730   2.049   3.616
 2746SOL    HW2 9138   2.825   1.928   3.672
 2747SOL     OW 9139   5.249   3.505   5.726
 2747SOL    HW1 9140   5.268   3.596   5.763
 2747SOL    HW2 9141   5.151   3.492   5.716
 2748SOL     OW 9142   3.986   1.547   0.706
 2748SOL    HW1 9143   3.949   1.527   0.615
 2748SOL    HW2 9144   3.942   1.629   0.743
 2749SOL     OW 9145   6.013   4.363   3.728
 2749SOL    HW1 9146   5.940   4.402   3.784
 2749SOL    HW2 9147   6.102   4.384   3.770
 2750SOL     OW 9148   0.540   4.859   1.314
 2750SOL    HW1 9149   0.616   4.802   1.285
 2750SOL    HW2 9150   0.482   4.880   1.235
 2751SOL     OW 9151   0.633   6.141   0.749
 2751SOL    HW1 9152   0.608   6.107   0.840
 2751SOL    HW2 9153   0.574   6.097   0.681
 2752SOL     OW 9154   4.869   4.573   4.975
 2752SOL    HW1 9155   4.821   4.542   5.058
 2752SOL    HW2 9156   4.817   4.648   4.933
 2753SOL     OW 9157   1.302   0.096   6.576
 2753SOL    HW1 9158   1.363   0.037   6.628
 2753SOL    HW2 9159   1.216   0.048   6.558
 2754SOL     OW 9160   6.538   0.950   3.940
 2754SOL    HW1 9161   6.599   1.001   4.001
 2754SOL    HW2 9162   6.580   0.943   3.850
 2755SOL     OW 9163   2.965   6.783   3.454
 2755SOL    HW1 9164   3.046   6.784   3.513
 2755SOL    HW2 9165   2.947   6.690   3.422
 2756SOL     OW 9166   6.011   3.989   5.168
 2756SOL    HW1 9167   5.953   3.986   5.249
 2756SOL    HW2 9168   5.963   3.944   5.092
 2757SOL     OW 9169   2.074   1.257   6.147
 2757SOL    HW1 9170   2.052   1.276   6.243
 2757SOL    HW2 9171   2.157   1.308   6.122
 2758SOL     OW 9172   5.243   6.385   3.643
 2758SOL    HW1 9173   5.222   6.372   3.546
 2758SOL    HW2 9174   5.342   6.394   3.655
 2759SOL     OW 9175   4.479   5.835   5.527
 2759SOL    HW1 9176   4.390   5.795   5.549
 2759SOL    HW2 9177   4.466   5.926   5.487
 2760SOL     OW 9178   6.641   5.273   2.858
 2760SOL    HW1 9179   6.690   5.211   2.796
 2760SOL    HW2 9180   6.703   5.303   2.930
 2761SOL     OW 9181   1.966   4.239   4.581
 2761SOL    HW1 9182   2.051   4.287   4.602
 2761SOL    HW2 9183   1.986   4.154   4.531
 2762SOL     OW 9184   1.762   1.676   6.949
 2762SOL    HW1 9185   1.663   1.664   6.953
 2762SOL    HW2 9186   1.784   1.772   6.967
 2763SOL     OW 9187   4.556   2.332   5.352
 2763SOL    HW1 9188   4.595   2.344   5.443
 2763SOL    HW2 9189   4.600   2.395   5.288
 2764SOL     OW 9190   6.893   6.004   2.320
 2764SOL    HW1 9191   6.824   5.932   2.322
 2764SOL    HW2 9192   6.983   5.965   2.338
 2765SOL     OW 9193   6.864   0.099   0.790
 2765SOL    HW1 9194   6.864   0.055   0.700
 2765SOL    HW2 9195   6.856   0.198   0.779
 2766SOL     OW 9196   3.741   2.371   6.333
 2766SOL    HW1 9197   3.791   2.323   6.405
 2766SOL    HW2 9198   3.708   2.459   6.367
 2767SOL     OW 9199   6.384   5.363   6.624
 2767SOL    HW1 9200   6.329   5.289   6.583
 2767SOL    HW2 9201   6.425   5.418   6.551
 2768SOL     OW 9202   4.499   0.899   0.464
 2768SOL    HW1 9203   4.500   0.966   0.390
 2768SOL    HW2 9204   4.456   0.939   0.545
 2769SOL     OW 9205   2.697   4.547   6.363
 2769SOL    HW1 9206   2.726   4.626   6.416
 2769SOL    HW2 9207   2.614   4.569   6.312
 2770SOL     OW 9208   4.308   5.254   5.553
 2770SOL    HW1 9209   4.296   5.162   5.590
 2770SOL    HW2 9210   4.316   5.320   5.628
 2771SOL     OW 9211   5.839   0.677   4.729
 2771SOL    HW1 9212   5.806   0.724   4.811
 2771SOL    HW2 9213   5.915   0.617   4.753
 2772SOL     OW 9214   3.322   1.197   1.363
 2772SOL    HW1 9215   3.234   1.154   1.379
 2772SOL    HW2 9216   3.309   1.279   1.307
 2773SOL     OW 9217   6.628   2.576   4.209
 2773SOL    HW1 9218   6.614   2.631   4.126
 2773SOL    HW2 9219   6.694   2.504   4.190
 2774SOL     OW 9220   4.889   3.105   3.011
 2774SOL    HW1 9221   4.955   3.030   3.012
 2774SOL    HW2 9222   4.884   3.144   2.918
 2775SOL     OW 9223   6.088   3.155   4.122
 2775SOL    HW1 9224   6.059   3.178   4.215
 2775SOL    HW2 9225   6.175   3.107   4.124
 2776SOL     OW 9226   5.267   4.278   5.586
 2776SOL    HW1 9227   5.195   4.288   5.655
 2776SOL    HW2 9228   5.249   4.197   5.531
 2777SOL     OW 9229   2.641   1.672   1.094
 2777SOL    HW1 9230   2.653   1.755   1.041
 2777SOL    HW2 9231   2.592   1.604   1.039
 2778SOL     OW 9232   1.507   6.220   6.803
 2778SOL    HW1 9233   1.532   6.211   6.706
 2778SOL    HW2 9234   1.523   6.314   6.833
 2779SOL     OW 9235   5.459   6.811   1.666
 2779SOL    HW1 9236   5.504   6.754   1.734
 2779SOL    HW2 9237   5.527   6.866   1.617
 2780SOL     OW 9238   6.962   0.284   5.964
 2780SOL    HW1 9239   6.915   0.373   5.962
 2780SOL    HW2 9240   6.909   0.220   6.019
 2781SOL     OW 9241   6.309   0.642   3.171
 2781SOL    HW1 9242   6.238   0.591   3.220
 2781SOL    HW2 9243   6.316   0.734   3.208
 2782SOL     OW 9244   4.667   1.253   4.784
 2782SOL    HW1 9245   4.607   1.333   4.785
 2782SOL    HW2 9246   4.712   1.245   4.873
 2783SOL     OW 9247   6.721   3.809   1.544
 2783SOL    HW1 9248   6.694   3.889   1.491
 2783SOL    HW2 9249   6.821   3.800   1.542
 2784SOL     OW 9250   3.436   0.877   2.302
 2784SOL    HW1 9251   3.477   0.958   2.345
 2784SOL    HW2 9252   3.455   0.879   2.204
 2785SOL     OW 9253   5.221   2.317   0.456
 2785SOL    HW1 9254   5.296   2.326   0.391
 2785SOL    HW2 9255   5.237   2.377   0.534
 2786SOL     OW 9256   6.603   6.913   1.816
 2786SOL    HW1 9257   6.617   6.841   1.747
 2786SOL    HW2 9258   6.639   6.999   1.781
 2787SOL     OW 9259   6.082   6.415   5.540
 2787SOL    HW1 9260   6.044   6.336   5.492
 2787SOL    HW2 9261   6.035   6.498   5.510
 2788SOL     OW 9262   2.356   6.610   5.837
 2788SOL    HW1 9263   2.362   6.567   5.927
 2788SOL    HW2 9264   2.441   6.592   5.786
 2789SOL     OW 9265   2.044   1.695   3.493
 2789SOL    HW1 9266   2.117   1.658   3.435
 2789SOL    HW2 9267   1.980   1.748   3.438
 2790SOL     OW 9268   3.303   5.472   1.102
 2790SOL    HW1 9269   3.335   5.418   1.024
 2790SOL    HW2 9270   3.265   5.411   1.171
 2791SOL     OW 9271   0.959   4.277   2.390
 2791SOL    HW1 9272   0.944   4.178   2.397
 2791SOL    HW2 9273   0.883   4.319   2.342
 2792SOL     OW 9274   3.264   1.015   4.211
 2792SOL    HW1 9275   3.218   0.976   4.132
 2792SOL    HW2 9276   3.350   1.058   4.182
 2793SOL     OW 9277   5.057   3.658   2.167
 2793SOL    HW1 9278   5.154   3.639   2.184
 2793SOL    HW2 9279   5.022   3.595   2.098
 2794SOL     OW 9280   6.579   2.379   5.967
 2794SOL    HW1 9281   6.551   2.291   5.928
 2794SOL    HW2 9282   6.507   2.447   5.951
 2795SOL     OW 9283   0.541   4.152   1.319
 2795SOL    HW1 9284   0.591   4.176   1.402
 2795SOL    HW2 9285   0.604   4.115   1.251
 2796SOL     OW 9286   0.057   5.690   3.822
 2796SOL    HW1 9287   0.119   5.764   3.795
 2796SOL    HW2 9288   6.990   5.697   3.770
 2797SOL     OW 9289   5.378   5.249   5.522
 2797SOL    HW1 9290   5.342   5.341   5.506
 2797SOL    HW2 9291   5.438   5.223   5.447
 2798SOL     OW 9292   5.784   5.464   2.792
 2798SOL    HW1 9293   5.739   5.543   2.750
 2798SOL    HW2 9294   5.716   5.396   2.818
 2799SOL     OW 9295   5.467   6.071   6.212
 2799SOL    HW1 9296   5.371   6.059   6.186
 2799SOL    HW2 9297   5.525   6.011   6.157
 2800SOL     OW 9298   5.713   0.067   5.876
 2800SOL    HW1 9299   5.746   0.086   5.783
 2800SOL    HW2 9300   5.652   0.141   5.904
 2801SOL     OW 9301   0.645   5.730   5.752
 2801SOL    HW1 9302   0.551   5.716   5.722
 2801SOL    HW2 9303   0.682   5.645   5.790
 2802SOL     OW 9304   6.535   6.321   5.427
 2802SOL    HW1 9305   6.604   6.268   5.476
 2802SOL    HW2 9306   6.463   6.348   5.491
 2803SOL     OW 9307   3.391   4.967   5.936
 2803SOL    HW1 9308   3.294   4.954   5.960
 2803SOL    HW2 9309   3.413   4.912   5.856
 2804SOL     OW 9310   0.405   3.784   4.570
 2804SOL    HW1 9311   0.359   3.802   4.484
 2804SOL    HW2 9312   0.356   3.829   4.645
 2805SOL     OW 9313   5.868   3.693   2.782
 2805SOL    HW1 9314   5.813   3.644   2.850
 2805SOL    HW2 9315   5.930   3.628   2.737
 2806SOL     OW 9316   1.898   4.108   5.932
 2806SOL    HW1 9317   1.942   4.141   5.848
 2806SOL    HW2 9318   1.969   4.083   5.998
 2807SOL     OW 9319   4.479   0.150   3.081
 2807SOL    HW1 9320   4.538   0.226   3.056
 2807SOL    HW2 9321   4.433   0.170   3.168
 2808SOL     OW 9322   6.258   5.547   0.733
 2808SOL    HW1 9323   6.323   5.485   0.689
 2808SOL    HW2 9324   6.166   5.529   0.697
 2809SOL     OW 9325   5.281   2.042   1.593
 2809SOL    HW1 9326   5.182   2.048   1.576
 2809SOL    HW2 9327   5.325   2.125   1.560
 2810SOL     OW 9328   2.143   5.493   2.959
 2810SOL    HW1 9329   2.125   5.560   3.031
 2810SOL    HW2 9330   2.142   5.401   2.998
 2811SOL     OW 9331   0.675   1.893   2.728
 2811SOL    HW1 9332   0.577   1.914   2.725
 2811SOL    HW2 9333   0.696   1.824   2.659
 2812SOL     OW 9334   5.960   3.630   0.907
 2812SOL    HW1 9335   6.051   3.624   0.867
 2812SOL    HW2 9336   5.967   3.643   1.006
 2813SOL     OW 9337   0.690   1.882   0.284
 2813SOL    HW1 9338   0.690   1.804   0.346
 2813SOL    HW2 9339   0.619   1.870   0.215
 2814SOL     OW 9340   3.506   4.235   5.373
 2814SOL    HW1 9341   3.442   4.207   5.301
 2814SOL    HW2 9342   3.467   4.311   5.425
 2815SOL     OW 9343   6.273   5.057   6.117
 2815SOL    HW1 9344   6.276   5.110   6.203
 2815SOL    HW2 9345   6.189   5.079   6.068
 2816SOL     OW 9346   6.453   6.143   4.648
 2816SOL    HW1 9347   6.410   6.227   4.614
 2816SOL    HW2 9348   6.430   6.131   4.745
 2817SOL     OW 9349   3.372   1.266   2.737
 2817SOL    HW1 9350   3.311   1.205   2.788
 2817SOL    HW2 9351   3.459   1.274   2.785
 2818SOL     OW 9352   6.855   1.351   2.270
 2818SOL    HW1 9353   6.900   1.355   2.359
 2818SOL    HW2 9354   6.760   1.324   2.281
 2819SOL     OW 9355   1.439   0.389   1.970
 2819SOL    HW1 9356   1.413   0.336   2.050
 2819SOL    HW2 9357   1.408   0.341   1.887
 2820SOL     OW 9358   0.990   2.049   2.304
 2820SOL    HW1 9359   1.083   2.022   2.279
 2820SOL    HW2 9360   0.957   2.117   2.238
 2821SOL     OW 9361   2.665   4.897   5.956
 2821SOL    HW1 9362   2.686   4.803   5.929
 2821SOL    HW2 9363   2.692   4.912   6.051
 2822SOL     OW 9364   4.148   2.219   6.951
 2822SOL    HW1 9365   4.232   2.181   6.913
 2822SOL    HW2 9366   4.160   2.235   0.031
 2823SOL     OW 9367   6.171   0.769   7.004
 2823SOL    HW1 9368   6.108   0.736   6.933
 2823SOL    HW2 9369   6.265   0.767   6.969
 2824SOL     OW 9370   1.945   2.390   5.350
 2824SOL    HW1 9371   1.889   2.460   5.305
 2824SOL    HW2 9372   2.042   2.415   5.340
 2825SOL     OW 9373   5.534   0.226   5.995
 2825SOL    HW1 9374   5.500   0.185   6.079
 2825SOL    HW2 9375   5.460   0.280   5.953
 2826SOL     OW 9376   2.946   3.512   6.466
 2826SOL    HW1 9377   2.953   3.494   6.368
 2826SOL    HW2 9378   2.860   3.559   6.485
 2827SOL     OW 9379   0.175   1.056   6.555
 2827SOL    HW1 9380   0.175   0.957   6.560
 2827SOL    HW2 9381   0.100   1.087   6.497
 2828SOL     OW 9382   2.159   3.428   0.957
 2828SOL    HW1 9383   2.216   3.424   0.875
 2828SOL    HW2 9384   2.080   3.369   0.946
 2829SOL     OW 9385   3.224   2.972   3.449
 2829SOL    HW1 9386   3.191   3.037   3.380
 2829SOL    HW2 9387   3.161   2.972   3.527
 2830SOL     OW 9388   3.343   4.189   5.147
 2830SOL    HW1 9389   3.247   4.202   5.172
 2830SOL    HW2 9390   3.350   4.177   5.048
 2831SOL     OW 9391   0.840   2.942   2.872
 2831SOL    HW1 9392   0.802   2.929   2.964
 2831SOL    HW2 9393   0.802   2.874   2.810
 2832SOL     OW 9394   1.021   2.816   1.753
 2832SOL    HW1 9395   1.024   2.728   1.800
 2832SOL    HW2 9396   0.971   2.882   1.808
 2833SOL     OW 9397   2.356   1.773   2.123
 2833SOL    HW1 9398   2.452   1.793   2.103
 2833SOL    HW2 9399   2.343   1.674   2.126
 2834SOL     OW 9400   4.099   6.119   4.488
 2834SOL    HW1 9401   4.147   6.185   4.430
 2834SOL    HW2 9402   4.119   6.027   4.457
 2835SOL     OW 9403   0.909   6.875   0.422
 2835SOL    HW1 9404   0.886   6.867   0.325
 2835SOL    HW2 9405   0.978   6.947   0.434
 2836SOL     OW 9406   1.643   6.410   1.562
 2836SOL    HW1 9407   1.719   6.372   1.509
 2836SOL    HW2 9408   1.664   6.505   1.585
 2837SOL     OW 9409   5.446   4.629   2.586
 2837SOL    HW1 9410   5.498   4.649   2.669
 2837SOL    HW2 9411   5.480   4.684   2.511
 2838SOL     OW 9412   4.782   3.864   0.759
 2838SOL    HW1 9413   4.816   3.772   0.778
 2838SOL    HW2 9414   4.785   3.918   0.843
 2839SOL     OW 9415   0.278   3.141   2.475
 2839SOL    HW1 9416   0.226   3.199   2.538
 2839SOL    HW2 9417   0.335   3.198   2.415
 2840SOL     OW 9418   1.589   5.817   2.665
 2840SOL    HW1 9419   1.649   5.781   2.737
 2840SOL    HW2 9420   1.538   5.895   2.701
 2841SOL     OW 9421   6.164   2.222   6.790
 2841SOL    HW1 9422   6.132   2.270   6.708
 2841SOL    HW2 9423   6.136   2.274   6.871
 2842SOL     OW 9424   0.735   5.971   4.821
 2842SOL    HW1 9425   0.817   5.947   4.770
 2842SOL    HW2 9426   0.687   5.887   4.847
 2843SOL     OW 9427   2.457   1.497   2.376
 2843SOL    HW1 9428   2.513   1.530   2.299
 2843SOL    HW2 9429   2.477   1.552   2.457
 2844SOL     OW 9430   5.780   5.433   1.018
 2844SOL    HW1 9431   5.792   5.345   1.064
 2844SOL    HW2 9432   5.817   5.428   0.925
 2845SOL     OW 9433   5.148   3.095   2.596
 2845SOL    HW1 9434   5.057   3.123   2.565
 2845SOL    HW2 9435   5.179   3.017   2.541
 2846SOL     OW 9436   3.294   0.531   0.723
 2846SOL    HW1 9437   3.268   0.519   0.819
 2846SOL    HW2 9438   3.366   0.467   0.700
 2847SOL     OW 9439   4.951   3.921   2.543
 2847SOL    HW1 9440   4.874   3.960   2.493
 2847SOL    HW2 9441   4.917   3.868   2.621
 2848SOL     OW 9442   2.574   2.503   5.734
 2848SOL    HW1 9443   2.583   2.573   5.663
 2848SOL    HW2 9444   2.558   2.548   5.822
 2849SOL     OW 9445   3.606   1.090   1.591
 2849SOL    HW1 9446   3.601   1.057   1.497
 2849SOL    HW2 9447   3.528   1.055   1.643
 2850SOL     OW 9448   2.199   6.914   3.353
 2850SOL    HW1 9449   2.173   6.821   3.379
 2850SOL    HW2 9450   2.244   6.912   3.263
 2851SOL     OW 9451   4.670   3.304   6.764
 2851SOL    HW1 9452   4.612   3.328   6.843
 2851SOL    HW2 9453   4.707   3.212   6.776
 2852SOL     OW 9454   6.130   3.930   0.468
 2852SOL    HW1 9455   6.087   4.019   0.449
 2852SOL    HW2 9456   6.131   3.914   0.567
 2853SOL     OW 9457   0.904   3.254   0.105
 2853SOL    HW1 9458   0.818   3.204   0.097
 2853SOL    HW2 9459   0.938   3.277   0.014
 2854SOL     OW 9460   3.494   0.854   6.287
 2854SOL    HW1 9461   3.454   0.809   6.207
 2854SOL    HW2 9462   3.447   0.824   6.369
 2855SOL     OW 9463   1.307   2.612   5.038
 2855SOL    HW1 9464   1.288   2.704   5.002
 2855SOL    HW2 9465   1.257   2.544   4.985
 2856SOL     OW 9466   1.453   2.993   4.236
 2856SOL    HW1 9467   1.504   2.982   4.151
 2856SOL    HW2 9468   1.459   2.909   4.291
 2857SOL     OW 9469   0.321   2.977   0.804
 2857SOL    HW1 9470   0.260   2.950   0.729
 2857SOL    HW2 9471   0.355   2.895   0.849
 2858SOL     OW 9472   5.212   6.303   2.154
 2858SOL    HW1 9473   5.158   6.309   2.238
 2858SOL    HW2 9474   5.304   6.338   2.172
 2859SOL     OW 9475   5.701   6.575   0.307
 2859SOL    HW1 9476   5.714   6.653   0.246
 2859SOL    HW2 9477   5.650   6.504   0.260
 2860SOL     OW 9478   2.079   6.797   2.375
 2860SOL    HW1 9479   2.023   6.880   2.381
 2860SOL    HW2 9480   2.137   6.801   2.294
 2861SOL     OW 9481   3.230   6.000   5.189
 2861SOL    HW1 9482   3.189   6.048   5.111
 2861SOL    HW2 9483   3.173   6.013   5.270
 2862SOL     OW 9484   4.396   2.430   2.011
 2862SOL    HW1 9485   4.455   2.504   2.045
 2862SOL    HW2 9486   4.376   2.446   1.915
 2863SOL     OW 9487   4.928   1.765   0.062
 2863SOL    HW1 9488   4.957   1.740   6.987
 2863SOL    HW2 9489   4.950   1.690   0.124
 2864SOL     OW 9490   4.971   2.860   0.791
 2864SOL    HW1 9491   5.032   2.939   0.791
 2864SOL    HW2 9492   4.911   2.864   0.871
 2865SOL     OW 9493   4.411   6.476   3.818
 2865SOL    HW1 9494   4.473   6.478   3.896
 2865SOL    HW2 9495   4.338   6.543   3.831
 2866SOL     OW 9496   5.670   3.713   0.382
 2866SOL    HW1 9497   5.651   3.631   0.437
 2866SOL    HW2 9498   5.672   3.689   0.285
 2867SOL     OW 9499   6.136   6.236   2.515
 2867SOL    HW1 9500   6.235   6.236   2.504
 2867SOL    HW2 9501   6.097   6.155   2.471
 2868SOL     OW 9502   1.331   1.369   5.423
 2868SOL    HW1 9503   1.305   1.272   5.425
 2868SOL    HW2 9504   1.251   1.426   5.439
 2869SOL     OW 9505   6.457   0.512   3.382
 2869SOL    HW1 9506   6.388   0.514   3.454
 2869SOL    HW2 9507   6.425   0.566   3.303
 2870SOL     OW 9508   0.485   2.069   6.580
 2870SOL    HW1 9509   0.456   2.160   6.609
 2870SOL    HW2 9510   0.431   2.000   6.629
 2871SOL     OW 9511   6.368   0.475   0.307
 2871SOL    HW1 9512   6.340   0.386   0.269
 2871SOL    HW2 9513   6.305   0.546   0.275
 2872SOL     OW 9514   2.727   1.788   0.767
 2872SOL    HW1 9515   2.731   1.852   0.690
 2872SOL    HW2 9516   2.665   1.824   0.836
 2873SOL     OW 9517   6.879   6.471   2.311
 2873SOL    HW1 9518   6.783   6.498   2.318
 2873SOL    HW2 9519   6.897   6.394   2.372
 2874SOL     OW 9520   4.087   6.510   3.247
 2874SOL    HW1 9521   4.087   6.453   3.329
 2874SOL    HW2 9522   4.069   6.452   3.167
 2875SOL     OW 9523   4.175   6.575   2.916
 2875SOL    HW1 9524   4.256   6.568   2.975
 2875SOL    HW2 9525   4.172   6.667   2.876
 2876SOL     OW 9526   1.536   6.763   2.543
 2876SOL    HW1 9527   1.499   6.671   2.531
 2876SOL    HW2 9528   1.597   6.785   2.466
 2877SOL     OW 9529   1.967   0.723   6.136
 2877SOL    HW1 9530   1.891   0.686   6.189
 2877SOL    HW2 9531   2.001   0.654   6.072
 2878SOL     OW 9532   3.251   3.773   5.073
 2878SOL    HW1 9533   3.210   3.687   5.101
 2878SOL    HW2 9534   3.274   3.827   5.155
 2879SOL     OW 9535   4.928   5.407   5.772
 2879SOL    HW1 9536   4.841   5.443   5.807
 2879SOL    HW2 9537   4.915   5.313   5.741
 2880SOL     OW 9538   6.912   1.872   3.776
 2880SOL    HW1 9539   6.997   1.887   3.724
 2880SOL    HW2 9540   6.870   1.787   3.746
 2881SOL     OW 9541   3.193   5.855   6.840
 2881SOL    HW1 9542   3.149   5.800   6.769
 2881SOL    HW2 9543   3.237   5.935   6.799
 2882SOL     OW 9544   6.695   6.150   1.165
 2882SOL    HW1 9545   6.605   6.193   1.161
 2882SOL    HW2 9546   6.710   6.094   1.083
 2883SOL     OW 9547   5.800   6.707   3.566
 2883SOL    HW1 9548   5.752   6.624   3.594
 2883SOL    HW2 9549   5.842   6.692   3.477
 2884SOL     OW 9550   6.613   5.811   2.468
 2884SOL    HW1 9551   6.625   5.815   2.567
 2884SOL    HW2 9552   6.637   5.900   2.428
 2885SOL     OW 9553   1.191   2.288   4.489
 2885SOL    HW1 9554   1.230   2.363   4.436
 2885SOL    HW2 9555   1.098   2.269   4.457
 2886SOL     OW 9556   2.149   3.870   6.122
 2886SOL    HW1 9557   2.216   3.802   6.153
 2886SOL    HW2 9558   2.138   3.941   6.192
 2887SOL     OW 9559   0.299   6.169   4.833
 2887SOL    HW1 9560   0.231   6.178   4.906
 2887SOL    HW2 9561   0.256   6.133   4.751
 2888SOL     OW 9562   0.283   4.669   6.977
 2888SOL    HW1 9563   0.354   4.642   0.024
 2888SOL    HW2 9564   0.293   4.618   6.892
 2889SOL     OW 9565   3.267   6.748   2.748
 2889SOL    HW1 9566   3.283   6.834   2.797
 2889SOL    HW2 9567   3.238   6.678   2.813
 2890SOL     OW 9568   1.650   5.837   1.016
 2890SOL    HW1 9569   1.687   5.788   0.937
 2890SOL    HW2 9570   1.674   5.934   1.009
 2891SOL     OW 9571   1.289   3.299   3.560
 2891SOL    HW1 9572   1.312   3.267   3.468
 2891SOL    HW2 9573   1.228   3.378   3.553
 2892SOL     OW 9574   5.480   2.727   1.517
 2892SOL    HW1 9575   5.437   2.680   1.594
 2892SOL    HW2 9576   5.472   2.826   1.530
 2893SOL     OW 9577   1.485   5.219   4.583
 2893SOL    HW1 9578   1.520   5.260   4.498
 2893SOL    HW2 9579   1.414   5.278   4.622
 2894SOL     OW 9580   1.606   3.537   1.575
 2894SOL    HW1 9581   1.562   3.528   1.485
 2894SOL    HW2 9582   1.650   3.627   1.581
 2895SOL     OW 9583   4.586   0.708   6.140
 2895SOL    HW1 9584   4.603   0.610   6.146
 2895SOL    HW2 9585   4.491   0.727   6.167
 2896SOL     OW 9586   4.028   0.373   5.430
 2896SOL    HW1 9587   4.064   0.314   5.357
 2896SOL    HW2 9588   3.944   0.332   5.467
 2897SOL     OW 9589   3.856   5.002   2.514
 2897SOL    HW1 9590   3.785   4.962   2.572
 2897SOL    HW2 9591   3.944   4.999   2.561
 2898SOL     OW 9592   5.080   4.167   3.819
 2898SOL    HW1 9593   4.991   4.127   3.841
 2898SOL    HW2 9594   5.101   4.239   3.885
 2899SOL     OW 9595   6.354   2.303   0.305
 2899SOL    HW1 9596   6.432   2.254   0.344
 2899SOL    HW2 9597   6.278   2.303   0.371
 2900SOL     OW 9598   3.855   4.557   6.501
 2900SOL    HW1 9599   3.919   4.480   6.493
 2900SOL    HW2 9600   3.763   4.522   6.518
 2901SOL     OW 9601   2.001   5.059   3.509
 2901SOL    HW1 9602   1.994   5.149   3.466
 2901SOL    HW2 9603   1.953   4.992   3.454
 2902SOL     OW 9604   6.351   4.935   3.470
 2902SOL    HW1 9605   6.340   4.919   3.372
 2902SOL    HW2 9606   6.331   5.031   3.490
 2903SOL     OW 9607   4.252   6.314   0.689
 2903SOL    HW1 9608   4.159   6.299   0.723
 2903SOL    HW2 9609   4.288   6.399   0.729
 2904SOL     OW 9610   3.172   5.370   5.411
 2904SOL    HW1 9611   3.107   5.296   5.424
 2904SOL    HW2 9612   3.239   5.369   5.486
 2905SOL     OW 9613   1.365   3.923   4.311
 2905SOL    HW1 9614   1.454   3.926   4.265
 2905SOL    HW2 9615   1.308   3.852   4.269
 2906SOL     OW 9616   5.412   6.243   2.618
 2906SOL    HW1 9617   5.382   6.256   2.713
 2906SOL    HW2 9618   5.483   6.310   2.596
 2907SOL     OW 9619   0.527   1.782   4.143
 2907SOL    HW1 9620   0.585   1.809   4.066
 2907SOL    HW2 9621   0.521   1.858   4.208
 2908SOL     OW 9622   5.478   6.637   3.234
 2908SOL    HW1 9623   5.447   6.554   3.280
 2908SOL    HW2 9624   5.470   6.714   3.297
 2909SOL     OW 9625   1.762   6.106   3.862
 2909SOL    HW1 9626   1.713   6.191   3.846
 2909SOL    HW2 9627   1.776   6.094   3.961
 2910SOL     OW 9628   6.887   0.764   3.559
 2910SOL    HW1 9629   6.819   0.809   3.502
 2910SOL    HW2 9630   6.843   0.689   3.610
 2911SOL     OW 9631   1.624   5.182   4.085
 2911SOL    HW1 9632   1.591   5.214   4.173
 2911SOL    HW2 9633   1.605   5.250   4.015
 2912SOL     OW 9634   6.067   6.262   6.709
 2912SOL    HW1 9635   6.153   6.227   6.747
 2912SOL    HW2 9636   5.990   6.222   6.757
 2913SOL     OW 9637   3.281   5.083   1.941
 2913SOL    HW1 9638   3.337   5.009   1.904
 2913SOL    HW2 9639   3.268   5.154   1.871
 2914SOL     OW 9640   5.845   6.139   0.880
 2914SOL    HW1 9641   5.801   6.156   0.792
 2914SOL    HW2 9642   5.890   6.049   0.878
 2915SOL     OW 9643   2.637   1.751   3.474
 2915SOL    HW1 9644   2.702   1.675   3.484
 2915SOL    HW2 9645   2.673   1.831   3.520
 2916SOL     OW 9646   1.488   5.252   0.209
 2916SOL    HW1 9647   1.573   5.201   0.195
 2916SOL    HW2 9648   1.410   5.193   0.189
 2917SOL     OW 9649   3.351   0.387   4.628
 2917SOL    HW1 9650   3.319   0.357   4.538
 2917SOL    HW2 9651   3.420   0.458   4.618
 2918SOL     OW 9652   5.869   3.748   5.947
 2918SOL    HW1 9653   5.955   3.761   5.898
 2918SOL    HW2 9654   5.792   3.775   5.889
 2919SOL     OW 9655   6.576   0.262   3.319
 2919SOL    HW1 9656   6.530   0.347   3.345
 2919SOL    HW2 9657   6.652   0.283   3.257
 2920SOL     OW 9658   3.652   0.040   1.540
 2920SOL    HW1 9659   3.627   0.113   1.475
 2920SOL    HW2 9660   3.712   0.077   1.611
 2921SOL     OW 9661   0.691   6.805   5.578
 2921SOL    HW1 9662   0.704   6.794   5.677
 2921SOL    HW2 9663   0.593   6.810   5.557
 2922SOL     OW 9664   4.124   5.926   1.554
 2922SOL    HW1 9665   4.120   5.911   1.455
 2922SOL    HW2 9666   4.034   5.909   1.594
 2923SOL     OW 9667   6.864   5.398   4.214
 2923SOL    HW1 9668   6.934   5.449   4.165
 2923SOL    HW2 9669   6.863   5.424   4.310
 2924SOL     OW 9670   0.156   2.335   4.628
 2924SOL    HW1 9671   0.220   2.341   4.552
 2924SOL    HW2 9672   0.097   2.416   4.630
 2925SOL     OW 9673   6.149   2.249   0.476
 2925SOL    HW1 9674   6.169   2.154   0.501
 2925SOL    HW2 9675   6.053   2.257   0.450
 2926SOL     OW 9676   6.073   2.159   6.021
 2926SOL    HW1 9677   6.126   2.166   5.936
 2926SOL    HW2 9678   6.131   2.181   6.099
 2927SOL     OW 9679   1.700   3.737   0.741
 2927SOL    HW1 9680   1.627   3.806   0.749
 2927SOL    HW2 9681   1.772   3.756   0.808
 2928SOL     OW 9682   6.396   1.122   6.902
 2928SOL    HW1 9683   6.469   1.150   6.839
 2928SOL    HW2 9684   6.307   1.147   6.863
 2929SOL     OW 9685   2.189   2.778   5.774
 2929SOL    HW1 9686   2.279   2.819   5.760
 2929SOL    HW2 9687   2.174   2.706   5.706
 2930SOL     OW 9688   5.196   6.159   5.003
 2930SOL    HW1 9689   5.250   6.244   5.005
 2930SOL    HW2 9690   5.127   6.163   5.076
 2931SOL     OW 9691   4.783   5.067   6.952
 2931SOL    HW1 9692   4.811   5.057   6.857
 2931SOL    HW2 9693   4.684   5.055   6.959
 2932SOL     OW 9694   0.826   5.924   1.756
 2932SOL    HW1 9695   0.826   5.869   1.839
 2932SOL    HW2 9696   0.732   5.937   1.724
 2933SOL     OW 9697   1.226   6.328   2.146
 2933SOL    HW1 9698   1.215   6.233   2.115
 2933SOL    HW2 9699   1.323   6.352   2.148
 2934SOL     OW 9700   5.275   2.743   0.660
 2934SOL    HW1 9701   5.183   2.751   0.699
 2934SOL    HW2 9702   5.298   2.828   0.612
 2935SOL     OW 9703   6.829   2.634   6.310
 2935SOL    HW1 9704   6.825   2.540   6.276
 2935SOL    HW2 9705   6.816   2.698   6.235
 2936SOL     OW 9706   3.966   6.262   0.702
 2936SOL    HW1 9707   3.975   6.179   0.647
 2936SOL    HW2 9708   3.878   6.262   0.749
 2937SOL     OW 9709   4.877   5.530   1.096
 2937SOL    HW1 9710   4.927   5.615   1.109
 2937SOL    HW2 9711   4.785   5.550   1.062
 2938SOL     OW 9712   6.338   5.071   0.709
 2938SOL    HW1 9713   6.366   5.010   0.635
 2938SOL    HW2 9714   6.416   5.089   0.769
 2939SOL     OW 9715   2.149   0.872   1.525
 2939SOL    HW1 9716   2.132   0.774   1.535
 2939SOL    HW2 9717   2.062   0.920   1.516
 2940SOL     OW 9718   5.766   5.304   5.386
 2940SOL    HW1 9719   5.765   5.246   5.467
 2940SOL    HW2 9720   5.690   5.369   5.390
 2941SOL     OW 9721   2.057   2.002   3.359
 2941SOL    HW1 9722   1.963   1.968   3.363
 2941SOL    HW2 9723   2.089   2.024   3.451
 2942SOL     OW 9724   3.932   2.074   0.947
 2942SOL    HW1 9725   3.995   2.150   0.934
 2942SOL    HW2 9726   3.978   1.988   0.927
 2943SOL     OW 9727   5.510   4.397   3.703
 2943SOL    HW1 9728   5.471   4.305   3.708
 2943SOL    HW2 9729   5.443   4.464   3.737
 2944SOL     OW 9730   2.415   6.205   3.894
 2944SOL    HW1 9731   2.414   6.121   3.840
 2944SOL    HW2 9732   2.328   6.213   3.944
 2945SOL     OW 9733   4.657   2.637   1.992
 2945SOL    HW1 9734   4.615   2.680   1.912
 2945SOL    HW2 9735   4.677   2.708   2.060
 2946SOL     OW 9736   2.226   4.293   5.869
 2946SOL    HW1 9737   2.135   4.302   5.830
 2946SOL    HW2 9738   2.243   4.198   5.895
 2947SOL     OW 9739   0.510   5.348   1.007
 2947SOL    HW1 9740   0.441   5.406   0.965
 2947SOL    HW2 9741   0.525   5.377   1.102
 2948SOL     OW 9742   6.726   4.455   4.238
 2948SOL    HW1 9743   6.793   4.418   4.302
 2948SOL    HW2 9744   6.653   4.389   4.224
 2949SOL     OW 9745   0.462   5.317   0.141
 2949SOL    HW1 9746   0.498   5.257   0.070
 2949SOL    HW2 9747   0.433   5.403   0.099
 2950SOL     OW 9748   5.949   6.220   3.892
 2950SOL    HW1 9749   5.929   6.311   3.857
 2950SOL    HW2 9750   5.978   6.160   3.817
 2951SOL     OW 9751   5.280   1.995   2.434
 2951SOL    HW1 9752   5.282   1.938   2.516
 2951SOL    HW2 9753   5.282   1.936   2.353
 2952SOL     OW 9754   0.163   6.586   5.652
 2952SOL    HW1 9755   0.227   6.619   5.583
 2952SOL    HW2 9756   0.214   6.558   5.734
 2953SOL     OW 9757   6.503   4.188   3.144
 2953SOL    HW1 9758   6.433   4.224   3.082
 2953SOL    HW2 9759   6.558   4.120   3.096
 2954SOL     OW 9760   0.113   4.517   0.482
 2954SOL    HW1 9761   0.143   4.603   0.523
 2954SOL    HW2 9762   0.103   4.448   0.553
 2955SOL     OW 9763   0.458   4.462   1.229
 2955SOL    HW1 9764   0.543   4.513   1.214
 2955SOL    HW2 9765   0.478   4.381   1.284
 2956SOL     OW 9766   6.162   5.564   3.351
 2956SOL    HW1 9767   6.152   5.486   3.289
 2956SOL    HW2 9768   6.167   5.648   3.298
 2957SOL     OW 9769   4.771   4.579   1.358
 2957SOL    HW1 9770   4.677   4.544   1.363
 2957SOL    HW2 9771   4.825   4.520   1.298
 2958SOL     OW 9772   2.236   4.610   3.142
 2958SOL    HW1 9773   2.251   4.627   3.239
 2958SOL    HW2 9774   2.141   4.582   3.128
 2959SOL     OW 9775   5.258   2.857   2.445
 2959SOL    HW1 9776   5.212   2.812   2.368
 2959SOL    HW2 9777   5.345   2.895   2.413
 2960SOL     OW 9778   3.378   0.142   6.575
 2960SOL    HW1 9779   3.454   0.102   6.523
 2960SOL    HW2 9780   3.411   0.172   6.665
 2961SOL     OW 9781   6.105   4.899   3.136
 2961SOL    HW1 9782   6.038   4.970   3.116
 2961SOL    HW2 9783   6.127   4.849   3.051
 2962SOL     OW 9784   4.937   6.418   3.570
 2962SOL    HW1 9785   4.863   6.391   3.509
 2962SOL    HW2 9786   4.965   6.340   3.626
 2963SOL     OW 9787   0.571   1.205   0.292
 2963SOL    HW1 9788   0.656   1.155   0.275
 2963SOL    HW2 9789   0.510   1.195   0.214
 2964SOL     OW 9790   0.627   1.709   5.903
 2964SOL    HW1 9791   0.671   1.648   5.837
 2964SOL    HW2 9792   0.539   1.670   5.930
 2965SOL     OW 9793   0.536   1.082   4.608
 2965SOL    HW1 9794   0.466   1.123   4.667
 2965SOL    HW2 9795   0.580   1.154   4.554
 2966SOL     OW 9796   4.980   6.071   3.475
 2966SOL    HW1 9797   4.937   6.139   3.534
 2966SOL    HW2 9798   4.909   6.015   3.433
 2967SOL     OW 9799   6.329   0.602   5.494
 2967SOL    HW1 9800   6.255   0.619   5.559
 2967SOL    HW2 9801   6.292   0.565   5.409
 2968SOL     OW 9802   0.556   2.391   0.638
 2968SOL    HW1 9803   0.649   2.395   0.672
 2968SOL    HW2 9804   0.521   2.298   0.648
 2969SOL     OW 9805   4.858   2.797   3.876
 2969SOL    HW1 9806   4.821   2.715   3.832
 2969SOL    HW2 9807   4.958   2.790   3.880
 2970SOL     OW 9808   2.580   3.290   5.371
 2970SOL    HW1 9809   2.568   3.221   5.300
 2970SOL    HW2 9810   2.490   3.324   5.400
 2971SOL     OW 9811   5.301   3.981   0.574
 2971SOL    HW1 9812   5.213   3.942   0.548
 2971SOL    HW2 9813   5.368   3.908   0.584
 2972SOL     OW 9814   5.931   5.431   6.546
 2972SOL    HW1 9815   5.846   5.395   6.508
 2972SOL    HW2 9816   5.973   5.362   6.605
 2973SOL     OW 9817   5.012   6.721   1.991
 2973SOL    HW1 9818   4.948   6.648   1.965
 2973SOL    HW2 9819   5.104   6.696   1.961
 2974SOL     OW 9820   6.859   4.494   3.915
 2974SOL    HW1 9821   6.938   4.494   3.977
 2974SOL    HW2 9822   6.865   4.574   3.854
 2975SOL     OW 9823   5.454   4.438   4.069
 2975SOL    HW1 9824   5.357   4.412   4.069
 2975SOL    HW2 9825   5.491   4.426   3.977
 2976SOL     OW 9826   5.417   1.934   2.724
 2976SOL    HW1 9827   5.397   1.923   2.822
 2976SOL    HW2 9828   5.355   1.876   2.671
 2977SOL     OW 9829   0.619   0.986   2.612
 2977SOL    HW1 9830   0.590   1.070   2.567
 2977SOL    HW2 9831   0.658   0.923   2.545
 2978SOL     OW 9832   3.852   4.737   0.285
 2978SOL    HW1 9833   3.753   4.743   0.298
 2978SOL    HW2 9834   3.872   4.695   0.196
 2979SOL     OW 9835   3.381   1.789   4.060
 2979SOL    HW1 9836   3.478   1.781   4.039
 2979SOL    HW2 9837   3.363   1.878   4.103
 2980SOL     OW 9838   2.157   5.620   6.008
 2980SOL    HW1 9839   2.201   5.601   5.920
 2980SOL    HW2 9840   2.084   5.555   6.024
 2981SOL     OW 9841   1.965   0.946   0.423
 2981SOL    HW1 9842   2.045   1.000   0.450
 2981SOL    HW2 9843   1.995   0.863   0.375
 2982SOL     OW 9844   2.316   6.219   1.273
 2982SOL    HW1 9845   2.396   6.183   1.225
 2982SOL    HW2 9846   2.334   6.313   1.303
 2983SOL     OW 9847   6.400   2.139   1.624
 2983SOL    HW1 9848   6.407   2.223   1.678
 2983SOL    HW2 9849   6.453   2.067   1.667
 2984SOL     OW 9850   5.234   5.371   6.695
 2984SOL    HW1 9851   5.233   5.470   6.710
 2984SOL    HW2 9852   5.240   5.324   6.783
 2985SOL     OW 9853   1.761   1.581   4.575
 2985SOL    HW1 9854   1.803   1.658   4.527
 2985SOL    HW2 9855   1.827   1.506   4.583
 2986SOL     OW 9856   3.592   3.843   2.570
 2986SOL    HW1 9857   3.649   3.805   2.497
 2986SOL    HW2 9858   3.630   3.816   2.659
 2987SOL     OW 9859   1.611   1.193   4.601
 2987SOL    HW1 9860   1.579   1.238   4.684
 2987SOL    HW2 9861   1.674   1.119   4.626
 2988SOL     OW 9862   1.677   6.822   2.329
 2988SOL    HW1 9863   1.775   6.844   2.333
 2988SOL    HW2 9864   1.634   6.874   2.256
 2989SOL     OW 9865   5.248   4.479   5.380
 2989SOL    HW1 9866   5.154   4.481   5.346
 2989SOL    HW2 9867   5.254   4.421   5.461
 2990SOL     OW 9868   4.479   2.212   4.194
 2990SOL    HW1 9869   4.476   2.181   4.289
 2990SOL    HW2 9870   4.508   2.137   4.135
 2991SOL     OW 9871   6.280   3.094   6.266
 2991SOL    HW1 9872   6.364   3.140   6.238
 2991SOL    HW2 9873   6.214   3.163   6.298
 2992SOL     OW 9874   1.644   5.001   4.538
 2992SOL    HW1 9875   1.598   5.082   4.574
 2992SOL    HW2 9876   1.602   4.975   4.451
 2993SOL     OW 9877   0.570   4.857   0.849
 2993SOL    HW1 9878   0.645   4.807   0.894
 2993SOL    HW2 9879   0.599   4.951   0.830
 2994SOL     OW 9880   4.013   6.026   0.577
 2994SOL    HW1 9881   3.938   5.959   0.585
 2994SOL    HW2 9882   4.043   6.030   0.481
 2995SOL     OW 9883   3.892   0.563   6.885
 2995SOL    HW1 9884   3.796   0.587   6.870
 2995SOL    HW2 9885   3.898   0.467   6.913
 2996SOL     OW 9886   0.600   2.097   5.151
 2996SOL    HW1 9887   0.618   2.171   5.086
 2996SOL    HW2 9888   0.504   2.100   5.180
 2997SOL     OW 9889   5.251   0.162   3.130
 2997SOL    HW1 9890   5.220   0.234   3.067
 2997SOL    HW2 9891   5.310   0.203   3.200
 2998SOL     OW 9892   4.797   6.428   3.134
 2998SOL    HW1 9893   4.778   6.367   3.211
 2998SOL    HW2 9894   4.839   6.512   3.168
 2999SOL     OW 9895   2.366   5.521   5.727
 2999SOL    HW1 9896   2.354   5.443   5.789
 2999SOL    HW2 9897   2.458   5.519   5.687
 3000SOL     OW 9898   2.781   4.023   6.418
 3000SOL    HW1 9899   2.809   4.113   6.383
 3000SOL    HW2 9900   2.798   3.954   6.348
 3001SOL     OW 9901   6.348   1.640   6.774
 3001SOL    HW1 9902   6.314   1.721   6.725
 3001SOL    HW2 9903   6.272   1.594   6.819
 3002SOL     OW 9904   3.214   2.385   0.522
 3002SOL    HW1 9905   3.189   2.325   0.598
 3002SOL    HW2 9906   3.305   2.423   0.538
 3003SOL     OW 9907   0.956   6.686   1.064
 3003SOL    HW1 9908   1.005   6.654   1.145
 3003SOL    HW2 9909   0.996   6.772   1.033
 3004SOL     OW 9910   1.291   4.528   2.725
 3004SOL    HW1 9911   1.372   4.480   2.692
 3004SOL    HW2 9912   1.214   4.508   2.664
 3005SOL     OW 9913   1.411   2.978   6.674
 3005SOL    HW1 9914   1.418   3.077   6.670
 3005SOL    HW2 9915   1.318   2.952   6.699
 3006SOL     OW 9916   5.451   1.751   4.989
 3006SOL    HW1 9917   5.544   1.788   4.990
 3006SOL    HW2 9918   5.403   1.782   5.071
 3007SOL     OW 9919   4.759   4.679   0.886
 3007SOL    HW1 9920   4.799   4.703   0.974
 3007SOL    HW2 9921   4.773   4.755   0.822
 3008SOL     OW 9922   2.705   2.488   6.230
 3008SOL    HW1 9923   2.784   2.435   6.199
 3008SOL    HW2 9924   2.623   2.457   6.181
 3009SOL     OW 9925   6.879   3.332   2.697
 3009SOL    HW1 9926   6.859   3.276   2.777
 3009SOL    HW2 9927   6.887   3.273   2.616
 3010SOL     OW 9928   2.773   5.657   3.776
 3010SOL    HW1 9929   2.750   5.700   3.863
 3010SOL    HW2 9930   2.843   5.587   3.791
 3011SOL     OW 9931   6.302   1.264   1.986
 3011SOL    HW1 9932   6.395   1.261   1.950
 3011SOL    HW2 9933   6.238   1.281   1.911
 3012SOL     OW 9934   2.726   3.015   0.145
 3012SOL    HW1 9935   2.760   3.109   0.145
 3012SOL    HW2 9936   2.655   3.005   0.076
 3013SOL     OW 9937   5.817   4.988   3.611
 3013SOL    HW1 9938   5.823   4.923   3.686
 3013SOL    HW2 9939   5.829   4.940   3.524
 3014SOL     OW 9940   5.188   2.171   6.066
 3014SOL    HW1 9941   5.169   2.232   5.989
 3014SOL    HW2 9942   5.137   2.086   6.053
 3015SOL     OW 9943   1.598   2.042   0.555
 3015SOL    HW1 9944   1.627   2.015   0.463
 3015SOL    HW2 9945   1.643   1.983   0.623
 3016SOL     OW 9946   3.285   6.887   4.155
 3016SOL    HW1 9947   3.287   6.834   4.240
 3016SOL    HW2 9948   3.367   6.945   4.150
 3017SOL     OW 9949   5.475   6.075   2.400
 3017SOL    HW1 9950   5.468   6.161   2.450
 3017SOL    HW2 9951   5.394   6.064   2.342
 3018SOL     OW 9952   3.112   0.269   6.630
 3018SOL    HW1 9953   3.197   0.241   6.585
 3018SOL    HW2 9954   3.043   0.291   6.561
 3019SOL     OW 9955   0.656   0.229   6.537
 3019SOL    HW1 9956   0.595   0.275   6.602
 3019SOL    HW2 9957   0.740   0.282   6.526
 3020SOL     OW 9958   3.779   2.981   0.835
 3020SOL    HW1 9959   3.823   3.069   0.854
 3020SOL    HW2 9960   3.773   2.968   0.736
 3021SOL     OW 9961   2.640   0.244   4.410
 3021SOL    HW1 9962   2.733   0.215   4.389
 3021SOL    HW2 9963   2.642   0.316   4.480
 3022SOL     OW 9964   4.238   5.180   4.757
 3022SOL    HW1 9965   4.142   5.203   4.745
 3022SOL    HW2 9966   4.281   5.169   4.667
 3023SOL     OW 9967   4.390   6.816   3.354
 3023SOL    HW1 9968   4.319   6.823   3.283
 3023SOL    HW2 9969   4.478   6.842   3.315
 3024SOL     OW 9970   6.002   6.274   4.688
 3024SOL    HW1 9971   6.023   6.280   4.786
 3024SOL    HW2 9972   5.909   6.306   4.672
 3025SOL     OW 9973   3.878   5.896   1.660
 3025SOL    HW1 9974   3.842   5.912   1.569
 3025SOL    HW2 9975   3.824   5.826   1.706
 3026SOL     OW 9976   0.268   1.434   6.352
 3026SOL    HW1 9977   0.315   1.347   6.364
 3026SOL    HW2 9978   0.253   1.477   6.441
 3027SOL     OW 9979   3.538   1.962   2.334
 3027SOL    HW1 9980   3.517   1.865   2.330
 3027SOL    HW2 9981   3.509   2.006   2.249
 3028SOL     OW 9982   1.170   4.016   6.052
 3028SOL    HW1 9983   1.250   4.024   5.992
 3028SOL    HW2 9984   1.127   3.927   6.039
 3029SOL     OW 9985   1.242   3.171   4.155
 3029SOL    HW1 9986   1.164   3.139   4.209
 3029SOL    HW2 9987   1.326   3.159   4.207
 3030SOL     OW 9988   1.735   4.127   0.869
 3030SOL    HW1 9989   1.825   4.092   0.843
 3030SOL    HW2 9990   1.737   4.227   0.870
 3031SOL     OW 9991   0.148   4.785   1.105
 3031SOL    HW1 9992   0.147   4.725   1.186
 3031SOL    HW2 9993   0.236   4.833   1.100
 3032SOL     OW 9994   2.454   6.911   1.312
 3032SOL    HW1 9995   2.507   6.873   1.388
 3032SOL    HW2 9996   2.461   6.850   1.233
 3033SOL     OW 9997   6.160   0.923   2.231
 3033SOL    HW1 9998   6.252   0.909   2.269
 3033SOL    HW2 9999   6.150   0.867   2.148
 3034SOL     OW10000   0.746   6.314   3.415
 3034SOL    HW110001   0.669   6.369   3.448
 3034SOL    HW210002   0.715   6.255   3.341
 3035SOL     OW10003   0.972   3.367   6.161
 3035SOL    HW110004   0.885   3.395   6.120
 3035SOL    HW210005   1.042   3.436   6.143
 3036SOL     OW10006   1.369   1.742   5.764
 3036SOL    HW110007   1.400   1.694   5.682
 3036SOL    HW210008   1.442   1.802   5.797
 3037SOL     OW10009   6.199   5.114   5.817
 3037SOL    HW110010   6.296   5.124   5.794
 3037SOL    HW210011   6.182   5.022   5.851
 3038SOL     OW10012   4.908   4.582   5.609
 3038SOL    HW110013   4.888   4.637   5.528
 3038SOL    HW210014   4.873   4.490   5.597
 3039SOL     OW10015   0.567   3.120   0.383
 3039SOL    HW110016   0.590   3.179   0.306
 3039SOL    HW210017   0.652   3.084   0.423
 3040SOL     OW10018   3.373   5.122   5.475
 3040SOL    HW110019   3.420   5.157   5.555
 3040SOL    HW210020   3.275   5.115   5.494
 3041SOL     OW10021   1.265   4.733   5.800
 3041SOL    HW110022   1.301   4.827   5.796
 3041SOL    HW210023   1.323   4.678   5.861
 3042SOL     OW10024   6.020   6.230   2.932
 3042SOL    HW110025   5.940   6.197   2.883
 3042SOL    HW210026   6.056   6.312   2.887
 3043SOL     OW10027   2.901   3.826   1.734
 3043SOL    HW110028   2.845   3.760   1.783
 3043SOL    HW210029   2.937   3.784   1.650
 3044SOL     OW10030   3.222   5.700   5.612
 3044SOL    HW110031   3.218   5.678   5.514
 3044SOL    HW210032   3.133   5.733   5.643
 3045SOL     OW10033   5.257   6.689   3.012
 3045SOL    HW110034   5.339   6.648   3.054
 3045SOL    HW210035   5.191   6.616   2.993
 3046SOL     OW10036   3.500   0.256   6.803
 3046SOL    HW110037   3.417   0.276   6.855
 3046SOL    HW210038   3.551   0.183   6.847
 3047SOL     OW10039   6.025   7.009   1.194
 3047SOL    HW110040   5.941   7.011   1.247
 3047SOL    HW210041   6.010   0.039   1.107
 3048SOL     OW10042   4.869   2.377   0.563
 3048SOL    HW110043   4.880   2.475   0.580
 3048SOL    HW210044   4.927   2.326   0.626
 3049SOL     OW10045   1.762   0.256   3.269
 3049SOL    HW110046   1.853   0.248   3.312
 3049SOL    HW210047   1.739   0.353   3.258
 3050SOL     OW10048   3.175   2.000   1.437
 3050SOL    HW110049   3.095   2.021   1.493
 3050SOL    HW210050   3.201   1.904   1.450
 3051SOL     OW10051   1.932   6.590   6.452
 3051SOL    HW110052   1.867   6.665   6.439
 3051SOL    HW210053   2.022   6.628   6.476
 3052SOL     OW10054   4.891   5.839   2.009
 3052SOL    HW110055   4.922   5.921   2.057
 3052SOL    HW210056   4.797   5.818   2.035
 3053SOL     OW10057   6.994   3.414   1.392
 3053SOL    HW110058   0.052   3.349   1.398
 3053SOL    HW210059   6.920   3.384   1.452
 3054SOL     OW10060   5.719   1.689   1.745
 3054SOL    HW110061   5.679   1.775   1.775
 3054SOL    HW210062   5.682   1.663   1.656
 3055SOL     OW10063   5.195   0.417   5.120
 3055SOL    HW110064   5.159   0.341   5.175
 3055SOL    HW210065   5.149   0.419   5.032
 3056SOL     OW10066   0.003   0.935   5.466
 3056SOL    HW110067   6.971   0.856   5.430
 3056SOL    HW210068   0.022   0.921   5.563
 3057SOL     OW10069   4.939   5.319   4.336
 3057SOL    HW110070   4.902   5.306   4.244
 3057SOL    HW210071   4.998   5.242   4.359
 3058SOL     OW10072   6.306   4.475   0.889
 3058SOL    HW110073   6.211   4.502   0.902
 3058SOL    HW210074   6.367   4.549   0.918
 3059SOL     OW10075   2.643   1.403   3.490
 3059SOL    HW110076   2.586   1.459   3.551
 3059SOL    HW210077   2.584   1.357   3.423
 3060SOL     OW10078   2.286   5.296   0.211
 3060SOL    HW110079   2.362   5.359   0.229
 3060SOL    HW210080   2.322   5.209   0.179
 3061SOL     OW10081   5.875   5.933   5.629
 3061SOL    HW110082   5.847   5.964   5.720
 3061SOL    HW210083   5.972   5.953   5.616
 3062SOL     OW10084   1.870   6.462   0.800
 3062SOL    HW110085   1.854   6.560   0.803
 3062SOL    HW210086   1.825   6.418   0.877
 3063SOL     OW10087   1.761   4.452   1.393
 3063SOL    HW110088   1.676   4.447   1.340
 3063SOL    HW210089   1.762   4.380   1.462
 3064SOL     OW10090   4.783   3.645   0.374
 3064SOL    HW110091   4.861   3.620   0.430
 3064SOL    HW210092   4.775   3.745   0.371
 3065SOL     OW10093   0.919   2.026   6.465
 3065SOL    HW110094   0.935   2.004   6.369
 3065SOL    HW210095   0.889   2.122   6.473
 3066SOL     OW10096   5.432   5.125   0.418
 3066SOL    HW110097   5.371   5.100   0.343
 3066SOL    HW210098   5.478   5.044   0.453
 3067SOL     OW10099   3.111   1.082   0.003
 3067SOL    HW110100   3.110   1.098   6.922
 3067SOL    HW210101   3.100   1.169   0.051
 3068SOL     OW10102   0.095   6.480   1.782
 3068SOL    HW110103   0.062   6.558   1.834
 3068SOL    HW210104   0.017   6.433   1.740
 3069SOL     OW10105   6.491   6.377   2.726
 3069SOL    HW110106   6.551   6.451   2.757
 3069SOL    HW210107   6.416   6.415   2.672
 3070SOL     OW10108   2.505   0.751   6.842
 3070SOL    HW110109   2.418   0.775   6.885
 3070SOL    HW210110   2.523   0.654   6.857
 3071SOL     OW10111   6.448   5.962   3.815
 3071SOL    HW110112   6.434   6.050   3.770
 3071SOL    HW210113   6.505   5.974   3.896
 3072SOL     OW10114   2.280   5.676   6.312
 3072SOL    HW110115   2.258   5.671   6.214
 3072SOL    HW210116   2.230   5.605   6.361
 3073SOL     OW10117   6.970   4.135   2.645
 3073SOL    HW110118   6.927   4.063   2.590
 3073SOL    HW210119   6.900   4.181   2.700
 3074SOL     OW10120   0.273   4.410   1.011
 3074SOL    HW110121   0.222   4.330   1.040
 3074SOL    HW210122   0.338   4.436   1.083
 3075SOL     OW10123   2.731   5.478   3.431
 3075SOL    HW110124   2.752   5.411   3.360
 3075SOL    HW210125   2.766   5.568   3.404
 3076SOL     OW10126   6.642   1.866   4.136
 3076SOL    HW110127   6.689   1.800   4.078
 3076SOL    HW210128   6.594   1.933   4.080
 3077SOL     OW10129   5.419   4.396   1.937
 3077SOL    HW110130   5.336   4.340   1.935
 3077SOL    HW210131   5.487   4.353   1.996
 3078SOL     OW10132   6.596   3.517   2.666
 3078SOL    HW110133   6.580   3.501   2.568
 3078SOL    HW210134   6.510   3.541   2.711
 3079SOL     OW10135   3.017   2.260   3.176
 3079SOL    HW110136   2.943   2.257   3.243
 3079SOL    HW210137   2.980   2.288   3.087
 3080SOL     OW10138   5.892   4.489   2.157
 3080SOL    HW110139   5.812   4.502   2.217
 3080SOL    HW210140   5.874   4.531   2.068
 3081SOL     OW10141   0.401   4.553   5.754
 3081SOL    HW110142   0.488   4.529   5.710
 3081SOL    HW210143   0.338   4.588   5.685
 3082SOL     OW10144   1.476   5.725   4.252
 3082SOL    HW110145   1.560   5.773   4.275
 3082SOL    HW210146   1.397   5.776   4.287
 3083SOL     OW10147   3.070   6.551   3.239
 3083SOL    HW110148   3.110   6.512   3.321
 3083SOL    HW210149   2.974   6.523   3.231
 3084SOL     OW10150   6.369   4.540   3.178
 3084SOL    HW110151   6.432   4.550   3.101
 3084SOL    HW210152   6.416   4.497   3.255
 3085SOL     OW10153   6.062   4.693   0.554
 3085SOL    HW110154   6.119   4.611   0.557
 3085SOL    HW210155   5.989   4.681   0.487
 3086SOL     OW10156   4.942   1.191   6.788
 3086SOL    HW110157   4.888   1.159   6.866
 3086SOL    HW210158   5.037   1.164   6.800
 3087SOL     OW10159   2.462   6.719   3.553
 3087SOL    HW110160   2.470   6.626   3.517
 3087SOL    HW210161   2.368   6.737   3.580
 3088SOL     OW10162   1.952   3.448   4.964
 3088SOL    HW110163   1.924   3.373   4.904
 3088SOL    HW210164   1.976   3.412   5.054
 3089SOL     OW10165   4.302   2.312   4.490
 3089SOL    HW110166   4.349   2.232   4.453
 3089SOL    HW210167   4.366   2.366   4.545
 3090SOL     OW10168   2.599   0.926   2.080
 3090SOL    HW110169   2.552   0.861   2.021
 3090SOL    HW210170   2.690   0.945   2.044
 3091SOL     OW10171   1.232   1.090   0.702
 3091SOL    HW110172   1.196   1.043   0.783
 3091SOL    HW210173   1.219   1.031   0.622
 3092SOL     OW10174   5.589   6.912   0.896
 3092SOL    HW110175   5.669   6.882   0.844
 3092SOL    HW210176   5.544   6.833   0.937
 3093SOL     OW10177   5.377   5.679   6.387
 3093SOL    HW110178   5.464   5.692   6.340
 3093SOL    HW210179   5.374   5.588   6.429
 3094SOL     OW10180   2.698   7.006   3.979
 3094SOL    HW110181   2.632   6.945   3.935
 3094SOL    HW210182   2.673   0.084   3.961
 3095SOL     OW10183   2.323   3.652   5.570
 3095SOL    HW110184   2.377   3.664   5.653
 3095SOL    HW210185   2.379   3.676   5.490
 3096SOL     OW10186   1.023   5.064   5.429
 3096SOL    HW110187   1.050   5.150   5.473
 3096SOL    HW210188   0.927   5.045   5.453
 3097SOL     OW10189   5.517   3.279   6.876
 3097SOL    HW110190   5.434   3.263   6.823
 3097SOL    HW210191   5.580   3.336   6.824
 3098SOL     OW10192   1.706   3.281   1.607
 3098SOL    HW110193   1.663   3.370   1.590
 3098SOL    HW210194   1.636   3.214   1.631
 3099SOL     OW10195   0.990   6.236   4.053
 3099SOL    HW110196   0.982   6.239   4.153
 3099SOL    HW210197   0.959   6.324   4.016
 3100SOL     OW10198   6.303   6.267   3.629
 3100SOL    HW110199   6.306   6.327   3.549
 3100SOL    HW210200   6.244   6.189   3.610
 3101SOL     OW10201   4.825   5.723   6.213
 3101SOL    HW110202   4.872   5.639   6.236
 3101SOL    HW210203   4.813   5.779   6.295
 3102SOL     OW10204   6.520   6.900   1.252
 3102SOL    HW110205   6.451   6.955   1.205
 3102SOL    HW210206   6.564   6.838   1.187
 3103SOL     OW10207   4.228   1.123   0.987
 3103SOL    HW110208   4.232   1.159   0.894
 3103SOL    HW210209   4.182   1.034   0.986
 3104SOL     OW10210   3.968   0.607   5.676
 3104SOL    HW110211   3.980   0.670   5.599
 3104SOL    HW210212   3.989   0.654   5.761
 3105SOL     OW10213   4.956   3.450   1.511
 3105SOL    HW110214   4.889   3.471   1.439
 3105SOL    HW210215   5.048   3.457   1.474
 3106SOL     OW10216   4.926   6.535   4.971
 3106SOL    HW110217   4.892   6.621   5.008
 3106SOL    HW210218   4.876   6.512   4.887
 3107SOL     OW10219   3.943   1.132   5.045
 3107SOL    HW110220   3.901   1.045   5.021
 3107SOL    HW210221   4.010   1.117   5.118
 3108SOL     OW10222   2.192   5.298   4.889
 3108SOL    HW110223   2.220   5.315   4.983
 3108SOL    HW210224   2.102   5.339   4.873
 3109SOL     OW10225   6.150   0.180   4.151
 3109SOL    HW110226   6.201   0.199   4.067
 3109SOL    HW210227   6.118   0.085   4.150
 3110SOL     OW10228   1.428   4.211   3.138
 3110SOL    HW110229   1.368   4.251   3.069
 3110SOL    HW210230   1.516   4.188   3.095
 3111SOL     OW10231   6.912   4.916   3.373
 3111SOL    HW110232   6.821   4.887   3.401
 3111SOL    HW210233   6.913   5.015   3.360
 3112SOL     OW10234   2.779   3.312   1.004
 3112SOL    HW110235   2.748   3.235   0.949
 3112SOL    HW210236   2.859   3.285   1.057
 3113SOL     OW10237   3.568   6.053   2.734
 3113SOL    HW110238   3.658   6.075   2.698
 3113SOL    HW210239   3.577   6.009   2.823
 3114SOL     OW10240   3.489   1.969   0.364
 3114SOL    HW110241   3.543   1.904   0.311
 3114SOL    HW210242   3.448   2.037   0.303
 3115SOL     OW10243   3.926   4.783   5.903
 3115SOL    HW110244   3.941   4.714   5.974
 3115SOL    HW210245   4.006   4.844   5.898
 3116SOL     OW10246   6.913   2.090   0.127
 3116SOL    HW110247   6.829   2.141   0.146
 3116SOL    HW210248   6.918   2.070   0.030
 3117SOL     OW10249   4.560   3.517   5.540
 3117SOL    HW110250   4.535   3.420   5.526
 3117SOL    HW210251   4.530   3.570   5.460
 3118SOL     OW10252   0.572   5.545   2.633
 3118SOL    HW110253   0.579   5.600   2.716
 3118SOL    HW210254   0.545   5.452   2.657
 3119SOL     OW10255   2.369   2.349   6.940
 3119SOL    HW110256   2.430   2.385   7.011
 3119SOL    HW210257   2.383   2.401   6.856
 3120SOL     OW10258   2.538   0.501   5.683
 3120SOL    HW110259   2.506   0.408   5.702
 3120SOL    HW210260   2.487   0.566   5.740
 3121SOL     OW10261   5.655   1.620   4.699
 3121SOL    HW110262   5.645   1.621   4.600
 3121SOL    HW210263   5.616   1.535   4.736
 3122SOL     OW10264   4.996   5.191   4.981
 3122SOL    HW110265   4.926   5.262   4.991
 3122SOL    HW210266   5.087   5.234   4.986
 3123SOL     OW10267   2.074   1.428   2.671
 3123SOL    HW110268   2.054   1.513   2.721
 3123SOL    HW210269   2.021   1.353   2.711
 3124SOL     OW10270   4.424   0.337   4.283
 3124SOL    HW110271   4.451   0.422   4.238
 3124SOL    HW210272   4.361   0.287   4.224
 3125SOL     OW10273   1.557   2.962   4.963
 3125SOL    HW110274   1.545   3.020   4.883
 3125SOL    HW210275   1.650   2.970   4.998
 3126SOL     OW10276   5.400   4.525   5.177
 3126SOL    HW110277   5.481   4.574   5.209
 3126SOL    HW210278   5.334   4.520   5.251
 3127SOL     OW10279   2.152   2.019   6.563
 3127SOL    HW110280   2.104   2.106   6.556
 3127SOL    HW210281   2.101   1.948   6.515
 3128SOL     OW10282   3.621   1.187   0.468
 3128SOL    HW110283   3.619   1.139   0.555
 3128SOL    HW210284   3.559   1.142   0.404
 3129SOL     OW10285   5.716   3.534   0.850
 3129SOL    HW110286   5.809   3.549   0.882
 3129SOL    HW210287   5.709   3.443   0.809
 3130SOL     OW10288   2.174   4.650   2.077
 3130SOL    HW110289   2.222   4.579   2.026
 3130SOL    HW210290   2.109   4.695   2.016
 3131SOL     OW10291   0.914   3.836   2.020
 3131SOL    HW110292   0.856   3.824   1.939
 3131SOL    HW210293   0.855   3.849   2.101
 3132SOL     OW10294   4.996   5.105   6.749
 3132SOL    HW110295   5.087   5.093   6.789
 3132SOL    HW210296   4.971   5.202   6.752
 3133SOL     OW10297   3.697   0.936   3.401
 3133SOL    HW110298   3.707   0.971   3.494
 3133SOL    HW210299   3.647   1.004   3.346
 3134SOL     OW10300   4.434   4.842   0.675
 3134SOL    HW110301   4.395   4.770   0.619
 3134SOL    HW210302   4.458   4.805   0.765
 3135SOL     OW10303   5.017   0.280   5.708
 3135SOL    HW110304   5.078   0.280   5.629
 3135SOL    HW210305   5.027   0.194   5.757
 3136SOL     OW10306   5.647   6.855   2.555
 3136SOL    HW110307   5.723   6.818   2.502
 3136SOL    HW210308   5.613   6.785   2.618
 3137SOL     OW10309   6.917   6.399   3.826
 3137SOL    HW110310   6.913   6.341   3.745
 3137SOL    HW210311   6.928   6.494   3.798
 3138SOL     OW10312   5.712   5.603   3.338
 3138SOL    HW110313   5.682   5.518   3.381
 3138SOL    HW210314   5.757   5.583   3.251
 3139SOL     OW10315   3.445   5.062   1.286
 3139SOL    HW110316   3.417   4.974   1.325
 3139SOL    HW210317   3.534   5.053   1.242
 3140SOL     OW10318   6.332   6.378   5.628
 3140SOL    HW110319   6.323   6.284   5.661
 3140SOL    HW210320   6.242   6.413   5.602
 3141SOL     OW10321   0.472   6.978   6.463
 3141SOL    HW110322   0.505   6.964   6.556
 3141SOL    HW210323   0.518   0.039   6.423
 3142SOL     OW10324   2.713   0.079   2.703
 3142SOL    HW110325   2.632   0.137   2.712
 3142SOL    HW210326   2.790   0.122   2.750
 3143SOL     OW10327   6.059   1.227   0.269
 3143SOL    HW110328   6.130   1.285   0.230
 3143SOL    HW210329   6.052   1.142   0.217
 3144SOL     OW10330   4.575   3.742   1.130
 3144SOL    HW110331   4.633   3.811   1.172
 3144SOL    HW210332   4.487   3.783   1.104
 3145SOL     OW10333   1.691   6.556   2.310
 3145SOL    HW110334   1.677   6.654   2.323
 3145SOL    HW210335   1.786   6.539   2.283
 3146SOL     OW10336   0.940   1.228   4.467
 3146SOL    HW110337   0.865   1.253   4.405
 3146SOL    HW210338   0.938   1.130   4.484
 3147SOL     OW10339   3.009   4.994   0.054
 3147SOL    HW110340   2.989   4.900   0.026
 3147SOL    HW210341   2.962   5.014   0.140
 3148SOL     OW10342   6.666   6.606   4.037
 3148SOL    HW110343   6.695   6.524   4.086
 3148SOL    HW210344   6.667   6.588   3.939
 3149SOL     OW10345   2.851   1.279   6.878
 3149SOL    HW110346   2.904   1.236   6.804
 3149SOL    HW210347   2.757   1.244   6.876
 3150SOL     OW10348   6.988   5.901   5.154
 3150SOL    HW110349   0.066   5.931   5.160
 3150SOL    HW210350   6.985   5.805   5.126
 3151SOL     OW10351   0.669   1.474   5.142
 3151SOL    HW110352   0.570   1.467   5.147
 3151SOL    HW210353   0.698   1.563   5.178
 3152SOL     OW10354   0.803   4.622   0.402
 3152SOL    HW110355   0.863   4.633   0.481
 3152SOL    HW210356   0.708   4.618   0.434
 3153SOL     OW10357   6.288   5.830   0.797
 3153SOL    HW110358   6.280   5.732   0.783
 3153SOL    HW210359   6.380   5.860   0.770
 3154SOL     OW10360   6.804   1.654   0.246
 3154SOL    HW110361   6.720   1.703   0.221
 3154SOL    HW210362   6.877   1.720   0.263
 3155SOL     OW10363   6.295   4.734   0.356
 3155SOL    HW110364   6.247   4.708   0.440
 3155SOL    HW210365   6.391   4.750   0.375
 3156SOL     OW10366   2.849   3.390   2.206
 3156SOL    HW110367   2.766   3.338   2.229
 3156SOL    HW210368   2.908   3.394   2.287
 3157SOL     OW10369   1.661   1.654   5.488
 3157SOL    HW110370   1.575   1.702   5.472
 3157SOL    HW210371   1.710   1.643   5.401
 3158SOL     OW10372   2.830   1.428   4.133
 3158SOL    HW110373   2.743   1.473   4.156
 3158SOL    HW210374   2.853   1.448   4.038
 3159SOL     OW10375   5.767   0.037   6.465
 3159SOL    HW110376   5.772   0.037   6.565
 3159SOL    HW210377   5.845   7.004   6.428
 3160SOL     OW10378   1.646   5.874   6.225
 3160SOL    HW110379   1.695   5.939   6.166
 3160SOL    HW210380   1.706   5.847   6.301
 3161SOL     OW10381   2.527   2.391   2.675
 3161SOL    HW110382   2.568   2.356   2.759
 3161SOL    HW210383   2.589   2.376   2.598
 3162SOL     OW10384   1.190   5.883   1.906
 3162SOL    HW110385   1.276   5.832   1.907
 3162SOL    HW210386   1.139   5.861   1.824
 3163SOL     OW10387   4.304   3.639   6.618
 3163SOL    HW110388   4.377   3.633   6.549
 3163SOL    HW210389   4.302   3.555   6.671
 3164SOL     OW10390   3.632   5.689   1.088
 3164SOL    HW110391   3.552   5.699   1.030
 3164SOL    HW210392   3.614   5.620   1.158
 3165SOL     OW10393   2.136   6.004   1.172
 3165SOL    HW110394   2.174   6.088   1.212
 3165SOL    HW210395   2.081   6.027   1.092
 3166SOL     OW10396   3.979   1.948   3.508
 3166SOL    HW110397   4.025   1.903   3.431
 3166SOL    HW210398   4.038   2.021   3.544
 3167SOL     OW10399   5.414   4.217   0.983
 3167SOL    HW110400   5.343   4.252   1.045
 3167SOL    HW210401   5.441   4.125   1.012
 3168SOL     OW10402   5.336   3.250   6.685
 3168SOL    HW110403   5.347   3.163   6.638
 3168SOL    HW210404   5.363   3.325   6.624
 3169SOL     OW10405   2.191   4.300   3.719
 3169SOL    HW110406   2.198   4.309   3.619
 3169SOL    HW210407   2.188   4.204   3.744
 3170SOL     OW10408   4.063   5.986   2.175
 3170SOL    HW110409   4.113   5.900   2.171
 3170SOL    HW210410   3.968   5.971   2.147
 3171SOL     OW10411   6.795   1.922   2.331
 3171SOL    HW110412   6.698   1.903   2.311
 3171SOL    HW210413   6.813   1.903   2.427
 3172SOL     OW10414   6.299   5.445   6.866
 3172SOL    HW110415   6.333   5.435   6.772
 3172SOL    HW210416   6.200   5.453   6.864
 3173SOL     OW10417   3.297   2.311   6.958
 3173SOL    HW110418   3.260   2.360   6.879
 3173SOL    HW210419   3.368   2.366   7.001
 3174SOL     OW10420   3.174   2.748   0.172
 3174SOL    HW110421   3.140   2.703   0.089
 3174SOL    HW210422   3.102   2.806   0.210
 3175SOL     OW10423   5.621   1.438   1.467
 3175SOL    HW110424   5.631   1.535   1.444
 3175SOL    HW210425   5.692   1.386   1.420
 3176SOL     OW10426   0.708   3.879   5.041
 3176SOL    HW110427   0.781   3.825   5.083
 3176SOL    HW210428   0.738   3.974   5.032
 3177SOL     OW10429   5.161   4.348   4.000
 3177SOL    HW110430   5.072   4.358   4.045
 3177SOL    HW210431   5.172   4.419   3.931
 3178SOL     OW10432   6.465   2.831   0.309
 3178SOL    HW110433   6.424   2.856   0.396
 3178SOL    HW210434   6.556   2.870   0.301
 3179SOL     OW10435   0.878   2.258   2.060
 3179SOL    HW110436   0.853   2.353   2.041
 3179SOL    HW210437   0.964   2.236   2.015
 3180SOL     OW10438   5.512   0.101   0.511
 3180SOL    HW110439   5.585   0.163   0.539
 3180SOL    HW210440   5.436   0.106   0.577
 3181SOL     OW10441   6.670   1.918   3.501
 3181SOL    HW110442   6.754   1.971   3.490
 3181SOL    HW210443   6.644   1.879   3.412
 3182SOL     OW10444   2.313   0.277   6.767
 3182SOL    HW110445   2.370   0.292   6.848
 3182SOL    HW210446   2.345   0.334   6.692
 3183SOL     OW10447   4.693   4.265   2.242
 3183SOL    HW110448   4.657   4.268   2.149
 3183SOL    HW210449   4.769   4.330   2.250
 3184SOL     OW10450   0.691   3.015   2.524
 3184SOL    HW110451   0.715   2.947   2.454
 3184SOL    HW210452   0.631   2.974   2.592
 3185SOL     OW10453   4.434   5.834   6.848
 3185SOL    HW110454   4.357   5.775   6.873
 3185SOL    HW210455   4.468   5.880   6.930
 3186SOL     OW10456   3.347   2.044   0.847
 3186SOL    HW110457   3.341   2.119   0.780
 3186SOL    HW210458   3.290   2.066   0.926
 3187SOL     OW10459   4.718   5.464   0.748
 3187SOL    HW110460   4.648   5.443   0.680
 3187SOL    HW210461   4.735   5.383   0.804
 3188SOL     OW10462   1.382   6.817   3.974
 3188SOL    HW110463   1.478   6.844   3.967
 3188SOL    HW210464   1.376   6.719   3.993
 3189SOL     OW10465   1.426   2.406   1.215
 3189SOL    HW110466   1.524   2.388   1.202
 3189SOL    HW210467   1.414   2.495   1.258
 3190SOL     OW10468   0.036   5.057   0.746
 3190SOL    HW110469   0.134   5.074   0.757
 3190SOL    HW210470   7.012   5.048   0.837
 3191SOL     OW10471   4.686   5.487   1.450
 3191SOL    HW110472   4.762   5.535   1.494
 3191SOL    HW210473   4.635   5.435   1.518
 3192SOL     OW10474   0.275   3.605   1.654
 3192SOL    HW110475   0.244   3.518   1.693
 3192SOL    HW210476   0.306   3.589   1.560
 3193SOL     OW10477   3.825   1.291   6.009
 3193SOL    HW110478   3.753   1.223   6.006
 3193SOL    HW210479   3.914   1.246   6.015
 3194SOL     OW10480   1.749   1.942   6.117
 3194SOL    HW110481   1.743   1.968   6.020
 3194SOL    HW210482   1.666   1.972   6.164
 3195SOL     OW10483   1.625   0.735   3.086
 3195SOL    HW110484   1.587   0.694   3.003
 3195SOL    HW210485   1.671   0.665   3.140
 3196SOL     OW10486   0.424   1.168   0.034
 3196SOL    HW110487   0.486   1.193   6.978
 3196SOL    HW210488   0.352   1.108   7.016
 3197SOL     OW10489   2.797   6.758   4.624
 3197SOL    HW110490   2.870   6.761   4.692
 3197SOL    HW210491   2.836   6.762   4.532
 3198SOL     OW10492   6.471   3.048   3.389
 3198SOL    HW110493   6.554   3.041   3.444
 3198SOL    HW210494   6.409   2.973   3.413
 3199SOL     OW10495   5.195   3.913   2.676
 3199SOL    HW110496   5.162   3.986   2.736
 3199SOL    HW210497   5.123   3.885   2.613
 3200SOL     OW10498   5.499   3.129   2.683
 3200SOL    HW110499   5.580   3.187   2.684
 3200SOL    HW210500   5.420   3.182   2.714
 3201SOL     OW10501   6.635   4.562   3.632
 3201SOL    HW110502   6.670   4.502   3.704
 3201SOL    HW210503   6.551   4.607   3.664
 3202SOL     OW10504   1.162   5.093   1.023
 3202SOL    HW110505   1.167   5.100   0.924
 3202SOL    HW210506   1.221   5.018   1.055
 3203SOL     OW10507   5.512   2.173   0.525
 3203SOL    HW110508   5.485   2.247   0.464
 3203SOL    HW210509   5.496   2.085   0.480
 3204SOL     OW10510   4.210   6.754   3.171
 3204SOL    HW110511   4.157   6.684   3.218
 3204SOL    HW210512   4.150   6.810   3.113
 3205SOL     OW10513   5.480   2.767   5.730
 3205SOL    HW110514   5.566   2.791   5.776
 3205SOL    HW210515   5.448   2.679   5.764
 3206SOL     OW10516   2.068   4.875   0.478
 3206SOL    HW110517   2.031   4.824   0.400
 3206SOL    HW210518   2.057   4.973   0.461
 3207SOL     OW10519   1.267   0.687   6.598
 3207SOL    HW110520   1.286   0.748   6.521
 3207SOL    HW210521   1.235   0.599   6.563
 3208SOL     OW10522   4.575   6.526   6.077
 3208SOL    HW110523   4.644   6.552   6.144
 3208SOL    HW210524   4.591   6.432   6.048
 3209SOL     OW10525   3.500   4.939   3.728
 3209SOL    HW110526   3.425   4.975   3.673
 3209SOL    HW210527   3.581   4.929   3.670
 3210SOL     OW10528   1.405   4.450   0.802
 3210SOL    HW110529   1.324   4.402   0.770
 3210SOL    HW210530   1.466   4.468   0.725
 3211SOL     OW10531   1.403   4.159   0.546
 3211SOL    HW110532   1.330   4.212   0.589
 3211SOL    HW210533   1.400   4.064   0.578
 3212SOL     OW10534   3.096   6.704   1.450
 3212SOL    HW110535   3.142   6.616   1.443
 3212SOL    HW210536   3.000   6.694   1.421
 3213SOL     OW10537   1.557   0.157   0.495
 3213SOL    HW110538   1.657   0.159   0.507
 3213SOL    HW210539   1.530   0.070   0.454
 3214SOL     OW10540   4.671   5.889   0.648
 3214SOL    HW110541   4.763   5.853   0.631
 3214SOL    HW210542   4.674   5.989   0.652
 3215SOL     OW10543   0.143   4.175   1.061
 3215SOL    HW110544   0.063   4.117   1.044
 3215SOL    HW210545   0.214   4.121   1.106
 3216SOL     OW10546   6.020   5.522   0.619
 3216SOL    HW110547   5.947   5.461   0.649
 3216SOL    HW210548   6.063   5.486   0.537
 3217SOL     OW10549   0.185   5.291   2.352
 3217SOL    HW110550   0.224   5.214   2.301
 3217SOL    HW210551   0.195   5.375   2.298
 3218SOL     OW10552   5.144   2.451   3.500
 3218SOL    HW110553   5.225   2.393   3.488
 3218SOL    HW210554   5.066   2.394   3.524
 3219SOL     OW10555   0.763   1.611   3.727
 3219SOL    HW110556   0.764   1.511   3.722
 3219SOL    HW210557   0.855   1.647   3.710
 3220SOL     OW10558   0.294   4.921   5.997
 3220SOL    HW110559   0.239   4.955   5.920
 3220SOL    HW210560   0.321   4.827   5.979
 3221SOL     OW10561   3.977   0.205   1.721
 3221SOL    HW110562   3.976   0.108   1.697
 3221SOL    HW210563   4.003   0.215   1.817
 3222SOL     OW10564   2.682   1.494   2.767
 3222SOL    HW110565   2.689   1.403   2.726
 3222SOL    HW210566   2.747   1.502   2.842
 3223SOL     OW10567   2.455   0.002   6.019
 3223SOL    HW110568   2.371   6.978   5.986
 3223SOL    HW210569   2.501   0.049   5.943
 3224SOL     OW10570   4.862   2.935   5.210
 3224SOL    HW110571   4.883   2.841   5.238
 3224SOL    HW210572   4.943   2.992   5.223
 3225SOL     OW10573   5.221   2.886   5.580
 3225SOL    HW110574   5.225   2.986   5.574
 3225SOL    HW210575   5.275   2.855   5.658
 3226SOL     OW10576   2.093   0.915   2.388
 3226SOL    HW110577   2.118   0.976   2.314
 3226SOL    HW210578   2.066   0.968   2.468
 3227SOL     OW10579   2.970   3.442   6.916
 3227SOL    HW110580   2.924   3.385   6.848
 3227SOL    HW210581   2.901   3.494   6.967
 3228SOL     OW10582   0.174   3.768   1.216
 3228SOL    HW110583   0.101   3.755   1.150
 3228SOL    HW210584   0.144   3.830   1.288
 3229SOL     OW10585   3.618   0.350   5.518
 3229SOL    HW110586   3.543   0.302   5.562
 3229SOL    HW210587   3.619   0.329   5.420
 3230SOL     OW10588   2.260   4.428   5.427
 3230SOL    HW110589   2.258   4.498   5.355
 3230SOL    HW210590   2.269   4.337   5.385
 3231SOL     OW10591   2.958   0.222   1.925
 3231SOL    HW110592   2.864   0.191   1.933
 3231SOL    HW210593   2.993   0.246   2.016
 3232SOL     OW10594   4.676   6.566   4.718
 3232SOL    HW110595   4.578   6.569   4.739
 3232SOL    HW210596   4.711   6.474   4.736
 3233SOL     OW10597   6.716   2.665   0.888
 3233SOL    HW110598   6.687   2.704   0.976
 3233SOL    HW210599   6.808   2.628   0.896
 3234SOL     OW10600   0.753   2.565   6.893
 3234SOL    HW110601   0.675   2.610   6.849
 3234SOL    HW210602   0.787   2.623   6.967
 3235SOL     OW10603   6.952   0.292   1.729
 3235SOL    HW110604   6.976   0.387   1.710
 3235SOL    HW210605   6.913   0.285   1.821
 3236SOL     OW10606   1.482   3.963   7.017
 3236SOL    HW110607   1.401   3.939   6.965
 3236SOL    HW210608   1.493   3.899   0.076
 3237SOL     OW10609   6.054   1.579   3.320
 3237SOL    HW110610   6.002   1.504   3.281
 3237SOL    HW210611   6.125   1.607   3.256
 3238SOL     OW10612   7.010   5.470   0.464
 3238SOL    HW110613   6.989   5.567   0.450
 3238SOL    HW210614   0.068   5.444   0.404
 3239SOL     OW10615   6.604   1.311   2.388
 3239SOL    HW110616   6.660   1.327   2.470
 3239SOL    HW210617   6.511   1.286   2.415
 3240SOL     OW10618   6.930   6.358   6.210
 3240SOL    HW110619   0.000   6.330   6.171
 3240SOL    HW210620   6.901   6.289   6.277
 3241SOL     OW10621   4.808   0.609   5.176
 3241SOL    HW110622   4.727   0.638   5.227
 3241SOL    HW210623   4.797   0.514   5.147
 3242SOL     OW10624   4.722   4.493   6.772
 3242SOL    HW110625   4.777   4.411   6.780
 3242SOL    HW210626   4.681   4.498   6.681
 3243SOL     OW10627   4.229   4.996   6.987
 3243SOL    HW110628   4.154   5.002   6.921
 3243SOL    HW210629   4.231   5.078   0.025
 3244SOL     OW10630   5.022   5.672   0.220
 3244SOL    HW110631   5.043   5.768   0.205
 3244SOL    HW210632   5.026   5.623   0.133
 3245SOL     OW10633   5.259   3.657   4.469
 3245SOL    HW110634   5.324   3.661   4.393
 3245SOL    HW210635   5.250   3.563   4.502
 3246SOL     OW10636   6.311   0.414   2.807
 3246SOL    HW110637   6.331   0.510   2.822
 3246SOL    HW210638   6.343   0.387   2.716
 3247SOL     OW10639   5.962   4.305   2.761
 3247SOL    HW110640   5.899   4.230   2.783
 3247SOL    HW210641   6.045   4.296   2.816
 3248SOL     OW10642   5.676   3.268   1.898
 3248SOL    HW110643   5.691   3.358   1.939
 3248SOL    HW210644   5.598   3.224   1.943
 3249SOL     OW10645   3.574   4.128   3.840
 3249SOL    HW110646   3.582   4.135   3.940
 3249SOL    HW210647   3.640   4.190   3.797
 3250SOL     OW10648   5.680   0.457   2.804
 3250SOL    HW110649   5.766   0.431   2.759
 3250SOL    HW210650   5.690   0.444   2.903
 3251SOL     OW10651   3.724   1.019   3.647
 3251SOL    HW110652   3.796   1.029   3.716
 3251SOL    HW210653   3.639   1.057   3.683
 3252SOL     OW10654   2.600   0.933   2.635
 3252SOL    HW110655   2.593   0.851   2.691
 3252SOL    HW210656   2.629   0.908   2.542
 3253SOL     OW10657   4.665   3.723   1.710
 3253SOL    HW110658   4.731   3.790   1.676
 3253SOL    HW210659   4.701   3.679   1.792
 3254SOL     OW10660   4.828   5.963   6.389
 3254SOL    HW110661   4.875   5.957   6.477
 3254SOL    HW210662   4.738   6.004   6.402
 3255SOL     OW10663   4.485   6.924   0.401
 3255SOL    HW110664   4.538   6.905   0.319
 3255SOL    HW210665   4.531   6.882   0.480
 3256SOL     OW10666   3.742   1.337   0.801
 3256SOL    HW110667   3.704   1.250   0.767
 3256SOL    HW210668   3.805   1.319   0.876
 3257SOL     OW10669   1.188   1.842   2.215
 3257SOL    HW110670   1.142   1.786   2.146
 3257SOL    HW210671   1.274   1.797   2.241
 3258SOL     OW10672   4.713   6.032   2.317
 3258SOL    HW110673   4.635   6.038   2.254
 3258SOL    HW210674   4.683   5.991   2.403
 3259SOL     OW10675   5.006   4.798   5.136
 3259SOL    HW110676   5.093   4.780   5.183
 3259SOL    HW210677   4.954   4.714   5.128
 3260SOL     OW10678   1.380   2.602   0.985
 3260SOL    HW110679   1.467   2.591   0.937
 3260SOL    HW210680   1.395   2.595   1.084
 3261SOL     OW10681   5.473   0.728   1.682
 3261SOL    HW110682   5.511   0.643   1.643
 3261SOL    HW210683   5.425   0.779   1.610
 3262SOL     OW10684   3.187   1.735   2.186
 3262SOL    HW110685   3.092   1.703   2.183
 3262SOL    HW210686   3.216   1.741   2.282
 3263SOL     OW10687   2.484   1.169   3.102
 3263SOL    HW110688   2.415   1.225   3.055
 3263SOL    HW210689   2.493   1.081   3.055
 3264SOL     OW10690   1.187   5.360   0.694
 3264SOL    HW110691   1.193   5.410   0.607
 3264SOL    HW210692   1.248   5.281   0.692
 3265SOL     OW10693   4.633   0.560   6.409
 3265SOL    HW110694   4.593   0.648   6.382
 3265SOL    HW210695   4.629   0.550   6.508
 3266SOL     OW10696   2.065   4.371   0.132
 3266SOL    HW110697   2.131   4.296   0.122
 3266SOL    HW210698   2.072   4.409   0.224
 3267SOL     OW10699   2.984   6.360   1.393
 3267SOL    HW110700   3.075   6.400   1.401
 3267SOL    HW210701   2.985   6.267   1.430
 3268SOL     OW10702   1.978   3.899   1.800
 3268SOL    HW110703   2.026   3.986   1.785
 3268SOL    HW210704   2.044   3.825   1.807
 3269SOL     OW10705   5.002   5.989   2.328
 3269SOL    HW110706   4.907   5.995   2.298
 3269SOL    HW210707   5.014   5.906   2.384
 3270SOL     OW10708   1.405   4.292   6.133
 3270SOL    HW110709   1.500   4.263   6.124
 3270SOL    HW210710   1.385   4.363   6.066
 3271SOL     OW10711   5.577   3.594   1.866
 3271SOL    HW110712   5.591   3.643   1.952
 3271SOL    HW210713   5.665   3.579   1.821
 3272SOL     OW10714   2.927   4.494   6.013
 3272SOL    HW110715   2.993   4.462   5.945
 3272SOL    HW210716   2.851   4.428   6.019
 3273SOL     OW10717   6.116   5.928   0.216
 3273SOL    HW110718   6.057   5.957   0.141
 3273SOL    HW210719   6.071   5.945   0.304
 3274SOL     OW10720   5.844   1.312   1.124
 3274SOL    HW110721   5.752   1.273   1.115
 3274SOL    HW210722   5.873   1.305   1.220
 3275SOL     OW10723   5.703   0.976   0.308
 3275SOL    HW110724   5.754   1.047   0.356
 3275SOL    HW210725   5.744   0.960   0.219
 3276SOL     OW10726   3.510   5.620   6.514
 3276SOL    HW110727   3.470   5.547   6.570
 3276SOL    HW210728   3.443   5.693   6.502
 3277SOL     OW10729   3.667   0.013   0.372
 3277SOL    HW110730   3.713   6.950   0.336
 3277SOL    HW210731   3.713   0.044   0.455
 3278SOL     OW10732   0.856   0.811   5.881
 3278SOL    HW110733   0.828   0.898   5.921
 3278SOL    HW210734   0.795   0.739   5.914
 3279SOL     OW10735   4.751   0.321   0.376
 3279SOL    HW110736   4.788   0.410   0.350
 3279SOL    HW210737   4.808   0.281   0.448
 3280SOL     OW10738   4.964   4.349   4.356
 3280SOL    HW110739   4.923   4.260   4.377
 3280SOL    HW210740   4.927   4.384   4.270
 3281SOL     OW10741   1.376   4.931   1.732
 3281SOL    HW110742   1.454   4.990   1.752
 3281SOL    HW210743   1.305   4.944   1.801
 3282SOL     OW10744   0.086   5.233   5.000
 3282SOL    HW110745   0.165   5.240   5.061
 3282SOL    HW210746   0.013   5.292   5.033
 3283SOL     OW10747   3.533   0.574   1.136
 3283SOL    HW110748   3.627   0.547   1.159
 3283SOL    HW210749   3.533   0.670   1.106
 3284SOL     OW10750   0.509   5.462   6.534
 3284SOL    HW110751   0.606   5.441   6.543
 3284SOL    HW210752   0.481   5.449   6.439
 3285SOL     OW10753   4.285   2.263   3.438
 3285SOL    HW110754   4.235   2.219   3.512
 3285SOL    HW210755   4.318   2.352   3.468
 3286SOL     OW10756   3.579   3.268   2.551
 3286SOL    HW110757   3.674   3.245   2.574
 3286SOL    HW210758   3.520   3.191   2.573
 3287SOL     OW10759   0.697   0.384   0.110
 3287SOL    HW110760   0.786   0.375   0.155
 3287SOL    HW210761   0.641   0.303   0.131
 3288SOL     OW10762   1.690   5.993   6.815
 3288SOL    HW110763   1.620   6.049   6.861
 3288SOL    HW210764   1.744   6.052   6.754
 3289SOL     OW10765   2.731   0.906   5.004
 3289SOL    HW110766   2.676   0.976   4.958
 3289SOL    HW210767   2.742   0.828   4.942
 3290SOL     OW10768   0.481   5.621   1.416
 3290SOL    HW110769   0.505   5.606   1.320
 3290SOL    HW210770   0.431   5.707   1.425
 3291SOL     OW10771   1.844   0.078   6.829
 3291SOL    HW110772   1.935   0.100   6.865
 3291SOL    HW210773   1.829   0.129   6.744
 3292SOL     OW10774   0.144   0.903   0.524
 3292SOL    HW110775   0.118   0.808   0.545
 3292SOL    HW210776   0.128   0.921   0.427
 3293SOL     OW10777   0.223   4.294   1.632
 3293SOL    HW110778   0.221   4.383   1.679
 3293SOL    HW210779   0.150   4.236   1.669
 3294SOL     OW10780   6.008   2.438   5.962
 3294SOL    HW110781   6.038   2.343   5.956
 3294SOL    HW210782   6.083   2.496   5.993
 3295SOL     OW10783   1.354   2.513   2.292
 3295SOL    HW110784   1.317   2.515   2.199
 3295SOL    HW210785   1.434   2.573   2.297
 3296SOL     OW10786   1.362   6.897   2.785
 3296SOL    HW110787   1.345   6.863   2.693
 3296SOL    HW210788   1.305   6.847   2.850
 3297SOL     OW10789   2.961   1.502   5.672
 3297SOL    HW110790   2.929   1.415   5.636
 3297SOL    HW210791   3.034   1.537   5.614
 3298SOL     OW10792   6.044   2.019   5.604
 3298SOL    HW110793   5.983   1.989   5.677
 3298SOL    HW210794   6.118   1.952   5.592
 3299SOL     OW10795   3.561   5.844   2.981
 3299SOL    HW110796   3.642   5.794   3.013
 3299SOL    HW210797   3.554   5.931   3.031
 3300SOL     OW10798   0.398   0.937   5.364
 3300SOL    HW110799   0.486   0.975   5.336
 3300SOL    HW210800   0.409   0.887   5.450
 3301SOL     OW10801   2.191   3.097   3.425
 3301SOL    HW110802   2.126   3.105   3.350
 3301SOL    HW210803   2.156   3.146   3.505
 3302SOL     OW10804   0.677   4.960   5.453
 3302SOL    HW110805   0.674   4.930   5.548
 3302SOL    HW210806   0.588   4.942   5.410
 3303SOL     OW10807   3.599   3.539   0.975
 3303SOL    HW110808   3.697   3.559   0.975
 3303SOL    HW210809   3.548   3.621   1.001
 3304SOL     OW10810   1.675   5.449   4.839
 3304SOL    HW110811   1.583   5.410   4.835
 3304SOL    HW210812   1.687   5.515   4.764
 3305SOL     OW10813   2.087   1.225   2.185
 3305SOL    HW110814   2.134   1.192   2.267
 3305SOL    HW210815   2.045   1.313   2.204
 3306SOL     OW10816   2.345   5.371   4.664
 3306SOL    HW110817   2.326   5.342   4.571
 3306SOL    HW210818   2.274   5.337   4.725
 3307SOL     OW10819   6.944   5.809   6.728
 3307SOL    HW110820   6.862   5.774   6.684
 3307SOL    HW210821   6.923   5.895   6.775
 3308SOL     OW10822   2.725   6.042   1.362
 3308SOL    HW110823   2.701   6.081   1.273
 3308SOL    HW210824   2.646   5.991   1.398
 3309SOL     OW10825   6.582   5.655   3.736
 3309SOL    HW110826   6.506   5.595   3.711
 3309SOL    HW210827   6.546   5.746   3.757
 3310SOL     OW10828   0.263   4.121   5.118
 3310SOL    HW110829   0.188   4.078   5.167
 3310SOL    HW210830   0.244   4.219   5.107
 3311SOL     OW10831   4.051   3.883   0.828
 3311SOL    HW110832   3.965   3.838   0.803
 3311SOL    HW210833   4.081   3.940   0.753
 3312SOL     OW10834   4.367   4.725   5.714
 3312SOL    HW110835   4.408   4.659   5.651
 3312SOL    HW210836   4.433   4.797   5.734
 3313SOL     OW10837   1.163   6.214   3.601
 3313SOL    HW110838   1.125   6.282   3.537
 3313SOL    HW210839   1.249   6.247   3.638
 3314SOL     OW10840   2.356   1.297   2.672
 3314SOL    HW110841   2.261   1.292   2.640
 3314SOL    HW210842   2.387   1.391   2.668
 3315SOL     OW10843   6.255   4.478   4.175
 3315SOL    HW110844   6.326   4.470   4.106
 3315SOL    HW210845   6.186   4.407   4.161
 3316SOL     OW10846   5.258   0.865   5.756
 3316SOL    HW110847   5.179   0.804   5.750
 3316SOL    HW210848   5.247   0.941   5.692
 3317SOL     OW10849   4.856   2.864   1.792
 3317SOL    HW110850   4.765   2.828   1.771
 3317SOL    HW210851   4.848   2.944   1.851
 3318SOL     OW10852   1.905   1.716   1.344
 3318SOL    HW110853   1.990   1.667   1.363
 3318SOL    HW210854   1.899   1.796   1.404
 3319SOL     OW10855   6.266   1.991   3.794
 3319SOL    HW110856   6.261   1.955   3.887
 3319SOL    HW210857   6.350   1.960   3.750
 3320SOL     OW10858   6.745   0.633   5.234
 3320SOL    HW110859   6.776   0.552   5.185
 3320SOL    HW210860   6.702   0.606   5.320
 3321SOL     OW10861   4.706   1.503   0.482
 3321SOL    HW110862   4.676   1.585   0.435
 3321SOL    HW210863   4.710   1.426   0.418
 3322SOL     OW10864   6.719   2.922   1.219
 3322SOL    HW110865   6.788   2.867   1.172
 3322SOL    HW210866   6.762   3.004   1.255
 3323SOL     OW10867   3.324   2.876   0.456
 3323SOL    HW110868   3.263   2.934   0.402
 3323SOL    HW210869   3.362   2.804   0.397
 3324SOL     OW10870   4.210   5.212   6.349
 3324SOL    HW110871   4.163   5.124   6.348
 3324SOL    HW210872   4.145   5.284   6.373
 3325SOL     OW10873   0.070   3.609   6.122
 3325SOL    HW110874   0.150   3.649   6.167
 3325SOL    HW210875   0.052   3.518   6.161
 3326SOL     OW10876   5.226   1.747   2.656
 3326SOL    HW110877   5.154   1.728   2.589
 3326SOL    HW210878   5.282   1.666   2.670
 3327SOL     OW10879   3.433   5.426   1.647
 3327SOL    HW110880   3.440   5.462   1.740
 3327SOL    HW210881   3.409   5.329   1.651
 3328SOL     OW10882   4.398   2.229   0.323
 3328SOL    HW110883   4.483   2.263   0.281
 3328SOL    HW210884   4.416   2.207   0.419
 3329SOL     OW10885   5.688   0.296   4.762
 3329SOL    HW110886   5.610   0.358   4.772
 3329SOL    HW210887   5.755   0.337   4.700
 3330SOL     OW10888   6.350   4.658   1.636
 3330SOL    HW110889   6.379   4.712   1.715
 3330SOL    HW210890   6.311   4.571   1.668
 3331SOL     OW10891   2.365   2.790   1.526
 3331SOL    HW110892   2.411   2.762   1.610
 3331SOL    HW210893   2.320   2.878   1.540
 3332SOL     OW10894   5.607   5.483   6.855
 3332SOL    HW110895   5.558   5.444   6.934
 3332SOL    HW210896   5.548   5.550   6.810
 3333SOL     OW10897   4.591   4.538   6.544
 3333SOL    HW110898   4.615   4.485   6.463
 3333SOL    HW210899   4.492   4.554   6.545
 3334SOL     OW10900   2.724   4.038   1.696
 3334SOL    HW110901   2.761   3.946   1.686
 3334SOL    HW210902   2.799   4.103   1.708
 3335SOL     OW10903   4.613   6.196   5.535
 3335SOL    HW110904   4.666   6.112   5.542
 3335SOL    HW210905   4.523   6.176   5.496
 3336SOL     OW10906   2.489   6.147   4.617
 3336SOL    HW110907   2.579   6.104   4.624
 3336SOL    HW210908   2.419   6.077   4.607
 3337SOL     OW10909   2.934   3.748   2.852
 3337SOL    HW110910   2.936   3.846   2.829
 3337SOL    HW210911   2.971   3.695   2.776
 3338SOL     OW10912   5.722   2.596   1.661
 3338SOL    HW110913   5.664   2.643   1.594
 3338SOL    HW210914   5.748   2.506   1.625
 3339SOL     OW10915   6.780   0.266   6.722
 3339SOL    HW110916   6.703   0.216   6.761
 3339SOL    HW210917   6.864   0.214   6.735
 3340SOL     OW10918   3.819   0.506   2.319
 3340SOL    HW110919   3.873   0.585   2.291
 3340SOL    HW210920   3.750   0.535   2.386
 3341SOL     OW10921   0.979   5.788   3.249
 3341SOL    HW110922   0.881   5.768   3.246
 3341SOL    HW210923   0.993   5.887   3.257
 3342SOL     OW10924   2.643   6.977   4.353
 3342SOL    HW110925   2.623   0.054   4.376
 3342SOL    HW210926   2.721   6.974   4.291
 3343SOL     OW10927   5.290   2.960   1.072
 3343SOL    HW110928   5.311   2.870   1.033
 3343SOL    HW210929   5.244   2.948   1.160
 3344SOL     OW10930   5.614   3.526   4.078
 3344SOL    HW110931   5.618   3.558   3.984
 3344SOL    HW210932   5.637   3.429   4.081
 3345SOL     OW10933   1.233   3.592   6.268
 3345SOL    HW110934   1.329   3.594   6.239
 3345SOL    HW210935   1.211   3.677   6.316
 3346SOL     OW10936   1.482   0.511   0.249
 3346SOL    HW110937   1.566   0.532   0.199
 3346SOL    HW210938   1.506   0.471   0.338
 3347SOL     OW10939   0.922   3.656   4.200
 3347SOL    HW110940   0.887   3.575   4.152
 3347SOL    HW210941   0.861   3.679   4.276
 3348SOL     OW10942   3.074   3.362   3.821
 3348SOL    HW110943   3.048   3.427   3.750
 3348SOL    HW210944   3.152   3.398   3.872
 3349SOL     OW10945   1.275   5.755   2.904
 3349SOL    HW110946   1.342   5.721   2.971
 3349SOL    HW210947   1.183   5.742   2.939
 3350SOL     OW10948   1.490   2.331   5.761
 3350SOL    HW110949   1.538   2.398   5.705
 3350SOL    HW210950   1.505   2.239   5.724
 3351SOL     OW10951   5.047   0.550   2.523
 3351SOL    HW110952   4.980   0.569   2.595
 3351SOL    HW210953   5.138   0.579   2.554
 3352SOL     OW10954   0.205   2.846   0.555
 3352SOL    HW110955   0.182   2.877   0.463
 3352SOL    HW210956   0.291   2.796   0.553
 3353SOL     OW10957   1.448   5.499   2.145
 3353SOL    HW110958   1.500   5.439   2.205
 3353SOL    HW210959   1.439   5.589   2.188
 3354SOL     OW10960   4.852   2.474   5.413
 3354SOL    HW110961   4.833   2.437   5.322
 3354SOL    HW210962   4.826   2.570   5.416
 3355SOL     OW10963   1.981   1.276   0.429
 3355SOL    HW110964   2.057   1.212   0.440
 3355SOL    HW210965   1.968   1.296   0.332
 3356SOL     OW10966   1.783   4.467   5.840
 3356SOL    HW110967   1.850   4.541   5.841
 3356SOL    HW210968   1.829   4.381   5.821
 3357SOL     OW10969   2.703   4.689   1.741
 3357SOL    HW110970   2.736   4.652   1.828
 3357SOL    HW210971   2.745   4.639   1.665
 3358SOL     OW10972   5.141   0.688   0.689
 3358SOL    HW110973   5.080   0.738   0.627
 3358SOL    HW210974   5.201   0.754   0.736
 3359SOL     OW10975   6.919   0.444   3.644
 3359SOL    HW110976   6.894   0.505   3.719
 3359SOL    HW210977   6.862   0.464   3.564
 3360SOL     OW10978   0.641   1.278   6.917
 3360SOL    HW110979   0.710   1.263   6.846
 3360SOL    HW210980   0.632   1.376   6.934
 3361SOL     OW10981   0.662   4.424   3.090
 3361SOL    HW110982   0.746   4.398   3.139
 3361SOL    HW210983   0.601   4.473   3.152
 3362SOL     OW10984   3.784   1.825   3.669
 3362SOL    HW110985   3.729   1.906   3.688
 3362SOL    HW210986   3.855   1.847   3.601
 3363SOL     OW10987   6.434   6.888   0.668
 3363SOL    HW110988   6.478   6.943   0.597
 3363SOL    HW210989   6.353   6.844   0.630
 3364SOL     OW10990   1.291   4.595   3.791
 3364SOL    HW110991   1.210   4.646   3.764
 3364SOL    HW210992   1.294   4.508   3.742
 3365SOL     OW10993   0.540   2.461   5.285
 3365SOL    HW110994   0.544   2.392   5.213
 3365SOL    HW210995   0.492   2.542   5.251
 3366SOL     OW10996   6.051   0.257   5.873
 3366SOL    HW110997   6.001   0.176   5.905
 3366SOL    HW210998   6.132   0.272   5.930
 3367SOL     OW10999   3.728   2.825   1.421
 3367SOL    HW111000   3.742   2.737   1.375
 3367SOL    HW211001   3.787   2.829   1.502
 3368SOL     OW11002   0.847   5.156   5.843
 3368SOL    HW111003   0.820   5.143   5.747
 3368SOL    HW211004   0.891   5.072   5.876
 3369SOL     OW11005   3.855   2.394   5.796
 3369SOL    HW111006   3.792   2.458   5.754
 3369SOL    HW211007   3.854   2.407   5.895
 3370SOL     OW11008   6.660   5.884   6.251
 3370SOL    HW111009   6.689   5.818   6.182
 3370SOL    HW211010   6.666   5.976   6.214
 3371SOL     OW11011   1.873   3.439   2.213
 3371SOL    HW111012   1.901   3.344   2.220
 3371SOL    HW211013   1.774   3.446   2.219
 3372SOL     OW11014   0.930   1.549   1.257
 3372SOL    HW111015   0.958   1.453   1.246
 3372SOL    HW211016   0.976   1.605   1.189
 3373SOL     OW11017   0.021   1.837   3.043
 3373SOL    HW111018   0.087   1.896   3.089
 3373SOL    HW211019   6.947   1.854   3.080
 3374SOL     OW11020   1.569   6.417   4.524
 3374SOL    HW111021   1.521   6.396   4.439
 3374SOL    HW211022   1.668   6.421   4.506
 3375SOL     OW11023   6.064   5.837   6.412
 3375SOL    HW111024   6.102   5.761   6.465
 3375SOL    HW211025   5.964   5.829   6.409
 3376SOL     OW11026   4.058   3.323   3.527
 3376SOL    HW111027   4.016   3.309   3.616
 3376SOL    HW211028   4.147   3.278   3.523
 3377SOL     OW11029   0.460   6.600   4.751
 3377SOL    HW111030   0.450   6.509   4.791
 3377SOL    HW211031   0.372   6.632   4.718
 3378SOL     OW11032   6.786   1.156   0.422
 3378SOL    HW111033   6.764   1.062   0.448
 3378SOL    HW211034   6.815   1.207   0.502
 3379SOL     OW11035   6.588   6.331   6.723
 3379SOL    HW111036   6.494   6.366   6.732
 3379SOL    HW211037   6.604   6.262   6.793
 3380SOL     OW11038   5.915   6.749   6.152
 3380SOL    HW111039   5.917   6.693   6.235
 3380SOL    HW211040   5.840   6.718   6.094
 3381SOL     OW11041   1.076   2.772   1.318
 3381SOL    HW111042   1.002   2.710   1.291
 3381SOL    HW211043   1.049   2.821   1.401
 3382SOL     OW11044   0.500   1.373   0.907
 3382SOL    HW111045   0.457   1.286   0.931
 3382SOL    HW211046   0.441   1.423   0.844
 3383SOL     OW11047   4.565   6.085   2.083
 3383SOL    HW111048   4.658   6.119   2.070
 3383SOL    HW211049   4.500   6.148   2.040
 3384SOL     OW11050   2.217   3.452   5.961
 3384SOL    HW111051   2.188   3.488   5.873
 3384SOL    HW211052   2.317   3.441   5.961
 3385SOL     OW11053   7.016   2.805   4.089
 3385SOL    HW111054   0.025   2.787   4.184
 3385SOL    HW211055   0.051   2.747   4.028
 3386SOL     OW11056   6.313   3.622   6.544
 3386SOL    HW111057   6.300   3.523   6.552
 3386SOL    HW211058   6.356   3.643   6.456
 3387SOL     OW11059   3.251   1.146   3.590
 3387SOL    HW111060   3.182   1.078   3.618
 3387SOL    HW211061   3.224   1.188   3.504
 3388SOL     OW11062   5.211   3.305   1.981
 3388SOL    HW111063   5.138   3.237   1.970
 3388SOL    HW211064   5.181   3.393   1.946
 3389SOL     OW11065   5.352   4.722   5.452
 3389SOL    HW111066   5.306   4.633   5.446
 3389SOL    HW211067   5.318   4.782   5.379
 3390SOL     OW11068   5.163   4.855   5.717
 3390SOL    HW111069   5.153   4.819   5.624
 3390SOL    HW211070   5.247   4.820   5.758
 3391SOL     OW11071   4.878   3.082   4.972
 3391SOL    HW111072   4.875   3.180   4.952
 3391SOL    HW211073   4.825   3.063   5.055
 3392SOL     OW11074   2.881   6.807   3.868
 3392SOL    HW111075   2.968   6.804   3.918
 3392SOL    HW211076   2.831   6.891   3.892
 3393SOL     OW11077   0.211   6.316   7.016
 3393SOL    HW111078   0.296   6.317   0.050
 3393SOL    HW211079   0.171   6.408   7.016
 3394SOL     OW11080   6.147   3.372   1.721
 3394SOL    HW111081   6.081   3.301   1.746
 3394SOL    HW211082   6.233   3.355   1.769
 3395SOL     OW11083   5.480   3.012   3.250
 3395SOL    HW111084   5.507   3.108   3.246
 3395SOL    HW211085   5.433   2.994   3.337
 3396SOL     OW11086   4.958   1.825   3.629
 3396SOL    HW111087   4.923   1.735   3.655
 3396SOL    HW211088   5.054   1.817   3.602
 3397SOL     OW11089   2.261   0.713   4.937
 3397SOL    HW111090   2.227   0.786   4.879
 3397SOL    HW211091   2.339   0.668   4.894
 3398SOL     OW11092   0.884   0.142   5.021
 3398SOL    HW111093   0.898   0.219   4.959
 3398SOL    HW211094   0.972   0.114   5.060
 3399SOL     OW11095   5.632   4.274   4.236
 3399SOL    HW111096   5.707   4.239   4.180
 3399SOL    HW211097   5.578   4.339   4.183
 3400SOL     OW11098   4.974   2.452   6.081
 3400SOL    HW111099   5.042   2.483   6.014
 3400SOL    HW211100   4.935   2.532   6.127
 3401SOL     OW11101   6.742   3.653   1.196
 3401SOL    HW111102   6.665   3.649   1.260
 3401SOL    HW211103   6.777   3.561   1.179
 3402SOL     OW11104   3.752   6.073   6.715
 3402SOL    HW111105   3.717   5.987   6.677
 3402SOL    HW211106   3.708   6.091   6.803
 3403SOL     OW11107   3.906   6.389   4.937
 3403SOL    HW111108   3.829   6.449   4.914
 3403SOL    HW211109   3.954   6.362   4.854
 3404SOL     OW11110   5.009   1.544   0.249
 3404SOL    HW111111   4.977   1.548   0.344
 3404SOL    HW211112   5.094   1.491   0.245
 3405SOL     OW11113   0.226   3.502   4.368
 3405SOL    HW111114   0.239   3.415   4.322
 3405SOL    HW211115   0.139   3.542   4.340
 3406SOL     OW11116   0.645   3.983   2.057
 3406SOL    HW111117   0.655   3.910   1.989
 3406SOL    HW211118   0.681   4.069   2.019
 3407SOL     OW11119   1.269   5.164   6.888
 3407SOL    HW111120   1.184   5.156   6.837
 3407SOL    HW211121   1.301   5.258   6.886
 3408SOL     OW11122   4.868   3.816   5.413
 3408SOL    HW111123   4.945   3.755   5.431
 3408SOL    HW211124   4.853   3.822   5.314
 3409SOL     OW11125   3.390   6.086   6.512
 3409SOL    HW111126   3.342   6.171   6.488
 3409SOL    HW211127   3.374   6.065   6.608
 3410SOL     OW11128   7.008   6.201   6.999
 3410SOL    HW111129   0.079   6.246   6.995
 3410SOL    HW211130   6.953   6.242   0.054
 3411SOL     OW11131   0.520   3.046   1.702
 3411SOL    HW111132   0.508   3.116   1.632
 3411SOL    HW211133   0.437   3.041   1.758
 3412SOL     OW11134   4.097   2.734   6.729
 3412SOL    HW111135   4.101   2.635   6.741
 3412SOL    HW211136   4.041   2.774   6.802
 3413SOL     OW11137   5.593   1.464   0.922
 3413SOL    HW111138   5.649   1.542   0.950
 3413SOL    HW211139   5.595   1.394   0.993
 3414SOL     OW11140   2.042   0.495   5.984
 3414SOL    HW111141   1.964   0.433   5.978
 3414SOL    HW211142   2.067   0.527   5.893
 3415SOL     OW11143   1.703   3.804   4.934
 3415SOL    HW111144   1.777   3.841   4.877
 3415SOL    HW211145   1.647   3.741   4.879
 3416SOL     OW11146   0.284   5.767   0.821
 3416SOL    HW111147   0.360   5.737   0.762
 3416SOL    HW211148   0.319   5.786   0.913
 3417SOL     OW11149   0.271   5.654   3.241
 3417SOL    HW111150   0.333   5.732   3.226
 3417SOL    HW211151   0.277   5.625   3.336
 3418SOL     OW11152   3.865   0.707   4.602
 3418SOL    HW111153   3.869   0.607   4.600
 3418SOL    HW211154   3.957   0.744   4.589
 3419SOL     OW11155   3.746   5.705   5.063
 3419SOL    HW111156   3.729   5.753   5.149
 3419SOL    HW211157   3.669   5.719   5.001
 3420SOL     OW11158   5.280   2.860   4.362
 3420SOL    HW111159   5.232   2.886   4.446
 3420SOL    HW211160   5.351   2.927   4.342
 3421SOL     OW11161   5.559   0.881   5.784
 3421SOL    HW111162   5.460   0.865   5.778
 3421SOL    HW211163   5.600   0.864   5.694
 3422SOL     OW11164   2.079   0.492   1.204
 3422SOL    HW111165   2.053   0.577   1.249
 3422SOL    HW211166   2.169   0.503   1.161
 3423SOL     OW11167   1.392   4.859   7.011
 3423SOL    HW111168   1.444   4.944   7.004
 3423SOL    HW211169   1.319   4.858   6.942
 3424SOL     OW11170   2.881   6.639   1.741
 3424SOL    HW111171   2.969   6.619   1.784
 3424SOL    HW211172   2.820   6.683   1.807
 3425SOL     OW11173   5.145   4.877   2.617
 3425SOL    HW111174   5.168   4.973   2.636
 3425SOL    HW211175   5.163   4.822   2.699
 3426SOL     OW11176   3.741   2.203   0.765
 3426SOL    HW111177   3.793   2.145   0.827
 3426SOL    HW211178   3.804   2.255   0.707
 3427SOL     OW11179   6.274   0.239   0.206
 3427SOL    HW111180   6.322   0.237   0.119
 3427SOL    HW211181   6.283   0.150   0.251
 3428SOL     OW11182   3.134   4.589   0.886
 3428SOL    HW111183   3.165   4.627   0.974
 3428SOL    HW211184   3.117   4.663   0.822
 3429SOL     OW11185   0.517   2.535   0.369
 3429SOL    HW111186   0.563   2.475   0.434
 3429SOL    HW211187   0.474   2.480   0.297
 3430SOL     OW11188   0.395   6.404   4.918
 3430SOL    HW111189   0.368   6.319   4.872
 3430SOL    HW211190   0.334   6.421   4.995
 3431SOL     OW11191   0.723   6.899   1.270
 3431SOL    HW111192   0.706   6.912   1.172
 3431SOL    HW211193   0.642   6.926   1.322
 3432SOL     OW11194   1.896   2.490   0.099
 3432SOL    HW111195   1.819   2.429   0.085
 3432SOL    HW211196   1.954   2.456   0.172
 3433SOL     OW11197   0.787   0.361   6.197
 3433SOL    HW111198   0.723   0.297   6.155
 3433SOL    HW211199   0.880   0.339   6.167
 3434SOL     OW11200   4.748   1.942   0.782
 3434SOL    HW111201   4.659   1.897   0.795
 3434SOL    HW211202   4.735   2.025   0.727
 3435SOL     OW11203   0.827   1.776   0.859
 3435SOL    HW111204   0.758   1.707   0.836
 3435SOL    HW211205   0.917   1.732   0.866
 3436SOL     OW11206   3.685   5.809   6.622
 3436SOL    HW111207   3.624   5.739   6.583
 3436SOL    HW211208   3.711   5.782   6.714
 3437SOL     OW11209   1.855   1.189   5.797
 3437SOL    HW111210   1.931   1.174   5.860
 3437SOL    HW211211   1.827   1.285   5.800
 3438SOL     OW11212   1.077   2.824   0.188
 3438SOL    HW111213   1.099   2.741   0.137
 3438SOL    HW211214   1.135   2.899   0.157
 3439SOL     OW11215   1.903   6.368   4.967
 3439SOL    HW111216   2.000   6.389   4.956
 3439SOL    HW211217   1.867   6.418   5.046
 3440SOL     OW11218   3.607   3.384   1.635
 3440SOL    HW111219   3.536   3.367   1.704
 3440SOL    HW211220   3.609   3.482   1.613
 3441SOL     OW11221   5.152   0.154   4.302
 3441SOL    HW111222   5.233   0.204   4.332
 3441SOL    HW211223   5.155   0.141   4.203
 3442SOL     OW11224   3.358   5.530   2.159
 3442SOL    HW111225   3.337   5.433   2.142
 3442SOL    HW211226   3.283   5.572   2.210
 3443SOL     OW11227   5.169   6.207   1.885
 3443SOL    HW111228   5.177   6.226   1.983
 3443SOL    HW211229   5.229   6.130   1.861
 3444SOL     OW11230   5.306   5.455   0.297
 3444SOL    HW111231   5.315   5.404   0.382
 3444SOL    HW211232   5.215   5.441   0.259
 3445SOL     OW11233   6.291   5.944   4.534
 3445SOL    HW111234   6.214   6.000   4.502
 3445SOL    HW211235   6.362   6.003   4.571
 3446SOL     OW11236   6.152   0.356   2.412
 3446SOL    HW111237   6.080   0.407   2.461
 3446SOL    HW211238   6.177   0.405   2.329
 3447SOL     OW11239   5.456   5.740   0.924
 3447SOL    HW111240   5.460   5.650   0.966
 3447SOL    HW211241   5.396   5.800   0.977
 3448SOL     OW11242   3.295   0.244   0.983
 3448SOL    HW111243   3.209   0.295   0.975
 3448SOL    HW211244   3.340   0.267   1.069
 3449SOL     OW11245   6.426   6.735   4.046
 3449SOL    HW111246   6.517   6.692   4.047
 3449SOL    HW211247   6.429   6.818   3.992
 3450SOL     OW11248   6.767   1.985   6.496
 3450SOL    HW111249   6.823   2.057   6.456
 3450SOL    HW211250   6.794   1.972   6.592
 3451SOL     OW11251   2.147   6.555   1.816
 3451SOL    HW111252   2.224   6.548   1.753
 3451SOL    HW211253   2.084   6.479   1.800
 3452SOL     OW11254   5.915   0.646   6.066
 3452SOL    HW111255   5.911   0.613   6.160
 3452SOL    HW211256   5.834   0.701   6.045
 3453SOL     OW11257   6.763   5.718   5.739
 3453SOL    HW111258   6.680   5.666   5.715
 3453SOL    HW211259   6.768   5.799   5.681
 3454SOL     OW11260   1.262   1.948   6.355
 3454SOL    HW111261   1.282   1.880   6.426
 3454SOL    HW211262   1.340   2.010   6.346
 3455SOL     OW11263   2.574   2.145   4.310
 3455SOL    HW111264   2.601   2.050   4.326
 3455SOL    HW211265   2.593   2.169   4.214
 3456SOL     OW11266   6.054   5.448   2.785
 3456SOL    HW111267   5.959   5.477   2.795
 3456SOL    HW211268   6.061   5.380   2.712
 3457SOL     OW11269   3.195   5.630   3.407
 3457SOL    HW111270   3.127   5.660   3.473
 3457SOL    HW211271   3.174   5.668   3.317
 3458SOL     OW11272   4.677   0.527   1.075
 3458SOL    HW111273   4.708   0.587   1.000
 3458SOL    HW211274   4.632   0.446   1.037
 3459SOL     OW11275   5.908   3.888   2.969
 3459SOL    HW111276   6.005   3.911   2.983
 3459SOL    HW211277   5.899   3.827   2.891
 3460SOL     OW11278   2.579   3.203   6.936
 3460SOL    HW111279   2.674   3.233   6.936
 3460SOL    HW211280   2.574   3.107   6.963
 3461SOL     OW11281   4.339   6.759   5.082
 3461SOL    HW111282   4.412   6.799   5.138
 3461SOL    HW211283   4.308   6.674   5.124
 3462SOL     OW11284   0.567   3.578   2.237
 3462SOL    HW111285   0.605   3.553   2.326
 3462SOL    HW211286   0.494   3.513   2.213
 3463SOL     OW11287   0.991   3.959   2.930
 3463SOL    HW111288   0.948   4.029   2.872
 3463SOL    HW211289   0.955   3.869   2.907
 3464SOL     OW11290   6.560   3.247   6.581
 3464SOL    HW111291   6.622   3.263   6.658
 3464SOL    HW211292   6.582   3.309   6.506
 3465SOL     OW11293   1.828   2.469   2.413
 3465SOL    HW111294   1.825   2.567   2.396
 3465SOL    HW211295   1.804   2.420   2.329
 3466SOL     OW11296   0.026   4.587   0.123
 3466SOL    HW111297   0.070   4.600   0.034
 3466SOL    HW211298   0.076   4.638   0.192
 3467SOL     OW11299   2.060   2.275   0.968
 3467SOL    HW111300   2.140   2.311   1.015
 3467SOL    HW211301   1.989   2.346   0.964
 3468SOL     OW11302   5.857   6.902   2.896
 3468SOL    HW111303   5.902   6.880   2.810
 3468SOL    HW211304   5.760   6.919   2.880
 3469SOL     OW11305   4.839   0.139   3.627
 3469SOL    HW111306   4.745   0.110   3.608
 3469SOL    HW211307   4.900   0.060   3.627
 3470SOL     OW11308   6.501   2.756   1.912
 3470SOL    HW111309   6.518   2.819   1.836
 3470SOL    HW211310   6.407   2.723   1.907
 3471SOL     OW11311   4.570   4.959   4.574
 3471SOL    HW111312   4.481   4.997   4.546
 3471SOL    HW211313   4.563   4.860   4.580
 3472SOL     OW11314   2.951   1.143   3.319
 3472SOL    HW111315   2.937   1.064   3.259
 3472SOL    HW211316   2.884   1.213   3.298
 3473SOL     OW11317   6.948   2.723   1.482
 3473SOL    HW111318   6.955   2.817   1.451
 3473SOL    HW211319   0.023   2.685   1.493
 3474SOL     OW11320   1.138   4.425   2.525
 3474SOL    HW111321   1.070   4.379   2.468
 3474SOL    HW211322   1.192   4.488   2.470
 3475SOL     OW11323   1.142   4.614   4.458
 3475SOL    HW111324   1.236   4.637   4.433
 3475SOL    HW211325   1.089   4.593   4.376
 3476SOL     OW11326   1.988   1.599   2.913
 3476SOL    HW111327   1.957   1.693   2.896
 3476SOL    HW211328   1.981   1.579   3.011
 3477SOL     OW11329   1.444   5.685   1.086
 3477SOL    HW111330   1.367   5.723   1.035
 3477SOL    HW211331   1.525   5.741   1.072
 3478SOL     OW11332   2.507   5.301   5.229
 3478SOL    HW111333   2.558   5.234   5.283
 3478SOL    HW211334   2.414   5.267   5.214
 3479SOL     OW11335   0.655   0.446   3.053
 3479SOL    HW111336   0.588   0.466   2.981
 3479SOL    HW211337   0.745   0.433   3.011
 3480SOL     OW11338   0.738   6.409   4.779
 3480SOL    HW111339   0.689   6.382   4.862
 3480SOL    HW211340   0.823   6.455   4.804
 3481SOL     OW11341   4.666   0.697   0.153
 3481SOL    HW111342   4.626   0.652   0.073
 3481SOL    HW211343   4.602   0.694   0.229
 3482SOL     OW11344   6.512   1.643   2.011
 3482SOL    HW111345   6.563   1.691   2.082
 3482SOL    HW211346   6.422   1.616   2.047
 3483SOL     OW11347   4.967   2.009   1.861
 3483SOL    HW111348   4.974   1.911   1.879
 3483SOL    HW211349   4.871   2.033   1.847
 3484SOL     OW11350   1.209   3.047   0.084
 3484SOL    HW111351   1.192   3.015   7.009
 3484SOL    HW211352   1.277   3.120   0.083
 3485SOL     OW11353   2.181   1.322   4.062
 3485SOL    HW111354   2.121   1.402   4.066
 3485SOL    HW211355   2.126   1.239   4.066
 3486SOL     OW11356   2.977   0.181   3.890
 3486SOL    HW111357   2.881   0.209   3.895
 3486SOL    HW211358   3.034   0.262   3.878
 3487SOL     OW11359   5.979   2.554   5.501
 3487SOL    HW111360   6.006   2.459   5.485
 3487SOL    HW211361   5.957   2.567   5.597
 3488SOL     OW11362   6.567   0.559   4.537
 3488SOL    HW111363   6.641   0.590   4.597
 3488SOL    HW211364   6.531   0.473   4.573
 3489SOL     OW11365   4.559   6.800   1.276
 3489SOL    HW111366   4.607   6.878   1.317
 3489SOL    HW211367   4.623   6.723   1.268
 3490SOL     OW11368   4.342   4.650   0.507
 3490SOL    HW111369   4.392   4.692   0.432
 3490SOL    HW211370   4.254   4.617   0.475
 3491SOL     OW11371   4.569   2.612   5.605
 3491SOL    HW111372   4.593   2.517   5.628
 3491SOL    HW211373   4.472   2.627   5.623
 3492SOL     OW11374   6.784   4.736   1.307
 3492SOL    HW111375   6.733   4.817   1.335
 3492SOL    HW211376   6.880   4.744   1.335
 3493SOL     OW11377   5.358   4.004   5.189
 3493SOL    HW111378   5.291   3.930   5.194
 3493SOL    HW211379   5.329   4.071   5.121
 3494SOL     OW11380   3.576   0.341   1.677
 3494SOL    HW111381   3.573   0.289   1.762
 3494SOL    HW211382   3.665   0.330   1.634
 3495SOL     OW11383   5.716   4.982   1.628
 3495SOL    HW111384   5.671   4.893   1.626
 3495SOL    HW211385   5.697   5.027   1.716
 3496SOL     OW11386   6.118   4.503   1.152
 3496SOL    HW111387   6.050   4.577   1.146
 3496SOL    HW211388   6.208   4.542   1.171
 3497SOL     OW11389   3.021   1.162   3.902
 3497SOL    HW111390   3.074   1.235   3.945
 3497SOL    HW211391   2.952   1.201   3.842
 3498SOL     OW11392   2.721   2.087   1.112
 3498SOL    HW111393   2.671   2.171   1.130
 3498SOL    HW211394   2.780   2.065   1.190
 3499SOL     OW11395   4.836   3.714   3.924
 3499SOL    HW111396   4.818   3.620   3.955
 3499SOL    HW211397   4.934   3.723   3.903
 3500SOL     OW11398   1.747   3.823   5.205
 3500SOL    HW111399   1.736   3.922   5.219
 3500SOL    HW211400   1.766   3.805   5.109
 3501SOL     OW11401   1.932   5.708   5.022
 3501SOL    HW111402   1.952   5.802   5.051
 3501SOL    HW211403   1.980   5.690   4.936
 3502SOL     OW11404   6.419   2.519   2.581
 3502SOL    HW111405   6.482   2.583   2.625
 3502SOL    HW211406   6.397   2.551   2.489
 3503SOL     OW11407   6.236   6.728   4.997
 3503SOL    HW111408   6.257   6.631   5.007
 3503SOL    HW211409   6.140   6.744   5.021
 3504SOL     OW11410   2.339   1.608   1.845
 3504SOL    HW111411   2.296   1.602   1.935
 3504SOL    HW211412   2.417   1.546   1.840
 3505SOL     OW11413   5.947   4.319   5.043
 3505SOL    HW111414   5.891   4.401   5.046
 3505SOL    HW211415   6.042   4.345   5.023
 3506SOL     OW11416   5.088   5.554   5.609
 3506SOL    HW111417   5.027   5.488   5.654
 3506SOL    HW211418   5.035   5.611   5.546
 3507SOL     OW11419   1.557   0.590   0.751
 3507SOL    HW111420   1.480   0.653   0.757
 3507SOL    HW211421   1.623   0.611   0.823
 3508SOL     OW11422   2.667   2.050   5.605
 3508SOL    HW111423   2.646   2.131   5.659
 3508SOL    HW211424   2.619   2.056   5.517
 3509SOL     OW11425   5.387   0.071   6.165
 3509SOL    HW111426   5.346   6.999   6.150
 3509SOL    HW211427   5.455   0.064   6.238
 3510SOL     OW11428   1.513   1.956   2.170
 3510SOL    HW111429   1.529   1.995   2.261
 3510SOL    HW211430   1.476   1.864   2.180
 3511SOL     OW11431   2.928   4.976   0.824
 3511SOL    HW111432   2.860   4.964   0.752
 3511SOL    HW211433   2.995   5.045   0.796
 3512SOL     OW11434   0.204   4.582   1.338
 3512SOL    HW111435   0.181   4.487   1.361
 3512SOL    HW211436   0.303   4.589   1.323
 3513SOL     OW11437   5.663   2.911   0.393
 3513SOL    HW111438   5.615   2.925   0.479
 3513SOL    HW211439   5.597   2.906   0.318
 3514SOL     OW11440   0.430   1.731   1.874
 3514SOL    HW111441   0.349   1.677   1.895
 3514SOL    HW211442   0.462   1.709   1.781
 3515SOL     OW11443   5.664   6.030   3.013
 3515SOL    HW111444   5.701   5.937   3.004
 3515SOL    HW211445   5.617   6.039   3.101
 3516SOL     OW11446   4.907   7.002   0.638
 3516SOL    HW111447   4.983   0.036   0.598
 3516SOL    HW211448   4.895   0.011   0.734
 3517SOL     OW11449   1.343   2.312   0.626
 3517SOL    HW111450   1.296   2.238   0.579
 3517SOL    HW211451   1.277   2.378   0.660
 3518SOL     OW11452   6.033   2.554   4.229
 3518SOL    HW111453   6.051   2.518   4.137
 3518SOL    HW211454   5.946   2.604   4.228
 3519SOL     OW11455   1.612   0.580   6.686
 3519SOL    HW111456   1.573   0.637   6.758
 3519SOL    HW211457   1.703   0.548   6.714
 3520SOL     OW11458   3.320   4.440   6.166
 3520SOL    HW111459   3.389   4.479   6.105
 3520SOL    HW211460   3.270   4.369   6.118
 3521SOL     OW11461   4.948   2.050   6.811
 3521SOL    HW111462   5.044   2.020   6.814
 3521SOL    HW211463   4.939   2.139   6.856
 3522SOL     OW11464   0.224   4.797   1.925
 3522SOL    HW111465   0.287   4.748   1.986
 3522SOL    HW211466   0.274   4.833   1.847
 3523SOL     OW11467   1.971   5.300   6.285
 3523SOL    HW111468   1.884   5.348   6.293
 3523SOL    HW211469   1.981   5.262   6.193
 3524SOL     OW11470   4.479   1.422   1.884
 3524SOL    HW111471   4.427   1.403   1.801
 3524SOL    HW211472   4.559   1.363   1.888
 3525SOL     OW11473   1.303   4.245   3.395
 3525SOL    HW111474   1.366   4.215   3.324
 3525SOL    HW211475   1.272   4.339   3.376
 3526SOL     OW11476   1.964   6.573   4.203
 3526SOL    HW111477   1.961   6.607   4.109
 3526SOL    HW211478   1.954   6.649   4.267
 3527SOL     OW11479   5.979   3.189   6.728
 3527SOL    HW111480   5.932   3.233   6.651
 3527SOL    HW211481   5.971   3.090   6.719
 3528SOL     OW11482   0.787   5.597   4.819
 3528SOL    HW111483   0.710   5.653   4.851
 3528SOL    HW211484   0.856   5.592   4.891
 3529SOL     OW11485   4.128   0.316   6.941
 3529SOL    HW111486   4.033   0.289   6.954
 3529SOL    HW211487   4.188   0.250   6.987
 3530SOL     OW11488   0.431   5.334   2.566
 3530SOL    HW111489   0.349   5.388   2.586
 3530SOL    HW211490   0.444   5.328   2.467
 3531SOL     OW11491   5.292   3.022   0.628
 3531SOL    HW111492   5.231   3.036   0.706
 3531SOL    HW211493   5.239   3.019   0.544
 3532SOL     OW11494   2.845   0.693   1.890
 3532SOL    HW111495   2.846   0.782   1.934
 3532SOL    HW211496   2.937   0.670   1.858
 3533SOL     OW11497   1.801   1.997   2.592
 3533SOL    HW111498   1.807   2.044   2.680
 3533SOL    HW211499   1.840   1.906   2.600
 3534SOL     OW11500   5.931   0.611   6.335
 3534SOL    HW111501   5.914   0.527   6.386
 3534SOL    HW211502   5.855   0.675   6.350
 3535SOL     OW11503   1.549   5.887   0.684
 3535SOL    HW111504   1.631   5.887   0.741
 3535SOL    HW211505   1.552   5.966   0.622
 3536SOL     OW11506   2.646   2.370   3.287
 3536SOL    HW111507   2.565   2.316   3.313
 3536SOL    HW211508   2.726   2.336   3.337
 3537SOL     OW11509   3.196   5.485   1.453
 3537SOL    HW111510   3.215   5.393   1.417
 3537SOL    HW211511   3.260   5.506   1.527
 3538SOL     OW11512   1.055   0.339   6.131
 3538SOL    HW111513   1.042   0.269   6.061
 3538SOL    HW211514   1.150   0.338   6.163
 3539SOL     OW11515   5.626   3.323   5.888
 3539SOL    HW111516   5.527   3.324   5.875
 3539SOL    HW211517   5.671   3.369   5.812
 3540SOL     OW11518   2.591   2.246   5.804
 3540SOL    HW111519   2.512   2.235   5.865
 3540SOL    HW211520   2.596   2.341   5.772
 3541SOL     OW11521   1.538   2.267   6.537
 3541SOL    HW111522   1.602   2.334   6.575
 3541SOL    HW211523   1.553   2.258   6.439
 3542SOL     OW11524   1.464   4.976   2.478
 3542SOL    HW111525   1.545   4.944   2.429
 3542SOL    HW211526   1.385   4.921   2.452
 3543SOL     OW11527   0.645   2.333   5.000
 3543SOL    HW111528   0.732   2.353   4.955
 3543SOL    HW211529   0.570   2.363   4.941
 3544SOL     OW11530   2.870   3.815   6.238
 3544SOL    HW111531   2.891   3.718   6.227
 3544SOL    HW211532   2.877   3.861   6.150
 3545SOL     OW11533   4.042   5.343   0.541
 3545SOL    HW111534   3.966   5.404   0.518
 3545SOL    HW211535   4.022   5.295   0.626
 3546SOL     OW11536   0.708   3.882   3.930
 3546SOL    HW111537   0.806   3.864   3.916
 3546SOL    HW211538   0.677   3.951   3.865
 3547SOL     OW11539   6.611   4.797   5.011
 3547SOL    HW111540   6.709   4.786   4.998
 3547SOL    HW211541   6.562   4.747   4.939
 3548SOL     OW11542   5.729   0.543   5.713
 3548SOL    HW111543   5.722   0.625   5.657
 3548SOL    HW211544   5.821   0.537   5.753
 3549SOL     OW11545   6.873   4.381   5.814
 3549SOL    HW111546   6.972   4.395   5.813
 3549SOL    HW211547   6.832   4.430   5.737
 3550SOL     OW11548   5.650   3.340   3.513
 3550SOL    HW111549   5.680   3.351   3.419
 3550SOL    HW211550   5.704   3.268   3.557
 3551SOL     OW11551   3.206   1.867   2.452
 3551SOL    HW111552   3.305   1.863   2.467
 3551SOL    HW211553   3.172   1.956   2.483
 3552SOL     OW11554   6.333   6.378   1.722
 3552SOL    HW111555   6.273   6.404   1.647
 3552SOL    HW211556   6.336   6.452   1.790
 3553SOL     OW11557   4.621   5.561   0.988
 3553SOL    HW111558   4.657   5.543   0.897
 3553SOL    HW211559   4.543   5.623   0.981
 3554SOL     OW11560   4.505   2.041   1.340
 3554SOL    HW111561   4.555   1.957   1.317
 3554SOL    HW211562   4.498   2.049   1.439
 3555SOL     OW11563   0.284   4.550   3.879
 3555SOL    HW111564   0.235   4.619   3.827
 3555SOL    HW211565   0.243   4.539   3.969
 3556SOL     OW11566   4.058   1.398   4.308
 3556SOL    HW111567   4.066   1.406   4.208
 3556SOL    HW211568   4.148   1.410   4.349
 3557SOL     OW11569   1.105   1.525   4.337
 3557SOL    HW111570   1.197   1.534   4.375
 3557SOL    HW211571   1.091   1.430   4.308
 3558SOL     OW11572   1.017   6.159   2.389
 3558SOL    HW111573   1.009   6.256   2.364
 3558SOL    HW211574   0.991   6.102   2.311
 3559SOL     OW11575   0.491   6.079   5.626
 3559SOL    HW111576   0.503   6.086   5.725
 3559SOL    HW211577   0.577   6.105   5.581
 3560SOL     OW11578   1.229   5.734   2.621
 3560SOL    HW111579   1.281   5.799   2.565
 3560SOL    HW211580   1.262   5.738   2.715
 3561SOL     OW11581   4.326   4.792   4.813
 3561SOL    HW111582   4.287   4.880   4.840
 3561SOL    HW211583   4.301   4.723   4.881
 3562SOL     OW11584   4.411   1.359   3.388
 3562SOL    HW111585   4.348   1.318   3.323
 3562SOL    HW211586   4.405   1.458   3.384
 3563SOL     OW11587   5.641   1.499   0.204
 3563SOL    HW111588   5.576   1.425   0.222
 3563SOL    HW211589   5.732   1.472   0.237
 3564SOL     OW11590   1.589   4.707   3.577
 3564SOL    HW111591   1.687   4.708   3.556
 3564SOL    HW211592   1.575   4.684   3.673
 3565SOL     OW11593   2.650   5.566   4.902
 3565SOL    HW111594   2.727   5.628   4.885
 3565SOL    HW211595   2.656   5.487   4.840
 3566SOL     OW11596   0.190   3.661   5.712
 3566SOL    HW111597   0.193   3.701   5.804
 3566SOL    HW211598   0.117   3.704   5.659
 3567SOL     OW11599   0.075   3.067   6.713
 3567SOL    HW111600   0.053   2.979   6.672
 3567SOL    HW211601   0.106   3.054   6.807
 3568SOL     OW11602   4.924   4.978   4.294
 3568SOL    HW111603   4.943   4.958   4.198
 3568SOL    HW211604   4.851   4.919   4.327
 3569SOL     OW11605   1.772   1.749   5.717
 3569SOL    HW111606   1.714   1.710   5.645
 3569SOL    HW211607   1.867   1.723   5.701
 3570SOL     OW11608   5.421   0.553   5.626
 3570SOL    HW111609   5.430   0.626   5.558
 3570SOL    HW211610   5.390   0.591   5.713
 3571SOL     OW11611   0.982   5.540   5.010
 3571SOL    HW111612   0.928   5.488   5.077
 3571SOL    HW211613   1.073   5.498   5.001
 3572SOL     OW11614   5.881   3.508   3.256
 3572SOL    HW111615   5.955   3.553   3.207
 3572SOL    HW211616   5.796   3.560   3.244
 3573SOL     OW11617   0.235   5.177   3.718
 3573SOL    HW111618   0.181   5.117   3.778
 3573SOL    HW211619   0.201   5.271   3.727
 3574SOL     OW11620   0.655   3.449   0.609
 3574SOL    HW111621   0.558   3.454   0.587
 3574SOL    HW211622   0.672   3.368   0.665
 3575SOL     OW11623   5.502   5.622   2.337
 3575SOL    HW111624   5.540   5.609   2.246
 3575SOL    HW211625   5.575   5.645   2.401
 3576SOL     OW11626   0.727   2.521   6.340
 3576SOL    HW111627   0.814   2.566   6.360
 3576SOL    HW211628   0.678   2.572   6.270
 3577SOL     OW11629   1.379   1.800   6.563
 3577SOL    HW111630   1.393   1.708   6.598
 3577SOL    HW211631   1.403   1.866   6.634
 3578SOL     OW11632   3.844   1.929   0.209
 3578SOL    HW111633   3.796   2.009   0.175
 3578SOL    HW211634   3.780   1.869   0.256
 3579SOL     OW11635   0.357   2.152   3.503
 3579SOL    HW111636   0.433   2.215   3.520
 3579SOL    HW211637   0.277   2.203   3.472
 3580SOL     OW11638   6.326   3.575   1.539
 3580SOL    HW111639   6.277   3.651   1.496
 3580SOL    HW211640   6.269   3.537   1.613
 3581SOL     OW11641   1.340   5.488   3.448
 3581SOL    HW111642   1.273   5.560   3.467
 3581SOL    HW211643   1.305   5.400   3.479
 3582SOL     OW11644   1.298   3.505   6.630
 3582SOL    HW111645   1.214   3.531   6.582
 3582SOL    HW211646   1.358   3.456   6.567
 3583SOL     OW11647   1.115   4.560   6.405
 3583SOL    HW111648   1.087   4.648   6.444
 3583SOL    HW211649   1.036   4.516   6.363
 3584SOL     OW11650   5.393   4.903   6.220
 3584SOL    HW111651   5.489   4.877   6.210
 3584SOL    HW211652   5.359   4.868   6.308
 3585SOL     OW11653   3.151   1.001   4.462
 3585SOL    HW111654   3.054   1.020   4.444
 3585SOL    HW211655   3.201   1.001   4.375
 3586SOL     OW11656   6.361   1.329   4.498
 3586SOL    HW111657   6.273   1.283   4.508
 3586SOL    HW211658   6.346   1.424   4.469
 3587SOL     OW11659   2.195   4.917   5.602
 3587SOL    HW111660   2.276   4.892   5.548
 3587SOL    HW211661   2.113   4.882   5.558
 3588SOL     OW11662   0.869   3.126   5.139
 3588SOL    HW111663   0.963   3.143   5.171
 3588SOL    HW211664   0.821   3.070   5.206
 3589SOL     OW11665   5.432   0.746   5.417
 3589SOL    HW111666   5.450   0.841   5.442
 3589SOL    HW211667   5.352   0.742   5.357
 3590SOL     OW11668   0.674   3.709   0.653
 3590SOL    HW111669   0.642   3.752   0.568
 3590SOL    HW211670   0.671   3.609   0.642
 3591SOL     OW11671   5.502   4.319   6.813
 3591SOL    HW111672   5.526   4.268   6.730
 3591SOL    HW211673   5.403   4.330   6.817
 3592SOL     OW11674   0.642   5.226   1.991
 3592SOL    HW111675   0.732   5.192   2.018
 3592SOL    HW211676   0.631   5.217   1.892
 3593SOL     OW11677   0.834   5.425   5.212
 3593SOL    HW111678   0.851   5.471   5.299
 3593SOL    HW211679   0.841   5.326   5.225
 3594SOL     OW11680   4.878   6.671   3.230
 3594SOL    HW111681   4.840   6.730   3.158
 3594SOL    HW211682   4.967   6.706   3.259
 3595SOL     OW11683   4.376   6.291   6.338
 3595SOL    HW111684   4.453   6.258   6.284
 3595SOL    HW211685   4.304   6.221   6.340
 3596SOL     OW11686   6.396   2.963   2.491
 3596SOL    HW111687   6.313   2.980   2.438
 3596SOL    HW211688   6.383   2.885   2.551
 3597SOL     OW11689   1.799   2.255   5.508
 3597SOL    HW111690   1.870   2.300   5.454
 3597SOL    HW211691   1.791   2.159   5.480
 3598SOL     OW11692   1.031   5.833   6.480
 3598SOL    HW111693   0.971   5.910   6.459
 3598SOL    HW211694   1.125   5.866   6.487
 3599SOL     OW11695   5.753   2.387   6.623
 3599SOL    HW111696   5.783   2.314   6.684
 3599SOL    HW211697   5.654   2.399   6.630
 3600SOL     OW11698   0.536   3.249   1.529
 3600SOL    HW111699   0.489   3.268   1.443
 3600SOL    HW211700   0.607   3.318   1.543
 3601SOL     OW11701   5.248   3.313   6.166
 3601SOL    HW111702   5.206   3.247   6.229
 3601SOL    HW211703   5.196   3.398   6.166
 3602SOL     OW11704   1.140   3.737   0.667
 3602SOL    HW111705   1.059   3.776   0.710
 3602SOL    HW211706   1.119   3.709   0.573
 3603SOL     OW11707   3.545   1.375   4.033
 3603SOL    HW111708   3.529   1.412   3.942
 3603SOL    HW211709   3.494   1.430   4.100
 3604SOL     OW11710   6.441   6.107   3.261
 3604SOL    HW111711   6.437   6.079   3.165
 3604SOL    HW211712   6.526   6.157   3.277
 3605SOL     OW11713   6.491   4.051   4.365
 3605SOL    HW111714   6.482   4.059   4.465
 3605SOL    HW211715   6.486   3.954   4.340
 3606SOL     OW11716   0.586   0.477   4.420
 3606SOL    HW111717   0.628   0.387   4.410
 3606SOL    HW211718   0.638   0.530   4.487
 3607SOL     OW11719   5.381   5.327   1.890
 3607SOL    HW111720   5.461   5.348   1.833
 3607SOL    HW211721   5.411   5.279   1.972
 3608SOL     OW11722   4.711   1.972   4.448
 3608SOL    HW111723   4.733   1.959   4.545
 3608SOL    HW211724   4.738   2.064   4.420
 3609SOL     OW11725   1.028   0.455   4.169
 3609SOL    HW111726   1.014   0.515   4.248
 3609SOL    HW211727   1.043   0.511   4.087
 3610SOL     OW11728   1.622   6.923   5.943
 3610SOL    HW111729   1.714   6.962   5.948
 3610SOL    HW211730   1.585   6.937   5.850
 3611SOL     OW11731   4.588   4.867   4.931
 3611SOL    HW111732   4.494   4.838   4.914
 3611SOL    HW211733   4.649   4.826   4.863
 3612SOL     OW11734   0.278   0.149   0.205
 3612SOL    HW111735   0.299   0.065   0.255
 3612SOL    HW211736   0.245   0.125   0.114
 3613SOL     OW11737   4.884   4.604   2.071
 3613SOL    HW111738   4.792   4.581   2.040
 3613SOL    HW211739   4.904   4.555   2.156
 3614SOL     OW11740   3.823   3.389   0.714
 3614SOL    HW111741   3.894   3.460   0.712
 3614SOL    HW211742   3.819   3.349   0.806
 3615SOL     OW11743   5.000   3.889   6.137
 3615SOL    HW111744   5.093   3.888   6.100
 3615SOL    HW211745   4.989   3.812   6.199
 3616SOL     OW11746   0.384   1.883   6.732
 3616SOL    HW111747   0.383   1.805   6.669
 3616SOL    HW211748   0.298   1.885   6.784
 3617SOL     OW11749   4.499   0.913   6.909
 3617SOL    HW111750   4.415   0.918   6.962
 3617SOL    HW211751   4.517   0.818   6.882
 3618SOL     OW11752   2.436   2.899   5.693
 3618SOL    HW111753   2.397   2.952   5.619
 3618SOL    HW211754   2.517   2.945   5.730
 3619SOL     OW11755   5.858   2.621   4.715
 3619SOL    HW111756   5.932   2.606   4.781
 3619SOL    HW211757   5.844   2.537   4.662
 3620SOL     OW11758   6.381   6.063   5.649
 3620SOL    HW111759   6.325   6.069   5.567
 3620SOL    HW211760   6.350   5.986   5.705
 3621SOL     OW11761   3.390   2.905   5.160
 3621SOL    HW111762   3.311   2.965   5.168
 3621SOL    HW211763   3.445   2.910   5.243
 3622SOL     OW11764   0.852   1.810   6.600
 3622SOL    HW111765   0.888   1.892   6.556
 3622SOL    HW211766   0.787   1.837   6.672
 3623SOL     OW11767   6.735   6.496   4.884
 3623SOL    HW111768   6.694   6.457   4.801
 3623SOL    HW211769   6.834   6.504   4.871
 3624SOL     OW11770   1.527   6.920   2.149
 3624SOL    HW111771   1.496   7.008   2.113
 3624SOL    HW211772   1.447   6.861   2.163
 3625SOL     OW11773   0.347   3.212   6.658
 3625SOL    HW111774   0.296   3.133   6.694
 3625SOL    HW211775   0.294   3.295   6.675
 3626SOL     OW11776   1.642   2.760   5.482
 3626SOL    HW111777   1.645   2.860   5.472
 3626SOL    HW211778   1.598   2.720   5.402
 3627SOL     OW11779   3.894   3.632   1.610
 3627SOL    HW111780   3.986   3.610   1.643
 3627SOL    HW211781   3.831   3.630   1.687
 3628SOL     OW11782   1.267   1.209   2.440
 3628SOL    HW111783   1.229   1.121   2.411
 3628SOL    HW211784   1.366   1.202   2.446
 3629SOL     OW11785   0.348   1.176   5.539
 3629SOL    HW111786   0.319   1.080   5.542
 3629SOL    HW211787   0.276   1.231   5.496
 3630SOL     OW11788   4.997   2.149   4.120
 3630SOL    HW111789   5.068   2.079   4.123
 3630SOL    HW211790   5.040   2.239   4.112
 3631SOL     OW11791   2.181   0.785   3.160
 3631SOL    HW111792   2.274   0.777   3.197
 3631SOL    HW211793   2.132   0.855   3.212
 3632SOL     OW11794   5.386   5.503   1.032
 3632SOL    HW111795   5.413   5.469   1.122
 3632SOL    HW211796   5.423   5.443   0.962
 3633SOL     OW11797   4.089   2.009   5.582
 3633SOL    HW111798   4.157   2.080   5.598
 3633SOL    HW211799   4.133   1.927   5.546
 3634SOL     OW11800   1.739   5.394   5.795
 3634SOL    HW111801   1.802   5.427   5.724
 3634SOL    HW211802   1.750   5.295   5.806
 3635SOL     OW11803   3.422   6.932   1.019
 3635SOL    HW111804   3.448   6.904   1.111
 3635SOL    HW211805   3.494   6.990   0.981
 3636SOL     OW11806   6.849   5.896   0.915
 3636SOL    HW111807   6.862   5.823   0.981
 3636SOL    HW211808   6.916   5.886   0.841
 3637SOL     OW11809   0.536   2.567   2.146
 3637SOL    HW111810   0.446   2.536   2.117
 3637SOL    HW211811   0.563   2.518   2.229
 3638SOL     OW11812   0.675   4.049   3.304
 3638SOL    HW111813   0.582   4.083   3.318
 3638SOL    HW211814   0.681   3.954   3.334
 3639SOL     OW11815   4.231   5.641   0.406
 3639SOL    HW111816   4.140   5.637   0.364
 3639SOL    HW211817   4.255   5.737   0.424
 3640SOL     OW11818   4.250   1.172   0.006
 3640SOL    HW111819   4.256   1.226   6.939
 3640SOL    HW211820   4.200   1.224   0.075
 3641SOL     OW11821   5.973   3.503   2.027
 3641SOL    HW111822   5.940   3.521   1.934
 3641SOL    HW211823   5.927   3.423   2.064
 3642SOL     OW11824   5.428   2.350   6.859
 3642SOL    HW111825   5.361   2.414   6.820
 3642SOL    HW211826   5.399   2.324   6.951
 3643SOL     OW11827   2.362   5.604   4.824
 3643SOL    HW111828   2.340   5.521   4.773
 3643SOL    HW211829   2.461   5.611   4.835
 3644SOL     OW11830   1.737   1.647   2.077
 3644SOL    HW111831   1.750   1.557   2.037
 3644SOL    HW211832   1.794   1.714   2.028
 3645SOL     OW11833   1.422   2.162   3.952
 3645SOL    HW111834   1.465   2.252   3.942
 3645SOL    HW211835   1.348   2.167   4.019
 3646SOL     OW11836   1.673   4.238   6.092
 3646SOL    HW111837   1.742   4.178   6.051
 3646SOL    HW211838   1.720   4.312   6.141
 3647SOL     OW11839   2.499   6.417   6.706
 3647SOL    HW111840   2.570   6.388   6.642
 3647SOL    HW211841   2.489   6.349   6.779
 3648SOL     OW11842   4.472   6.065   2.497
 3648SOL    HW111843   4.520   6.090   2.581
 3648SOL    HW211844   4.470   6.143   2.435
 3649SOL     OW11845   6.018   3.015   1.298
 3649SOL    HW111846   6.005   2.945   1.227
 3649SOL    HW211847   6.000   2.975   1.388
 3650SOL     OW11848   6.651   5.279   2.002
 3650SOL    HW111849   6.683   5.265   2.095
 3650SOL    HW211850   6.565   5.330   2.004
 3651SOL     OW11851   0.861   0.764   4.132
 3651SOL    HW111852   0.922   0.713   4.072
 3651SOL    HW211853   0.908   0.846   4.165
 3652SOL     OW11854   6.286   0.028   3.411
 3652SOL    HW111855   6.225   6.983   3.460
 3652SOL    HW211856   6.377   0.026   3.453
 3653SOL     OW11857   1.096   1.415   3.038
 3653SOL    HW111858   1.141   1.503   3.019
 3653SOL    HW211859   1.080   1.368   2.951
 3654SOL     OW11860   4.042   4.977   0.355
 3654SOL    HW111861   3.943   4.967   0.366
 3654SOL    HW211862   4.068   4.942   0.265
 3655SOL     OW11863   3.409   0.301   3.774
 3655SOL    HW111864   3.381   0.206   3.759
 3655SOL    HW211865   3.481   0.303   3.844
 3656SOL     OW11866   0.532   5.121   1.445
 3656SOL    HW111867   0.601   5.096   1.377
 3656SOL    HW211868   0.472   5.191   1.407
 3657SOL     OW11869   5.307   5.508   5.456
 3657SOL    HW111870   5.252   5.542   5.381
 3657SOL    HW211871   5.249   5.495   5.537
 3658SOL     OW11872   2.776   4.780   6.502
 3658SOL    HW111873   2.757   4.871   6.464
 3658SOL    HW211874   2.708   4.758   6.571
 3659SOL     OW11875   2.012   2.439   6.049
 3659SOL    HW111876   1.936   2.469   5.992
 3659SOL    HW211877   2.098   2.475   6.013
 3660SOL     OW11878   5.638   6.136   3.905
 3660SOL    HW111879   5.595   6.107   3.819
 3660SOL    HW211880   5.721   6.082   3.920
 3661SOL     OW11881   7.010   0.593   4.884
 3661SOL    HW111882   0.085   0.557   4.882
 3661SOL    HW211883   7.001   0.656   4.962
 3662SOL     OW11884   4.236   0.434   4.537
 3662SOL    HW111885   4.236   0.522   4.584
 3662SOL    HW211886   4.316   0.381   4.565
 3663SOL     OW11887   1.466   2.966   0.634
 3663SOL    HW111888   1.400   2.893   0.649
 3663SOL    HW211889   1.478   3.018   0.719
 3664SOL     OW11890   4.708   2.121   1.889
 3664SOL    HW111891   4.660   2.055   1.946
 3664SOL    HW211892   4.709   2.210   1.935
 3665SOL     OW11893   1.022   6.253   4.942
 3665SOL    HW111894   0.993   6.240   5.037
 3665SOL    HW211895   0.943   6.279   4.887
 3666SOL     OW11896   1.278   4.021   2.973
 3666SOL    HW111897   1.325   4.055   3.055
 3666SOL    HW211898   1.192   3.977   2.999
 3667SOL     OW11899   0.434   1.472   3.578
 3667SOL    HW111900   0.435   1.497   3.481
 3667SOL    HW211901   0.424   1.554   3.634
 3668SOL     OW11902   1.020   1.122   1.454
 3668SOL    HW111903   1.055   1.159   1.540
 3668SOL    HW211904   1.048   1.026   1.445
 3669SOL     OW11905   5.551   1.932   3.376
 3669SOL    HW111906   5.620   1.951   3.306
 3669SOL    HW211907   5.593   1.884   3.453
 3670SOL     OW11908   2.246   5.239   6.492
 3670SOL    HW111909   2.345   5.238   6.481
 3670SOL    HW211910   2.213   5.333   6.483
 3671SOL     OW11911   0.081   1.897   4.307
 3671SOL    HW111912   0.036   1.818   4.348
 3671SOL    HW211913   0.135   1.867   4.229
 3672SOL     OW11914   4.484   2.084   2.273
 3672SOL    HW111915   4.461   2.038   2.187
 3672SOL    HW211916   4.433   2.042   2.348
 3673SOL     OW11917   3.580   6.034   6.963
 3673SOL    HW111918   3.585   6.109   0.011
 3673SOL    HW211919   3.523   5.960   7.000
 3674SOL     OW11920   1.782   5.797   5.908
 3674SOL    HW111921   1.756   5.860   5.834
 3674SOL    HW211922   1.870   5.826   5.946
 3675SOL     OW11923   1.937   2.465   4.284
 3675SOL    HW111924   1.914   2.485   4.188
 3675SOL    HW211925   1.900   2.537   4.342
 3676SOL     OW11926   6.348   4.426   2.541
 3676SOL    HW111927   6.363   4.462   2.449
 3676SOL    HW211928   6.370   4.328   2.542
 3677SOL     OW11929   2.936   6.399   4.469
 3677SOL    HW111930   2.859   6.381   4.408
 3677SOL    HW211931   2.927   6.341   4.550
 3678SOL     OW11932   1.491   1.607   4.594
 3678SOL    HW111933   1.591   1.597   4.601
 3678SOL    HW211934   1.465   1.602   4.498
 3679SOL     OW11935   6.848   0.595   3.175
 3679SOL    HW111936   6.926   0.650   3.206
 3679SOL    HW211937   6.783   0.654   3.128
 3680SOL     OW11938   5.280   2.354   3.948
 3680SOL    HW111939   5.225   2.376   4.028
 3680SOL    HW211940   5.242   2.274   3.902
 3681SOL     OW11941   0.806   1.156   6.743
 3681SOL    HW111942   0.833   1.130   6.836
 3681SOL    HW211943   0.871   1.224   6.707
 3682SOL     OW11944   5.660   2.575   0.341
 3682SOL    HW111945   5.740   2.519   0.317
 3682SOL    HW211946   5.677   2.670   0.313
 3683SOL     OW11947   0.452   1.584   4.364
 3683SOL    HW111948   0.392   1.660   4.340
 3683SOL    HW211949   0.547   1.609   4.344
 3684SOL     OW11950   0.983   5.781   0.501
 3684SOL    HW111951   0.952   5.794   0.407
 3684SOL    HW211952   1.070   5.733   0.502
 3685SOL     OW11953   2.018   5.927   6.028
 3685SOL    HW111954   2.063   5.852   6.076
 3685SOL    HW211955   2.078   5.963   5.957
 3686SOL     OW11956   6.124   4.957   4.502
 3686SOL    HW111957   6.068   4.938   4.583
 3686SOL    HW211958   6.103   4.891   4.430
 3687SOL     OW11959   3.830   6.111   4.382
 3687SOL    HW111960   3.911   6.115   4.441
 3687SOL    HW211961   3.858   6.110   4.286
 3688SOL     OW11962   6.724   2.786   6.974
 3688SOL    HW111963   6.792   2.722   6.938
 3688SOL    HW211964   6.729   2.787   0.056
 3689SOL     OW11965   2.124   0.567   5.717
 3689SOL    HW111966   2.111   0.473   5.687
 3689SOL    HW211967   2.043   0.621   5.696
 3690SOL     OW11968   3.895   5.886   0.211
 3690SOL    HW111969   3.832   5.813   0.187
 3690SOL    HW211970   3.883   5.910   0.308
 3691SOL     OW11971   2.352   1.813   0.116
 3691SOL    HW111972   2.334   1.785   0.210
 3691SOL    HW211973   2.388   1.735   0.065
 3692SOL     OW11974   6.267   5.393   5.474
 3692SOL    HW111975   6.304   5.404   5.382
 3692SOL    HW211976   6.206   5.314   5.476
 3693SOL     OW11977   2.282   2.860   3.072
 3693SOL    HW111978   2.292   2.879   3.169
 3693SOL    HW211979   2.239   2.938   3.027
 3694SOL     OW11980   0.903   6.625   2.152
 3694SOL    HW111981   0.933   6.555   2.217
 3694SOL    HW211982   0.921   6.593   2.059
 3695SOL     OW11983   5.367   2.699   1.028
 3695SOL    HW111984   5.300   2.636   1.066
 3695SOL    HW211985   5.441   2.713   1.094
 3696SOL     OW11986   3.981   0.345   4.193
 3696SOL    HW111987   3.895   0.395   4.208
 3696SOL    HW211988   3.977   0.257   4.239
 3697SOL     OW11989   0.172   5.986   2.913
 3697SOL    HW111990   0.082   6.017   2.881
 3697SOL    HW211991   0.220   6.063   2.955
 3698SOL     OW11992   2.658   0.958   3.353
 3698SOL    HW111993   2.736   0.903   3.384
 3698SOL    HW211994   2.680   1.001   3.266
 3699SOL     OW11995   1.725   1.280   3.668
 3699SOL    HW111996   1.763   1.279   3.575
 3699SOL    HW211997   1.717   1.186   3.701
 3700SOL     OW11998   1.615   4.895   5.080
 3700SOL    HW111999   1.706   4.872   5.045
 3700SOL    HW212000   1.546   4.856   5.019
 3701SOL     OW12001   1.580   0.162   3.742
 3701SOL    HW112002   1.617   0.252   3.715
 3701SOL    HW212003   1.640   0.090   3.706
 3702SOL     OW12004   5.670   6.500   3.657
 3702SOL    HW112005   5.648   6.410   3.620
 3702SOL    HW212006   5.613   6.517   3.738
 3703SOL     OW12007   0.154   0.798   6.503
 3703SOL    HW112008   0.063   0.773   6.472
 3703SOL    HW212009   0.211   0.717   6.510
 3704SOL     OW12010   3.887   2.008   1.422
 3704SOL    HW112011   3.931   2.097   1.406
 3704SOL    HW212012   3.891   1.986   1.519
 3705SOL     OW12013   5.398   4.152   4.764
 3705SOL    HW112014   5.473   4.114   4.709
 3705SOL    HW212015   5.355   4.079   4.817
 3706SOL     OW12016   0.576   3.726   6.770
 3706SOL    HW112017   0.592   3.651   6.834
 3706SOL    HW212018   0.622   3.808   6.802
 3707SOL     OW12019   5.094   5.468   4.879
 3707SOL    HW112020   5.130   5.394   4.822
 3707SOL    HW212021   5.147   5.551   4.863
 3708SOL     OW12022   5.449   6.729   1.033
 3708SOL    HW112023   5.450   6.629   1.040
 3708SOL    HW212024   5.387   6.756   0.959
 3709SOL     OW12025   3.661   6.766   1.498
 3709SOL    HW112026   3.666   6.850   1.552
 3709SOL    HW212027   3.754   6.730   1.484
 3710SOL     OW12028   6.353   5.407   5.214
 3710SOL    HW112029   6.395   5.362   5.135
 3710SOL    HW212030   6.379   5.504   5.215
 3711SOL     OW12031   1.707   5.559   5.302
 3711SOL    HW112032   1.627   5.534   5.247
 3711SOL    HW212033   1.695   5.650   5.341
 3712SOL     OW12034   1.146   5.146   6.411
 3712SOL    HW112035   1.107   5.228   6.370
 3712SOL    HW212036   1.097   5.065   6.378
 3713SOL     OW12037   0.362   0.153   5.137
 3713SOL    HW112038   0.437   0.214   5.159
 3713SOL    HW212039   0.396   0.059   5.131
 3714SOL     OW12040   5.562   5.986   6.463
 3714SOL    HW112041   5.650   6.034   6.468
 3714SOL    HW212042   5.531   5.984   6.368
 3715SOL     OW12043   1.235   4.019   2.637
 3715SOL    HW112044   1.290   3.964   2.700
 3715SOL    HW212045   1.186   4.089   2.689
 3716SOL     OW12046   6.103   6.541   4.446
 3716SOL    HW112047   6.018   6.494   4.422
 3716SOL    HW212048   6.128   6.519   4.540
 3717SOL     OW12049   5.750   0.184   0.067
 3717SOL    HW112050   5.669   0.205   0.121
 3717SOL    HW212051   5.830   0.229   0.108
 3718SOL     OW12052   6.947   0.387   0.539
 3718SOL    HW112053   0.008   0.376   0.477
 3718SOL    HW212054   6.862   0.370   0.488
 3719SOL     OW12055   4.875   3.017   0.466
 3719SOL    HW112056   4.830   2.938   0.507
 3719SOL    HW212057   4.973   2.998   0.457
 3720SOL     OW12058   5.572   3.044   0.665
 3720SOL    HW112059   5.601   3.001   0.751
 3720SOL    HW212060   5.477   3.021   0.647
 3721SOL     OW12061   6.867   5.423   1.343
 3721SOL    HW112062   6.906   5.332   1.324
 3721SOL    HW212063   6.782   5.433   1.290
 3722SOL     OW12064   5.531   6.206   0.980
 3722SOL    HW112065   5.480   6.199   0.894
 3722SOL    HW212066   5.565   6.116   1.006
 3723SOL     OW12067   5.126   5.045   0.643
 3723SOL    HW112068   5.185   5.103   0.587
 3723SOL    HW212069   5.047   5.099   0.673
 3724SOL     OW12070   1.799   4.311   5.395
 3724SOL    HW112071   1.878   4.278   5.343
 3724SOL    HW212072   1.827   4.389   5.452
 3725SOL     OW12073   0.057   5.441   6.725
 3725SOL    HW112074   0.120   5.397   6.789
 3725SOL    HW212075   0.091   5.532   6.702
 3726SOL     OW12076   5.537   3.254   6.176
 3726SOL    HW112077   5.561   3.249   6.079
 3726SOL    HW212078   5.438   3.243   6.187
 3727SOL     OW12079   6.814   2.312   5.410
 3727SOL    HW112080   6.718   2.311   5.383
 3727SOL    HW212081   6.872   2.306   5.329
 3728SOL     OW12082   1.162   2.989   6.821
 3728SOL    HW112083   1.184   3.082   6.791
 3728SOL    HW212084   1.080   2.957   6.773
 3729SOL     OW12085   1.805   1.316   4.368
 3729SOL    HW112086   1.739   1.280   4.434
 3729SOL    HW212087   1.762   1.388   4.314
 3730SOL     OW12088   3.221   5.640   5.358
 3730SOL    HW112089   3.298   5.665   5.299
 3730SOL    HW212090   3.233   5.546   5.389
 3731SOL     OW12091   0.046   1.627   0.482
 3731SOL    HW112092   0.005   1.536   0.487
 3731SOL    HW212093   0.145   1.618   0.467
 3732SOL     OW12094   2.367   2.004   0.369
 3732SOL    HW112095   2.400   2.060   0.445
 3732SOL    HW212096   2.444   1.959   0.324
 3733SOL     OW12097   1.850   2.865   3.116
 3733SOL    HW112098   1.902   2.864   3.030
 3733SOL    HW212099   1.756   2.893   3.097
 3734SOL     OW12100   5.123   0.144   0.846
 3734SOL    HW112101   5.184   0.103   0.778
 3734SOL    HW212102   5.160   0.233   0.874
 3735SOL     OW12103   3.130   0.556   2.726
 3735SOL    HW112104   3.082   0.564   2.814
 3735SOL    HW212105   3.141   0.647   2.686
 3736SOL     OW12106   0.445   1.430   1.228
 3736SOL    HW112107   0.356   1.474   1.230
 3736SOL    HW212108   0.450   1.367   1.150
 3737SOL     OW12109   5.652   1.434   3.847
 3737SOL    HW112110   5.751   1.447   3.848
 3737SOL    HW212111   5.632   1.336   3.837
 3738SOL     OW12112   6.377   0.548   1.450
 3738SOL    HW112113   6.319   0.624   1.423
 3738SOL    HW212114   6.323   0.480   1.500
 3739SOL     OW12115   2.374   4.890   1.096
 3739SOL    HW112116   2.331   4.810   1.055
 3739SOL    HW212117   2.374   4.880   1.196
 3740SOL     OW12118   6.601   0.173   0.601
 3740SOL    HW112119   6.554   0.146   0.685
 3740SOL    HW212120   6.667   0.102   0.575
 3741SOL     OW12121   4.918   2.643   6.287
 3741SOL    HW112122   4.849   2.715   6.296
 3741SOL    HW212123   4.906   2.577   6.361
 3742SOL     OW12124   3.767   1.390   0.009
 3742SOL    HW112125   3.748   1.387   6.928
 3742SOL    HW212126   3.759   1.297   0.046
 3743SOL     OW12127   5.763   3.259   0.738
 3743SOL    HW112128   5.736   3.169   0.703
 3743SOL    HW212129   5.853   3.283   0.701
 3744SOL     OW12130   1.055   6.220   1.564
 3744SOL    HW112131   0.956   6.221   1.572
 3744SOL    HW212132   1.093   6.305   1.601
 3745SOL     OW12133   4.481   4.485   2.950
 3745SOL    HW112134   4.479   4.506   2.852
 3745SOL    HW212135   4.497   4.387   2.963
 3746SOL     OW12136   0.046   6.907   3.638
 3746SOL    HW112137   0.056   6.860   3.551
 3746SOL    HW212138   0.136   6.931   3.674
 3747SOL     OW12139   3.978   5.818   5.303
 3747SOL    HW112140   3.879   5.804   5.305
 3747SOL    HW212141   4.025   5.730   5.302
 3748SOL     OW12142   5.479   1.166   1.726
 3748SOL    HW112143   5.509   1.166   1.631
 3748SOL    HW212144   5.542   1.110   1.781
 3749SOL     OW12145   2.901   4.871   3.099
 3749SOL    HW112146   2.888   4.846   3.195
 3749SOL    HW212147   2.824   4.928   3.069
 3750SOL     OW12148   6.419   4.715   0.957
 3750SOL    HW112149   6.518   4.721   0.967
 3750SOL    HW212150   6.378   4.686   1.043
 3751SOL     OW12151   6.389   3.435   0.978
 3751SOL    HW112152   6.355   3.341   0.978
 3751SOL    HW212153   6.353   3.483   1.058
 3752SOL     OW12154   0.275   6.827   0.128
 3752SOL    HW112155   0.339   6.858   0.198
 3752SOL    HW212156   0.282   6.887   0.048
 3753SOL     OW12157   0.470   1.285   3.762
 3753SOL    HW112158   0.474   1.321   3.668
 3753SOL    HW212159   0.377   1.258   3.783
 3754SOL     OW12160   4.055   6.672   1.055
 3754SOL    HW112161   4.019   6.744   1.115
 3754SOL    HW212162   4.012   6.679   0.965
 3755SOL     OW12163   5.552   5.574   4.330
 3755SOL    HW112164   5.548   5.540   4.424
 3755SOL    HW212165   5.515   5.505   4.268
 3756SOL     OW12166   2.177   6.239   5.994
 3756SOL    HW112167   2.226   6.231   6.080
 3756SOL    HW212168   2.210   6.170   5.930
 3757SOL     OW12169   3.692   6.685   6.658
 3757SOL    HW112170   3.745   6.663   6.740
 3757SOL    HW212171   3.666   6.600   6.612
 3758SOL     OW12172   2.124   1.613   4.935
 3758SOL    HW112173   2.054   1.677   4.903
 3758SOL    HW212174   2.211   1.632   4.889
 3759SOL     OW12175   4.281   5.792   6.267
 3759SOL    HW112176   4.361   5.732   6.274
 3759SOL    HW212177   4.245   5.811   6.358
 3760SOL     OW12178   1.842   1.990   4.567
 3760SOL    HW112179   1.869   2.079   4.530
 3760SOL    HW212180   1.799   2.002   4.656
 3761SOL     OW12181   0.795   0.822   5.399
 3761SOL    HW112182   0.778   0.865   5.488
 3761SOL    HW212183   0.767   0.726   5.403
 3762SOL     OW12184   1.283   4.579   7.015
 3762SOL    HW112185   1.330   4.667   0.000
 3762SOL    HW212186   1.337   4.514   6.962
 3763SOL     OW12187   6.834   4.564   0.472
 3763SOL    HW112188   6.934   4.565   0.477
 3763SOL    HW212189   6.797   4.614   0.550
 3764SOL     OW12190   1.641   6.736   4.261
 3764SOL    HW112191   1.696   6.788   4.195
 3764SOL    HW212192   1.640   6.785   4.348
 3765SOL     OW12193   5.105   1.015   0.898
 3765SOL    HW112194   5.015   0.975   0.878
 3765SOL    HW212195   5.102   1.057   0.989
 3766SOL     OW12196   1.134   1.436   3.604
 3766SOL    HW112197   1.152   1.347   3.562
 3766SOL    HW212198   1.053   1.430   3.662
 3767SOL     OW12199   2.405   4.646   0.603
 3767SOL    HW112200   2.500   4.657   0.574
 3767SOL    HW212201   2.345   4.701   0.545
 3768SOL     OW12202   2.068   5.673   4.806
 3768SOL    HW112203   2.167   5.674   4.815
 3768SOL    HW212204   2.040   5.732   4.730
 3769SOL     OW12205   5.569   6.271   5.517
 3769SOL    HW112206   5.560   6.270   5.418
 3769SOL    HW212207   5.620   6.191   5.547
 3770SOL     OW12208   1.867   0.362   6.373
 3770SOL    HW112209   1.793   0.316   6.421
 3770SOL    HW212210   1.954   0.344   6.419
 3771SOL     OW12211   5.840   3.037   0.040
 3771SOL    HW112212   5.755   3.085   0.063
 3771SOL    HW212213   5.914   3.103   0.030
 3772SOL     OW12214   6.650   0.911   0.434
 3772SOL    HW112215   6.625   0.922   0.338
 3772SOL    HW212216   6.636   0.816   0.462
 3773SOL     OW12217   6.463   2.777   6.124
 3773SOL    HW112218   6.535   2.845   6.138
 3773SOL    HW212219   6.455   2.757   6.026
 3774SOL     OW12220   0.236   5.664   0.086
 3774SOL    HW112221   0.246   5.735   0.156
 3774SOL    HW212222   0.148   5.675   0.041
 3775SOL     OW12223   5.147   5.116   2.223
 3775SOL    HW112224   5.218   5.107   2.153
 3775SOL    HW212225   5.128   5.214   2.238
 3776SOL     OW12226   4.043   1.366   0.890
 3776SOL    HW112227   4.059   1.278   0.845
 3776SOL    HW212228   4.017   1.434   0.822
 3777SOL     OW12229   3.404   4.928   4.550
 3777SOL    HW112230   3.461   4.931   4.467
 3777SOL    HW212231   3.315   4.890   4.528
 3778SOL     OW12232   3.238   4.888   2.488
 3778SOL    HW112233   3.239   4.910   2.585
 3778SOL    HW212234   3.144   4.895   2.453
 3779SOL     OW12235   1.992   5.162   0.736
 3779SOL    HW112236   2.037   5.187   0.821
 3779SOL    HW212237   1.896   5.141   0.754
 3780SOL     OW12238   5.336   5.989   5.920
 3780SOL    HW112239   5.267   5.935   5.967
 3780SOL    HW212240   5.328   5.975   5.821
 3781SOL     OW12241   1.361   6.863   4.352
 3781SOL    HW112242   1.381   6.961   4.356
 3781SOL    HW212243   1.405   6.824   4.271
 3782SOL     OW12244   2.714   0.907   4.217
 3782SOL    HW112245   2.706   0.973   4.143
 3782SOL    HW212246   2.629   0.855   4.224
 3783SOL     OW12247   5.528   5.335   4.133
 3783SOL    HW112248   5.577   5.310   4.050
 3783SOL    HW212249   5.438   5.371   4.109
 3784SOL     OW12250   4.764   2.585   2.873
 3784SOL    HW112251   4.666   2.599   2.858
 3784SOL    HW212252   4.790   2.494   2.840
 3785SOL     OW12253   1.177   1.425   6.866
 3785SOL    HW112254   1.180   1.524   6.881
 3785SOL    HW212255   1.104   1.385   6.923
 3786SOL     OW12256   2.167   6.637   2.789
 3786SOL    HW112257   2.142   6.723   2.834
 3786SOL    HW212258   2.117   6.627   2.703
 3787SOL     OW12259   6.513   0.490   2.277
 3787SOL    HW112260   6.532   0.392   2.269
 3787SOL    HW212261   6.504   0.530   2.185
 3788SOL     OW12262   1.058   4.201   4.279
 3788SOL    HW112263   1.130   4.198   4.348
 3788SOL    HW212264   0.974   4.237   4.319
 3789SOL     OW12265   0.345   3.477   5.198
 3789SOL    HW112266   0.290   3.555   5.229
 3789SOL    HW212267   0.419   3.460   5.263
 3790SOL     OW12268   1.673   4.813   5.428
 3790SOL    HW112269   1.660   4.728   5.376
 3790SOL    HW212270   1.584   4.850   5.454
 3791SOL     OW12271   6.045   0.267   0.406
 3791SOL    HW112272   6.074   0.320   0.486
 3791SOL    HW212273   6.125   0.244   0.350
 3792SOL     OW12274   0.881   1.732   4.591
 3792SOL    HW112275   0.823   1.785   4.654
 3792SOL    HW212276   0.946   1.677   4.644
 3793SOL     OW12277   4.298   6.827   2.536
 3793SOL    HW112278   4.336   6.769   2.464
 3793SOL    HW212279   4.277   6.917   2.497
 3794SOL     OW12280   2.482   4.145   1.064
 3794SOL    HW112281   2.388   4.172   1.040
 3794SOL    HW212282   2.546   4.215   1.034
 3795SOL     OW12283   4.198   5.859   6.529
 3795SOL    HW112284   4.107   5.824   6.548
 3795SOL    HW212285   4.218   5.935   6.591
 3796SOL     OW12286   2.749   1.342   1.029
 3796SOL    HW112287   2.776   1.392   0.946
 3796SOL    HW212288   2.659   1.301   1.014
 3797SOL     OW12289   0.290   4.387   2.696
 3797SOL    HW112290   0.322   4.309   2.643
 3797SOL    HW212291   0.250   4.455   2.635
 3798SOL     OW12292   3.432   5.685   2.577
 3798SOL    HW112293   3.529   5.667   2.564
 3798SOL    HW212294   3.414   5.705   2.674
 3799SOL     OW12295   0.553   2.501   4.220
 3799SOL    HW112296   0.611   2.575   4.186
 3799SOL    HW212297   0.565   2.493   4.319
 3800SOL     OW12298   5.514   3.436   4.536
 3800SOL    HW112299   5.608   3.403   4.530
 3800SOL    HW212300   5.469   3.396   4.616
 3801SOL     OW12301   6.340   6.578   2.568
 3801SOL    HW112302   6.242   6.590   2.549
 3801SOL    HW212303   6.359   6.610   2.661
 3802SOL     OW12304   1.182   2.451   2.680
 3802SOL    HW112305   1.271   2.429   2.640
 3802SOL    HW212306   1.122   2.371   2.674
 3803SOL     OW12307   3.627   2.092   1.454
 3803SOL    HW112308   3.706   2.057   1.404
 3803SOL    HW212309   3.659   2.145   1.533
 3804SOL     OW12310   5.346   1.255   3.598
 3804SOL    HW112311   5.299   1.184   3.651
 3804SOL    HW212312   5.278   1.322   3.566
 3805SOL     OW12313   2.912   3.130   1.864
 3805SOL    HW112314   2.955   3.067   1.799
 3805SOL    HW212315   2.850   3.191   1.815
 3806SOL     OW12316   3.600   4.138   6.608
 3806SOL    HW112317   3.514   4.107   6.568
 3806SOL    HW212318   3.648   4.198   6.543
 3807SOL     OW12319   2.023   6.373   3.569
 3807SOL    HW112320   2.051   6.317   3.647
 3807SOL    HW212321   1.924   6.365   3.556
 3808SOL     OW12322   4.925   0.052   1.036
 3808SOL    HW112323   4.957   0.058   1.131
 3808SOL    HW212324   5.004   0.054   0.974
 3809SOL     OW12325   5.696   2.944   0.885
 3809SOL    HW112326   5.722   2.962   0.980
 3809SOL    HW212327   5.677   2.846   0.874
 3810SOL     OW12328   4.601   2.699   4.677
 3810SOL    HW112329   4.667   2.707   4.752
 3810SOL    HW212330   4.634   2.754   4.599
 3811SOL     OW12331   1.010   4.027   4.079
 3811SOL    HW112332   1.049   4.067   3.996
 3811SOL    HW212333   1.004   4.097   4.150
 3812SOL     OW12334   5.402   0.021   5.638
 3812SOL    HW112335   5.361   0.102   5.681
 3812SOL    HW212336   5.475   0.049   5.576
 3813SOL     OW12337   4.615   4.142   0.237
 3813SOL    HW112338   4.526   4.112   0.204
 3813SOL    HW212339   4.660   4.196   0.166
 3814SOL     OW12340   0.047   6.803   0.553
 3814SOL    HW112341   0.067   6.769   0.644
 3814SOL    HW212342   0.044   6.903   0.555
 3815SOL     OW12343   4.256   2.935   6.955
 3815SOL    HW112344   4.192   2.950   0.013
 3815SOL    HW212345   4.341   2.897   6.990
 3816SOL     OW12346   0.639   6.018   0.143
 3816SOL    HW112347   0.730   6.038   0.106
 3816SOL    HW212348   0.586   5.965   0.076
 3817SOL     OW12349   5.239   3.642   2.915
 3817SOL    HW112350   5.146   3.680   2.926
 3817SOL    HW212351   5.235   3.561   2.857
 3818SOL     OW12352   5.532   0.209   0.243
 3818SOL    HW112353   5.529   0.172   0.336
 3818SOL    HW212354   5.443   0.197   0.199
 3819SOL     OW12355   5.216   5.326   1.474
 3819SOL    HW112356   5.293   5.263   1.481
 3819SOL    HW212357   5.144   5.300   1.538
 3820SOL     OW12358   6.462   6.638   3.070
 3820SOL    HW112359   6.557   6.666   3.083
 3820SOL    HW212360   6.402   6.694   3.127
 3821SOL     OW12361   2.972   1.985   0.917
 3821SOL    HW112362   2.952   1.892   0.887
 3821SOL    HW212363   2.891   2.025   0.957
 3822SOL     OW12364   1.129   6.566   2.762
 3822SOL    HW112365   1.201   6.610   2.815
 3822SOL    HW212366   1.130   6.467   2.779
 3823SOL     OW12367   2.960   2.687   6.012
 3823SOL    HW112368   3.032   2.724   6.071
 3823SOL    HW212369   2.997   2.615   5.954
 3824SOL     OW12370   5.890   1.916   0.325
 3824SOL    HW112371   5.920   1.833   0.370
 3824SOL    HW212372   5.822   1.894   0.255
 3825SOL     OW12373   0.716   6.347   0.597
 3825SOL    HW112374   0.695   6.293   0.679
 3825SOL    HW212375   0.788   6.413   0.618
 3826SOL     OW12376   0.680   3.123   0.041
 3826SOL    HW112377   0.704   3.047   0.102
 3826SOL    HW212378   0.594   3.164   0.070
 3827SOL     OW12379   2.691   2.811   1.083
 3827SOL    HW112380   2.634   2.890   1.106
 3827SOL    HW212381   2.786   2.840   1.070
 3828SOL     OW12382   3.688   2.578   1.732
 3828SOL    HW112383   3.710   2.490   1.774
 3828SOL    HW212384   3.629   2.563   1.653
 3829SOL     OW12385   2.033   4.543   4.416
 3829SOL    HW112386   2.111   4.483   4.393
 3829SOL    HW212387   1.948   4.497   4.391
 3830SOL     OW12388   0.528   0.234   4.572
 3830SOL    HW112389   0.538   0.316   4.629
 3830SOL    HW212390   0.452   0.246   4.509
 3831SOL     OW12391   4.669   1.753   2.324
 3831SOL    HW112392   4.703   1.828   2.382
 3831SOL    HW212393   4.744   1.688   2.309
 3832SOL     OW12394   5.430   0.315   2.902
 3832SOL    HW112395   5.504   0.376   2.873
 3832SOL    HW212396   5.459   0.220   2.892
 3833SOL     OW12397   0.657   5.943   6.276
 3833SOL    HW112398   0.704   5.876   6.218
 3833SOL    HW212399   0.580   5.982   6.227
 3834SOL     OW12400   3.950   2.806   1.033
 3834SOL    HW112401   3.876   2.848   0.980
 3834SOL    HW212402   3.925   2.807   1.130
 3835SOL     OW12403   2.867   5.757   5.094
 3835SOL    HW112404   2.913   5.668   5.087
 3835SOL    HW212405   2.854   5.795   5.003
 3836SOL     OW12406   1.408   4.001   5.905
 3836SOL    HW112407   1.460   3.928   5.951
 3836SOL    HW212408   1.449   4.089   5.926
 3837SOL     OW12409   4.725   3.572   6.703
 3837SOL    HW112410   4.772   3.602   6.786
 3837SOL    HW212411   4.693   3.478   6.716
 3838SOL     OW12412   0.184   3.042   4.414
 3838SOL    HW112413   0.206   3.124   4.361
 3838SOL    HW212414   0.262   3.018   4.471
 3839SOL     OW12415   3.932   0.449   4.568
 3839SOL    HW112416   3.901   0.372   4.624
 3839SOL    HW212417   4.026   0.433   4.538
 3840SOL     OW12418   2.179   1.363   5.292
 3840SOL    HW112419   2.107   1.341   5.225
 3840SOL    HW212420   2.142   1.354   5.384
 3841SOL     OW12421   0.289   3.120   5.380
 3841SOL    HW112422   0.237   3.180   5.319
 3841SOL    HW212423   0.284   3.156   5.473
 3842SOL     OW12424   0.798   3.889   6.628
 3842SOL    HW112425   0.740   3.907   6.549
 3842SOL    HW212426   0.808   3.972   6.682
 3843SOL     OW12427   6.740   4.346   2.264
 3843SOL    HW112428   6.715   4.398   2.183
 3843SOL    HW212429   6.703   4.391   2.345
 3844SOL     OW12430   6.936   3.631   5.902
 3844SOL    HW112431   6.997   3.617   5.980
 3844SOL    HW212432   6.841   3.637   5.934
 3845SOL     OW12433   3.853   2.966   3.029
 3845SOL    HW112434   3.759   2.961   3.063
 3845SOL    HW212435   3.893   3.054   3.055
 3846SOL     OW12436   0.930   4.615   3.911
 3846SOL    HW112437   0.970   4.579   3.996
 3846SOL    HW212438   0.857   4.555   3.880
 3847SOL     OW12439   5.853   0.583   5.097
 3847SOL    HW112440   5.849   0.492   5.055
 3847SOL    HW212441   5.949   0.607   5.115
 3848SOL     OW12442   3.208   5.445   2.581
 3848SOL    HW112443   3.130   5.486   2.533
 3848SOL    HW212444   3.285   5.509   2.580
 3849SOL     OW12445   1.071   1.485   5.456
 3849SOL    HW112446   1.017   1.409   5.493
 3849SOL    HW212447   1.057   1.566   5.512
 3850SOL     OW12448   2.697   3.504   1.311
 3850SOL    HW112449   2.777   3.447   1.331
 3850SOL    HW212450   2.697   3.584   1.372
 3851SOL     OW12451   1.309   4.667   3.177
 3851SOL    HW112452   1.269   4.687   3.087
 3851SOL    HW212453   1.396   4.619   3.165
 3852SOL     OW12454   4.691   6.773   4.432
 3852SOL    HW112455   4.743   6.704   4.483
 3852SOL    HW212456   4.730   6.782   4.340
 3853SOL     OW12457   1.743   2.848   2.730
 3853SOL    HW112458   1.666   2.793   2.761
 3853SOL    HW212459   1.776   2.812   2.642
 3854SOL     OW12460   1.444   3.467   3.100
 3854SOL    HW112461   1.387   3.472   3.017
 3854SOL    HW212462   1.482   3.375   3.109
 3855SOL     OW12463   4.400   6.177   6.752
 3855SOL    HW112464   4.453   6.240   6.696
 3855SOL    HW212465   4.303   6.197   6.742
 3856SOL     OW12466   6.851   5.960   5.389
 3856SOL    HW112467   6.861   6.040   5.449
 3856SOL    HW212468   6.882   5.983   5.297
 3857SOL     OW12469   1.058   5.806   6.134
 3857SOL    HW112470   1.106   5.753   6.203
 3857SOL    HW212471   1.081   5.772   6.043
 3858SOL     OW12472   1.534   5.827   5.654
 3858SOL    HW112473   1.624   5.859   5.624
 3858SOL    HW212474   1.525   5.839   5.753
 3859SOL     OW12475   6.525   2.135   3.395
 3859SOL    HW112476   6.567   2.054   3.436
 3859SOL    HW212477   6.592   2.183   3.338
 3860SOL     OW12478   0.893   0.585   5.634
 3860SOL    HW112479   0.800   0.602   5.602
 3860SOL    HW212480   0.954   0.576   5.555
 3861SOL     OW12481   4.959   4.336   1.731
 3861SOL    HW112482   4.884   4.302   1.787
 3861SOL    HW212483   4.925   4.407   1.669
 3862SOL     OW12484   0.563   6.802   4.620
 3862SOL    HW112485   0.549   6.726   4.684
 3862SOL    HW212486   0.476   6.831   4.582
 3863SOL     OW12487   3.917   3.714   6.213
 3863SOL    HW112488   3.940   3.716   6.115
 3863SOL    HW212489   4.000   3.703   6.267
 3864SOL     OW12490   3.901   1.639   5.080
 3864SOL    HW112491   3.989   1.594   5.098
 3864SOL    HW212492   3.917   1.737   5.067
 3865SOL     OW12493   4.042   0.344   1.376
 3865SOL    HW112494   4.066   0.430   1.421
 3865SOL    HW212495   4.092   0.336   1.290
 3866SOL     OW12496   4.297   0.605   0.852
 3866SOL    HW112497   4.360   0.665   0.900
 3866SOL    HW212498   4.204   0.640   0.860
 3867SOL     OW12499   1.643   3.267   3.873
 3867SOL    HW112500   1.646   3.168   3.860
 3867SOL    HW212501   1.561   3.304   3.829
 3868SOL     OW12502   2.382   6.438   1.391
 3868SOL    HW112503   2.357   6.453   1.486
 3868SOL    HW212504   2.482   6.439   1.383
 3869SOL     OW12505   6.881   3.033   4.669
 3869SOL    HW112506   6.976   3.002   4.657
 3869SOL    HW212507   6.857   3.094   4.593
 3870SOL     OW12508   4.680   4.744   0.436
 3870SOL    HW112509   4.766   4.792   0.455
 3870SOL    HW212510   4.607   4.812   0.421
 3871SOL     OW12511   4.035   0.978   2.669
 3871SOL    HW112512   4.077   0.957   2.581
 3871SOL    HW212513   4.106   0.984   2.739
 3872SOL     OW12514   3.154   2.835   2.021
 3872SOL    HW112515   3.234   2.826   2.081
 3872SOL    HW212516   3.103   2.749   2.019
 3873SOL     OW12517   6.593   5.721   1.307
 3873SOL    HW112518   6.564   5.629   1.283
 3873SOL    HW212519   6.546   5.787   1.247
 3874SOL     OW12520   4.147   5.826   0.130
 3874SOL    HW112521   4.208   5.904   0.135
 3874SOL    HW212522   4.060   5.849   0.173
 3875SOL     OW12523   1.155   3.286   2.316
 3875SOL    HW112524   1.077   3.319   2.368
 3875SOL    HW212525   1.208   3.222   2.373
 3876SOL     OW12526   5.809   5.718   6.668
 3876SOL    HW112527   5.867   5.641   6.692
 3876SOL    HW212528   5.857   5.778   6.604
 3877SOL     OW12529   6.542   2.166   0.454
 3877SOL    HW112530   6.604   2.195   0.527
 3877SOL    HW212531   6.511   2.073   0.471
 3878SOL     OW12532   2.232   6.224   5.606
 3878SOL    HW112533   2.159   6.291   5.620
 3878SOL    HW212534   2.201   6.153   5.543
 3879SOL     OW12535   4.280   6.619   1.456
 3879SOL    HW112536   4.261   6.541   1.397
 3879SOL    HW212537   4.349   6.594   1.524
 3880SOL     OW12538   5.689   3.839   3.416
 3880SOL    HW112539   5.744   3.858   3.498
 3880SOL    HW212540   5.611   3.901   3.414
 3881SOL     OW12541   1.399   4.950   0.326
 3881SOL    HW112542   1.350   5.022   0.277
 3881SOL    HW212543   1.448   4.989   0.403
 3882SOL     OW12544   6.517   0.967   5.030
 3882SOL    HW112545   6.474   1.056   5.048
 3882SOL    HW212546   6.538   0.961   4.932
 3883SOL     OW12547   4.512   1.093   3.823
 3883SOL    HW112548   4.605   1.129   3.824
 3883SOL    HW212549   4.469   1.113   3.735
 3884SOL     OW12550   1.034   5.727   4.479
 3884SOL    HW112551   0.940   5.698   4.495
 3884SOL    HW212552   1.071   5.771   4.562
 3885SOL     OW12553   6.228   0.904   4.748
 3885SOL    HW112554   6.325   0.910   4.724
 3885SOL    HW212555   6.210   0.817   4.795
 3886SOL     OW12556   6.394   0.094   5.204
 3886SOL    HW112557   6.493   0.081   5.209
 3886SOL    HW212558   6.371   0.150   5.124
 3887SOL     OW12559   5.233   2.085   5.782
 3887SOL    HW112560   5.290   2.137   5.720
 3887SOL    HW212561   5.288   2.051   5.858
 3888SOL     OW12562   0.257   0.503   5.915
 3888SOL    HW112563   0.245   0.442   5.994
 3888SOL    HW212564   0.171   0.511   5.865
 3889SOL     OW12565   6.993   3.904   6.947
 3889SOL    HW112566   7.001   3.807   6.924
 3889SOL    HW212567   6.897   3.928   6.960
 3890SOL     OW12568   6.708   6.396   3.159
 3890SOL    HW112569   6.726   6.490   3.130
 3890SOL    HW212570   6.672   6.344   3.082
 3891SOL     OW12571   5.581   4.405   4.802
 3891SOL    HW112572   5.503   4.464   4.823
 3891SOL    HW212573   5.554   4.334   4.738
 3892SOL     OW12574   1.028   0.214   2.157
 3892SOL    HW112575   1.103   0.272   2.189
 3892SOL    HW212576   1.013   0.140   2.223
 3893SOL     OW12577   3.498   5.764   2.312
 3893SOL    HW112578   3.500   5.674   2.268
 3893SOL    HW212579   3.460   5.755   2.404
 3894SOL     OW12580   3.377   2.350   1.227
 3894SOL    HW112581   3.317   2.386   1.156
 3894SOL    HW212582   3.434   2.277   1.189
 3895SOL     OW12583   0.738   0.943   5.633
 3895SOL    HW112584   0.738   1.041   5.652
 3895SOL    HW212585   0.778   0.894   5.711
 3896SOL     OW12586   0.737   2.446   5.974
 3896SOL    HW112587   0.836   2.446   5.956
 3896SOL    HW212588   0.691   2.504   5.906
 3897SOL     OW12589   3.064   6.789   2.264
 3897SOL    HW112590   3.105   6.842   2.189
 3897SOL    HW212591   3.121   6.798   2.345
 3898SOL     OW12592   3.346   2.872   3.198
 3898SOL    HW112593   3.355   2.842   3.293
 3898SOL    HW212594   3.249   2.868   3.171
 3899SOL     OW12595   4.989   1.269   4.939
 3899SOL    HW112596   4.997   1.188   4.881
 3899SOL    HW212597   5.079   1.293   4.976
 3900SOL     OW12598   5.713   2.854   3.337
 3900SOL    HW112599   5.633   2.910   3.318
 3900SOL    HW212600   5.685   2.770   3.383
 3901SOL     OW12601   1.677   6.343   5.842
 3901SOL    HW112602   1.656   6.441   5.836
 3901SOL    HW212603   1.749   6.328   5.909
 3902SOL     OW12604   4.611   4.436   2.451
 3902SOL    HW112605   4.637   4.364   2.387
 3902SOL    HW212606   4.671   4.515   2.438
 3903SOL     OW12607   4.222   4.062   6.582
 3903SOL    HW112608   4.138   4.050   6.530
 3903SOL    HW212609   4.265   4.149   6.557
 3904SOL     OW12610   0.893   6.930   6.778
 3904SOL    HW112611   0.912   6.851   6.837
 3904SOL    HW212612   0.976   6.982   6.763
 3905SOL     OW12613   6.167   6.663   6.496
 3905SOL    HW112614   6.225   6.594   6.452
 3905SOL    HW212615   6.074   6.658   6.458
 3906SOL     OW12616   2.032   4.797   4.711
 3906SOL    HW112617   2.065   4.891   4.715
 3906SOL    HW212618   2.107   4.737   4.684
 3907SOL     OW12619   0.688   1.057   4.972
 3907SOL    HW112620   0.628   1.009   4.908
 3907SOL    HW212621   0.654   1.150   4.987
 3908SOL     OW12622   0.584   0.520   6.246
 3908SOL    HW112623   0.585   0.554   6.340
 3908SOL    HW212624   0.645   0.441   6.239
 3909SOL     OW12625   5.272   4.026   5.981
 3909SOL    HW112626   5.243   4.121   5.996
 3909SOL    HW212627   5.367   4.024   5.951
 3910SOL     OW12628   3.823   4.048   1.913
 3910SOL    HW112629   3.744   4.096   1.951
 3910SOL    HW212630   3.875   4.005   1.986
 3911SOL     OW12631   5.719   0.333   0.917
 3911SOL    HW112632   5.659   0.310   0.994
 3911SOL    HW212633   5.670   0.320   0.831
 3912SOL     OW12634   3.179   1.458   5.849
 3912SOL    HW112635   3.195   1.363   5.821
 3912SOL    HW212636   3.091   1.489   5.811
 3913SOL     OW12637   3.345   5.868   0.048
 3913SOL    HW112638   3.301   5.853   6.977
 3913SOL    HW212639   3.348   5.782   0.099
 3914SOL     OW12640   5.265   1.355   1.781
 3914SOL    HW112641   5.305   1.431   1.729
 3914SOL    HW212642   5.334   1.283   1.792
 3915SOL     OW12643   3.261   6.578   0.133
 3915SOL    HW112644   3.217   6.653   0.084
 3915SOL    HW212645   3.246   6.589   0.231
 3916SOL     OW12646   3.034   6.910   2.919
 3916SOL    HW112647   3.120   6.945   2.880
 3916SOL    HW212648   2.985   6.986   2.963
 3917SOL     OW12649   2.911   5.318   0.085
 3917SOL    HW112650   2.915   5.410   0.125
 3917SOL    HW212651   3.004   5.283   0.073
 3918SOL     OW12652   4.876   1.263   0.483
 3918SOL    HW112653   4.833   1.291   0.397
 3918SOL    HW212654   4.850   1.327   0.555
 3919SOL     OW12655   4.160   0.905   0.631
 3919SOL    HW112656   4.243   0.920   0.686
 3919SOL    HW212657   4.169   0.954   0.544
 3920SOL     OW12658   2.119   1.406   6.687
 3920SOL    HW112659   2.042   1.355   6.725
 3920SOL    HW212660   2.130   1.491   6.737
 3921SOL     OW12661   6.815   3.002   6.657
 3921SOL    HW112662   6.755   2.924   6.674
 3921SOL    HW212663   6.895   2.996   6.716
 3922SOL     OW12664   4.751   5.196   1.710
 3922SOL    HW112665   4.747   5.140   1.794
 3922SOL    HW212666   4.688   5.158   1.642
 3923SOL     OW12667   5.972   1.571   1.157
 3923SOL    HW112668   5.937   1.478   1.165
 3923SOL    HW212669   5.955   1.606   1.065
 3924SOL     OW12670   0.420   4.141   3.321
 3924SOL    HW112671   0.360   4.182   3.253
 3924SOL    HW212672   0.366   4.108   3.398
 3925SOL     OW12673   4.767   4.218   0.737
 3925SOL    HW112674   4.798   4.161   0.813
 3925SOL    HW212675   4.711   4.163   0.674
 3926SOL     OW12676   0.934   0.168   5.893
 3926SOL    HW112677   0.896   0.259   5.876
 3926SOL    HW212678   0.870   0.099   5.862
 3927SOL     OW12679   0.929   3.188   3.978
 3927SOL    HW112680   0.913   3.271   4.032
 3927SOL    HW212681   1.023   3.188   3.944
 3928SOL     OW12682   2.873   6.728   2.799
 3928SOL    HW112683   2.798   6.777   2.756
 3928SOL    HW212684   2.941   6.793   2.833
 3929SOL     OW12685   0.031   1.525   0.182
 3929SOL    HW112686   6.967   1.555   0.231
 3929SOL    HW212687   0.011   1.443   0.129
 3930SOL     OW12688   1.046   1.973   4.024
 3930SOL    HW112689   1.100   2.048   4.063
 3930SOL    HW212690   1.101   1.927   3.954
 3931SOL     OW12691   1.639   1.823   1.679
 3931SOL    HW112692   1.711   1.762   1.710
 3931SOL    HW212693   1.673   1.917   1.677
 3932SOL     OW12694   2.358   5.471   4.158
 3932SOL    HW112695   2.407   5.384   4.157
 3932SOL    HW212696   2.382   5.523   4.076
 3933SOL     OW12697   0.917   5.782   0.221
 3933SOL    HW112698   0.906   5.783   0.121
 3933SOL    HW212699   0.889   5.693   0.257
 3934SOL     OW12700   0.222   2.041   3.092
 3934SOL    HW112701   0.281   1.961   3.103
 3934SOL    HW212702   0.277   2.124   3.095
 3935SOL     OW12703   6.120   2.698   6.387
 3935SOL    HW112704   6.188   2.767   6.362
 3935SOL    HW212705   6.029   2.731   6.365
 3936SOL     OW12706   6.441   5.676   5.212
 3936SOL    HW112707   6.418   5.761   5.259
 3936SOL    HW212708   6.516   5.692   5.148
 3937SOL     OW12709   0.214   5.471   2.670
 3937SOL    HW112710   0.167   5.486   2.583
 3937SOL    HW212711   0.237   5.559   2.710
 3938SOL     OW12712   6.897   3.431   4.819
 3938SOL    HW112713   6.812   3.467   4.779
 3938SOL    HW212714   6.976   3.472   4.773
 3939SOL     OW12715   1.812   0.843   2.824
 3939SOL    HW112716   1.742   0.782   2.862
 3939SOL    HW212717   1.883   0.789   2.779
 3940SOL     OW12718   3.045   4.779   1.985
 3940SOL    HW112719   3.036   4.869   2.026
 3940SOL    HW212720   2.958   4.730   1.992
 3941SOL     OW12721   6.117   6.994   4.600
 3941SOL    HW112722   6.175   6.928   4.647
 3941SOL    HW212723   6.067   6.947   4.526
 3942SOL     OW12724   1.647   6.081   5.899
 3942SOL    HW112725   1.696   6.055   5.982
 3942SOL    HW212726   1.661   6.179   5.881
 3943SOL     OW12727   1.059   3.559   1.747
 3943SOL    HW112728   1.107   3.616   1.813
 3943SOL    HW212729   1.120   3.540   1.670
 3944SOL     OW12730   5.186   2.910   6.030
 3944SOL    HW112731   5.225   2.965   5.957
 3944SOL    HW212732   5.237   2.824   6.037
 3945SOL     OW12733   0.958   2.448   3.103
 3945SOL    HW112734   0.902   2.440   3.020
 3945SOL    HW212735   1.024   2.373   3.105
 3946SOL     OW12736   6.788   3.432   0.116
 3946SOL    HW112737   6.823   3.363   0.052
 3946SOL    HW212738   6.688   3.436   0.108
 3947SOL     OW12739   5.822   5.408   0.263
 3947SOL    HW112740   5.732   5.368   0.280
 3947SOL    HW212741   5.814   5.507   0.258
 3948SOL     OW12742   1.928   3.675   6.869
 3948SOL    HW112743   2.016   3.627   6.862
 3948SOL    HW212744   1.892   3.665   6.961
 3949SOL     OW12745   6.724   0.005   2.712
 3949SOL    HW112746   6.789   0.079   2.727
 3949SOL    HW212747   6.651   0.037   2.651
 3950SOL     OW12748   4.268   4.092   1.724
 3950SOL    HW112749   4.233   4.004   1.758
 3950SOL    HW212750   4.324   4.135   1.794
 3951SOL     OW12751   0.716   2.743   6.135
 3951SOL    HW112752   0.757   2.814   6.193
 3951SOL    HW212753   0.776   2.726   6.056
 3952SOL     OW12754   5.781   2.491   4.090
 3952SOL    HW112755   5.816   2.414   4.143
 3952SOL    HW212756   5.683   2.503   4.109
 3953SOL     OW12757   3.117   4.405   5.826
 3953SOL    HW112758   3.183   4.339   5.862
 3953SOL    HW212759   3.148   4.498   5.846
 3954SOL     OW12760   6.388   3.531   5.763
 3954SOL    HW112761   6.350   3.593   5.694
 3954SOL    HW212762   6.377   3.572   5.854
 3955SOL     OW12763   4.946   6.389   0.370
 3955SOL    HW112764   4.873   6.406   0.304
 3955SOL    HW212765   4.906   6.372   0.460
 3956SOL     OW12766   1.043   2.576   5.512
 3956SOL    HW112767   1.128   2.525   5.525
 3956SOL    HW212768   1.010   2.560   5.419
 3957SOL     OW12769   3.095   6.660   4.115
 3957SOL    HW112770   3.130   6.611   4.195
 3957SOL    HW212771   3.147   6.745   4.104
 3958SOL     OW12772   6.289   7.012   0.327
 3958SOL    HW112773   6.331   6.944   0.268
 3958SOL    HW212774   6.244   6.966   0.404
 3959SOL     OW12775   3.235   5.275   0.841
 3959SOL    HW112776   3.147   5.279   0.888
 3959SOL    HW212777   3.236   5.342   0.766
 3960SOL     OW12778   4.490   2.562   6.571
 3960SOL    HW112779   4.589   2.580   6.576
 3960SOL    HW212780   4.447   2.588   6.657
 3961SOL     OW12781   5.046   2.048   2.138
 3961SOL    HW112782   5.100   2.126   2.106
 3961SOL    HW212783   5.042   1.979   2.066
 3962SOL     OW12784   0.823   5.523   0.259
 3962SOL    HW112785   0.855   5.488   0.171
 3962SOL    HW212786   0.755   5.460   0.298
 3963SOL     OW12787   5.504   5.448   3.146
 3963SOL    HW112788   5.512   5.540   3.107
 3963SOL    HW212789   5.449   5.452   3.230
 3964SOL     OW12790   4.512   6.262   4.836
 3964SOL    HW112791   4.571   6.310   4.901
 3964SOL    HW212792   4.568   6.207   4.774
 3965SOL     OW12793   3.594   4.398   6.472
 3965SOL    HW112794   3.514   4.390   6.532
 3965SOL    HW212795   3.586   4.331   6.398
 3966SOL     OW12796   6.634   4.384   6.580
 3966SOL    HW112797   6.624   4.311   6.513
 3966SOL    HW212798   6.580   4.362   6.662
 3967SOL     OW12799   1.033   5.157   3.649
 3967SOL    HW112800   0.961   5.191   3.588
 3967SOL    HW212801   1.058   5.229   3.714
 3968SOL     OW12802   5.167   0.348   2.930
 3968SOL    HW112803   5.129   0.311   2.846
 3968SOL    HW212804   5.266   0.363   2.919
 3969SOL     OW12805   1.429   4.932   2.994
 3969SOL    HW112806   1.451   4.897   2.903
 3969SOL    HW212807   1.388   4.860   3.049
 3970SOL     OW12808   4.659   4.943   4.023
 3970SOL    HW112809   4.601   4.997   3.962
 3970SOL    HW212810   4.620   4.943   4.115
 3971SOL     OW12811   2.745   5.609   2.966
 3971SOL    HW112812   2.830   5.573   3.005
 3971SOL    HW212813   2.714   5.687   3.019
 3972SOL     OW12814   0.265   6.335   0.546
 3972SOL    HW112815   0.302   6.356   0.456
 3972SOL    HW212816   0.328   6.365   0.617
 3973SOL     OW12817   3.182   3.510   5.148
 3973SOL    HW112818   3.163   3.488   5.053
 3973SOL    HW212819   3.152   3.435   5.207
 3974SOL     OW12820   0.540   1.613   6.599
 3974SOL    HW112821   0.458   1.571   6.560
 3974SOL    HW212822   0.607   1.627   6.526
 3975SOL     OW12823   6.617   0.494   5.729
 3975SOL    HW112824   6.539   0.439   5.700
 3975SOL    HW212825   6.676   0.439   5.788
 3976SOL     OW12826   0.954   4.434   0.832
 3976SOL    HW112827   1.046   4.447   0.869
 3976SOL    HW212828   0.890   4.419   0.908
 3977SOL     OW12829   2.492   5.932   5.746
 3977SOL    HW112830   2.464   5.894   5.658
 3977SOL    HW212831   2.540   5.863   5.799
 3978SOL     OW12832   5.462   1.332   5.822
 3978SOL    HW112833   5.508   1.249   5.853
 3978SOL    HW212834   5.526   1.409   5.824
 3979SOL     OW12835   2.165   0.030   1.384
 3979SOL    HW112836   2.228   6.972   1.399
 3979SOL    HW212837   2.197   0.085   1.307
 3980SOL     OW12838   5.767   3.421   4.668
 3980SOL    HW112839   5.719   3.427   4.755
 3980SOL    HW212840   5.779   3.513   4.630
 3981SOL     OW12841   6.901   2.209   6.367
 3981SOL    HW112842   6.864   2.235   6.278
 3981SOL    HW212843   6.925   2.292   6.418
 3982SOL     OW12844   2.533   1.085   4.889
 3982SOL    HW112845   2.443   1.074   4.932
 3982SOL    HW212846   2.559   1.181   4.890
 3983SOL     OW12847   3.408   6.391   4.513
 3983SOL    HW112848   3.375   6.342   4.433
 3983SOL    HW212849   3.508   6.398   4.510
 3984SOL     OW12850   1.879   0.080   1.988
 3984SOL    HW112851   1.952   0.136   2.027
 3984SOL    HW212852   1.791   0.115   2.017
 3985SOL     OW12853   2.269   4.167   0.068
 3985SOL    HW112854   2.353   4.112   0.072
 3985SOL    HW212855   2.265   4.215   6.998
 3986SOL     OW12856   0.107   1.944   2.285
 3986SOL    HW112857   0.030   2.007   2.274
 3986SOL    HW212858   0.192   1.991   2.265
 3987SOL     OW12859   1.484   5.802   5.188
 3987SOL    HW112860   1.505   5.900   5.198
 3987SOL    HW212861   1.550   5.761   5.125
 3988SOL     OW12862   3.340   2.271   5.963
 3988SOL    HW112863   3.439   2.283   5.963
 3988SOL    HW212864   3.296   2.352   6.001
 3989SOL     OW12865   6.201   0.118   6.428
 3989SOL    HW112866   6.274   0.119   6.359
 3989SOL    HW212867   6.123   0.066   6.393
 3990SOL     OW12868   5.908   2.396   5.136
 3990SOL    HW112869   5.975   2.352   5.196
 3990SOL    HW212870   5.838   2.330   5.109
 3991SOL     OW12871   0.199   2.703   3.437
 3991SOL    HW112872   0.268   2.681   3.506
 3991SOL    HW212873   0.222   2.656   3.351
 3992SOL     OW12874   4.006   3.054   6.591
 3992SOL    HW112875   4.046   2.966   6.564
 3992SOL    HW212876   4.076   3.112   6.631
 3993SOL     OW12877   2.835   2.150   2.643
 3993SOL    HW112878   2.796   2.063   2.672
 3993SOL    HW212879   2.804   2.223   2.704
 3994SOL     OW12880   2.256   2.417   5.133
 3994SOL    HW112881   2.245   2.450   5.227
 3994SOL    HW212882   2.318   2.478   5.084
 3995SOL     OW12883   2.475   4.363   3.628
 3995SOL    HW112884   2.397   4.390   3.571
 3995SOL    HW212885   2.451   4.282   3.682
 3996SOL     OW12886   1.978   1.396   4.567
 3996SOL    HW112887   1.925   1.372   4.486
 3996SOL    HW212888   2.007   1.491   4.561
 3997SOL     OW12889   4.881   3.589   3.031
 3997SOL    HW112890   4.866   3.538   3.116
 3997SOL    HW212891   4.886   3.687   3.052
 3998SOL     OW12892   5.804   2.115   1.975
 3998SOL    HW112893   5.853   2.192   1.933
 3998SOL    HW212894   5.753   2.147   2.055
 3999SOL     OW12895   6.353   3.811   3.645
 3999SOL    HW112896   6.289   3.739   3.617
 3999SOL    HW212897   6.444   3.773   3.656
 4000SOL     OW12898   3.183   5.526   2.874
 4000SOL    HW112899   3.172   5.514   2.775
 4000SOL    HW212900   3.244   5.603   2.892
 4001SOL     OW12901   2.494   3.908   5.971
 4001SOL    HW112902   2.489   3.956   6.059
 4001SOL    HW212903   2.557   3.956   5.911
 4002SOL     OW12904   3.459   2.959   4.356
 4002SOL    HW112905   3.500   2.869   4.373
 4002SOL    HW212906   3.529   3.030   4.365
 4003SOL     OW12907   1.694   1.165   6.429
 4003SOL    HW112908   1.789   1.138   6.415
 4003SOL    HW212909   1.662   1.133   6.518
 4004SOL     OW12910   6.938   3.327   3.969
 4004SOL    HW112911   6.854   3.290   3.929
 4004SOL    HW212912   6.984   3.256   4.023
 4005SOL     OW12913   4.513   4.692   1.010
 4005SOL    HW112914   4.436   4.641   0.972
 4005SOL    HW212915   4.597   4.663   0.966
 4006SOL     OW12916   5.490   4.871   1.976
 4006SOL    HW112917   5.580   4.863   1.932
 4006SOL    HW212918   5.422   4.821   1.923
 4007SOL     OW12919   0.696   2.616   3.176
 4007SOL    HW112920   0.789   2.580   3.184
 4007SOL    HW212921   0.632   2.553   3.220
 4008SOL     OW12922   3.246   0.564   6.285
 4008SOL    HW112923   3.191   0.501   6.230
 4008SOL    HW212924   3.202   0.653   6.287
 4009SOL     OW12925   4.640   1.795   1.319
 4009SOL    HW112926   4.733   1.812   1.287
 4009SOL    HW212927   4.593   1.734   1.255
 4010SOL     OW12928   3.103   3.501   1.873
 4010SOL    HW112929   3.117   3.417   1.925
 4010SOL    HW212930   3.182   3.518   1.813
 4011SOL     OW12931   0.057   6.329   2.073
 4011SOL    HW112932   0.103   6.356   1.989
 4011SOL    HW212933   0.117   6.349   2.151
 4012SOL     OW12934   4.576   6.609   2.550
 4012SOL    HW112935   4.528   6.565   2.626
 4012SOL    HW212936   4.564   6.554   2.467
 4013SOL     OW12937   2.444   0.815   1.163
 4013SOL    HW112938   2.385   0.751   1.212
 4013SOL    HW212939   2.494   0.766   1.091
 4014SOL     OW12940   3.341   5.608   3.644
 4014SOL    HW112941   3.279   5.559   3.705
 4014SOL    HW212942   3.306   5.605   3.551
 4015SOL     OW12943   4.792   5.068   6.256
 4015SOL    HW112944   4.779   5.085   6.158
 4015SOL    HW212945   4.881   5.024   6.270
 4016SOL     OW12946   2.870   5.924   6.941
 4016SOL    HW112947   2.929   5.852   6.977
 4016SOL    HW212948   2.903   5.951   6.851
 4017SOL     OW12949   0.353   5.658   5.731
 4017SOL    HW112950   0.271   5.644   5.787
 4017SOL    HW212951   0.365   5.581   5.669
 4018SOL     OW12952   4.510   6.795   2.034
 4018SOL    HW112953   4.477   6.757   2.120
 4018SOL    HW212954   4.432   6.827   1.979
 4019SOL     OW12955   5.455   4.100   2.188
 4019SOL    HW112956   5.403   4.156   2.253
 4019SOL    HW212957   5.434   4.003   2.203
 4020SOL     OW12958   6.536   2.991   5.411
 4020SOL    HW112959   6.473   3.060   5.374
 4020SOL    HW212960   6.629   3.013   5.383
 4021SOL     OW12961   3.797   4.265   5.212
 4021SOL    HW112962   3.698   4.250   5.218
 4021SOL    HW212963   3.819   4.357   5.244
 4022SOL     OW12964   3.283   6.390   6.475
 4022SOL    HW112965   3.266   6.435   6.562
 4022SOL    HW212966   3.197   6.380   6.424
 4023SOL     OW12967   6.928   0.440   5.341
 4023SOL    HW112968   6.897   0.404   5.253
 4023SOL    HW212969   0.007   0.416   5.355
 4024SOL     OW12970   2.481   4.473   4.129
 4024SOL    HW112971   2.454   4.393   4.075
 4024SOL    HW212972   2.488   4.447   4.225
 4025SOL     OW12973   0.796   6.477   4.188
 4025SOL    HW112974   0.798   6.491   4.089
 4025SOL    HW212975   0.735   6.543   4.230
 4026SOL     OW12976   5.834   6.866   3.946
 4026SOL    HW112977   5.840   6.766   3.938
 4026SOL    HW212978   5.784   6.903   3.868
 4027SOL     OW12979   2.704   2.585   0.337
 4027SOL    HW112980   2.736   2.494   0.365
 4027SOL    HW212981   2.748   2.654   0.394
 4028SOL     OW12982   4.655   1.401   3.824
 4028SOL    HW112983   4.682   1.306   3.804
 4028SOL    HW212984   4.575   1.425   3.768
 4029SOL     OW12985   3.052   4.221   5.641
 4029SOL    HW112986   2.996   4.269   5.574
 4029SOL    HW212987   3.060   4.275   5.724
 4030SOL     OW12988   6.935   0.981   2.097
 4030SOL    HW112989   6.852   0.997   2.151
 4030SOL    HW212990   6.915   0.994   2.000
 4031SOL     OW12991   5.399   6.301   3.300
 4031SOL    HW112992   5.314   6.254   3.319
 4031SOL    HW212993   5.402   6.329   3.204
 4032SOL     OW12994   0.028   6.931   1.974
 4032SOL    HW112995   0.028   0.005   1.934
 4032SOL    HW212996   0.115   6.916   2.022
 4033SOL     OW12997   2.133   3.285   1.371
 4033SOL    HW112998   2.120   3.354   1.300
 4033SOL    HW212999   2.180   3.326   1.450
 4034SOL     OW13000   5.972   1.555   4.820
 4034SOL    HW113001   5.942   1.637   4.869
 4034SOL    HW213002   5.903   1.483   4.829
 4035SOL     OW13003   6.104   1.729   0.931
 4035SOL    HW113004   6.105   1.760   1.026
 4035SOL    HW213005   6.092   1.807   0.870
 4036SOL     OW13006   4.052   4.763   2.343
 4036SOL    HW113007   4.104   4.817   2.276
 4036SOL    HW213008   3.955   4.768   2.321
 4037SOL     OW13009   1.814   1.500   0.215
 4037SOL    HW113010   1.780   1.557   0.141
 4037SOL    HW213011   1.838   1.558   0.293
 4038SOL     OW13012   4.177   2.738   1.653
 4038SOL    HW113013   4.170   2.834   1.680
 4038SOL    HW213014   4.088   2.694   1.663
 4039SOL     OW13015   5.750   5.377   1.477
 4039SOL    HW113016   5.815   5.301   1.468
 4039SOL    HW213017   5.753   5.413   1.570
 4040SOL     OW13018   3.314   6.579   5.247
 4040SOL    HW113019   3.414   6.580   5.242
 4040SOL    HW213020   3.278   6.670   5.227
 4041SOL     OW13021   0.931   5.153   0.739
 4041SOL    HW113022   0.847   5.158   0.685
 4041SOL    HW213023   0.992   5.227   0.712
 4042SOL     OW13024   5.760   6.225   4.207
 4042SOL    HW113025   5.691   6.173   4.259
 4042SOL    HW213026   5.778   6.179   4.121
 4043SOL     OW13027   6.829   2.466   5.824
 4043SOL    HW113028   6.795   2.558   5.843
 4043SOL    HW213029   6.765   2.418   5.764
 4044SOL     OW13030   4.704   6.815   3.651
 4044SOL    HW113031   4.652   6.888   3.605
 4044SOL    HW213032   4.764   6.856   3.720
 4045SOL     OW13033   4.251   5.846   5.853
 4045SOL    HW113034   4.175   5.839   5.917
 4045SOL    HW213035   4.231   5.793   5.771
 4046SOL     OW13036   1.418   1.686   3.802
 4046SOL    HW113037   1.463   1.626   3.736
 4046SOL    HW213038   1.469   1.772   3.809
 4047SOL     OW13039   2.101   2.408   0.279
 4047SOL    HW113040   2.187   2.384   0.235
 4047SOL    HW213041   2.113   2.492   0.332
 4048SOL     OW13042   5.049   1.759   1.893
 4048SOL    HW113043   5.012   1.754   1.801
 4048SOL    HW213044   5.074   1.667   1.924
 4049SOL     OW13045   5.489   5.142   6.362
 4049SOL    HW113046   5.494   5.110   6.268
 4049SOL    HW213047   5.419   5.090   6.411
 4050SOL     OW13048   1.176   6.460   1.599
 4050SOL    HW113049   1.204   6.506   1.683
 4050SOL    HW213050   1.255   6.449   1.538
 4051SOL     OW13051   3.745   1.631   6.713
 4051SOL    HW113052   3.681   1.691   6.761
 4051SOL    HW213053   3.836   1.671   6.715
 4052SOL     OW13054   6.855   1.304   1.988
 4052SOL    HW113055   6.881   1.268   2.077
 4052SOL    HW213056   6.916   1.267   1.918
 4053SOL     OW13057   3.003   6.087   3.914
 4053SOL    HW113058   3.062   6.009   3.896
 4053SOL    HW213059   3.045   6.170   3.876
 4054SOL     OW13060   5.618   3.946   0.914
 4054SOL    HW113061   5.556   3.980   0.984
 4054SOL    HW213062   5.576   3.868   0.867
 4055SOL     OW13063   2.761   3.280   0.186
 4055SOL    HW113064   2.795   3.367   0.150
 4055SOL    HW213065   2.783   3.274   0.284
 4056SOL     OW13066   5.265   3.967   0.868
 4056SOL    HW113067   5.281   4.003   0.776
 4056SOL    HW213068   5.181   4.007   0.905
 4057SOL     OW13069   6.511   2.451   1.131
 4057SOL    HW113070   6.608   2.447   1.157
 4057SOL    HW213071   6.503   2.458   1.032
 4058SOL     OW13072   2.146   6.979   4.976
 4058SOL    HW113073   2.061   6.986   5.028
 4058SOL    HW213074   2.192   0.049   4.976
 4059SOL     OW13075   0.383   1.653   2.913
 4059SOL    HW113076   0.461   1.592   2.923
 4059SOL    HW213077   0.312   1.608   2.858
 4060SOL     OW13078   5.454   5.526   4.777
 4060SOL    HW113079   5.360   5.540   4.808
 4060SOL    HW213080   5.515   5.585   4.828
 4061SOL     OW13081   2.581   4.631   2.397
 4061SOL    HW113082   2.588   4.637   2.496
 4061SOL    HW213083   2.606   4.539   2.367
 4062SOL     OW13084   2.511   1.403   1.874
 4062SOL    HW113085   2.482   1.315   1.913
 4062SOL    HW213086   2.609   1.415   1.890
 4063SOL     OW13087   6.128   6.541   0.244
 4063SOL    HW113088   6.197   6.614   0.243
 4063SOL    HW213089   6.078   6.543   0.330
 4064SOL     OW13090   2.537   0.283   3.632
 4064SOL    HW113091   2.543   0.383   3.625
 4064SOL    HW213092   2.612   0.241   3.581
 4065SOL     OW13093   1.552   6.736   1.418
 4065SOL    HW113094   1.627   6.780   1.368
 4065SOL    HW213095   1.477   6.717   1.355
 4066SOL     OW13096   6.099   4.838   3.412
 4066SOL    HW113097   6.194   4.871   3.408
 4066SOL    HW213098   6.057   4.846   3.322
 4067SOL     OW13099   6.372   3.299   2.793
 4067SOL    HW113100   6.460   3.271   2.756
 4067SOL    HW213101   6.299   3.260   2.738
 4068SOL     OW13102   1.969   1.401   4.868
 4068SOL    HW113103   2.043   1.456   4.906
 4068SOL    HW213104   1.959   1.422   4.770
 4069SOL     OW13105   2.959   5.526   6.438
 4069SOL    HW113106   2.875   5.561   6.478
 4069SOL    HW213107   3.038   5.565   6.487
 4070SOL     OW13108   0.689   3.830   1.831
 4070SOL    HW113109   0.596   3.795   1.822
 4070SOL    HW213110   0.718   3.868   1.743
 4071SOL     OW13111   1.324   1.173   5.084
 4071SOL    HW113112   1.269   1.153   5.165
 4071SOL    HW213113   1.325   1.271   5.066
 4072SOL     OW13114   0.258   5.739   4.143
 4072SOL    HW113115   0.313   5.751   4.226
 4072SOL    HW213116   0.164   5.769   4.161
 4073SOL     OW13117   2.877   6.223   6.174
 4073SOL    HW113118   2.938   6.205   6.252
 4073SOL    HW213119   2.925   6.278   6.106
 4074SOL     OW13120   0.028   3.738   2.172
 4074SOL    HW113121   6.949   3.713   2.171
 4074SOL    HW213122   0.040   3.826   2.217
 4075SOL     OW13123   4.310   2.045   2.006
 4075SOL    HW113124   4.214   2.038   2.034
 4075SOL    HW213125   4.330   2.138   1.979
 4076SOL     OW13126   3.057   2.500   5.843
 4076SOL    HW113127   3.013   2.411   5.843
 4076SOL    HW213128   3.117   2.509   5.763
 4077SOL     OW13129   3.171   1.331   0.188
 4077SOL    HW113130   3.156   1.405   0.123
 4077SOL    HW213131   3.268   1.322   0.207
 4078SOL     OW13132   0.482   5.648   1.130
 4078SOL    HW113133   0.575   5.681   1.115
 4078SOL    HW213134   0.417   5.720   1.108
 4079SOL     OW13135   1.729   0.642   3.517
 4079SOL    HW113136   1.733   0.634   3.616
 4079SOL    HW213137   1.798   0.707   3.486
 4080SOL     OW13138   4.038   4.578   6.079
 4080SOL    HW113139   4.136   4.602   6.079
 4080SOL    HW213140   4.027   4.487   6.039
 4081SOL     OW13141   1.852   2.461   4.596
 4081SOL    HW113142   1.832   2.516   4.515
 4081SOL    HW213143   1.767   2.429   4.636
 4082SOL     OW13144   0.910   3.864   0.703
 4082SOL    HW113145   0.845   3.804   0.657
 4082SOL    HW213146   0.887   3.959   0.683
 4083SOL     OW13147   6.944   4.192   1.971
 4083SOL    HW113148   6.983   4.197   2.064
 4083SOL    HW213149   6.878   4.118   1.967
 4084SOL     OW13150   5.293   2.057   3.330
 4084SOL    HW113151   5.373   2.006   3.360
 4084SOL    HW213152   5.312   2.155   3.334
 4085SOL     OW13153   2.649   5.666   1.462
 4085SOL    HW113154   2.660   5.569   1.485
 4085SOL    HW213155   2.681   5.722   1.538
 4086SOL     OW13156   0.934   5.666   1.927
 4086SOL    HW113157   0.978   5.678   2.016
 4086SOL    HW213158   0.998   5.621   1.864
 4087SOL     OW13159   1.333   1.531   3.193
 4087SOL    HW113160   1.317   1.432   3.189
 4087SOL    HW213161   1.292   1.567   3.277
 4088SOL     OW13162   6.659   0.792   6.839
 4088SOL    HW113163   6.705   0.869   6.884
 4088SOL    HW213164   6.676   0.796   6.740
 4089SOL     OW13165   6.090   5.688   4.453
 4089SOL    HW113166   6.148   5.737   4.518
 4089SOL    HW213167   6.127   5.597   4.437
 4090SOL     OW13168   1.792   5.265   5.444
 4090SOL    HW113169   1.697   5.295   5.450
 4090SOL    HW213170   1.804   5.203   5.367
 4091SOL     OW13171   6.537   6.132   6.925
 4091SOL    HW113172   6.509   6.198   6.995
 4091SOL    HW213173   6.456   6.088   6.887
 4092SOL     OW13174   6.424   2.479   5.426
 4092SOL    HW113175   6.343   2.531   5.399
 4092SOL    HW213176   6.486   2.537   5.479
 4093SOL     OW13177   4.598   6.473   2.293
 4093SOL    HW113178   4.524   6.406   2.283
 4093SOL    HW213179   4.686   6.426   2.301
 4094SOL     OW13180   2.232   5.457   5.332
 4094SOL    HW113181   2.141   5.457   5.289
 4094SOL    HW213182   2.275   5.546   5.319
 4095SOL     OW13183   0.513   3.805   0.163
 4095SOL    HW113184   0.419   3.776   0.143
 4095SOL    HW213185   0.559   3.826   0.077
 4096SOL     OW13186   4.700   6.111   5.839
 4096SOL    HW113187   4.708   6.096   5.740
 4096SOL    HW213188   4.604   6.107   5.866
 4097SOL     OW13189   3.925   4.580   5.357
 4097SOL    HW113190   3.832   4.587   5.319
 4097SOL    HW213191   3.923   4.521   5.437
 4098SOL     OW13192   0.120   2.148   1.995
 4098SOL    HW113193   0.197   2.184   2.048
 4098SOL    HW213194   0.040   2.142   2.055
 4099SOL     OW13195   2.957   5.092   1.455
 4099SOL    HW113196   2.901   5.080   1.372
 4099SOL    HW213197   2.989   5.002   1.486
 4100SOL     OW13198   0.211   6.704   4.658
 4100SOL    HW113199   0.183   6.724   4.564
 4100SOL    HW213200   0.192   6.783   4.716
 4101SOL     OW13201   5.827   1.184   0.411
 4101SOL    HW113202   5.921   1.191   0.377
 4101SOL    HW213203   5.804   1.268   0.461
 4102SOL     OW13204   6.646   0.624   0.973
 4102SOL    HW113205   6.553   0.608   0.941
 4102SOL    HW213206   6.665   0.566   1.053
 4103SOL     OW13207   0.162   0.318   0.397
 4103SOL    HW113208   0.177   0.267   0.312
 4103SOL    HW213209   0.250   0.351   0.431
 4104SOL     OW13210   1.062   5.116   2.935
 4104SOL    HW113211   0.981   5.173   2.944
 4104SOL    HW213212   1.038   5.031   2.887
 4105SOL     OW13213   4.721   6.969   1.407
 4105SOL    HW113214   4.812   6.998   1.380
 4105SOL    HW213215   4.727   6.916   1.492
 4106SOL     OW13216   6.271   2.807   2.693
 4106SOL    HW113217   6.244   2.848   2.780
 4106SOL    HW213218   6.194   2.757   2.653
 4107SOL     OW13219   1.380   5.667   0.686
 4107SOL    HW113220   1.438   5.748   0.694
 4107SOL    HW213221   1.287   5.690   0.715
 4108SOL     OW13222   6.373   4.161   5.757
 4108SOL    HW113223   6.294   4.222   5.767
 4108SOL    HW213224   6.345   4.079   5.708
 4109SOL     OW13225   6.187   0.300   5.097
 4109SOL    HW113226   6.123   0.284   5.172
 4109SOL    HW213227   6.137   0.313   5.012
 4110SOL     OW13228   3.918   3.391   5.776
 4110SOL    HW113229   3.956   3.406   5.685
 4110SOL    HW213230   3.831   3.440   5.785
 4111SOL     OW13231   4.544   3.398   6.982
 4111SOL    HW113232   4.583   3.481   0.003
 4111SOL    HW213233   4.498   3.346   0.036
 4112SOL     OW13234   4.926   6.225   4.583
 4112SOL    HW113235   5.006   6.173   4.614
 4112SOL    HW213236   4.954   6.319   4.559
 4113SOL     OW13237   4.628   5.896   4.772
 4113SOL    HW113238   4.575   5.814   4.793
 4113SOL    HW213239   4.618   5.962   4.846
 4114SOL     OW13240   3.265   2.076   3.914
 4114SOL    HW113241   3.341   2.108   3.858
 4114SOL    HW213242   3.197   2.149   3.925
 4115SOL     OW13243   3.612   4.921   2.135
 4115SOL    HW113244   3.617   4.855   2.061
 4115SOL    HW213245   3.516   4.932   2.163
 4116SOL     OW13246   3.328   1.423   2.316
 4116SOL    HW113247   3.259   1.495   2.331
 4116SOL    HW213248   3.393   1.454   2.247
 4117SOL     OW13249   1.673   4.261   2.916
 4117SOL    HW113250   1.753   4.318   2.895
 4117SOL    HW213251   1.703   4.167   2.934
 4118SOL     OW13252   3.174   6.671   0.383
 4118SOL    HW113253   3.106   6.740   0.408
 4118SOL    HW213254   3.152   6.584   0.428
 4119SOL     OW13255   3.165   1.866   3.760
 4119SOL    HW113256   3.163   1.892   3.663
 4119SOL    HW213257   3.207   1.939   3.813
 4120SOL     OW13258   3.409   0.677   0.078
 4120SOL    HW113259   3.430   0.579   0.082
 4120SOL    HW213260   3.342   0.694   0.006
 4121SOL     OW13261   6.039   0.753   4.324
 4121SOL    HW113262   6.043   0.654   4.335
 4121SOL    HW213263   6.047   0.797   4.414
 4122SOL     OW13264   1.442   5.866   4.879
 4122SOL    HW113265   1.439   5.784   4.937
 4122SOL    HW213266   1.386   5.938   4.919
 4123SOL     OW13267   4.425   5.337   5.804
 4123SOL    HW113268   4.407   5.268   5.873
 4123SOL    HW213269   4.388   5.425   5.833
 4124SOL     OW13270   6.058   5.735   6.872
 4124SOL    HW113271   5.974   5.710   6.921
 4124SOL    HW213272   6.096   5.818   6.913
 4125SOL     OW13273   5.106   1.459   2.565
 4125SOL    HW113274   5.190   1.480   2.615
 4125SOL    HW213275   5.127   1.441   2.469
 4126SOL     OW13276   1.051   3.777   4.590
 4126SOL    HW113277   1.027   3.862   4.637
 4126SOL    HW213278   0.984   3.760   4.517
 4127SOL     OW13279   4.508   5.200   4.836
 4127SOL    HW113280   4.572   5.146   4.781
 4127SOL    HW213281   4.415   5.185   4.802
 4128SOL     OW13282   1.273   2.447   1.661
 4128SOL    HW113283   1.195   2.494   1.703
 4128SOL    HW213284   1.357   2.498   1.681
 4129SOL     OW13285   3.743   1.129   6.745
 4129SOL    HW113286   3.711   1.048   6.695
 4129SOL    HW213287   3.699   1.211   6.708
 4130SOL     OW13288   6.491   2.699   6.806
 4130SOL    HW113289   6.572   2.727   6.859
 4130SOL    HW213290   6.455   2.778   6.756
 4131SOL     OW13291   1.272   0.409   3.708
 4131SOL    HW113292   1.272   0.363   3.797
 4131SOL    HW213293   1.363   0.400   3.667
 4132SOL     OW13294   5.031   4.568   3.373
 4132SOL    HW113295   4.972   4.606   3.302
 4132SOL    HW213296   5.063   4.477   3.346
 4133SOL     OW13297   2.875   5.970   0.649
 4133SOL    HW113298   2.823   6.056   0.655
 4133SOL    HW213299   2.952   5.982   0.587
 4134SOL     OW13300   2.439   3.334   0.960
 4134SOL    HW113301   2.482   3.244   0.954
 4134SOL    HW213302   2.354   3.327   1.011
 4135SOL     OW13303   0.863   1.540   2.835
 4135SOL    HW113304   0.785   1.506   2.888
 4135SOL    HW213305   0.916   1.463   2.802
 4136SOL     OW13306   1.285   2.048   3.138
 4136SOL    HW113307   1.273   2.142   3.105
 4136SOL    HW213308   1.371   2.011   3.101
 4137SOL     OW13309   0.615   4.591   0.930
 4137SOL    HW113310   0.541   4.659   0.921
 4137SOL    HW213311   0.591   4.509   0.879
 4138SOL     OW13312   4.385   5.426   3.175
 4138SOL    HW113313   4.314   5.410   3.107
 4138SOL    HW213314   4.458   5.482   3.135
 4139SOL     OW13315   1.797   1.951   5.509
 4139SOL    HW113316   1.868   1.961   5.439
 4139SOL    HW213317   1.796   1.858   5.543
 4140SOL     OW13318   2.936   0.610   5.322
 4140SOL    HW113319   2.840   0.627   5.303
 4140SOL    HW213320   2.945   0.563   5.410
 4141SOL     OW13321   6.382   6.195   1.115
 4141SOL    HW113322   6.315   6.158   1.179
 4141SOL    HW213323   6.409   6.287   1.146
 4142SOL     OW13324   6.616   5.393   1.223
 4142SOL    HW113325   6.544   5.420   1.159
 4142SOL    HW213326   6.574   5.349   1.303
 4143SOL     OW13327   6.305   1.552   1.212
 4143SOL    HW113328   6.207   1.543   1.226
 4143SOL    HW213329   6.332   1.647   1.225
 4144SOL     OW13330   4.971   3.697   6.556
 4144SOL    HW113331   4.905   3.635   6.598
 4144SOL    HW213332   4.963   3.692   6.456
 4145SOL     OW13333   6.506   6.433   1.193
 4145SOL    HW113334   6.426   6.493   1.189
 4145SOL    HW213335   6.588   6.487   1.174
 4146SOL     OW13336   6.801   0.443   4.755
 4146SOL    HW113337   6.883   0.469   4.805
 4146SOL    HW213338   6.728   0.510   4.772
 4147SOL     OW13339   4.752   4.156   5.802
 4147SOL    HW113340   4.801   4.126   5.884
 4147SOL    HW213341   4.710   4.077   5.758
 4148SOL     OW13342   0.815   0.581   4.874
 4148SOL    HW113343   0.850   0.670   4.902
 4148SOL    HW213344   0.785   0.585   4.779
 4149SOL     OW13345   0.025   3.009   0.945
 4149SOL    HW113346   6.952   2.993   0.985
 4149SOL    HW213347   0.015   3.051   0.855
 4150SOL     OW13348   0.860   0.637   6.298
 4150SOL    HW113349   0.798   0.569   6.257
 4150SOL    HW213350   0.805   0.712   6.337
 4151SOL     OW13351   2.888   5.653   5.528
 4151SOL    HW113352   2.836   5.687   5.450
 4151SOL    HW213353   2.905   5.729   5.591
 4152SOL     OW13354   4.312   6.123   1.658
 4152SOL    HW113355   4.280   6.180   1.734
 4152SOL    HW213356   4.248   6.047   1.645
 4153SOL     OW13357   4.313   5.284   6.782
 4153SOL    HW113358   4.224   5.301   6.742
 4153SOL    HW213359   4.378   5.259   6.710
 4154SOL     OW13360   0.127   5.171   4.065
 4154SOL    HW113361   0.124   5.124   4.154
 4154SOL    HW213362   0.121   5.103   3.992
 4155SOL     OW13363   0.251   1.321   2.031
 4155SOL    HW113364   0.239   1.266   2.114
 4155SOL    HW213365   0.212   1.272   1.953
 4156SOL     OW13366   5.470   6.266   5.254
 4156SOL    HW113367   5.500   6.179   5.215
 4156SOL    HW213368   5.375   6.257   5.285
 4157SOL     OW13369   5.244   5.286   4.743
 4157SOL    HW113370   5.266   5.333   4.658
 4157SOL    HW213371   5.233   5.188   4.725
 4158SOL     OW13372   1.597   4.655   2.694
 4158SOL    HW113373   1.567   4.560   2.697
 4158SOL    HW213374   1.680   4.666   2.748
 4159SOL     OW13375   2.035   3.630   4.294
 4159SOL    HW113376   2.045   3.539   4.254
 4159SOL    HW213377   2.065   3.699   4.227
 4160SOL     OW13378   5.772   1.041   0.781
 4160SOL    HW113379   5.867   1.008   0.780
 4160SOL    HW213380   5.765   1.123   0.725
 4161SOL     OW13381   0.937   0.888   0.413
 4161SOL    HW113382   0.890   0.833   0.482
 4161SOL    HW213383   0.886   0.885   0.328
 4162SOL     OW13384   6.353   6.482   6.426
 4162SOL    HW113385   6.363   6.384   6.441
 4162SOL    HW213386   6.418   6.512   6.357
 4163SOL     OW13387   5.814   6.480   3.214
 4163SOL    HW113388   5.788   6.385   3.232
 4163SOL    HW213389   5.912   6.485   3.193
 4164SOL     OW13390   1.544   6.665   6.501
 4164SOL    HW113391   1.626   6.717   6.477
 4164SOL    HW213392   1.540   6.654   6.601
 4165SOL     OW13393   3.906   0.004   0.140
 4165SOL    HW113394   3.833   0.054   0.094
 4165SOL    HW213395   3.954   0.065   0.203
 4166SOL     OW13396   6.623   4.202   1.198
 4166SOL    HW113397   6.592   4.235   1.287
 4166SOL    HW213398   6.559   4.232   1.127
 4167SOL     OW13399   1.146   4.189   0.951
 4167SOL    HW113400   1.206   4.122   0.992
 4167SOL    HW213401   1.072   4.212   1.014
 4168SOL     OW13402   6.588   5.076   0.854
 4168SOL    HW113403   6.555   5.093   0.947
 4168SOL    HW213404   6.613   5.162   0.811
 4169SOL     OW13405   5.816   3.896   3.643
 4169SOL    HW113406   5.819   3.869   3.739
 4169SOL    HW213407   5.881   3.970   3.627
 4170SOL     OW13408   4.327   4.000   5.329
 4170SOL    HW113409   4.279   4.086   5.309
 4170SOL    HW213410   4.294   3.929   5.267
 4171SOL     OW13411   6.183   5.497   1.006
 4171SOL    HW113412   6.240   5.501   0.924
 4171SOL    HW213413   6.153   5.589   1.030
 4172SOL     OW13414   0.461   2.446   6.140
 4172SOL    HW113415   0.472   2.537   6.101
 4172SOL    HW213416   0.372   2.409   6.113
 4173SOL     OW13417   5.022   4.020   5.730
 4173SOL    HW113418   4.952   3.948   5.735
 4173SOL    HW213419   4.981   4.108   5.752
 4174SOL     OW13420   5.410   0.695   3.550
 4174SOL    HW113421   5.410   0.599   3.577
 4174SOL    HW213422   5.362   0.705   3.463
 4175SOL     OW13423   2.040   6.297   4.670
 4175SOL    HW113424   2.113   6.236   4.703
 4175SOL    HW213425   2.063   6.391   4.694
 4176SOL     OW13426   2.717   6.678   1.971
 4176SOL    HW113427   2.724   6.588   2.013
 4176SOL    HW213428   2.757   6.747   2.032
 4177SOL     OW13429   6.268   4.359   5.010
 4177SOL    HW113430   6.270   4.280   5.072
 4177SOL    HW213431   6.258   4.327   4.916
 4178SOL     OW13432   4.555   0.136   4.394
 4178SOL    HW113433   4.511   0.198   4.329
 4178SOL    HW213434   4.630   0.088   4.350
 4179SOL     OW13435   5.574   2.285   3.172
 4179SOL    HW113436   5.494   2.253   3.122
 4179SOL    HW213437   5.547   2.314   3.263
 4180SOL     OW13438   4.812   3.956   1.721
 4180SOL    HW113439   4.899   3.907   1.720
 4180SOL    HW213440   4.821   4.038   1.777
 4181SOL     OW13441   1.995   1.706   0.603
 4181SOL    HW113442   1.992   1.752   0.691
 4181SOL    HW213443   1.987   1.607   0.616
 4182SOL     OW13444   0.407   6.884   3.243
 4182SOL    HW113445   0.360   6.800   3.218
 4182SOL    HW213446   0.377   6.958   3.184
 4183SOL     OW13447   4.517   0.621   6.935
 4183SOL    HW113448   4.573   0.596   6.856
 4183SOL    HW213449   4.458   0.545   6.960
 4184SOL     OW13450   4.367   4.938   1.698
 4184SOL    HW113451   4.283   4.909   1.653
 4184SOL    HW213452   4.433   4.969   1.630
 4185SOL     OW13453   0.086   5.570   2.192
 4185SOL    HW113454   0.098   5.574   2.093
 4185SOL    HW213455   0.071   5.662   2.227
 4186SOL     OW13456   2.243   5.318   0.800
 4186SOL    HW113457   2.275   5.225   0.818
 4186SOL    HW213458   2.163   5.337   0.856
 4187SOL     OW13459   3.662   3.889   5.810
 4187SOL    HW113460   3.634   3.968   5.756
 4187SOL    HW213461   3.717   3.827   5.754
 4188SOL     OW13462   4.773   0.034   4.249
 4188SOL    HW113463   4.713   6.973   4.234
 4188SOL    HW213464   4.816   0.059   4.162
 4189SOL     OW13465   3.681   0.604   5.092
 4189SOL    HW113466   3.714   0.647   5.177
 4189SOL    HW213467   3.757   0.596   5.028
 4190SOL     OW13468   0.660   0.636   0.216
 4190SOL    HW113469   0.564   0.662   0.223
 4190SOL    HW213470   0.668   0.555   0.158
 4191SOL     OW13471   5.185   3.371   3.187
 4191SOL    HW113472   5.205   3.336   3.096
 4191SOL    HW213473   5.259   3.346   3.250
 4192SOL     OW13474   0.577   1.090   4.130
 4192SOL    HW113475   0.540   1.010   4.084
 4192SOL    HW213476   0.577   1.168   4.067
 4193SOL     OW13477   1.342   0.086   3.000
 4193SOL    HW113478   1.341   0.013   2.932
 4193SOL    HW213479   1.428   0.136   2.993
 4194SOL     OW13480   5.984   0.252   5.279
 4194SOL    HW113481   5.885   0.257   5.267
 4194SOL    HW213482   6.013   0.157   5.271
 4195SOL     OW13483   4.244   0.280   2.199
 4195SOL    HW113484   4.266   0.183   2.204
 4195SOL    HW213485   4.314   0.333   2.246
 4196SOL     OW13486   5.875   2.191   3.630
 4196SOL    HW113487   5.928   2.114   3.663
 4196SOL    HW213488   5.932   2.274   3.629
 4197SOL     OW13489   5.112   5.833   5.262
 4197SOL    HW113490   5.183   5.866   5.199
 4197SOL    HW213491   5.115   5.733   5.266
 4198SOL     OW13492   5.409   2.763   6.340
 4198SOL    HW113493   5.332   2.705   6.318
 4198SOL    HW213494   5.387   2.859   6.319
 4199SOL     OW13495   2.180   3.467   6.422
 4199SOL    HW113496   2.111   3.395   6.414
 4199SOL    HW213497   2.139   3.555   6.398
 4200SOL     OW13498   2.832   6.217   5.419
 4200SOL    HW113499   2.867   6.234   5.327
 4200SOL    HW213500   2.809   6.120   5.428
 4201SOL     OW13501   5.988   6.306   3.467
 4201SOL    HW113502   5.993   6.244   3.546
 4201SOL    HW213503   5.943   6.259   3.391
 4202SOL     OW13504   4.217   5.711   5.623
 4202SOL    HW113505   4.170   5.625   5.606
 4202SOL    HW213506   4.169   5.785   5.576
 4203SOL     OW13507   4.994   5.333   0.930
 4203SOL    HW113508   4.925   5.388   0.978
 4203SOL    HW213509   5.061   5.393   0.887
 4204SOL     OW13510   3.805   2.905   2.486
 4204SOL    HW113511   3.829   2.872   2.577
 4204SOL    HW213512   3.705   2.904   2.475
 4205SOL     OW13513   3.748   4.854   3.528
 4205SOL    HW113514   3.820   4.824   3.466
 4205SOL    HW213515   3.663   4.867   3.476
 4206SOL     OW13516   5.915   0.568   5.449
 4206SOL    HW113517   5.874   0.615   5.371
 4206SOL    HW213518   5.881   0.474   5.453
 4207SOL     OW13519   1.994   1.270   1.829
 4207SOL    HW113520   2.004   1.218   1.914
 4207SOL    HW213521   2.000   1.209   1.751
 4208SOL     OW13522   1.246   3.244   6.681
 4208SOL    HW113523   1.220   3.223   6.587
 4208SOL    HW213524   1.275   3.339   6.688
 4209SOL     OW13525   0.502   1.860   5.449
 4209SOL    HW113526   0.466   1.855   5.355
 4209SOL    HW213527   0.433   1.903   5.508
 4210SOL     OW13528   3.349   3.480   2.062
 4210SOL    HW113529   3.292   3.421   2.005
 4210SOL    HW213530   3.445   3.462   2.042
 4211SOL     OW13531   3.795   5.269   4.918
 4211SOL    HW113532   3.828   5.179   4.889
 4211SOL    HW213533   3.854   5.340   4.881
 4212SOL     OW13534   6.132   2.692   2.174
 4212SOL    HW113535   6.041   2.700   2.215
 4212SOL    HW213536   6.140   2.757   2.098
 4213SOL     OW13537   2.688   0.807   2.398
 4213SOL    HW113538   2.624   0.848   2.333
 4213SOL    HW213539   2.662   0.711   2.413
 4214SOL     OW13540   0.997   3.920   5.665
 4214SOL    HW113541   0.943   3.994   5.623
 4214SOL    HW213542   1.089   3.953   5.683
 4215SOL     OW13543   6.823   5.926   4.572
 4215SOL    HW113544   6.812   5.933   4.472
 4215SOL    HW213545   6.913   5.889   4.593
 4216SOL     OW13546   1.286   1.643   2.949
 4216SOL    HW113547   1.328   1.602   3.029
 4216SOL    HW213548   1.356   1.663   2.880
 4217SOL     OW13549   6.960   0.186   2.679
 4217SOL    HW113550   6.987   0.181   2.583
 4217SOL    HW213551   0.018   0.158   2.737
 4218SOL     OW13552   5.169   0.453   1.886
 4218SOL    HW113553   5.260   0.413   1.878
 4218SOL    HW213554   5.162   0.533   1.827
 4219SOL     OW13555   2.934   5.073   3.499
 4219SOL    HW113556   2.964   5.109   3.588
 4219SOL    HW213557   3.013   5.036   3.450
 4220SOL     OW13558   5.635   2.632   3.515
 4220SOL    HW113559   5.654   2.534   3.510
 4220SOL    HW213560   5.687   2.673   3.590
 4221SOL     OW13561   6.110   5.610   6.635
 4221SOL    HW113562   6.092   5.627   6.732
 4221SOL    HW213563   6.053   5.534   6.603
 4222SOL     OW13564   6.208   2.459   2.743
 4222SOL    HW113565   6.273   2.457   2.819
 4222SOL    HW213566   6.242   2.520   2.672
 4223SOL     OW13567   3.071   3.160   5.017
 4223SOL    HW113568   3.022   3.243   5.045
 4223SOL    HW213569   3.104   3.112   5.098
 4224SOL     OW13570   4.787   2.988   3.690
 4224SOL    HW113571   4.733   2.924   3.636
 4224SOL    HW213572   4.839   2.938   3.759
 4225SOL     OW13573   4.849   0.591   5.491
 4225SOL    HW113574   4.790   0.512   5.476
 4225SOL    HW213575   4.940   0.560   5.520
 4226SOL     OW13576   0.677   0.113   3.170
 4226SOL    HW113577   0.599   0.066   3.130
 4226SOL    HW213578   0.661   0.128   3.267
 4227SOL     OW13579   3.708   5.276   6.546
 4227SOL    HW113580   3.760   5.199   6.510
 4227SOL    HW213581   3.771   5.343   6.587
 4228SOL     OW13582   0.779   3.427   3.385
 4228SOL    HW113583   0.815   3.423   3.478
 4228SOL    HW213584   0.844   3.384   3.322
 4229SOL     OW13585   4.789   5.180   5.995
 4229SOL    HW113586   4.886   5.158   5.992
 4229SOL    HW213587   4.776   5.277   5.976
 4230SOL     OW13588   2.493   0.754   4.238
 4230SOL    HW113589   2.455   0.843   4.262
 4230SOL    HW213590   2.459   0.727   4.148
 4231SOL     OW13591   5.364   5.904   4.712
 4231SOL    HW113592   5.397   5.886   4.620
 4231SOL    HW213593   5.406   5.987   4.748
 4232SOL     OW13594   6.963   4.396   1.783
 4232SOL    HW113595   6.940   4.337   1.860
 4232SOL    HW213596   6.914   4.366   1.702
 4233SOL     OW13597   6.860   1.000   0.018
 4233SOL    HW113598   6.900   0.918   6.994
 4233SOL    HW213599   6.816   0.976   0.104
 4234SOL     OW13600   1.315   0.167   5.649
 4234SOL    HW113601   1.388   0.101   5.666
 4234SOL    HW213602   1.328   0.209   5.560
 4235SOL     OW13603   5.481   4.227   5.365
 4235SOL    HW113604   5.436   4.193   5.282
 4235SOL    HW213605   5.445   4.317   5.388
 4236SOL     OW13606   0.419   3.667   3.333
 4236SOL    HW113607   0.370   3.676   3.246
 4236SOL    HW213608   0.517   3.681   3.317
 4237SOL     OW13609   6.350   4.994   4.047
 4237SOL    HW113610   6.345   5.040   4.135
 4237SOL    HW213611   6.282   4.921   4.043
 4238SOL     OW13612   3.964   5.203   3.023
 4238SOL    HW113613   4.012   5.193   3.110
 4238SOL    HW213614   3.979   5.121   2.967
 4239SOL     OW13615   5.882   1.149   3.745
 4239SOL    HW113616   5.863   1.117   3.838
 4239SOL    HW213617   5.855   1.245   3.736
 4240SOL     OW13618   2.201   0.000   0.041
 4240SOL    HW113619   2.199   6.991   0.138
 4240SOL    HW213620   2.243   6.945   7.005
 4241SOL     OW13621   5.876   1.319   1.389
 4241SOL    HW113622   5.945   1.387   1.415
 4241SOL    HW213623   5.893   1.234   1.440
 4242SOL     OW13624   1.960   0.617   3.171
 4242SOL    HW113625   1.985   0.553   3.098
 4242SOL    HW213626   2.025   0.694   3.171
 4243SOL     OW13627   0.720   3.861   3.538
 4243SOL    HW113628   0.739   3.915   3.620
 4243SOL    HW213629   0.646   3.797   3.556
 4244SOL     OW13630   4.919   5.214   0.705
 4244SOL    HW113631   4.824   5.184   0.716
 4244SOL    HW213632   4.948   5.261   0.788
 4245SOL     OW13633   6.317   1.288   6.150
 4245SOL    HW113634   6.244   1.226   6.178
 4245SOL    HW213635   6.288   1.383   6.161
 4246SOL     OW13636   5.657   2.362   3.518
 4246SOL    HW113637   5.659   2.372   3.617
 4246SOL    HW213638   5.717   2.286   3.491
 4247SOL     OW13639   2.275   5.005   3.479
 4247SOL    HW113640   2.176   5.006   3.497
 4247SOL    HW213641   2.317   5.086   3.518
 4248SOL     OW13642   1.264   1.188   3.588
 4248SOL    HW113643   1.236   1.166   3.682
 4248SOL    HW213644   1.344   1.134   3.564
 4249SOL     OW13645   5.298   1.566   3.273
 4249SOL    HW113646   5.232   1.626   3.228
 4249SOL    HW213647   5.384   1.568   3.223
 4250SOL     OW13648   6.380   6.237   4.382
 4250SOL    HW113649   6.342   6.283   4.302
 4250SOL    HW213650   6.306   6.209   4.443
 4251SOL     OW13651   6.515   3.019   0.949
 4251SOL    HW113652   6.498   2.943   1.011
 4251SOL    HW213653   6.436   3.081   0.950
 4252SOL     OW13654   4.997   5.990   6.630
 4252SOL    HW113655   5.066   5.964   6.562
 4252SOL    HW213656   5.012   6.085   6.656
 4253SOL     OW13657   3.176   6.820   1.710
 4253SOL    HW113658   3.100   6.885   1.715
 4253SOL    HW213659   3.158   6.753   1.638
 4254SOL     OW13660   2.159   4.025   2.113
 4254SOL    HW113661   2.195   4.089   2.046
 4254SOL    HW213662   2.059   4.031   2.116
 4255SOL     OW13663   0.261   3.791   3.920
 4255SOL    HW113664   0.274   3.852   3.842
 4255SOL    HW213665   0.165   3.763   3.925
 4256SOL     OW13666   0.861   5.834   0.945
 4256SOL    HW113667   0.818   5.916   0.983
 4256SOL    HW213668   0.833   5.754   0.998
 4257SOL     OW13669   4.889   1.334   4.615
 4257SOL    HW113670   4.822   1.275   4.661
 4257SOL    HW213671   4.842   1.411   4.572
 4258SOL     OW13672   2.890   6.027   0.957
 4258SOL    HW113673   2.826   5.964   1.002
 4258SOL    HW213674   2.890   6.010   0.859
 4259SOL     OW13675   1.333   5.885   0.925
 4259SOL    HW113676   1.342   5.980   0.955
 4259SOL    HW213677   1.413   5.861   0.869
 4260SOL     OW13678   5.674   0.897   3.408
 4260SOL    HW113679   5.595   0.959   3.409
 4260SOL    HW213680   5.650   0.814   3.359
 4261SOL     OW13681   1.590   0.244   2.974
 4261SOL    HW113682   1.688   0.257   2.957
 4261SOL    HW213683   1.554   0.324   3.022
 4262SOL     OW13684   0.995   4.199   6.169
 4262SOL    HW113685   0.992   4.172   6.265
 4262SOL    HW213686   1.073   4.154   6.124
 4263SOL     OW13687   2.793   0.920   3.637
 4263SOL    HW113688   2.791   1.010   3.595
 4263SOL    HW213689   2.722   0.914   3.708
 4264SOL     OW13690   6.420   1.710   4.659
 4264SOL    HW113691   6.386   1.656   4.582
 4264SOL    HW213692   6.390   1.805   4.649
 4265SOL     OW13693   3.586   0.823   0.970
 4265SOL    HW113694   3.641   0.883   1.028
 4265SOL    HW213695   3.641   0.790   0.894
 4266SOL     OW13696   2.078   6.358   6.826
 4266SOL    HW113697   1.986   6.371   6.790
 4266SOL    HW213698   2.137   6.323   6.753
 4267SOL     OW13699   2.047   3.861   4.157
 4267SOL    HW113700   1.976   3.845   4.090
 4267SOL    HW213701   2.098   3.944   4.133
 4268SOL     OW13702   1.946   5.575   6.798
 4268SOL    HW113703   1.911   5.487   6.767
 4268SOL    HW213704   1.981   5.566   6.891
 4269SOL     OW13705   2.874   0.737   3.273
 4269SOL    HW113706   2.841   0.709   3.363
 4269SOL    HW213707   2.844   0.670   3.204
 4270SOL     OW13708   3.316   2.928   2.273
 4270SOL    HW113709   3.227   2.928   2.318
 4270SOL    HW213710   3.331   3.017   2.229
 4271SOL     OW13711   6.944   1.183   0.205
 4271SOL    HW113712   6.882   1.153   0.278
 4271SOL    HW213713   6.928   1.129   0.123
 4272SOL     OW13714   6.941   2.639   5.005
 4272SOL    HW113715   6.865   2.679   5.056
 4272SOL    HW213716   6.939   2.540   5.014
 4273SOL     OW13717   4.826   6.343   4.807
 4273SOL    HW113718   4.869   6.297   4.729
 4273SOL    HW213719   4.797   6.275   4.874
 4274SOL     OW13720   1.284   7.017   1.913
 4274SOL    HW113721   1.228   6.941   1.946
 4274SOL    HW213722   1.359   6.983   1.857
 4275SOL     OW13723   6.933   1.841   4.042
 4275SOL    HW113724   6.938   1.741   4.050
 4275SOL    HW213725   6.914   1.866   3.948
 4276SOL     OW13726   3.074   5.075   3.765
 4276SOL    HW113727   2.997   5.119   3.811
 4276SOL    HW213728   3.130   5.028   3.832
 4277SOL     OW13729   7.013   4.378   2.548
 4277SOL    HW113730   6.974   4.436   2.619
 4277SOL    HW213731   6.979   4.284   2.560
 4278SOL     OW13732   0.429   6.800   4.216
 4278SOL    HW113733   0.380   6.714   4.223
 4278SOL    HW213734   0.492   6.797   4.138
 4279SOL     OW13735   1.950   0.935   3.128
 4279SOL    HW113736   1.948   0.910   3.031
 4279SOL    HW213737   1.856   0.937   3.163
 4280SOL     OW13738   6.309   0.010   5.921
 4280SOL    HW113739   6.228   0.013   5.862
 4280SOL    HW213740   6.390   0.036   5.868
 4281SOL     OW13741   5.611   5.168   3.231
 4281SOL    HW113742   5.624   5.175   3.330
 4281SOL    HW213743   5.591   5.259   3.194
 4282SOL     OW13744   3.433   4.385   0.479
 4282SOL    HW113745   3.409   4.444   0.402
 4282SOL    HW213746   3.442   4.441   0.562
 4283SOL     OW13747   3.099   1.418   3.675
 4283SOL    HW113748   3.137   1.325   3.679
 4283SOL    HW213749   3.171   1.482   3.648
 4284SOL     OW13750   4.514   5.344   0.609
 4284SOL    HW113751   4.511   5.246   0.591
 4284SOL    HW213752   4.531   5.393   0.524
 4285SOL     OW13753   2.199   1.374   5.823
 4285SOL    HW113754   2.213   1.276   5.840
 4285SOL    HW213755   2.269   1.406   5.759
 4286SOL     OW13756   5.922   0.080   6.063
 4286SOL    HW113757   5.916   7.001   6.086
 4286SOL    HW213758   5.836   0.110   6.022
 4287SOL     OW13759   4.848   0.969   5.764
 4287SOL    HW113760   4.833   1.029   5.685
 4287SOL    HW213761   4.801   0.882   5.749
 4288SOL     OW13762   1.125   5.622   3.109
 4288SOL    HW113763   1.068   5.593   3.032
 4288SOL    HW213764   1.079   5.695   3.159
 4289SOL     OW13765   0.904   2.219   6.209
 4289SOL    HW113766   0.926   2.129   6.172
 4289SOL    HW213767   0.971   2.286   6.176
 4290SOL     OW13768   0.686   6.211   4.964
 4290SOL    HW113769   0.695   6.175   5.057
 4290SOL    HW213770   0.680   6.134   4.900
 4291SOL     OW13771   5.040   4.243   6.543
 4291SOL    HW113772   5.036   4.286   6.453
 4291SOL    HW213773   5.025   4.144   6.533
 4292SOL     OW13774   5.922   2.918   0.311
 4292SOL    HW113775   5.824   2.915   0.329
 4292SOL    HW213776   5.941   2.983   0.237
 4293SOL     OW13777   3.669   4.521   6.924
 4293SOL    HW113778   3.570   4.527   6.915
 4293SOL    HW213779   3.702   4.436   6.883
 4294SOL     OW13780   1.966   1.119   6.406
 4294SOL    HW113781   2.043   1.068   6.369
 4294SOL    HW213782   1.991   1.215   6.416
 4295SOL     OW13783   5.098   5.944   3.799
 4295SOL    HW113784   5.112   5.916   3.704
 4295SOL    HW213785   5.112   5.865   3.859
 4296SOL     OW13786   3.160   6.809   0.021
 4296SOL    HW113787   3.162   6.888   0.082
 4296SOL    HW213788   3.066   6.779   0.009
 4297SOL     OW13789   6.743   6.591   2.084
 4297SOL    HW113790   6.815   6.544   2.135
 4297SOL    HW213791   6.690   6.525   2.031
 4298SOL     OW13792   3.560   6.235   1.518
 4298SOL    HW113793   3.550   6.142   1.553
 4298SOL    HW213794   3.591   6.295   1.591
 4299SOL     OW13795   0.893   3.034   0.271
 4299SOL    HW113796   0.956   2.957   0.260
 4299SOL    HW213797   0.926   3.111   0.217
 4300SOL     OW13798   2.504   6.933   0.262
 4300SOL    HW113799   2.525   0.012   0.253
 4300SOL    HW213800   2.584   6.878   0.237
 4301SOL     OW13801   4.660   0.366   1.647
 4301SOL    HW113802   4.587   0.311   1.689
 4301SOL    HW213803   4.677   0.332   1.555
 4302SOL     OW13804   6.895   0.245   6.328
 4302SOL    HW113805   6.893   0.145   6.321
 4302SOL    HW213806   6.942   0.272   6.412
 4303SOL     OW13807   0.111   4.398   4.324
 4303SOL    HW113808   0.032   4.393   4.386
 4303SOL    HW213809   0.193   4.420   4.377
 4304SOL     OW13810   3.392   3.661   2.306
 4304SOL    HW113811   3.344   3.617   2.231
 4304SOL    HW213812   3.464   3.720   2.270
 4305SOL     OW13813   0.488   6.331   6.352
 4305SOL    HW113814   0.542   6.415   6.357
 4305SOL    HW213815   0.390   6.354   6.355
 4306SOL     OW13816   4.823   4.716   4.368
 4306SOL    HW113817   4.732   4.693   4.405
 4306SOL    HW213818   4.876   4.632   4.356
 4307SOL     OW13819   5.457   3.326   5.052
 4307SOL    HW113820   5.442   3.341   5.150
 4307SOL    HW213821   5.471   3.229   5.035
 4308SOL     OW13822   5.807   5.594   1.257
 4308SOL    HW113823   5.811   5.532   1.179
 4308SOL    HW213824   5.867   5.672   1.240
 4309SOL     OW13825   1.380   1.189   0.931
 4309SOL    HW113826   1.435   1.162   0.853
 4309SOL    HW213827   1.435   1.243   0.994
 4310SOL     OW13828   1.673   2.311   1.132
 4310SOL    HW113829   1.761   2.335   1.092
 4310SOL    HW213830   1.606   2.297   1.059
 4311SOL     OW13831   0.442   6.092   2.754
 4311SOL    HW113832   0.511   6.114   2.685
 4311SOL    HW213833   0.356   6.070   2.709
 4312SOL     OW13834   1.717   5.373   3.156
 4312SOL    HW113835   1.638   5.355   3.215
 4312SOL    HW213836   1.690   5.366   3.060
 4313SOL     OW13837   4.366   1.946   0.514
 4313SOL    HW113838   4.456   1.941   0.470
 4313SOL    HW213839   4.311   1.867   0.487
 4314SOL     OW13840   6.324   1.231   4.764
 4314SOL    HW113841   6.377   1.283   4.698
 4314SOL    HW213842   6.380   1.156   4.800
 4315SOL     OW13843   2.554   0.589   3.591
 4315SOL    HW113844   2.507   0.597   3.503
 4315SOL    HW213845   2.643   0.634   3.585
 4316SOL     OW13846   4.992   0.033   2.272
 4316SOL    HW113847   4.934   0.108   2.241
 4316SOL    HW213848   5.034   7.006   2.194
 4317SOL     OW13849   5.104   1.367   5.990
 4317SOL    HW113850   5.195   1.382   6.028
 4317SOL    HW213851   5.107   1.291   5.925
 4318SOL     OW13852   1.015   1.596   4.769
 4318SOL    HW113853   0.953   1.590   4.847
 4318SOL    HW213854   1.096   1.539   4.787
 4319SOL     OW13855   1.112   2.172   1.302
 4319SOL    HW113856   1.188   2.196   1.362
 4319SOL    HW213857   1.127   2.212   1.211
 4320SOL     OW13858   3.808   5.423   1.027
 4320SOL    HW113859   3.901   5.451   1.048
 4320SOL    HW213860   3.755   5.419   1.112
 4321SOL     OW13861   6.931   4.693   4.416
 4321SOL    HW113862   6.882   4.649   4.341
 4321SOL    HW213863   0.005   4.719   4.386
 4322SOL     OW13864   6.437   2.988   6.686
 4322SOL    HW113865   6.490   3.073   6.677
 4322SOL    HW213866   6.432   2.942   6.597
 4323SOL     OW13867   5.087   4.877   0.262
 4323SOL    HW113868   5.020   4.886   0.335
 4323SOL    HW213869   5.041   4.854   0.176
 4324SOL     OW13870   6.397   4.084   6.044
 4324SOL    HW113871   6.388   4.146   5.966
 4324SOL    HW213872   6.339   4.116   6.119
 4325SOL     OW13873   2.915   1.689   2.203
 4325SOL    HW113874   2.893   1.763   2.267
 4325SOL    HW213875   2.887   1.601   2.242
 4326SOL     OW13876   5.082   4.558   1.906
 4326SOL    HW113877   5.027   4.578   1.987
 4326SOL    HW213878   5.025   4.517   1.835
 4327SOL     OW13879   4.809   6.284   2.330
 4327SOL    HW113880   4.850   6.291   2.420
 4327SOL    HW213881   4.772   6.191   2.317
 4328SOL     OW13882   5.611   4.846   5.497
 4328SOL    HW113883   5.638   4.833   5.593
 4328SOL    HW213884   5.521   4.806   5.483
 4329SOL     OW13885   5.712   2.605   5.382
 4329SOL    HW113886   5.698   2.581   5.286
 4329SOL    HW213887   5.804   2.575   5.410
 4330SOL     OW13888   2.040   6.591   4.606
 4330SOL    HW113889   2.041   6.654   4.683
 4330SOL    HW213890   2.132   6.580   4.570
 4331SOL     OW13891   5.890   0.871   1.808
 4331SOL    HW113892   5.865   0.802   1.876
 4331SOL    HW213893   5.910   0.826   1.721
 4332SOL     OW13894   6.204   2.876   2.956
 4332SOL    HW113895   6.122   2.819   2.965
 4332SOL    HW213896   6.259   2.869   3.039
 4333SOL     OW13897   4.529   1.758   4.642
 4333SOL    HW113898   4.618   1.800   4.625
 4333SOL    HW213899   4.490   1.795   4.726
 4334SOL     OW13900   1.909   2.890   2.019
 4334SOL    HW113901   1.900   2.815   2.084
 4334SOL    HW213902   1.888   2.857   1.927
 4335SOL     OW13903   3.603   2.907   2.138
 4335SOL    HW113904   3.564   2.995   2.109
 4335SOL    HW213905   3.592   2.896   2.237
 4336SOL     OW13906   2.810   5.590   5.973
 4336SOL    HW113907   2.780   5.502   6.009
 4336SOL    HW213908   2.910   5.595   5.977
 4337SOL     OW13909   2.187   4.794   1.406
 4337SOL    HW113910   2.246   4.852   1.461
 4337SOL    HW213911   2.153   4.718   1.461
 4338SOL     OW13912   6.367   0.124   6.190
 4338SOL    HW113913   6.384   0.218   6.160
 4338SOL    HW213914   6.362   0.064   6.110
 4339SOL     OW13915   4.132   2.795   6.462
 4339SOL    HW113916   4.225   2.778   6.429
 4339SOL    HW213917   4.128   2.778   6.561
 4340SOL     OW13918   5.908   3.926   0.988
 4340SOL    HW113919   5.962   3.985   0.927
 4340SOL    HW213920   5.811   3.933   0.963
 4341SOL     OW13921   1.450   5.413   1.127
 4341SOL    HW113922   1.444   5.510   1.102
 4341SOL    HW213923   1.369   5.388   1.181
 4342SOL     OW13924   5.387   3.645   3.149
 4342SOL    HW113925   5.353   3.603   3.065
 4342SOL    HW213926   5.329   3.617   3.226
 4343SOL     OW13927   3.222   6.061   4.744
 4343SOL    HW113928   3.256   6.014   4.662
 4343SOL    HW213929   3.287   6.048   4.819
 4344SOL     OW13930   1.286   3.144   2.963
 4344SOL    HW113931   1.223   3.221   2.958
 4344SOL    HW213932   1.371   3.173   3.007
 4345SOL     OW13933   3.395   3.623   4.882
 4345SOL    HW113934   3.339   3.674   4.947
 4345SOL    HW213935   3.369   3.527   4.883
 4346SOL     OW13936   2.079   2.630   2.750
 4346SOL    HW113937   2.027   2.553   2.712
 4346SOL    HW213938   2.162   2.644   2.696
 4347SOL     OW13939   5.691   6.663   2.768
 4347SOL    HW113940   5.790   6.656   2.754
 4347SOL    HW213941   5.648   6.577   2.742
 4348SOL     OW13942   0.156   5.948   4.390
 4348SOL    HW113943   0.093   5.938   4.312
 4348SOL    HW213944   0.250   5.943   4.358
 4349SOL     OW13945   6.396   2.456   4.140
 4349SOL    HW113946   6.380   2.364   4.177
 4349SOL    HW213947   6.490   2.482   4.157
 4350SOL     OW13948   4.469   1.665   3.990
 4350SOL    HW113949   4.542   1.600   3.971
 4350SOL    HW213950   4.485   1.708   4.079
 4351SOL     OW13951   1.326   6.477   1.175
 4351SOL    HW113952   1.335   6.450   1.271
 4351SOL    HW213953   1.408   6.527   1.147
 4352SOL     OW13954   6.381   4.200   1.714
 4352SOL    HW113955   6.388   4.110   1.672
 4352SOL    HW213956   6.473   4.234   1.736
 4353SOL     OW13957   3.566   3.349   0.656
 4353SOL    HW113958   3.657   3.363   0.694
 4353SOL    HW213959   3.574   3.334   0.557
 4354SOL     OW13960   2.067   1.374   6.409
 4354SOL    HW113961   2.105   1.372   6.502
 4354SOL    HW213962   2.096   1.457   6.362
 4355SOL     OW13963   1.937   6.987   2.713
 4355SOL    HW113964   1.930   6.909   2.776
 4355SOL    HW213965   1.873   6.975   2.638
 4356SOL     OW13966   4.637   3.608   5.774
 4356SOL    HW113967   4.569   3.646   5.836
 4356SOL    HW213968   4.592   3.574   5.691
 4357SOL     OW13969   6.925   1.138   1.575
 4357SOL    HW113970   6.881   1.054   1.544
 4357SOL    HW213971   6.892   1.215   1.522
 4358SOL     OW13972   6.629   0.681   0.591
 4358SOL    HW113973   6.713   0.675   0.646
 4358SOL    HW213974   6.588   0.590   0.583
 4359SOL     OW13975   1.073   1.183   0.212
 4359SOL    HW113976   1.043   1.139   0.296
 4359SOL    HW213977   1.173   1.188   0.210
 4360SOL     OW13978   0.428   3.016   4.518
 4360SOL    HW113979   0.484   3.007   4.601
 4360SOL    HW213980   0.481   3.064   4.448
 4361SOL     OW13981   2.181   3.897   1.331
 4361SOL    HW113982   2.175   3.994   1.354
 4361SOL    HW213983   2.142   3.843   1.406
 4362SOL     OW13984   6.981   5.846   4.189
 4362SOL    HW113985   6.983   5.929   4.133
 4362SOL    HW213986   6.900   5.846   4.247
 4363SOL     OW13987   4.756   1.233   1.585
 4363SOL    HW113988   4.766   1.266   1.679
 4363SOL    HW213989   4.846   1.225   1.543
 4364SOL     OW13990   3.223   4.110   3.364
 4364SOL    HW113991   3.150   4.088   3.299
 4364SOL    HW213992   3.305   4.138   3.313
 4365SOL     OW13993   2.923   0.944   2.365
 4365SOL    HW113994   2.925   1.043   2.380
 4365SOL    HW213995   2.834   0.908   2.394
 4366SOL     OW13996   6.316   6.409   6.752
 4366SOL    HW113997   6.268   6.445   6.832
 4366SOL    HW213998   6.262   6.425   6.670
 4367SOL     OW13999   2.632   5.023   3.682
 4367SOL    HW114000   2.583   4.963   3.619
 4367SOL    HW214001   2.668   5.102   3.632
 4368SOL     OW14002   3.801   5.572   1.862
 4368SOL    HW114003   3.750   5.492   1.895
 4368SOL    HW214004   3.737   5.640   1.826
 4369SOL     OW14005   4.850   5.194   3.219
 4369SOL    HW114006   4.854   5.095   3.204
 4369SOL    HW214007   4.802   5.214   3.304
 4370SOL     OW14008   3.601   4.115   1.532
 4370SOL    HW114009   3.619   4.039   1.594
 4370SOL    HW214010   3.631   4.091   1.439
 4371SOL     OW14011   1.961   2.042   3.075
 4371SOL    HW114012   2.007   2.039   3.163
 4371SOL    HW214013   1.972   2.133   3.034
 4372SOL     OW14014   2.596   2.528   4.539
 4372SOL    HW114015   2.603   2.521   4.639
 4372SOL    HW214016   2.686   2.513   4.498
 4373SOL     OW14017   4.512   0.821   6.617
 4373SOL    HW114018   4.461   0.903   6.590
 4373SOL    HW214019   4.448   0.745   6.630
 4374SOL     OW14020   1.858   1.675   1.760
 4374SOL    HW114021   1.854   1.729   1.844
 4374SOL    HW214022   1.943   1.623   1.757
 4375SOL     OW14023   3.968   5.908   2.892
 4375SOL    HW114024   3.893   5.953   2.939
 4375SOL    HW214025   3.932   5.842   2.825
 4376SOL     OW14026   6.393   0.580   2.039
 4376SOL    HW114027   6.417   0.676   2.053
 4376SOL    HW214028   6.310   0.558   2.091
 4377SOL     OW14029   5.779   5.675   0.292
 4377SOL    HW114030   5.697   5.701   0.345
 4377SOL    HW214031   5.860   5.688   0.349
 4378SOL     OW14032   1.987   3.965   2.943
 4378SOL    HW114033   2.083   3.939   2.934
 4378SOL    HW214034   1.935   3.886   2.975
 4379SOL     OW14035   2.453   1.153   2.005
 4379SOL    HW114036   2.362   1.113   2.017
 4379SOL    HW214037   2.522   1.088   2.037
 4380SOL     OW14038   1.763   6.388   4.073
 4380SOL    HW114039   1.775   6.303   4.125
 4380SOL    HW214040   1.834   6.453   4.101
 4381SOL     OW14041   2.199   4.098   4.785
 4381SOL    HW114042   2.198   4.022   4.719
 4381SOL    HW214043   2.253   4.072   4.865
 4382SOL     OW14044   5.800   3.335   6.246
 4382SOL    HW114045   5.819   3.242   6.217
 4382SOL    HW214046   5.701   3.347   6.260
 4383SOL     OW14047   0.559   2.828   5.551
 4383SOL    HW114048   0.528   2.848   5.458
 4383SOL    HW214049   0.540   2.907   5.610
 4384SOL     OW14050   5.429   1.087   6.829
 4384SOL    HW114051   5.363   1.068   6.756
 4384SOL    HW214052   5.485   1.005   6.845
 4385SOL     OW14053   6.767   2.534   4.464
 4385SOL    HW114054   6.777   2.626   4.502
 4385SOL    HW214055   6.720   2.539   4.376
 4386SOL     OW14056   1.351   4.049   6.713
 4386SOL    HW114057   1.446   4.037   6.685
 4386SOL    HW214058   1.295   4.074   6.634
 4387SOL     OW14059   1.248   1.563   1.559
 4387SOL    HW114060   1.319   1.628   1.586
 4387SOL    HW214061   1.251   1.549   1.460
 4388SOL     OW14062   5.087   0.995   6.223
 4388SOL    HW114063   5.019   0.928   6.251
 4388SOL    HW214064   5.066   1.029   6.132
 4389SOL     OW14065   5.175   1.807   0.638
 4389SOL    HW114066   5.116   1.850   0.707
 4389SOL    HW214067   5.138   1.824   0.547
 4390SOL     OW14068   4.161   1.764   2.324
 4390SOL    HW114069   4.248   1.758   2.275
 4390SOL    HW214070   4.170   1.829   2.399
 4391SOL     OW14071   1.790   5.490   6.321
 4391SOL    HW114072   1.696   5.461   6.335
 4391SOL    HW214073   1.795   5.590   6.329
 4392SOL     OW14074   6.496   3.747   5.289
 4392SOL    HW114075   6.411   3.733   5.238
 4392SOL    HW214076   6.573   3.735   5.227
 4393SOL     OW14077   5.742   6.449   2.972
 4393SOL    HW114078   5.808   6.507   2.925
 4393SOL    HW214079   5.753   6.459   3.071
 4394SOL     OW14080   6.377   5.335   2.789
 4394SOL    HW114081   6.464   5.306   2.828
 4394SOL    HW214082   6.391   5.415   2.730
 4395SOL     OW14083   3.801   1.307   1.870
 4395SOL    HW114084   3.758   1.219   1.854
 4395SOL    HW214085   3.853   1.305   1.955
 4396SOL     OW14086   2.713   2.127   4.083
 4396SOL    HW114087   2.676   2.086   3.999
 4396SOL    HW214088   2.735   2.223   4.066
 4397SOL     OW14089   0.836   1.581   4.958
 4397SOL    HW114090   0.763   1.524   4.997
 4397SOL    HW214091   0.861   1.652   5.024
 4398SOL     OW14092   1.434   4.724   4.952
 4398SOL    HW114093   1.351   4.691   4.998
 4398SOL    HW214094   1.418   4.728   4.853
 4399SOL     OW14095   1.641   0.429   2.325
 4399SOL    HW114096   1.683   0.347   2.286
 4399SOL    HW214097   1.647   0.504   2.259
 4400SOL     OW14098   2.269   0.199   4.970
 4400SOL    HW114099   2.205   0.263   4.926
 4400SOL    HW214100   2.338   0.171   4.903
 4401SOL     OW14101   5.320   6.719   6.742
 4401SOL    HW114102   5.317   6.766   6.830
 4401SOL    HW214103   5.240   6.743   6.688
 4402SOL     OW14104   1.970   6.553   2.211
 4402SOL    HW114105   1.922   6.633   2.175
 4402SOL    HW214106   2.067   6.560   2.188
 4403SOL     OW14107   0.311   0.004   3.456
 4403SOL    HW114108   0.317   0.001   3.556
 4403SOL    HW214109   0.401   7.003   3.416
 4404SOL     OW14110   0.897   4.157   5.546
 4404SOL    HW114111   0.898   4.170   5.447
 4404SOL    HW214112   0.917   4.244   5.591
 4405SOL     OW14113   2.800   4.025   0.310
 4405SOL    HW114114   2.862   4.079   0.253
 4405SOL    HW214115   2.732   4.085   0.352
 4406SOL     OW14116   5.916   4.697   1.648
 4406SOL    HW114117   5.823   4.706   1.613
 4406SOL    HW214118   5.931   4.603   1.679
 4407SOL     OW14119   0.131   4.334   0.697
 4407SOL    HW114120   0.114   4.340   0.795
 4407SOL    HW214121   0.220   4.292   0.680
 4408SOL     OW14122   4.682   0.996   1.021
 4408SOL    HW114123   4.604   1.058   1.025
 4408SOL    HW214124   4.722   0.987   1.113
 4409SOL     OW14125   4.216   0.490   2.019
 4409SOL    HW114126   4.280   0.567   2.015
 4409SOL    HW214127   4.240   0.432   2.096
 4410SOL     OW14128   1.843   5.476   0.480
 4410SOL    HW114129   1.872   5.418   0.404
 4410SOL    HW214130   1.770   5.430   0.530
 4411SOL     OW14131   3.939   3.223   3.757
 4411SOL    HW114132   3.967   3.212   3.852
 4411SOL    HW214133   3.845   3.256   3.752
 4412SOL     OW14134   3.526   1.091   4.676
 4412SOL    HW114135   3.577   1.158   4.621
 4412SOL    HW214136   3.588   1.021   4.709
 4413SOL     OW14137   4.755   5.852   4.477
 4413SOL    HW114138   4.773   5.826   4.571
 4413SOL    HW214139   4.828   5.913   4.445
 4414SOL     OW14140   4.088   4.699   1.930
 4414SOL    HW114141   4.077   4.650   1.843
 4414SOL    HW214142   4.017   4.768   1.938
 4415SOL     OW14143   4.215   4.044   6.166
 4415SOL    HW114144   4.264   4.108   6.107
 4415SOL    HW214145   4.148   3.993   6.113
 4416SOL     OW14146   3.135   0.944   3.998
 4416SOL    HW114147   3.065   1.010   3.971
 4416SOL    HW214148   3.208   0.941   3.929
 4417SOL     OW14149   6.563   4.391   3.315
 4417SOL    HW114150   6.555   4.313   3.253
 4417SOL    HW214151   6.599   4.360   3.403
 4418SOL     OW14152   5.295   0.533   3.773
 4418SOL    HW114153   5.384   0.503   3.807
 4418SOL    HW214154   5.280   0.629   3.799
 4419SOL     OW14155   5.572   6.207   0.324
 4419SOL    HW114156   5.577   6.107   0.315
 4419SOL    HW214157   5.568   6.231   0.421
 4420SOL     OW14158   4.922   1.851   1.250
 4420SOL    HW114159   4.917   1.934   1.195
 4420SOL    HW214160   4.928   1.771   1.189
 4421SOL     OW14161   2.121   0.968   3.476
 4421SOL    HW114162   2.140   0.896   3.543
 4421SOL    HW214163   2.131   1.058   3.520
 4422SOL     OW14164   1.991   3.717   5.931
 4422SOL    HW114165   2.039   3.684   5.850
 4422SOL    HW214166   2.057   3.762   5.992
 4423SOL     OW14167   1.465   2.710   5.806
 4423SOL    HW114168   1.497   2.748   5.719
 4423SOL    HW214169   1.386   2.762   5.838
 4424SOL     OW14170   5.031   6.898   4.107
 4424SOL    HW114171   5.097   6.925   4.177
 4424SOL    HW214172   5.070   6.914   4.017
 4425SOL     OW14173   3.445   5.663   5.787
 4425SOL    HW114174   3.376   5.662   5.714
 4425SOL    HW214175   3.529   5.704   5.752
 4426SOL     OW14176   0.038   2.101   4.721
 4426SOL    HW114177   6.960   2.082   4.699
 4426SOL    HW214178   0.067   2.184   4.674
 4427SOL     OW14179   6.713   6.687   3.099
 4427SOL    HW114180   6.716   6.681   3.199
 4427SOL    HW214181   6.735   6.780   3.070
 4428SOL     OW14182   3.069   5.305   1.758
 4428SOL    HW114183   3.025   5.392   1.780
 4428SOL    HW214184   3.028   5.266   1.676
 4429SOL     OW14185   3.161   0.654   3.499
 4429SOL    HW114186   3.234   0.722   3.506
 4429SOL    HW214187   3.106   0.656   3.583
 4430SOL     OW14188   5.183   2.913   4.620
 4430SOL    HW114189   5.161   2.959   4.707
 4430SOL    HW214190   5.158   2.817   4.627
 4431SOL     OW14191   1.084   0.784   2.125
 4431SOL    HW114192   1.153   0.857   2.123
 4431SOL    HW214193   1.026   0.791   2.044
 4432SOL     OW14194   3.299   4.115   3.640
 4432SOL    HW114195   3.392   4.081   3.637
 4432SOL    HW214196   3.266   4.130   3.546
 4433SOL     OW14197   6.004   0.457   4.748
 4433SOL    HW114198   5.969   0.364   4.752
 4433SOL    HW214199   6.072   0.464   4.675
 4434SOL     OW14200   3.531   2.116   3.308
 4434SOL    HW114201   3.466   2.155   3.243
 4434SOL    HW214202   3.585   2.189   3.350
 4435SOL     OW14203   4.026   3.887   1.134
 4435SOL    HW114204   4.058   3.821   1.201
 4435SOL    HW214205   3.968   3.841   1.067
 4436SOL     OW14206   3.735   1.738   0.648
 4436SOL    HW114207   3.741   1.811   0.715
 4436SOL    HW214208   3.662   1.675   0.673
 4437SOL     OW14209   5.552   1.090   4.080
 4437SOL    HW114210   5.546   1.145   3.996
 4437SOL    HW214211   5.605   1.140   4.149
 4438SOL     OW14212   4.397   1.402   0.047
 4438SOL    HW114213   4.327   1.406   6.994
 4438SOL    HW214214   4.362   1.444   0.131
 4439SOL     OW14215   0.497   6.020   1.198
 4439SOL    HW114216   0.555   6.024   1.279
 4439SOL    HW214217   0.419   6.081   1.209
 4440SOL     OW14218   1.929   4.670   0.651
 4440SOL    HW114219   1.920   4.719   0.738
 4440SOL    HW214220   1.955   4.734   0.579
 4441SOL     OW14221   6.596   1.759   2.888
 4441SOL    HW114222   6.518   1.769   2.950
 4441SOL    HW214223   6.565   1.776   2.794
 4442SOL     OW14224   2.599   5.839   4.643
 4442SOL    HW114225   2.631   5.896   4.567
 4442SOL    HW214226   2.500   5.823   4.633
 4443SOL     OW14227   6.862   2.949   0.624
 4443SOL    HW114228   6.880   2.969   0.528
 4443SOL    HW214229   6.765   2.929   0.637
 4444SOL     OW14230   3.866   5.578   6.334
 4444SOL    HW114231   3.904   5.520   6.263
 4444SOL    HW214232   3.830   5.662   6.293
 4445SOL     OW14233   0.028   0.483   0.993
 4445SOL    HW114234   0.047   0.581   0.989
 4445SOL    HW214235   0.112   0.433   0.974
 4446SOL     OW14236   6.347   1.734   1.795
 4446SOL    HW114237   6.250   1.714   1.809
 4446SOL    HW214238   6.401   1.690   1.868
 4447SOL     OW14239   5.786   3.647   6.200
 4447SOL    HW114240   5.814   3.556   6.230
 4447SOL    HW214241   5.828   3.667   6.111
 4448SOL     OW14242   3.439   3.998   0.646
 4448SOL    HW114243   3.426   3.952   0.733
 4448SOL    HW214244   3.478   4.089   0.662
 4449SOL     OW14245   4.623   0.951   5.993
 4449SOL    HW114246   4.594   1.025   6.053
 4449SOL    HW214247   4.666   0.879   6.047
 4450SOL     OW14248   4.067   3.365   4.105
 4450SOL    HW114249   4.086   3.398   4.013
 4450SOL    HW214250   4.096   3.433   4.172
 4451SOL     OW14251   5.610   4.117   3.255
 4451SOL    HW114252   5.631   4.158   3.166
 4451SOL    HW214253   5.546   4.042   3.242
 4452SOL     OW14254   5.538   6.557   4.721
 4452SOL    HW114255   5.555   6.530   4.626
 4452SOL    HW214256   5.455   6.612   4.725
 4453SOL     OW14257   6.957   2.987   1.429
 4453SOL    HW114258   6.972   3.062   1.492
 4453SOL    HW214259   6.932   3.023   1.339
 4454SOL     OW14260   5.858   2.155   6.745
 4454SOL    HW114261   5.845   2.063   6.782
 4454SOL    HW214262   5.948   2.189   6.772
 4455SOL     OW14263   4.092   0.578   6.174
 4455SOL    HW114264   4.073   0.483   6.200
 4455SOL    HW214265   4.012   0.635   6.190
 4456SOL     OW14266   2.954   5.422   2.492
 4456SOL    HW114267   2.886   5.495   2.486
 4456SOL    HW214268   2.910   5.337   2.519
 4457SOL     OW14269   4.159   2.530   0.335
 4457SOL    HW114270   4.161   2.441   0.289
 4457SOL    HW214271   4.188   2.519   0.430
 4458SOL     OW14272   1.235   3.893   6.894
 4458SOL    HW114273   1.275   3.930   6.810
 4458SOL    HW214274   1.262   3.797   6.904
 4459SOL     OW14275   4.882   0.413   3.732
 4459SOL    HW114276   4.852   0.419   3.827
 4459SOL    HW214277   4.855   0.325   3.693
 4460SOL     OW14278   3.168   3.076   5.274
 4460SOL    HW114279   3.128   2.998   5.322
 4460SOL    HW214280   3.161   3.157   5.332
 4461SOL     OW14281   1.050   0.429   2.736
 4461SOL    HW114282   0.971   0.434   2.674
 4461SOL    HW214283   1.129   0.396   2.685
 4462SOL     OW14284   0.046   3.291   2.156
 4462SOL    HW114285   6.999   3.335   2.219
 4462SOL    HW214286   0.042   3.192   2.170
 4463SOL     OW14287   3.733   2.998   0.007
 4463SOL    HW114288   3.723   3.097   0.021
 4463SOL    HW214289   3.658   2.964   6.969
 4464SOL     OW14290   6.500   4.111   6.937
 4464SOL    HW114291   6.558   4.188   6.912
 4464SOL    HW214292   6.516   4.035   6.874
 4465SOL     OW14293   2.461   5.274   2.310
 4465SOL    HW114294   2.411   5.349   2.354
 4465SOL    HW214295   2.510   5.310   2.230
 4466SOL     OW14296   1.318   0.627   2.522
 4466SOL    HW114297   1.242   0.585   2.472
 4466SOL    HW214298   1.383   0.556   2.549
 4467SOL     OW14299   1.322   0.035   3.661
 4467SOL    HW114300   1.236   0.083   3.679
 4467SOL    HW214301   1.399   0.098   3.672
 4468SOL     OW14302   1.310   2.801   0.818
 4468SOL    HW114303   1.318   2.704   0.842
 4468SOL    HW214304   1.335   2.856   0.898
 4469SOL     OW14305   3.844   0.363   1.557
 4469SOL    HW114306   3.903   0.327   1.630
 4469SOL    HW214307   3.889   0.348   1.469
 4470SOL     OW14308   6.275   3.224   2.059
 4470SOL    HW114309   6.283   3.288   1.982
 4470SOL    HW214310   6.311   3.266   2.142
 4471SOL     OW14311   7.009   1.837   0.256
 4471SOL    HW114312   7.016   1.936   0.245
 4471SOL    HW214313   0.072   1.803   0.304
 4472SOL     OW14314   1.813   3.027   3.527
 4472SOL    HW114315   1.861   3.054   3.610
 4472SOL    HW214316   1.879   2.988   3.462
 4473SOL     OW14317   0.047   2.730   3.819
 4473SOL    HW114318   6.966   2.726   3.838
 4473SOL    HW214319   0.068   2.812   3.765
 4474SOL     OW14320   3.660   0.578   1.972
 4474SOL    HW114321   3.744   0.576   1.917
 4474SOL    HW214322   3.661   0.501   2.036
 4475SOL     OW14323   1.561   3.863   2.399
 4475SOL    HW114324   1.565   3.781   2.456
 4475SOL    HW214325   1.469   3.902   2.405
 4476SOL     OW14326   4.585   6.461   4.021
 4476SOL    HW114327   4.548   6.416   4.102
 4476SOL    HW214328   4.682   6.483   4.037
 4477SOL     OW14329   1.071   0.337   5.496
 4477SOL    HW114330   1.030   0.374   5.413
 4477SOL    HW214331   1.170   0.331   5.486
 4478SOL     OW14332   3.481   6.094   2.498
 4478SOL    HW114333   3.497   6.017   2.436
 4478SOL    HW214334   3.506   6.067   2.592
 4479SOL     OW14335   0.581   0.734   0.975
 4479SOL    HW114336   0.673   0.710   1.006
 4479SOL    HW214337   0.572   0.710   0.878
 4480SOL     OW14338   1.374   3.311   5.490
 4480SOL    HW114339   1.429   3.307   5.573
 4480SOL    HW214340   1.360   3.407   5.464
 4481SOL     OW14341   2.520   6.726   4.951
 4481SOL    HW114342   2.570   6.808   4.924
 4481SOL    HW214343   2.556   6.691   5.037
 4482SOL     OW14344   0.319   4.142   3.967
 4482SOL    HW114345   0.237   4.159   3.912
 4482SOL    HW214346   0.397   4.190   3.927
 4483SOL     OW14347   4.912   3.390   2.348
 4483SOL    HW114348   4.856   3.473   2.350
 4483SOL    HW214349   4.909   3.345   2.437
 4484SOL     OW14350   3.514   2.968   5.426
 4484SOL    HW114351   3.570   2.886   5.426
 4484SOL    HW214352   3.430   2.951   5.478
 4485SOL     OW14353   5.419   1.817   5.696
 4485SOL    HW114354   5.454   1.891   5.754
 4485SOL    HW214355   5.343   1.772   5.742
 4486SOL     OW14356   5.110   3.916   4.530
 4486SOL    HW114357   5.167   3.835   4.515
 4486SOL    HW214358   5.106   3.937   4.628
 4487SOL     OW14359   2.401   2.945   6.539
 4487SOL    HW114360   2.427   3.005   6.615
 4487SOL    HW214361   2.411   2.850   6.567
 4488SOL     OW14362   5.984   3.526   5.078
 4488SOL    HW114363   5.929   3.443   5.084
 4488SOL    HW214364   6.071   3.505   5.033
 4489SOL     OW14365   5.826   5.354   4.270
 4489SOL    HW114366   5.733   5.323   4.249
 4489SOL    HW214367   5.857   5.419   4.201
 4490SOL     OW14368   6.411   2.504   2.956
 4490SOL    HW114369   6.391   2.490   3.053
 4490SOL    HW214370   6.509   2.492   2.939
 4491SOL     OW14371   0.104   2.792   4.336
 4491SOL    HW114372   0.139   2.875   4.380
 4491SOL    HW214373   0.071   2.729   4.406
 4492SOL     OW14374   5.184   3.295   1.116
 4492SOL    HW114375   5.198   3.392   1.135
 4492SOL    HW214376   5.107   3.262   1.170
 4493SOL     OW14377   4.683   6.026   5.308
 4493SOL    HW114378   4.763   6.016   5.247
 4493SOL    HW214379   4.600   6.008   5.256
 4494SOL     OW14380   0.020   1.466   5.704
 4494SOL    HW114381   0.092   1.482   5.637
 4494SOL    HW214382   7.012   1.370   5.703
 4495SOL     OW14383   4.845   5.622   4.316
 4495SOL    HW114384   4.887   5.537   4.348
 4495SOL    HW214385   4.808   5.673   4.394
 4496SOL     OW14386   4.383   5.770   1.053
 4496SOL    HW114387   4.418   5.745   0.962
 4496SOL    HW214388   4.386   5.869   1.063
 4497SOL     OW14389   5.036   0.462   6.332
 4497SOL    HW114390   4.993   0.429   6.416
 4497SOL    HW214391   5.118   0.408   6.313
 4498SOL     OW14392   6.813   3.442   6.518
 4498SOL    HW114393   6.862   3.358   6.496
 4498SOL    HW214394   6.726   3.445   6.468
 4499SOL     OW14395   0.418   3.553   3.811
 4499SOL    HW114396   0.351   3.487   3.844
 4499SOL    HW214397   0.411   3.637   3.865
 4500SOL     OW14398   2.867   3.442   3.995
 4500SOL    HW114399   2.896   3.388   4.074
 4500SOL    HW214400   2.903   3.400   3.912
 4501SOL     OW14401   6.782   3.050   5.317
 4501SOL    HW114402   6.795   3.140   5.276
 4501SOL    HW214403   6.870   3.011   5.342
 4502SOL     OW14404   1.401   1.934   0.271
 4502SOL    HW114405   1.439   2.016   0.230
 4502SOL    HW214406   1.466   1.859   0.263
 4503SOL     OW14407   3.671   6.695   2.899
 4503SOL    HW114408   3.642   6.709   2.804
 4503SOL    HW214409   3.592   6.703   2.959
 4504SOL     OW14410   6.636   1.191   4.832
 4504SOL    HW114411   6.699   1.170   4.908
 4504SOL    HW214412   6.668   1.273   4.785
 4505SOL     OW14413   6.158   5.796   3.212
 4505SOL    HW114414   6.121   5.773   3.122
 4505SOL    HW214415   6.096   5.858   3.259
 4506SOL     OW14416   4.353   2.443   4.166
 4506SOL    HW114417   4.257   2.416   4.164
 4506SOL    HW214418   4.410   2.361   4.165
 4507SOL     OW14419   5.569   4.829   2.443
 4507SOL    HW114420   5.481   4.858   2.406
 4507SOL    HW214421   5.638   4.834   2.371
 4508SOL     OW14422   1.039   4.943   5.848
 4508SOL    HW114423   1.128   4.953   5.803
 4508SOL    HW214424   1.053   4.925   5.945
 4509SOL     OW14425   5.204   2.144   3.772
 4509SOL    HW114426   5.104   2.148   3.766
 4509SOL    HW214427   5.242   2.117   3.684
 4510SOL     OW14428   4.715   6.995   5.070
 4510SOL    HW114429   4.711   0.020   4.980
 4510SOL    HW214430   4.693   0.046   5.140
 4511SOL     OW14431   6.937   3.674   6.616
 4511SOL    HW114432   6.885   3.591   6.638
 4511SOL    HW214433   7.001   3.694   6.691
 4512SOL     OW14434   2.833   0.153   5.710
 4512SOL    HW114435   2.785   0.202   5.636
 4512SOL    HW214436   2.914   0.109   5.673
 4513SOL     OW14437   4.862   6.353   0.616
 4513SOL    HW114438   4.877   6.422   0.687
 4513SOL    HW214439   4.853   6.263   0.659
 4514SOL     OW14440   4.917   1.102   5.156
 4514SOL    HW114441   4.975   1.127   5.078
 4514SOL    HW214442   4.961   1.130   5.241
 4515SOL     OW14443   0.406   3.465   6.050
 4515SOL    HW114444   0.369   3.452   6.142
 4515SOL    HW214445   0.503   3.492   6.057
 4516SOL     OW14446   1.776   0.622   6.312
 4516SOL    HW114447   1.687   0.624   6.358
 4516SOL    HW214448   1.808   0.528   6.307
 4517SOL     OW14449   2.222   0.811   6.909
 4517SOL    HW114450   2.215   0.867   6.827
 4517SOL    HW214451   2.176   0.857   6.985
 4518SOL     OW14452   6.762   0.918   3.393
 4518SOL    HW114453   6.827   0.962   3.331
 4518SOL    HW214454   6.669   0.938   3.363
 4519SOL     OW14455   5.726   0.001   2.238
 4519SOL    HW114456   5.808   7.007   2.293
 4519SOL    HW214457   5.645   7.010   2.297
 4520SOL     OW14458   5.529   6.292   3.563
 4520SOL    HW114459   5.513   6.280   3.465
 4520SOL    HW214460   5.512   6.206   3.610
 4521SOL     OW14461   5.232   1.697   3.901
 4521SOL    HW114462   5.294   1.672   3.828
 4521SOL    HW214463   5.244   1.794   3.923
 4522SOL     OW14464   5.688   6.921   3.729
 4522SOL    HW114465   5.703   6.843   3.668
 4522SOL    HW214466   5.590   6.939   3.736
 4523SOL     OW14467   1.615   4.438   0.039
 4523SOL    HW114468   1.554   4.393   0.103
 4523SOL    HW214469   1.697   4.381   0.026
 4524SOL     OW14470   5.414   2.253   4.281
 4524SOL    HW114471   5.324   2.229   4.319
 4524SOL    HW214472   5.465   2.307   4.348
 4525SOL     OW14473   5.677   1.149   2.947
 4525SOL    HW114474   5.688   1.180   3.041
 4525SOL    HW214475   5.628   1.218   2.894
 4526SOL     OW14476   5.418   0.592   0.917
 4526SOL    HW114477   5.412   0.518   0.850
 4526SOL    HW214478   5.375   0.674   0.879
 4527SOL     OW14479   4.419   1.378   3.668
 4527SOL    HW114480   4.418   1.282   3.642
 4527SOL    HW214481   4.339   1.423   3.629
 4528SOL     OW14482   4.274   6.677   6.653
 4528SOL    HW114483   4.290   6.766   6.696
 4528SOL    HW214484   4.303   6.680   6.558
 4529SOL     OW14485   3.106   1.739   4.491
 4529SOL    HW114486   3.194   1.699   4.518
 4529SOL    HW214487   3.093   1.728   4.392
 4530SOL     OW14488   0.178   3.671   5.282
 4530SOL    HW114489   0.208   3.728   5.359
 4530SOL    HW214490   0.103   3.717   5.235
 4531SOL     OW14491   0.637   3.386   3.811
 4531SOL    HW114492   0.575   3.463   3.825
 4531SOL    HW214493   0.587   3.308   3.774
 4532SOL     OW14494   6.175   1.543   3.546
 4532SOL    HW114495   6.134   1.597   3.619
 4532SOL    HW214496   6.119   1.550   3.464
 4533SOL     OW14497   1.533   0.484   2.584
 4533SOL    HW114498   1.501   0.405   2.636
 4533SOL    HW214499   1.575   0.453   2.499
 4534SOL     OW14500   5.602   4.183   5.007
 4534SOL    HW114501   5.642   4.102   4.965
 4534SOL    HW214502   5.646   4.265   4.969
 4535SOL     OW14503   5.095   1.876   2.880
 4535SOL    HW114504   5.067   1.943   2.811
 4535SOL    HW214505   5.083   1.784   2.843
 4536SOL     OW14506   4.230   2.183   3.998
 4536SOL    HW114507   4.240   2.083   4.003
 4536SOL    HW214508   4.221   2.220   4.091
 4537SOL     OW14509   3.824   2.899   5.995
 4537SOL    HW114510   3.782   2.926   5.908
 4537SOL    HW214511   3.894   2.966   6.019
 4538SOL     OW14512   2.871   0.743   4.014
 4538SOL    HW114513   2.806   0.782   4.079
 4538SOL    HW214514   2.899   0.813   3.949
 4539SOL     OW14515   2.411   0.698   3.976
 4539SOL    HW114516   2.425   0.621   3.913
 4539SOL    HW214517   2.318   0.734   3.965
 4540SOL     OW14518   3.217   3.065   4.369
 4540SOL    HW114519   3.308   3.024   4.377
 4540SOL    HW214520   3.220   3.158   4.407
 4541SOL     OW14521   5.499   1.585   0.454
 4541SOL    HW114522   5.540   1.552   0.369
 4541SOL    HW214523   5.408   1.620   0.435
 4542SOL     OW14524   6.659   0.025   2.281
 4542SOL    HW114525   6.636   0.112   2.236
 4542SOL    HW214526   6.678   6.973   2.212
 4543SOL     OW14527   5.245   1.899   0.939
 4543SOL    HW114528   5.219   1.804   0.956
 4543SOL    HW214529   5.171   1.946   0.891
 4544SOL     OW14530   3.338   6.434   6.057
 4544SOL    HW114531   3.408   6.418   6.126
 4544SOL    HW214532   3.260   6.374   6.073
 4545SOL     OW14533   5.551   2.405   4.471
 4545SOL    HW114534   5.636   2.403   4.524
 4545SOL    HW214535   5.506   2.493   4.483
 4546SOL     OW14536   1.683   1.397   6.306
 4546SOL    HW114537   1.603   1.394   6.247
 4546SOL    HW214538   1.686   1.315   6.364
 4547SOL     OW14539   6.538   2.689   3.283
 4547SOL    HW114540   6.578   2.688   3.374
 4547SOL    HW214541   6.486   2.605   3.268
 4548SOL     OW14542   1.006   4.258   4.824
 4548SOL    HW114543   0.941   4.281   4.751
 4548SOL    HW214544   1.085   4.319   4.819
 4549SOL     OW14545   5.863   3.685   2.203
 4549SOL    HW114546   5.935   3.745   2.238
 4549SOL    HW214547   5.896   3.637   2.122
 4550SOL     OW14548   0.837   6.061   2.893
 4550SOL    HW114549   0.867   6.061   2.797
 4550SOL    HW214550   0.832   6.155   2.926
 4551SOL     OW14551   6.329   1.586   6.224
 4551SOL    HW114552   6.374   1.675   6.231
 4551SOL    HW214553   6.260   1.578   6.297
 4552SOL     OW14554   6.607   3.134   0.698
 4552SOL    HW114555   6.546   3.122   0.620
 4552SOL    HW214556   6.576   3.079   0.775
 4553SOL     OW14557   3.946   4.200   6.668
 4553SOL    HW114558   3.906   4.254   6.742
 4553SOL    HW214559   3.888   4.120   6.650
 4554SOL     OW14560   4.451   0.548   1.491
 4554SOL    HW114561   4.524   0.554   1.560
 4554SOL    HW214562   4.446   0.634   1.440
 4555SOL     OW14563   3.448   1.765   5.666
 4555SOL    HW114564   3.353   1.755   5.693
 4555SOL    HW214565   3.503   1.792   5.745
 4556SOL     OW14566   4.420   2.275   3.835
 4556SOL    HW114567   4.345   2.252   3.896
 4556SOL    HW214568   4.389   2.341   3.766
 4557SOL     OW14569   5.121   6.772   4.986
 4557SOL    HW114570   5.058   6.734   4.918
 4557SOL    HW214571   5.072   6.834   5.047
 4558SOL     OW14572   0.097   3.448   5.485
 4558SOL    HW114573   0.035   3.480   5.558
 4558SOL    HW214574   0.117   3.523   5.423
 4559SOL     OW14575   0.723   4.543   2.076
 4559SOL    HW114576   0.624   4.552   2.086
 4559SOL    HW214577   0.745   4.455   2.034
 4560SOL     OW14578   4.715   5.139   3.448
 4560SOL    HW114579   4.629   5.088   3.444
 4560SOL    HW214580   4.707   5.214   3.513
 4561SOL     OW14581   3.053   0.723   1.136
 4561SOL    HW114582   3.083   0.747   1.228
 4561SOL    HW214583   3.088   0.633   1.112
 4562SOL     OW14584   3.150   6.261   5.295
 4562SOL    HW114585   3.125   6.285   5.201
 4562SOL    HW214586   3.175   6.344   5.345
 4563SOL     OW14587   0.430   4.310   0.529
 4563SOL    HW114588   0.450   4.338   0.623
 4563SOL    HW214589   0.505   4.339   0.469
 4564SOL     OW14590   0.363   6.787   0.667
 4564SOL    HW114591   0.435   6.726   0.636
 4564SOL    HW214592   0.280   6.734   0.686
 4565SOL     OW14593   0.188   1.327   6.082
 4565SOL    HW114594   0.230   1.354   6.169
 4565SOL    HW214595   0.107   1.383   6.065
 4566SOL     OW14596   6.710   1.716   0.802
 4566SOL    HW114597   6.712   1.705   0.901
 4566SOL    HW214598   6.782   1.780   0.774
 4567SOL     OW14599   0.220   0.997   6.965
 4567SOL    HW114600   0.226   0.901   6.990
 4567SOL    HW214601   0.128   1.017   6.931
 4568SOL     OW14602   0.806   4.795   5.296
 4568SOL    HW114603   0.905   4.794   5.314
 4568SOL    HW214604   0.763   4.866   5.352
 4569SOL     OW14605   1.814   1.258   3.366
 4569SOL    HW114606   1.803   1.354   3.339
 4569SOL    HW214607   1.903   1.225   3.334
 4570SOL     OW14608   0.503   5.429   3.477
 4570SOL    HW114609   0.412   5.468   3.494
 4570SOL    HW214610   0.568   5.465   3.543
 4571SOL     OW14611   2.905   3.276   5.828
 4571SOL    HW114612   2.841   3.260   5.752
 4571SOL    HW214613   2.992   3.308   5.792
 4572SOL     OW14614   0.836   6.828   6.479
 4572SOL    HW114615   0.856   6.756   6.413
 4572SOL    HW214616   0.797   6.787   6.562
 4573SOL     OW14617   6.232   6.184   0.471
 4573SOL    HW114618   6.207   6.147   0.560
 4573SOL    HW214619   6.271   6.275   0.482
 4574SOL     OW14620   6.463   3.984   1.180
 4574SOL    HW114621   6.526   4.057   1.207
 4574SOL    HW214622   6.471   3.969   1.081
 4575SOL     OW14623   6.257   2.156   6.238
 4575SOL    HW114624   6.283   2.252   6.225
 4575SOL    HW214625   6.316   2.114   6.307
 4576SOL     OW14626   2.157   6.159   6.561
 4576SOL    HW114627   2.213   6.241   6.576
 4576SOL    HW214628   2.212   6.089   6.514
 4577SOL     OW14629   0.685   2.303   3.784
 4577SOL    HW114630   0.741   2.220   3.789
 4577SOL    HW214631   0.635   2.314   3.870
 4578SOL     OW14632   1.105   3.509   3.787
 4578SOL    HW114633   1.173   3.562   3.736
 4578SOL    HW214634   1.143   3.484   3.876
 4579SOL     OW14635   5.531   2.206   2.691
 4579SOL    HW114636   5.490   2.115   2.688
 4579SOL    HW214637   5.465   2.271   2.730
 4580SOL     OW14638   4.806   5.540   0.048
 4580SOL    HW114639   4.787   5.635   0.072
 4580SOL    HW214640   4.720   5.490   0.041
 4581SOL     OW14641   2.986   5.494   3.075
 4581SOL    HW114642   3.044   5.492   2.993
 4581SOL    HW214643   3.002   5.411   3.129
 4582SOL     OW14644   5.773   6.391   4.812
 4582SOL    HW114645   5.693   6.450   4.824
 4582SOL    HW214646   5.841   6.413   4.881
 4583SOL     OW14647   3.080   0.966   4.942
 4583SOL    HW114648   2.985   0.997   4.946
 4583SOL    HW214649   3.140   1.044   4.919
 4584SOL     OW14650   0.306   4.934   5.587
 4584SOL    HW114651   0.325   4.836   5.589
 4584SOL    HW214652   0.337   4.972   5.500
 4585SOL     OW14653   3.143   6.680   2.998
 4585SOL    HW114654   3.117   6.640   3.086
 4585SOL    HW214655   3.071   6.744   2.968
 4586SOL     OW14656   4.209   5.145   0.215
 4586SOL    HW114657   4.181   5.079   0.284
 4586SOL    HW214658   4.276   5.208   0.254
 4587SOL     OW14659   3.916   3.765   2.048
 4587SOL    HW114660   3.877   3.835   2.109
 4587SOL    HW214661   4.003   3.733   2.086
 4588SOL     OW14662   4.327   4.328   5.486
 4588SOL    HW114663   4.266   4.292   5.416
 4588SOL    HW214664   4.417   4.286   5.476
 4589SOL     OW14665   5.525   1.268   2.098
 4589SOL    HW114666   5.548   1.365   2.097
 4589SOL    HW214667   5.547   1.228   2.009
 4590SOL     OW14668   5.043   5.744   1.242
 4590SOL    HW114669   5.090   5.760   1.155
 4590SOL    HW214670   5.028   5.831   1.288
 4591SOL     OW14671   0.274   5.965   5.156
 4591SOL    HW114672   0.265   6.058   5.120
 4591SOL    HW214673   0.338   5.965   5.233
 4592SOL     OW14674   4.063   2.066   2.141
 4592SOL    HW114675   3.978   2.015   2.124
 4592SOL    HW214676   4.064   2.099   2.236
 4593SOL     OW14677   3.885   5.726   4.161
 4593SOL    HW114678   3.798   5.713   4.113
 4593SOL    HW214679   3.945   5.782   4.104
 4594SOL     OW14680   3.244   1.050   1.731
 4594SOL    HW114681   3.220   1.074   1.825
 4594SOL    HW214682   3.240   1.132   1.674
 4595SOL     OW14683   3.556   2.557   6.145
 4595SOL    HW114684   3.547   2.494   6.222
 4595SOL    HW214685   3.607   2.638   6.173
 4596SOL     OW14686   5.963   6.564   2.833
 4596SOL    HW114687   5.993   6.648   2.787
 4596SOL    HW214688   6.043   6.518   2.872
 4597SOL     OW14689   5.152   4.692   6.674
 4597SOL    HW114690   5.089   4.768   6.654
 4597SOL    HW214691   5.162   4.682   6.773
 4598SOL     OW14692   2.322   5.065   0.072
 4598SOL    HW114693   2.230   5.090   0.042
 4598SOL    HW214694   2.338   4.968   0.053
 4599SOL     OW14695   1.845   5.147   0.409
 4599SOL    HW114696   1.792   5.098   0.339
 4599SOL    HW214697   1.794   5.148   0.495
 4600SOL     OW14698   1.431   5.119   5.215
 4600SOL    HW114699   1.429   5.019   5.213
 4600SOL    HW214700   1.346   5.155   5.176
 4601SOL     OW14701   1.674   6.999   5.393
 4601SOL    HW114702   1.763   6.963   5.422
 4601SOL    HW214703   1.611   6.923   5.376
 4602SOL     OW14704   0.953   6.152   0.695
 4602SOL    HW114705   0.946   6.236   0.749
 4602SOL    HW214706   0.862   6.111   0.685
 4603SOL     OW14707   3.465   6.580   1.477
 4603SOL    HW114708   3.504   6.498   1.436
 4603SOL    HW214709   3.535   6.651   1.483
 4604SOL     OW14710   4.630   0.629   1.753
 4604SOL    HW114711   4.652   0.531   1.748
 4604SOL    HW214712   4.700   0.681   1.703
 4605SOL     OW14713   4.023   0.965   3.123
 4605SOL    HW114714   3.956   0.910   3.073
 4605SOL    HW214715   4.014   0.948   3.221
 4606SOL     OW14716   1.239   6.959   1.258
 4606SOL    HW114717   1.145   6.989   1.241
 4606SOL    HW214718   1.246   6.920   1.350
 4607SOL     OW14719   2.269   2.593   1.170
 4607SOL    HW114720   2.228   2.672   1.124
 4607SOL    HW214721   2.261   2.604   1.269
 4608SOL     OW14722   0.451   5.513   3.822
 4608SOL    HW114723   0.477   5.585   3.886
 4608SOL    HW214724   0.533   5.465   3.792
 4609SOL     OW14725   4.120   4.959   5.917
 4609SOL    HW114726   4.205   4.941   5.866
 4609SOL    HW214727   4.121   5.053   5.951
 4610SOL     OW14728   5.055   2.238   0.683
 4610SOL    HW114729   5.071   2.313   0.748
 4610SOL    HW214730   5.117   2.249   0.605
 4611SOL     OW14731   6.628   6.097   5.714
 4611SOL    HW114732   6.532   6.070   5.702
 4611SOL    HW214733   6.651   6.097   5.811
 4612SOL     OW14734   0.873   5.756   6.972
 4612SOL    HW114735   0.946   5.760   6.904
 4612SOL    HW214736   0.800   5.696   6.939
 4613SOL     OW14737   2.634   6.003   2.217
 4613SOL    HW114738   2.553   6.033   2.267
 4613SOL    HW214739   2.716   6.026   2.269
 4614SOL     OW14740   0.808   4.149   4.969
 4614SOL    HW114741   0.890   4.191   4.929
 4614SOL    HW214742   0.727   4.191   4.929
 4615SOL     OW14743   2.004   0.717   0.275
 4615SOL    HW114744   1.950   0.638   0.304
 4615SOL    HW214745   2.093   0.686   0.242
 4616SOL     OW14746   5.701   0.271   5.658
 4616SOL    HW114747   5.691   0.361   5.700
 4616SOL    HW214748   5.793   0.262   5.619
 4617SOL     OW14749   1.053   2.339   2.297
 4617SOL    HW114750   0.979   2.343   2.231
 4617SOL    HW214751   1.137   2.374   2.255
 4618SOL     OW14752   2.242   2.514   5.377
 4618SOL    HW114753   2.265   2.477   5.468
 4618SOL    HW214754   2.178   2.590   5.387
 4619SOL     OW14755   3.376   6.257   3.041
 4619SOL    HW114756   3.284   6.220   3.031
 4619SOL    HW214757   3.380   6.315   3.122
 4620SOL     OW14758   3.705   4.136   0.065
 4620SOL    HW114759   3.625   4.162   0.119
 4620SOL    HW214760   3.786   4.179   0.104
 4621SOL     OW14761   4.682   1.409   3.463
 4621SOL    HW114762   4.731   1.393   3.377
 4621SOL    HW214763   4.584   1.417   3.446
 4622SOL     OW14764   2.078   3.941   0.394
 4622SOL    HW114765   2.021   3.900   0.465
 4622SOL    HW214766   2.028   3.941   0.307
 4623SOL     OW14767   6.588   6.368   0.762
 4623SOL    HW114768   6.619   6.407   0.675
 4623SOL    HW214769   6.664   6.320   0.806
 4624SOL     OW14770   5.520   7.000   3.218
 4624SOL    HW114771   5.517   6.957   3.309
 4624SOL    HW214772   5.538   6.931   3.149
 4625SOL     OW14773   2.016   4.722   0.270
 4625SOL    HW114774   2.106   4.706   0.309
 4625SOL    HW214775   2.026   4.768   0.182
 4626SOL     OW14776   5.577   5.369   2.527
 4626SOL    HW114777   5.504   5.427   2.562
 4626SOL    HW214778   5.596   5.392   2.431
 4627SOL     OW14779   3.610   5.394   3.706
 4627SOL    HW114780   3.548   5.368   3.631
 4627SOL    HW214781   3.557   5.407   3.790
 4628SOL     OW14782   5.606   3.684   3.807
 4628SOL    HW114783   5.518   3.720   3.837
 4628SOL    HW214784   5.594   3.594   3.765
 4629SOL     OW14785   2.138   5.047   4.729
 4629SOL    HW114786   2.220   4.995   4.706
 4629SOL    HW214787   2.163   5.124   4.789
 4630SOL     OW14788   3.815   5.781   2.183
 4630SOL    HW114789   3.796   5.694   2.228
 4630SOL    HW214790   3.748   5.797   2.111
 4631SOL     OW14791   2.424   6.469   3.853
 4631SOL    HW114792   2.407   6.371   3.864
 4631SOL    HW214793   2.344   6.520   3.884
 4632SOL     OW14794   4.138   4.974   2.558
 4632SOL    HW114795   4.181   4.916   2.628
 4632SOL    HW214796   4.107   4.917   2.482
 4633SOL     OW14797   5.770   1.578   3.539
 4633SOL    HW114798   5.815   1.594   3.451
 4633SOL    HW214799   5.807   1.494   3.580
 4634SOL     OW14800   2.465   4.665   6.273
 4634SOL    HW114801   2.462   4.714   6.185
 4634SOL    HW214802   2.407   4.712   6.339
 4635SOL     OW14803   5.602   3.434   2.121
 4635SOL    HW114804   5.577   3.519   2.075
 4635SOL    HW214805   5.687   3.447   2.171
 4636SOL     OW14806   2.472   4.935   6.609
 4636SOL    HW114807   2.541   4.986   6.557
 4636SOL    HW214808   2.445   4.989   6.688
 4637SOL     OW14809   0.970   0.391   0.132
 4637SOL    HW114810   0.970   0.483   0.093
 4637SOL    HW214811   1.017   0.328   0.070
 4638SOL     OW14812   4.399   2.649   6.811
 4638SOL    HW114813   4.422   2.706   6.890
 4638SOL    HW214814   4.300   2.651   6.797
 4639SOL     OW14815   2.329   4.388   5.037
 4639SOL    HW114816   2.354   4.312   4.977
 4639SOL    HW214817   2.259   4.444   4.992
 4640SOL     OW14818   5.040   4.630   3.918
 4640SOL    HW114819   5.099   4.611   3.997
 4640SOL    HW214820   4.997   4.720   3.929
 4641SOL     OW14821   2.880   6.083   4.460
 4641SOL    HW114822   2.925   6.121   4.379
 4641SOL    HW214823   2.787   6.054   4.436
 4642SOL     OW14824   0.881   5.981   4.578
 4642SOL    HW114825   0.970   6.026   4.577
 4642SOL    HW214826   0.812   6.044   4.540
 4643SOL     OW14827   5.709   2.986   1.179
 4643SOL    HW114828   5.637   3.030   1.126
 4643SOL    HW214829   5.725   3.037   1.264
 4644SOL     OW14830   0.648   4.820   5.080
 4644SOL    HW114831   0.613   4.912   5.061
 4644SOL    HW214832   0.692   4.820   5.169
 4645SOL     OW14833   1.012   1.010   4.752
 4645SOL    HW114834   1.010   0.972   4.659
 4645SOL    HW214835   1.104   1.044   4.771
 4646SOL     OW14836   2.991   6.163   3.296
 4646SOL    HW114837   3.022   6.234   3.232
 4646SOL    HW214838   2.934   6.098   3.247
 4647SOL     OW14839   1.344   0.219   3.917
 4647SOL    HW114840   1.292   0.139   3.948
 4647SOL    HW214841   1.420   0.188   3.859
 4648SOL     OW14842   4.240   0.715   1.789
 4648SOL    HW114843   4.146   0.695   1.761
 4648SOL    HW214844   4.300   0.641   1.758
 4649SOL     OW14845   5.187   0.111   5.965
 4649SOL    HW114846   5.270   0.120   6.019
 4649SOL    HW214847   5.107   0.130   6.022
 4650SOL     OW14848   4.743   5.626   4.062
 4650SOL    HW114849   4.795   5.628   4.147
 4650SOL    HW214850   4.794   5.673   3.990
 4651SOL     OW14851   6.893   1.465   1.160
 4651SOL    HW114852   6.873   1.559   1.132
 4651SOL    HW214853   6.827   1.436   1.229
 4652SOL     OW14854   0.409   0.416   4.223
 4652SOL    HW114855   0.473   0.459   4.287
 4652SOL    HW214856   0.364   0.339   4.268
 4653SOL     OW14857   6.072   5.053   6.953
 4653SOL    HW114858   6.108   5.021   0.022
 4653SOL    HW214859   5.980   5.089   6.966
 4654SOL     OW14860   0.459   6.504   0.389
 4654SOL    HW114861   0.436   6.587   0.338
 4654SOL    HW214862   0.533   6.456   0.343
 4655SOL     OW14863   6.439   5.870   1.548
 4655SOL    HW114864   6.534   5.893   1.525
 4655SOL    HW214865   6.408   5.929   1.622
 4656SOL     OW14866   0.870   0.278   3.417
 4656SOL    HW114867   0.876   0.357   3.356
 4656SOL    HW214868   0.776   0.264   3.445
 4657SOL     OW14869   4.843   6.095   1.085
 4657SOL    HW114870   4.762   6.047   1.119
 4657SOL    HW214871   4.868   6.167   1.149
 4658SOL     OW14872   4.928   1.659   2.684
 4658SOL    HW114873   4.951   1.625   2.775
 4658SOL    HW214874   4.969   1.599   2.614
 4659SOL     OW14875   2.631   4.124   5.296
 4659SOL    HW114876   2.586   4.193   5.353
 4659SOL    HW214877   2.561   4.065   5.255
 4660SOL     OW14878   1.577   3.045   5.527
 4660SOL    HW114879   1.673   3.073   5.532
 4660SOL    HW214880   1.518   3.124   5.546
 4661SOL     OW14881   3.852   3.682   5.721
 4661SOL    HW114882   3.844   3.640   5.631
 4661SOL    HW214883   3.936   3.734   5.726
 4662SOL     OW14884   4.158   0.505   4.975
 4662SOL    HW114885   4.214   0.431   4.938
 4662SOL    HW214886   4.161   0.501   5.075
 4663SOL     OW14887   0.849   2.173   2.743
 4663SOL    HW114888   0.815   2.080   2.730
 4663SOL    HW214889   0.892   2.206   2.659
 4664SOL     OW14890   2.043   1.819   0.910
 4664SOL    HW114891   2.130   1.819   0.959
 4664SOL    HW214892   2.005   1.911   0.911
 4665SOL     OW14893   3.837   0.129   0.631
 4665SOL    HW114894   3.910   0.169   0.575
 4665SOL    HW214895   3.869   0.043   0.671
 4666SOL     OW14896   1.490   2.235   0.870
 4666SOL    HW114897   1.400   2.220   0.828
 4666SOL    HW214898   1.512   2.332   0.867
 4667SOL     OW14899   6.014   4.410   1.396
 4667SOL    HW114900   6.044   4.421   1.301
 4667SOL    HW214901   6.004   4.499   1.438
 4668SOL     OW14902   5.587   2.544   3.003
 4668SOL    HW114903   5.558   2.635   3.034
 4668SOL    HW214904   5.604   2.486   3.083
 4669SOL     OW14905   3.526   6.579   0.048
 4669SOL    HW114906   3.427   6.585   0.039
 4669SOL    HW214907   3.550   6.491   0.089
 4670SOL     OW14908   2.987   2.362   5.337
 4670SOL    HW114909   3.072   2.380   5.288
 4670SOL    HW214910   2.954   2.270   5.314
 4671SOL     OW14911   6.634   2.097   2.753
 4671SOL    HW114912   6.625   2.116   2.851
 4671SOL    HW214913   6.550   2.125   2.706
 4672SOL     OW14914   2.653   4.620   5.887
 4672SOL    HW114915   2.563   4.586   5.914
 4672SOL    HW214916   2.721   4.593   5.955
 4673SOL     OW14917   4.883   6.528   0.832
 4673SOL    HW114918   4.861   6.555   0.926
 4673SOL    HW214919   4.931   6.603   0.785
 4674SOL     OW14920   4.846   0.150   6.971
 4674SOL    HW114921   4.846   0.073   6.908
 4674SOL    HW214922   4.756   0.195   6.970
 4675SOL     OW14923   0.374   2.822   6.508
 4675SOL    HW114924   0.470   2.831   6.537
 4675SOL    HW214925   0.370   2.808   6.409
 4676SOL     OW14926   6.811   6.003   3.511
 4676SOL    HW114927   6.878   5.933   3.484
 4676SOL    HW214928   6.789   6.060   3.432
 4677SOL     OW14929   2.788   1.289   0.505
 4677SOL    HW114930   2.760   1.385   0.507
 4677SOL    HW214931   2.888   1.284   0.499
 4678SOL     OW14932   2.000   4.464   3.107
 4678SOL    HW114933   2.014   4.371   3.143
 4678SOL    HW214934   1.981   4.459   3.009
 4679SOL     OW14935   4.351   0.047   1.662
 4679SOL    HW114936   4.356   0.131   1.608
 4679SOL    HW214937   4.337   6.987   1.601
 4680SOL     OW14938   3.761   1.092   6.394
 4680SOL    HW114939   3.751   1.063   6.299
 4680SOL    HW214940   3.852   1.068   6.428
 4681SOL     OW14941   5.303   4.460   0.125
 4681SOL    HW114942   5.383   4.412   0.091
 4681SOL    HW214943   5.329   4.553   0.152
 4682SOL     OW14944   4.815   4.791   5.448
 4682SOL    HW114945   4.851   4.883   5.433
 4682SOL    HW214946   4.730   4.797   5.501
 4683SOL     OW14947   4.933   5.564   2.730
 4683SOL    HW114948   4.939   5.618   2.646
 4683SOL    HW214949   4.907   5.470   2.707
 4684SOL     OW14950   5.122   6.755   5.665
 4684SOL    HW114951   5.111   6.730   5.569
 4684SOL    HW214952   5.219   6.766   5.686
 4685SOL     OW14953   1.935   4.683   6.295
 4685SOL    HW114954   1.956   4.762   6.237
 4685SOL    HW214955   2.012   4.619   6.293
 4686SOL     OW14956   4.056   5.308   6.722
 4686SOL    HW114957   4.031   5.400   6.752
 4686SOL    HW214958   4.051   5.303   6.622
 4687SOL     OW14959   4.879   3.113   4.141
 4687SOL    HW114960   4.885   3.168   4.057
 4687SOL    HW214961   4.949   3.043   4.141
 4688SOL     OW14962   5.662   3.444   4.916
 4688SOL    HW114963   5.597   3.407   4.983
 4688SOL    HW214964   5.662   3.543   4.922
 4689SOL     OW14965   4.858   0.524   0.175
 4689SOL    HW114966   4.792   0.598   0.159
 4689SOL    HW214967   4.932   0.559   0.232
 4690SOL     OW14968   1.233   0.190   0.680
 4690SOL    HW114969   1.239   0.277   0.631
 4690SOL    HW214970   1.312   0.181   0.741
 4691SOL     OW14971   2.792   3.548   0.799
 4691SOL    HW114972   2.881   3.589   0.822
 4691SOL    HW214973   2.739   3.535   0.882
 4692SOL     OW14974   5.373   5.498   2.737
 4692SOL    HW114975   5.289   5.493   2.791
 4692SOL    HW214976   5.450   5.468   2.793
 4693SOL     OW14977   1.248   1.672   2.542
 4693SOL    HW114978   1.210   1.601   2.484
 4693SOL    HW214979   1.184   1.692   2.617
 4694SOL     OW14980   2.453   1.282   0.054
 4694SOL    HW114981   2.364   1.238   0.062
 4694SOL    HW214982   2.516   1.243   0.120
 4695SOL     OW14983   1.337   4.925   1.163
 4695SOL    HW114984   1.262   4.903   1.226
 4695SOL    HW214985   1.417   4.869   1.186
 4696SOL     OW14986   6.878   4.689   6.807
 4696SOL    HW114987   6.906   4.594   6.796
 4696SOL    HW214988   6.957   4.745   6.829
 4697SOL     OW14989   1.207   3.997   1.309
 4697SOL    HW114990   1.190   4.096   1.314
 4697SOL    HW214991   1.202   3.967   1.214
 4698SOL     OW14992   4.512   6.181   2.953
 4698SOL    HW114993   4.519   6.280   2.948
 4698SOL    HW214994   4.561   6.148   3.034
 4699SOL     OW14995   1.318   6.073   2.062
 4699SOL    HW114996   1.411   6.047   2.091
 4699SOL    HW214997   1.284   6.004   1.998
 4700SOL     OW14998   6.832   1.608   2.990
 4700SOL    HW114999   6.750   1.663   3.005
 4700SOL    HW215000   6.886   1.607   3.074
 4701SOL     OW15001   3.280   2.246   0.298
 4701SOL    HW115002   3.269   2.291   0.387
 4701SOL    HW215003   3.190   2.230   0.258
 4702SOL     OW15004   4.923   4.924   0.506
 4702SOL    HW115005   4.995   4.985   0.541
 4702SOL    HW215006   4.862   4.900   0.581
 4703SOL     OW15007   0.430   0.264   2.502
 4703SOL    HW115008   0.365   0.271   2.578
 4703SOL    HW215009   0.444   0.168   2.478
 4704SOL     OW15010   6.423   6.203   6.399
 4704SOL    HW115011   6.350   6.204   6.331
 4704SOL    HW215012   6.432   6.111   6.437
 4705SOL     OW15013   4.383   2.344   1.284
 4705SOL    HW115014   4.313   2.287   1.241
 4705SOL    HW215015   4.382   2.328   1.383
 4706SOL     OW15016   2.899   0.398   0.270
 4706SOL    HW115017   2.949   0.448   0.199
 4706SOL    HW215018   2.806   0.382   0.239
 4707SOL     OW15019   1.256   6.918   0.817
 4707SOL    HW115020   1.332   6.909   0.882
 4707SOL    HW215021   1.276   6.992   0.753
 4708SOL     OW15022   1.117   2.116   5.979
 4708SOL    HW115023   1.145   2.084   5.889
 4708SOL    HW215024   1.062   2.199   5.970
 4709SOL     OW15025   4.614   5.515   5.276
 4709SOL    HW115026   4.704   5.559   5.285
 4709SOL    HW215027   4.618   5.448   5.202
 4710SOL     OW15028   5.027   6.988   5.775
 4710SOL    HW115029   5.062   6.904   5.733
 4710SOL    HW215030   5.092   0.003   5.844
 4711SOL     OW15031   6.222   1.765   1.471
 4711SOL    HW115032   6.308   1.815   1.478
 4711SOL    HW215033   6.153   1.806   1.531
 4712SOL     OW15034   3.226   4.729   6.219
 4712SOL    HW115035   3.318   4.745   6.183
 4712SOL    HW215036   3.228   4.649   6.280
 4713SOL     OW15037   3.718   4.349   0.520
 4713SOL    HW115038   3.812   4.359   0.489
 4713SOL    HW215039   3.656   4.348   0.441
 4714SOL     OW15040   1.294   1.247   6.185
 4714SOL    HW115041   1.265   1.335   6.148
 4714SOL    HW215042   1.244   1.229   6.270
 4715SOL     OW15043   5.973   3.241   2.138
 4715SOL    HW115044   6.024   3.240   2.052
 4715SOL    HW215045   5.964   3.147   2.173
 4716SOL     OW15046   3.900   6.885   6.007
 4716SOL    HW115047   3.935   6.914   6.096
 4716SOL    HW215048   3.929   6.950   5.937
 4717SOL     OW15049   0.629   5.995   4.095
 4717SOL    HW115050   0.666   6.080   4.133
 4717SOL    HW215051   0.703   5.929   4.083
 4718SOL     OW15052   6.025   2.027   0.917
 4718SOL    HW115053   6.006   2.047   0.822
 4718SOL    HW215054   5.939   2.014   0.967
 4719SOL     OW15055   4.923   3.193   1.931
 4719SOL    HW115056   4.872   3.121   1.977
 4719SOL    HW215057   4.864   3.238   1.863
 4720SOL     OW15058   2.127   5.636   5.646
 4720SOL    HW115059   2.037   5.595   5.630
 4720SOL    HW215060   2.198   5.568   5.629
 4721SOL     OW15061   6.826   1.590   2.718
 4721SOL    HW115062   6.812   1.674   2.666
 4721SOL    HW215063   6.812   1.608   2.816
 4722SOL     OW15064   1.221   5.923   0.026
 4722SOL    HW115065   1.204   6.017   7.013
 4722SOL    HW215066   1.221   5.920   0.125
 4723SOL     OW15067   2.073   3.103   5.688
 4723SOL    HW115068   1.979   3.119   5.658
 4723SOL    HW215069   2.136   3.143   5.622
 4724SOL     OW15070   6.434   0.117   4.621
 4724SOL    HW115071   6.479   0.027   4.619
 4724SOL    HW215072   6.376   0.126   4.540
 4725SOL     OW15073   6.679   5.346   0.770
 4725SOL    HW115074   6.764   5.324   0.721
 4725SOL    HW215075   6.603   5.346   0.706
 4726SOL     OW15076   1.518   3.555   6.184
 4726SOL    HW115077   1.571   3.519   6.261
 4726SOL    HW215078   1.535   3.500   6.102
 4727SOL     OW15079   0.961   6.328   1.156
 4727SOL    HW115080   0.994   6.387   1.229
 4727SOL    HW215081   1.030   6.320   1.085
 4728SOL     OW15082   5.978   1.225   1.957
 4728SOL    HW115083   5.929   1.292   2.013
 4728SOL    HW215084   6.068   1.207   1.997
 4729SOL     OW15085   4.756   0.976   0.554
 4729SOL    HW115086   4.770   1.056   0.495
 4729SOL    HW215087   4.674   0.927   0.525
 4730SOL     OW15088   2.950   6.082   4.733
 4730SOL    HW115089   2.914   6.092   4.641
 4730SOL    HW215090   3.050   6.087   4.731
 4731SOL     OW15091   3.270   0.438   0.365
 4731SOL    HW115092   3.230   0.386   0.441
 4731SOL    HW215093   3.212   0.517   0.344
 4732SOL     OW15094   0.731   3.887   5.340
 4732SOL    HW115095   0.822   3.921   5.317
 4732SOL    HW215096   0.662   3.939   5.289
 4733SOL     OW15097   1.618   4.034   3.978
 4733SOL    HW115098   1.602   4.133   3.979
 4733SOL    HW215099   1.557   3.992   3.911
 4734SOL     OW15100   4.283   3.291   0.089
 4734SOL    HW115101   4.253   3.238   0.009
 4734SOL    HW215102   4.242   3.382   0.085
 4735SOL     OW15103   0.139   5.286   4.563
 4735SOL    HW115104   0.174   5.327   4.479
 4735SOL    HW215105   0.214   5.241   4.612
 4736SOL     OW15106   6.036   1.574   6.069
 4736SOL    HW115107   6.129   1.609   6.054
 4736SOL    HW215108   5.983   1.642   6.120
 4737SOL     OW15109   3.170   4.134   1.603
 4737SOL    HW115110   3.140   4.083   1.684
 4737SOL    HW215111   3.112   4.109   1.525
 4738SOL     OW15112   1.761   6.505   3.043
 4738SOL    HW115113   1.830   6.567   3.079
 4738SOL    HW215114   1.676   6.555   3.027
 4739SOL     OW15115   4.886   1.759   3.101
 4739SOL    HW115116   4.857   1.819   3.027
 4739SOL    HW215117   4.875   1.664   3.073
 4740SOL     OW15118   0.299   1.496   0.777
 4740SOL    HW115119   0.298   1.557   0.698
 4740SOL    HW215120   0.214   1.504   0.827
 4741SOL     OW15121   4.879   3.204   1.127
 4741SOL    HW115122   4.781   3.207   1.108
 4741SOL    HW215123   4.894   3.161   1.217
 4742SOL     OW15124   2.827   0.190   0.073
 4742SOL    HW115125   2.873   0.253   0.010
 4742SOL    HW215126   2.896   0.134   0.121
 4743SOL     OW15127   1.607   3.288   5.134
 4743SOL    HW115128   1.553   3.298   5.051
 4743SOL    HW215129   1.649   3.375   5.158
 4744SOL     OW15130   2.962   3.560   6.178
 4744SOL    HW115131   3.025   3.584   6.104
 4744SOL    HW215132   2.895   3.494   6.144
 4745SOL     OW15133   2.955   5.894   6.033
 4745SOL    HW115134   2.855   5.893   6.041
 4745SOL    HW215135   2.982   5.963   5.966
 4746SOL     OW15136   5.512   6.694   2.307
 4746SOL    HW115137   5.469   6.780   2.279
 4746SOL    HW215138   5.449   6.644   2.367
 4747SOL     OW15139   1.986   3.915   6.536
 4747SOL    HW115140   2.033   3.827   6.545
 4747SOL    HW215141   2.030   3.970   6.465
 4748SOL     OW15142   0.773   5.118   0.513
 4748SOL    HW115143   0.681   5.083   0.529
 4748SOL    HW215144   0.767   5.201   0.458
 4749SOL     OW15145   2.711   6.350   5.607
 4749SOL    HW115146   2.631   6.308   5.650
 4749SOL    HW215147   2.736   6.298   5.525
 4750SOL     OW15148   0.034   3.406   3.507
 4750SOL    HW115149   0.069   3.367   3.591
 4750SOL    HW215150   7.015   3.498   3.525
 4751SOL     OW15151   2.547   2.547   1.073
 4751SOL    HW115152   2.451   2.576   1.071
 4751SOL    HW215153   2.606   2.624   1.050
 4752SOL     OW15154   2.796   0.311   6.732
 4752SOL    HW115155   2.779   0.220   6.695
 4752SOL    HW215156   2.809   0.376   6.658
 4753SOL     OW15157   5.431   0.610   4.171
 4753SOL    HW115158   5.404   0.687   4.113
 4753SOL    HW215159   5.485   0.545   4.116
 4754SOL     OW15160   6.458   0.363   4.701
 4754SOL    HW115161   6.442   0.380   4.798
 4754SOL    HW215162   6.442   0.266   4.681
 4755SOL     OW15163   2.459   0.505   0.733
 4755SOL    HW115164   2.363   0.497   0.708
 4755SOL    HW215165   2.506   0.419   0.711
 4756SOL     OW15166   5.861   3.708   1.392
 4756SOL    HW115167   5.922   3.679   1.318
 4756SOL    HW215168   5.863   3.807   1.400
 4757SOL     OW15169   2.269   2.105   0.812
 4757SOL    HW115170   2.358   2.131   0.851
 4757SOL    HW215171   2.196   2.150   0.863
 4758SOL     OW15172   1.815   6.076   4.114
 4758SOL    HW115173   1.799   6.075   4.212
 4758SOL    HW215174   1.905   6.035   4.095
 4759SOL     OW15175   5.425   5.042   4.276
 4759SOL    HW115176   5.513   5.000   4.251
 4759SOL    HW215177   5.407   5.028   4.373
 4760SOL     OW15178   3.232   1.861   0.250
 4760SOL    HW115179   3.256   1.791   0.182
 4760SOL    HW215180   3.316   1.900   0.288
 4761SOL     OW15181   0.498   6.136   6.882
 4761SOL    HW115182   0.417   6.101   6.835
 4761SOL    HW215183   0.544   6.061   6.929
 4762SOL     OW15184   1.740   5.688   2.899
 4762SOL    HW115185   1.783   5.700   2.988
 4762SOL    HW215186   1.800   5.633   2.840
 4763SOL     OW15187   6.641   6.394   3.463
 4763SOL    HW115188   6.547   6.406   3.493
 4763SOL    HW215189   6.646   6.400   3.363
 4764SOL     OW15190   5.163   3.824   5.129
 4764SOL    HW115191   5.063   3.833   5.126
 4764SOL    HW215192   5.187   3.728   5.147
 4765SOL     OW15193   4.980   1.337   4.359
 4765SOL    HW115194   4.962   1.357   4.456
 4765SOL    HW215195   5.056   1.272   4.353
 4766SOL     OW15196   4.906   6.041   4.098
 4766SOL    HW115197   4.894   5.963   4.160
 4766SOL    HW215198   4.819   6.063   4.055
 4767SOL     OW15199   4.013   5.227   5.682
 4767SOL    HW115200   3.949   5.169   5.733
 4767SOL    HW215201   4.081   5.170   5.637
 4768SOL     OW15202   4.449   2.059   5.586
 4768SOL    HW115203   4.465   1.971   5.542
 4768SOL    HW215204   4.526   2.080   5.646
 4769SOL     OW15205   5.093   4.518   0.309
 4769SOL    HW115206   5.172   4.488   0.255
 4769SOL    HW215207   5.042   4.587   0.258
 4770SOL     OW15208   1.291   0.915   4.586
 4770SOL    HW115209   1.286   0.899   4.684
 4770SOL    HW215210   1.277   0.828   4.537
 4771SOL     OW15211   3.105   5.199   5.830
 4771SOL    HW115212   3.008   5.174   5.826
 4771SOL    HW215213   3.118   5.288   5.786
 4772SOL     OW15214   3.403   4.671   1.110
 4772SOL    HW115215   3.365   4.708   1.025
 4772SOL    HW215216   3.414   4.572   1.101
 4773SOL     OW15217   6.769   5.583   4.848
 4773SOL    HW115218   6.860   5.542   4.837
 4773SOL    HW215219   6.730   5.600   4.758
 4774SOL     OW15220   1.212   2.408   1.971
 4774SOL    HW115221   1.267   2.429   1.890
 4774SOL    HW215222   1.201   2.309   1.979
 4775SOL     OW15223   5.013   6.778   2.622
 4775SOL    HW115224   5.077   6.839   2.574
 4775SOL    HW215225   4.920   6.800   2.596
 4776SOL     OW15226   1.304   5.982   5.477
 4776SOL    HW115227   1.251   6.017   5.553
 4776SOL    HW215228   1.363   5.908   5.508
 4777SOL     OW15229   2.824   4.726   1.210
 4777SOL    HW115230   2.809   4.669   1.130
 4777SOL    HW215231   2.842   4.820   1.181
 4778SOL     OW15232   6.553   2.706   2.694
 4778SOL    HW115233   6.560   2.627   2.754
 4778SOL    HW215234   6.505   2.780   2.742
 4779SOL     OW15235   6.289   6.127   2.248
 4779SOL    HW115236   6.316   6.033   2.270
 4779SOL    HW215237   6.251   6.131   2.156
 4780SOL     OW15238   6.598   0.606   0.262
 4780SOL    HW115239   6.657   0.526   0.254
 4780SOL    HW215240   6.505   0.576   0.283
 4781SOL     OW15241   2.020   6.308   1.892
 4781SOL    HW115242   2.067   6.243   1.832
 4781SOL    HW215243   2.073   6.320   1.976
 4782SOL     OW15244   4.101   6.176   0.062
 4782SOL    HW115245   4.058   6.187   0.151
 4782SOL    HW215246   4.060   6.098   0.014
 4783SOL     OW15247   4.941   4.835   0.049
 4783SOL    HW115248   4.908   4.747   0.016
 4783SOL    HW215249   4.885   4.908   0.010
 4784SOL     OW15250   5.894   3.735   0.133
 4784SOL    HW115251   5.898   3.773   0.225
 4784SOL    HW215252   5.802   3.699   0.116
 4785SOL     OW15253   6.432   5.464   1.966
 4785SOL    HW115254   6.478   5.514   2.039
 4785SOL    HW215255   6.460   5.500   1.878
 4786SOL     OW15256   2.374   1.814   0.684
 4786SOL    HW115257   2.332   1.724   0.690
 4786SOL    HW215258   2.316   1.881   0.732
 4787SOL     OW15259   4.432   1.550   2.608
 4787SOL    HW115260   4.351   1.607   2.617
 4787SOL    HW215261   4.514   1.608   2.615
 4788SOL     OW15262   1.033   5.360   5.752
 4788SOL    HW115263   1.108   5.358   5.818
 4788SOL    HW215264   0.981   5.274   5.757
 4789SOL     OW15265   5.339   0.932   0.722
 4789SOL    HW115266   5.249   0.950   0.762
 4789SOL    HW215267   5.410   0.976   0.776
 4790SOL     OW15268   0.026   2.932   5.235
 4790SOL    HW115269   0.002   2.858   5.297
 4790SOL    HW215270   0.103   2.904   5.178
 4791SOL     OW15271   6.028   2.341   1.373
 4791SOL    HW115272   6.123   2.311   1.375
 4791SOL    HW215273   5.987   2.315   1.285
 4792SOL     OW15274   2.135   3.414   3.136
 4792SOL    HW115275   2.099   3.496   3.180
 4792SOL    HW215276   2.191   3.440   3.057
 4793SOL     OW15277   1.778   2.840   6.175
 4793SOL    HW115278   1.760   2.780   6.097
 4793SOL    HW215279   1.693   2.858   6.224
 4794SOL     OW15280   4.357   0.202   3.329
 4794SOL    HW115281   4.396   0.185   3.420
 4794SOL    HW215282   4.269   0.155   3.322
 4795SOL     OW15283   6.670   1.985   4.452
 4795SOL    HW115284   6.734   2.019   4.383
 4795SOL    HW215285   6.610   2.060   4.481
 4796SOL     OW15286   4.910   1.881   5.628
 4796SOL    HW115287   4.973   1.840   5.694
 4796SOL    HW215288   4.921   1.981   5.629
 4797SOL     OW15289   1.523   6.540   6.275
 4797SOL    HW115290   1.526   6.568   6.371
 4797SOL    HW215291   1.567   6.610   6.219
 4798SOL     OW15292   0.079   3.203   4.976
 4798SOL    HW115293   0.115   3.225   5.067
 4798SOL    HW215294   0.003   3.263   4.955
 4799SOL     OW15295   5.151   2.432   6.705
 4799SOL    HW115296   5.090   2.416   6.783
 4799SOL    HW215297   5.154   2.349   6.648
 4800SOL     OW15298   3.217   3.357   5.998
 4800SOL    HW115299   3.225   3.293   5.921
 4800SOL    HW215300   3.174   3.441   5.967
 4801SOL     OW15301   2.802   2.025   0.615
 4801SOL    HW115302   2.840   2.017   0.523
 4801SOL    HW215303   2.857   2.089   0.668
 4802SOL     OW15304   1.316   6.534   1.825
 4802SOL    HW115305   1.334   6.566   1.918
 4802SOL    HW215306   1.355   6.599   1.759
 4803SOL     OW15307   1.021   5.504   0.853
 4803SOL    HW115308   1.041   5.600   0.833
 4803SOL    HW215309   1.084   5.446   0.801
 4804SOL     OW15310   5.335   5.648   6.727
 4804SOL    HW115311   5.403   5.713   6.694
 4804SOL    HW215312   5.244   5.675   6.693
 4805SOL     OW15313   5.861   0.663   1.947
 4805SOL    HW115314   5.762   0.652   1.942
 4805SOL    HW215315   5.896   0.619   2.030
 4806SOL     OW15316   0.815   4.713   3.274
 4806SOL    HW115317   0.770   4.641   3.327
 4806SOL    HW215318   0.747   4.760   3.218
 4807SOL     OW15319   0.926   4.584   0.176
 4807SOL    HW115320   0.874   4.515   0.127
 4807SOL    HW215321   0.883   4.603   0.265
 4808SOL     OW15322   5.892   3.367   6.514
 4808SOL    HW115323   5.817   3.372   6.449
 4808SOL    HW215324   5.916   3.459   6.545
 4809SOL     OW15325   3.707   4.262   6.834
 4809SOL    HW115326   3.655   4.207   6.768
 4809SOL    HW215327   3.712   4.213   6.921
 4810SOL     OW15328   1.162   5.107   2.134
 4810SOL    HW115329   1.214   5.191   2.114
 4810SOL    HW215330   1.159   5.092   2.232
 4811SOL     OW15331   2.065   4.547   1.501
 4811SOL    HW115332   2.146   4.489   1.512
 4811SOL    HW215333   2.008   4.509   1.428
 4812SOL     OW15334   6.542   5.429   4.411
 4812SOL    HW115335   6.548   5.358   4.481
 4812SOL    HW215336   6.536   5.386   4.321
 4813SOL     OW15337   4.868   1.624   1.113
 4813SOL    HW115338   4.961   1.592   1.095
 4813SOL    HW215339   4.802   1.565   1.066
 4814SOL     OW15340   6.305   3.613   0.470
 4814SOL    HW115341   6.384   3.594   0.529
 4814SOL    HW215342   6.302   3.710   0.449
 4815SOL     OW15343   5.566   4.812   2.850
 4815SOL    HW115344   5.616   4.838   2.768
 4815SOL    HW215345   5.628   4.766   2.914
 4816SOL     OW15346   1.298   5.627   1.373
 4816SOL    HW115347   1.255   5.584   1.294
 4816SOL    HW215348   1.335   5.717   1.347
 4817SOL     OW15349   0.500   2.231   6.867
 4817SOL    HW115350   0.594   2.201   6.857
 4817SOL    HW215351   0.463   2.256   6.777
 4818SOL     OW15352   1.345   0.370   4.835
 4818SOL    HW115353   1.296   0.282   4.828
 4818SOL    HW215354   1.374   0.384   4.929
 4819SOL     OW15355   1.011   2.141   0.405
 4819SOL    HW115356   1.050   2.078   0.338
 4819SOL    HW215357   0.981   2.090   0.485
 4820SOL     OW15358   5.984   2.921   1.544
 4820SOL    HW115359   5.922   2.881   1.612
 4820SOL    HW215360   6.078   2.917   1.579
 4821SOL     OW15361   0.719   5.706   2.851
 4821SOL    HW115362   0.683   5.789   2.895
 4821SOL    HW215363   0.696   5.626   2.907
 4822SOL     OW15364   2.351   2.086   4.637
 4822SOL    HW115365   2.298   2.108   4.719
 4822SOL    HW215366   2.436   2.139   4.636
 4823SOL     OW15367   2.056   1.052   4.039
 4823SOL    HW115368   2.055   1.030   4.136
 4823SOL    HW215369   1.962   1.067   4.007
 4824SOL     OW15370   4.999   2.679   5.232
 4824SOL    HW115371   4.997   2.585   5.266
 4824SOL    HW215372   5.047   2.681   5.144
 4825SOL     OW15373   1.852   2.818   4.682
 4825SOL    HW115374   1.825   2.727   4.712
 4825SOL    HW215375   1.867   2.876   4.762
 4826SOL     OW15376   5.393   1.012   0.283
 4826SOL    HW115377   5.351   0.943   0.342
 4826SOL    HW215378   5.491   0.995   0.276
 4827SOL     OW15379   6.200   1.543   0.746
 4827SOL    HW115380   6.201   1.618   0.813
 4827SOL    HW215381   6.279   1.484   0.761
 4828SOL     OW15382   4.861   2.036   1.070
 4828SOL    HW115383   4.891   2.007   0.979
 4828SOL    HW215384   4.764   2.059   1.067
 4829SOL     OW15385   3.912   0.212   5.048
 4829SOL    HW115386   3.945   0.256   4.964
 4829SOL    HW215387   3.963   0.248   5.126
 4830SOL     OW15388   3.724   5.780   4.683
 4830SOL    HW115389   3.658   5.751   4.753
 4830SOL    HW215390   3.767   5.699   4.643
 4831SOL     OW15391   1.061   4.583   5.921
 4831SOL    HW115392   1.042   4.491   5.885
 4831SOL    HW215393   1.125   4.630   5.860
 4832SOL     OW15394   3.548   4.040   3.543
 4832SOL    HW115395   3.646   4.023   3.546
 4832SOL    HW215396   3.526   4.097   3.464
 4833SOL     OW15397   5.919   1.033   2.953
 4833SOL    HW115398   5.926   1.075   2.862
 4833SOL    HW215399   5.834   1.062   2.996
 4834SOL     OW15400   2.837   6.574   1.484
 4834SOL    HW115401   2.890   6.493   1.460
 4834SOL    HW215402   2.847   6.593   1.581
 4835SOL     OW15403   5.826   2.028   6.478
 4835SOL    HW115404   5.846   2.087   6.399
 4835SOL    HW215405   5.847   2.077   6.562
 4836SOL     OW15406   5.111   2.061   4.885
 4836SOL    HW115407   5.147   2.101   4.969
 4836SOL    HW215408   5.054   1.982   4.907
 4837SOL     OW15409   0.171   3.776   2.988
 4837SOL    HW115410   0.220   3.689   2.984
 4837SOL    HW215411   0.085   3.763   3.038
 4838SOL     OW15412   1.847   5.530   0.066
 4838SOL    HW115413   1.827   5.432   0.070
 4838SOL    HW215414   1.945   5.544   0.050
 4839SOL     OW15415   1.048   3.885   0.097
 4839SOL    HW115416   1.116   3.876   0.025
 4839SOL    HW215417   1.043   3.800   0.150
 4840SOL     OW15418   6.450   4.757   6.341
 4840SOL    HW115419   6.492   4.749   6.251
 4840SOL    HW215420   6.351   4.748   6.333
 4841SOL     OW15421   2.490   5.481   2.956
 4841SOL    HW115422   2.449   5.525   2.875
 4841SOL    HW215423   2.587   5.504   2.960
 4842SOL     OW15424   3.536   4.868   2.481
 4842SOL    HW115425   3.440   4.844   2.489
 4842SOL    HW215426   3.578   4.815   2.407
 4843SOL     OW15427   6.091   2.628   1.335
 4843SOL    HW115428   6.041   2.549   1.369
 4843SOL    HW215429   6.100   2.622   1.236
 4844SOL     OW15430   0.322   3.365   6.324
 4844SOL    HW115431   0.339   3.454   6.367
 4844SOL    HW215432   0.223   3.352   6.315
 4845SOL     OW15433   5.629   5.021   6.604
 4845SOL    HW115434   5.674   5.094   6.654
 4845SOL    HW215435   5.583   5.059   6.524
 4846SOL     OW15436   6.945   2.326   3.795
 4846SOL    HW115437   0.002   2.389   3.773
 4846SOL    HW215438   6.982   2.249   3.847
 4847SOL     OW15439   2.369   1.059   6.316
 4847SOL    HW115440   2.295   0.992   6.310
 4847SOL    HW215441   2.336   1.140   6.365
 4848SOL     OW15442   2.245   0.949   4.725
 4848SOL    HW115443   2.202   0.881   4.666
 4848SOL    HW215444   2.200   1.037   4.713
 4849SOL     OW15445   1.590   5.676   0.272
 4849SOL    HW115446   1.631   5.763   0.243
 4849SOL    HW215447   1.639   5.640   0.351
 4850SOL     OW15448   4.523   1.137   1.425
 4850SOL    HW115449   4.457   1.138   1.501
 4850SOL    HW215450   4.611   1.172   1.457
 4851SOL     OW15451   3.266   6.681   5.750
 4851SOL    HW115452   3.267   6.694   5.849
 4851SOL    HW215453   3.250   6.769   5.705
 4852SOL     OW15454   1.999   5.856   4.608
 4852SOL    HW115455   1.960   5.949   4.612
 4852SOL    HW215456   1.996   5.823   4.513
 4853SOL     OW15457   3.789   1.320   3.900
 4853SOL    HW115458   3.718   1.360   3.959
 4853SOL    HW215459   3.791   1.368   3.813
 4854SOL     OW15460   4.257   6.500   2.093
 4854SOL    HW115461   4.216   6.541   2.174
 4854SOL    HW215462   4.252   6.401   2.099
 4855SOL     OW15463   5.964   2.358   4.849
 4855SOL    HW115464   5.944   2.389   4.942
 4855SOL    HW215465   5.948   2.260   4.842
 4856SOL     OW15466   1.564   3.218   3.101
 4856SOL    HW115467   1.602   3.203   3.010
 4856SOL    HW215468   1.628   3.184   3.170
 4857SOL     OW15469   2.671   2.240   3.588
 4857SOL    HW115470   2.660   2.316   3.652
 4857SOL    HW215471   2.581   2.205   3.561
 4858SOL     OW15472   0.206   6.438   5.105
 4858SOL    HW115473   0.220   6.536   5.088
 4858SOL    HW215474   0.131   6.426   5.169
 4859SOL     OW15475   0.642   5.165   2.680
 4859SOL    HW115476   0.559   5.212   2.650
 4859SOL    HW215477   0.702   5.149   2.602
 4860SOL     OW15478   4.289   3.887   0.307
 4860SOL    HW115479   4.329   3.795   0.307
 4860SOL    HW215480   4.304   3.930   0.218
 4861SOL     OW15481   6.029   5.179   6.693
 4861SOL    HW115482   6.030   5.257   6.756
 4861SOL    HW215483   6.112   5.125   6.707
 4862SOL     OW15484   2.147   4.687   5.104
 4862SOL    HW115485   2.074   4.740   5.147
 4862SOL    HW215486   2.116   4.651   5.016
 4863SOL     OW15487   5.187   3.317   2.289
 4863SOL    HW115488   5.104   3.325   2.344
 4863SOL    HW215489   5.167   3.266   2.206
 4864SOL     OW15490   3.149   1.066   1.989
 4864SOL    HW115491   3.206   1.146   2.011
 4864SOL    HW215492   3.131   1.013   2.071
 4865SOL     OW15493   1.836   6.106   4.646
 4865SOL    HW115494   1.747   6.116   4.690
 4865SOL    HW215495   1.898   6.178   4.678
 4866SOL     OW15496   5.960   5.165   1.542
 4866SOL    HW115497   5.967   5.153   1.443
 4866SOL    HW215498   5.876   5.121   1.574
 4867SOL     OW15499   4.947   5.674   2.988
 4867SOL    HW115500   4.943   5.652   2.890
 4867SOL    HW215501   4.909   5.598   3.040
 4868SOL     OW15502   0.197   5.237   2.028
 4868SOL    HW115503   0.276   5.178   2.016
 4868SOL    HW215504   0.192   5.303   1.953
 4869SOL     OW15505   0.506   2.235   1.637
 4869SOL    HW115506   0.460   2.322   1.657
 4869SOL    HW215507   0.603   2.243   1.659
 4870SOL     OW15508   6.241   5.696   1.705
 4870SOL    HW115509   6.319   5.636   1.717
 4870SOL    HW215510   6.273   5.791   1.695
 4871SOL     OW15511   0.350   1.839   4.895
 4871SOL    HW115512   0.366   1.757   4.840
 4871SOL    HW215513   0.306   1.814   4.981
 4872SOL     OW15514   0.446   6.328   4.200
 4872SOL    HW115515   0.408   6.309   4.291
 4872SOL    HW215516   0.543   6.304   4.199
 4873SOL     OW15517   6.863   4.741   3.803
 4873SOL    HW115518   6.813   4.825   3.824
 4873SOL    HW215519   6.926   4.757   3.728
 4874SOL     OW15520   6.190   3.889   2.875
 4874SOL    HW115521   6.228   3.935   2.956
 4874SOL    HW215522   6.194   3.790   2.889
 4875SOL     OW15523   4.630   2.396   1.127
 4875SOL    HW115524   4.546   2.393   1.181
 4875SOL    HW215525   4.625   2.473   1.064
 4876SOL     OW15526   6.006   0.873   4.567
 4876SOL    HW115527   5.944   0.848   4.642
 4876SOL    HW215528   6.095   0.899   4.605
 4877SOL     OW15529   6.444   1.865   0.471
 4877SOL    HW115530   6.504   1.847   0.393
 4877SOL    HW215531   6.439   1.783   0.528
 4878SOL     OW15532   6.498   1.521   2.716
 4878SOL    HW115533   6.565   1.447   2.715
 4878SOL    HW215534   6.519   1.587   2.644
 4879SOL     OW15535   4.368   5.158   3.569
 4879SOL    HW115536   4.413   5.087   3.516
 4879SOL    HW215537   4.380   5.247   3.524
 4880SOL     OW15538   6.300   3.327   6.583
 4880SOL    HW115539   6.397   3.304   6.595
 4880SOL    HW215540   6.259   3.346   6.672
 4881SOL     OW15541   2.244   6.907   6.425
 4881SOL    HW115542   2.337   6.935   6.399
 4881SOL    HW215543   2.198   6.869   6.345
 4882SOL     OW15544   5.701   1.274   4.209
 4882SOL    HW115545   5.772   1.343   4.226
 4882SOL    HW215546   5.626   1.315   4.158
 4883SOL     OW15547   4.971   4.922   2.213
 4883SOL    HW115548   5.041   4.993   2.212
 4883SOL    HW215549   4.998   4.849   2.276
 4884SOL     OW15550   4.579   0.231   1.101
 4884SOL    HW115551   4.610   0.264   1.190
 4884SOL    HW215552   4.497   0.281   1.074
 4885SOL     OW15553   2.704   6.162   1.870
 4885SOL    HW115554   2.666   6.234   1.928
 4885SOL    HW215555   2.803   6.174   1.863
 4886SOL     OW15556   6.577   5.445   6.017
 4886SOL    HW115557   6.494   5.391   6.033
 4886SOL    HW215558   6.656   5.383   6.014
 4887SOL     OW15559   0.057   0.895   2.927
 4887SOL    HW115560   0.086   0.889   3.022
 4887SOL    HW215561   0.131   0.862   2.868
 4888SOL     OW15562   1.945   6.766   4.399
 4888SOL    HW115563   1.852   6.798   4.415
 4888SOL    HW215564   1.983   6.730   4.485
 4889SOL     OW15565   6.616   0.701   6.537
 4889SOL    HW115566   6.542   0.765   6.560
 4889SOL    HW215567   6.586   0.642   6.462
 4890SOL     OW15568   0.855   2.273   5.582
 4890SOL    HW115569   0.806   2.189   5.561
 4890SOL    HW215570   0.815   2.349   5.530
 4891SOL     OW15571   1.240   5.691   0.453
 4891SOL    HW115572   1.310   5.675   0.522
 4891SOL    HW215573   1.280   5.745   0.378
 4892SOL     OW15574   2.370   6.202   2.039
 4892SOL    HW115575   2.458   6.224   2.083
 4892SOL    HW215576   2.298   6.259   2.078
 4893SOL     OW15577   6.521   4.517   0.500
 4893SOL    HW115578   6.512   4.449   0.428
 4893SOL    HW215579   6.587   4.486   0.568
 4894SOL     OW15580   2.277   1.515   2.107
 4894SOL    HW115581   2.190   1.468   2.091
 4894SOL    HW215582   2.320   1.478   2.189
 4895SOL     OW15583   0.467   4.835   2.295
 4895SOL    HW115584   0.390   4.898   2.303
 4895SOL    HW215585   0.452   4.756   2.354
 4896SOL     OW15586   2.135   5.665   2.236
 4896SOL    HW115587   2.039   5.664   2.209
 4896SOL    HW215588   2.187   5.602   2.178
 4897SOL     OW15589   2.330   5.316   5.902
 4897SOL    HW115590   2.365   5.292   5.992
 4897SOL    HW215591   2.285   5.236   5.861
 4898SOL     OW15592   5.731   1.305   5.127
 4898SOL    HW115593   5.670   1.384   5.122
 4898SOL    HW215594   5.702   1.245   5.202
 4899SOL     OW15595   6.138   4.669   3.619
 4899SOL    HW115596   6.119   4.576   3.588
 4899SOL    HW215597   6.109   4.734   3.549
 4900SOL     OW15598   1.831   6.136   5.525
 4900SOL    HW115599   1.907   6.192   5.559
 4900SOL    HW215600   1.845   6.118   5.428
 4901SOL     OW15601   2.796   7.002   5.171
 4901SOL    HW115602   2.707   0.012   5.208
 4901SOL    HW215603   2.821   6.913   5.209
 4902SOL     OW15604   2.919   2.176   4.958
 4902SOL    HW115605   3.013   2.201   4.936
 4902SOL    HW215606   2.906   2.078   4.941
 4903SOL     OW15607   3.032   6.648   6.397
 4903SOL    HW115608   3.126   6.676   6.378
 4903SOL    HW215609   2.970   6.695   6.334
 4904SOL     OW15610   0.923   0.349   3.683
 4904SOL    HW115611   0.911   0.337   3.584
 4904SOL    HW215612   0.970   0.435   3.701
 4905SOL     OW15613   4.418   1.777   2.226
 4905SOL    HW115614   4.512   1.784   2.260
 4905SOL    HW215615   4.402   1.685   2.191
 4906SOL     OW15616   3.553   1.312   6.347
 4906SOL    HW115617   3.638   1.261   6.361
 4906SOL    HW215618   3.571   1.410   6.354
 4907SOL     OW15619   4.790   6.493   1.253
 4907SOL    HW115620   4.778   6.543   1.167
 4907SOL    HW215621   4.700   6.477   1.294
 4908SOL     OW15622   4.698   4.761   6.433
 4908SOL    HW115623   4.666   4.685   6.490
 4908SOL    HW215624   4.655   4.846   6.464
 4909SOL     OW15625   6.435   0.261   5.415
 4909SOL    HW115626   6.424   0.195   5.341
 4909SOL    HW215627   6.354   0.320   5.420
 4910SOL     OW15628   5.652   6.806   4.648
 4910SOL    HW115629   5.630   6.741   4.720
 4910SOL    HW215630   5.597   6.889   4.659
 4911SOL     OW15631   6.676   2.695   5.807
 4911SOL    HW115632   6.593   2.745   5.784
 4911SOL    HW215633   6.727   2.745   5.878
 4912SOL     OW15634   5.692   2.163   1.483
 4912SOL    HW115635   5.681   2.113   1.569
 4912SOL    HW215636   5.623   2.132   1.418
 4913SOL     OW15637   3.766   3.781   3.450
 4913SOL    HW115638   3.683   3.766   3.504
 4913SOL    HW215639   3.792   3.696   3.405
 4914SOL     OW15640   3.341   0.041   4.721
 4914SOL    HW115641   3.269   0.106   4.746
 4914SOL    HW215642   3.303   6.988   4.662
 4915SOL     OW15643   4.493   0.365   4.578
 4915SOL    HW115644   4.526   0.456   4.604
 4915SOL    HW215645   4.506   0.352   4.480
 4916SOL     OW15646   2.234   1.337   3.367
 4916SOL    HW115647   2.171   1.261   3.357
 4916SOL    HW215648   2.326   1.303   3.387
 4917SOL     OW15649   1.622   4.835   0.517
 4917SOL    HW115650   1.683   4.802   0.445
 4917SOL    HW215651   1.661   4.916   0.560
 4918SOL     OW15652   3.304   6.976   2.874
 4918SOL    HW115653   3.327   6.993   2.970
 4918SOL    HW215654   3.324   0.040   2.820
 4919SOL     OW15655   1.865   1.668   1.066
 4919SOL    HW115656   1.858   1.695   1.162
 4919SOL    HW215657   1.935   1.724   1.021
 4920SOL     OW15658   4.631   0.424   6.167
 4920SOL    HW115659   4.710   0.393   6.114
 4920SOL    HW215660   4.660   0.444   6.261
 4921SOL     OW15661   1.602   4.369   1.169
 4921SOL    HW115662   1.696   4.383   1.137
 4921SOL    HW215663   1.578   4.272   1.160
 4922SOL     OW15664   1.842   3.233   4.833
 4922SOL    HW115665   1.767   3.250   4.769
 4922SOL    HW215666   1.844   3.136   4.857
 4923SOL     OW15667   3.673   1.013   1.153
 4923SOL    HW115668   3.641   0.968   1.236
 4923SOL    HW215669   3.636   1.106   1.149
 4924SOL     OW15670   2.031   2.431   6.311
 4924SOL    HW115671   2.002   2.414   6.216
 4924SOL    HW215672   2.007   2.524   6.337
 4925SOL     OW15673   5.849   6.469   0.705
 4925SOL    HW115674   5.758   6.505   0.686
 4925SOL    HW215675   5.882   6.506   0.792
 4926SOL     OW15676   4.594   2.145   1.131
 4926SOL    HW115677   4.561   2.114   1.220
 4926SOL    HW215678   4.620   2.241   1.136
 4927SOL     OW15679   3.932   3.985   4.151
 4927SOL    HW115680   3.949   4.026   4.240
 4927SOL    HW215681   3.915   3.887   4.162
 4928SOL     OW15682   0.268   0.141   6.551
 4928SOL    HW115683   0.229   0.116   6.462
 4928SOL    HW215684   0.363   0.109   6.555
 4929SOL     OW15685   1.218   4.427   4.834
 4929SOL    HW115686   1.263   4.413   4.923
 4929SOL    HW215687   1.286   4.417   4.761
 4930SOL     OW15688   6.494   0.477   1.805
 4930SOL    HW115689   6.510   0.537   1.727
 4930SOL    HW215690   6.455   0.529   1.881
 4931SOL     OW15691   0.141   0.033   0.819
 4931SOL    HW115692   0.044   0.042   0.840
 4931SOL    HW215693   0.170   6.956   0.834
 4932SOL     OW15694   2.286   3.039   1.686
 4932SOL    HW115695   2.346   3.110   1.723
 4932SOL    HW215696   2.201   3.037   1.737
 4933SOL     OW15697   2.948   6.735   4.386
 4933SOL    HW115698   2.996   6.651   4.360
 4933SOL    HW215699   2.953   6.800   4.311
 4934SOL     OW15700   1.652   5.119   2.786
 4934SOL    HW115701   1.700   5.205   2.796
 4934SOL    HW215702   1.564   5.124   2.834
 4935SOL     OW15703   1.001   1.419   0.093
 4935SOL    HW115704   0.949   1.488   0.143
 4935SOL    HW215705   1.027   1.345   0.155
 4936SOL     OW15706   2.074   5.259   2.151
 4936SOL    HW115707   2.139   5.194   2.190
 4936SOL    HW215708   2.123   5.326   2.096
 4937SOL     OW15709   0.095   2.992   6.204
 4937SOL    HW115710   0.019   2.976   6.142
 4937SOL    HW215711   0.061   3.003   6.297
 4938SOL     OW15712   2.997   5.330   0.960
 4938SOL    HW115713   2.970   5.277   1.040
 4938SOL    HW215714   3.004   5.427   0.984
 4939SOL     OW15715   1.218   1.871   3.827
 4939SOL    HW115716   1.266   1.941   3.774
 4939SOL    HW215717   1.279   1.794   3.843
 4940SOL     OW15718   0.718   1.455   5.829
 4940SOL    HW115719   0.660   1.445   5.747
 4940SOL    HW215720   0.804   1.408   5.815
 4941SOL     OW15721   4.314   2.603   5.325
 4941SOL    HW115722   4.319   2.558   5.415
 4941SOL    HW215723   4.249   2.554   5.267
 4942SOL     OW15724   5.414   3.808   4.636
 4942SOL    HW115725   5.367   3.723   4.662
 4942SOL    HW215726   5.404   3.876   4.709
 4943SOL     OW15727   4.815   4.078   5.466
 4943SOL    HW115728   4.884   4.117   5.405
 4943SOL    HW215729   4.829   3.980   5.473
 4944SOL     OW15730   2.317   4.470   1.910
 4944SOL    HW115731   2.309   4.371   1.927
 4944SOL    HW215732   2.288   4.489   1.816
 4945SOL     OW15733   1.350   6.986   5.330
 4945SOL    HW115734   1.418   6.913   5.338
 4945SOL    HW215735   1.262   6.954   5.365
 4946SOL     OW15736   0.517   5.113   6.990
 4946SOL    HW115737   0.543   5.083   6.899
 4946SOL    HW215738   0.579   5.074   0.040
 4947SOL     OW15739   2.547   0.650   0.935
 4947SOL    HW115740   2.611   0.588   0.980
 4947SOL    HW215741   2.522   0.613   0.845
 4948SOL     OW15742   2.211   2.582   2.286
 4948SOL    HW115743   2.148   2.518   2.242
 4948SOL    HW215744   2.305   2.552   2.269
 4949SOL     OW15745   6.524   4.136   5.344
 4949SOL    HW115746   6.544   4.118   5.247
 4949SOL    HW215747   6.444   4.082   5.371
 4950SOL     OW15748   1.747   4.047   5.496
 4950SOL    HW115749   1.774   4.142   5.481
 4950SOL    HW215750   1.807   3.986   5.442
 4951SOL     OW15751   6.365   0.830   4.137
 4951SOL    HW115752   6.422   0.832   4.055
 4951SOL    HW215753   6.269   0.825   4.111
 4952SOL     OW15754   0.317   6.551   5.896
 4952SOL    HW115755   0.372   6.631   5.874
 4952SOL    HW215756   0.263   6.569   5.978
 4953SOL     OW15757   1.009   6.639   3.476
 4953SOL    HW115758   1.071   6.680   3.409
 4953SOL    HW215759   0.929   6.698   3.488
 4954SOL     OW15760   3.187   3.296   6.996
 4954SOL    HW115761   3.163   3.200   7.004
 4954SOL    HW215762   3.104   3.351   6.995
 4955SOL     OW15763   2.682   6.955   6.889
 4955SOL    HW115764   2.779   6.963   6.869
 4955SOL    HW215765   2.629   6.987   6.811
 4956SOL     OW15766   3.077   0.059   5.080
 4956SOL    HW115767   3.061   0.098   4.989
 4956SOL    HW215768   2.989   0.039   5.123
 4957SOL     OW15769   5.565   2.718   1.194
 4957SOL    HW115770   5.556   2.660   1.276
 4957SOL    HW215771   5.619   2.799   1.216
 4958SOL     OW15772   1.016   5.359   6.317
 4958SOL    HW115773   0.992   5.452   6.345
 4958SOL    HW215774   1.011   5.352   6.218
 4959SOL     OW15775   5.907   1.705   0.632
 4959SOL    HW115776   5.809   1.691   0.650
 4959SOL    HW215777   5.951   1.616   0.623
 4960SOL     OW15778   4.292   4.816   4.212
 4960SOL    HW115779   4.205   4.837   4.169
 4960SOL    HW215780   4.296   4.860   4.302
 4961SOL     OW15781   3.197   0.791   6.027
 4961SOL    HW115782   3.273   0.726   6.025
 4961SOL    HW215783   3.190   0.830   6.119
 4962SOL     OW15784   5.874   2.926   0.635
 4962SOL    HW115785   5.892   2.851   0.571
 4962SOL    HW215786   5.799   2.899   0.697
 4963SOL     OW15787   0.503   5.929   0.374
 4963SOL    HW115788   0.542   5.974   0.294
 4963SOL    HW215789   0.541   5.837   0.381
 4964SOL     OW15790   2.369   0.011   4.592
 4964SOL    HW115791   2.347   0.055   4.505
 4964SOL    HW215792   2.402   6.936   4.575
 4965SOL     OW15793   0.525   6.989   1.856
 4965SOL    HW115794   0.460   6.920   1.887
 4965SOL    HW215795   0.607   6.944   1.821
 4966SOL     OW15796   2.684   6.926   4.922
 4966SOL    HW115797   2.689   7.007   4.864
 4966SOL    HW215798   2.751   6.935   4.996
 4967SOL     OW15799   3.362   4.812   5.682
 4967SOL    HW115800   3.271   4.772   5.669
 4967SOL    HW215801   3.389   4.862   5.600
 4968SOL     OW15802   0.415   1.120   2.955
 4968SOL    HW115803   0.495   1.141   3.011
 4968SOL    HW215804   0.387   1.025   2.972
 4969SOL     OW15805   2.208   6.143   2.579
 4969SOL    HW115806   2.127   6.191   2.612
 4969SOL    HW215807   2.246   6.087   2.653
 4970SOL     OW15808   2.536   1.941   1.487
 4970SOL    HW115809   2.500   1.867   1.430
 4970SOL    HW215810   2.511   1.923   1.582
 4971SOL     OW15811   5.822   5.518   3.122
 4971SOL    HW115812   5.736   5.488   3.080
 4971SOL    HW215813   5.845   5.610   3.090
 4972SOL     OW15814   0.917   3.934   1.165
 4972SOL    HW115815   0.984   3.861   1.176
 4972SOL    HW215816   0.846   3.905   1.102
 4973SOL     OW15817   1.507   6.920   1.779
 4973SOL    HW115818   1.566   6.986   1.731
 4973SOL    HW215819   1.563   6.865   1.841
 4974SOL     OW15820   5.883   5.073   0.811
 4974SOL    HW115821   5.925   5.163   0.820
 4974SOL    HW215822   5.950   5.008   0.774
 4975SOL     OW15823   5.905   4.113   6.162
 4975SOL    HW115824   5.919   4.094   6.065
 4975SOL    HW215825   5.839   4.049   6.200
 4976SOL     OW15826   2.110   2.070   4.070
 4976SOL    HW115827   2.201   2.030   4.076
 4976SOL    HW215828   2.116   2.169   4.084
 4977SOL     OW15829   4.517   5.042   0.001
 4977SOL    HW115830   4.419   5.027   7.008
 4977SOL    HW215831   4.536   5.079   0.092
 4978SOL     OW15832   6.073   4.613   5.006
 4978SOL    HW115833   6.095   4.662   4.922
 4978SOL    HW215834   6.151   4.556   5.032
 4979SOL     OW15835   6.613   6.728   5.996
 4979SOL    HW115836   6.610   6.728   6.096
 4979SOL    HW215837   6.660   6.811   5.964
 4980SOL     OW15838   5.365   5.397   3.899
 4980SOL    HW115839   5.281   5.344   3.913
 4980SOL    HW215840   5.441   5.334   3.881
 4981SOL     OW15841   4.087   5.184   0.773
 4981SOL    HW115842   4.149   5.143   0.705
 4981SOL    HW215843   4.140   5.242   0.835
 4982SOL     OW15844   3.110   2.061   5.860
 4982SOL    HW115845   3.176   2.128   5.894
 4982SOL    HW215846   3.159   1.988   5.812
 4983SOL     OW15847   6.054   3.326   5.842
 4983SOL    HW115848   6.035   3.402   5.780
 4983SOL    HW215849   6.136   3.278   5.811
 4984SOL     OW15850   5.482   4.037   2.955
 4984SOL    HW115851   5.437   4.014   3.041
 4984SOL    HW215852   5.489   3.954   2.898
 4985SOL     OW15853   6.276   6.819   3.178
 4985SOL    HW115854   6.190   6.839   3.132
 4985SOL    HW215855   6.327   6.904   3.191
 4986SOL     OW15856   6.894   4.892   0.629
 4986SOL    HW115857   6.964   4.946   0.677
 4986SOL    HW215858   6.873   4.810   0.682
 4987SOL     OW15859   0.439   6.314   2.430
 4987SOL    HW115860   0.528   6.294   2.388
 4987SOL    HW215861   0.454   6.355   2.520
 4988SOL     OW15862   5.265   0.956   2.269
 4988SOL    HW115863   5.222   0.865   2.272
 4988SOL    HW215864   5.364   0.946   2.268
 4989SOL     OW15865   5.417   6.443   1.065
 4989SOL    HW115866   5.462   6.359   1.032
 4989SOL    HW215867   5.325   6.420   1.098
 4990SOL     OW15868   2.343   1.889   5.836
 4990SOL    HW115869   2.266   1.902   5.899
 4990SOL    HW215870   2.342   1.962   5.768
 4991SOL     OW15871   6.538   5.685   4.338
 4991SOL    HW115872   6.497   5.692   4.247
 4991SOL    HW215873   6.544   5.589   4.365
 4992SOL     OW15874   4.703   0.321   2.268
 4992SOL    HW115875   4.756   0.271   2.200
 4992SOL    HW215876   4.752   0.404   2.294
 4993SOL     OW15877   3.019   6.330   5.065
 4993SOL    HW115878   2.953   6.400   5.041
 4993SOL    HW215879   2.991   6.242   5.027
 4994SOL     OW15880   1.802   0.117   4.416
 4994SOL    HW115881   1.812   0.136   4.318
 4994SOL    HW215882   1.890   0.092   4.455
 4995SOL     OW15883   1.232   1.969   5.079
 4995SOL    HW115884   1.247   1.896   5.145
 4995SOL    HW215885   1.146   1.954   5.031
 4996SOL     OW15886   0.409   1.670   3.351
 4996SOL    HW115887   0.401   1.721   3.265
 4996SOL    HW215888   0.496   1.693   3.395
 4997SOL     OW15889   4.278   2.327   2.614
 4997SOL    HW115890   4.195   2.296   2.660
 4997SOL    HW215891   4.274   2.303   2.517
 4998SOL     OW15892   2.203   3.127   4.930
 4998SOL    HW115893   2.186   3.175   5.016
 4998SOL    HW215894   2.275   3.059   4.943
 4999SOL     OW15895   6.648   3.725   5.787
 4999SOL    HW115896   6.662   3.690   5.880
 4999SOL    HW215897   6.714   3.684   5.725
 5000SOL     OW15898   3.634   6.894   3.119
 5000SOL    HW115899   3.557   6.844   3.080
 5000SOL    HW215900   3.621   6.906   3.217
 5001SOL     OW15901   1.511   4.742   1.927
 5001SOL    HW115902   1.428   4.710   1.881
 5001SOL    HW215903   1.582   4.761   1.859
 5002SOL     OW15904   1.054   3.652   2.149
 5002SOL    HW115905   0.998   3.720   2.101
 5002SOL    HW215906   1.086   3.689   2.236
 5003SOL     OW15907   3.439   5.399   2.883
 5003SOL    HW115908   3.360   5.459   2.889
 5003SOL    HW215909   3.458   5.360   2.974
 5004SOL     OW15910   2.504   4.885   5.080
 5004SOL    HW115911   2.461   4.798   5.103
 5004SOL    HW215912   2.437   4.959   5.090
 5005SOL     OW15913   3.459   3.105   0.718
 5005SOL    HW115914   3.369   3.078   0.684
 5005SOL    HW215915   3.475   3.201   0.694
 5006SOL     OW15916   5.122   0.644   1.691
 5006SOL    HW115917   5.160   0.705   1.622
 5006SOL    HW215918   5.037   0.605   1.657
 5007SOL     OW15919   0.710   6.594   0.963
 5007SOL    HW115920   0.674   6.632   0.878
 5007SOL    HW215921   0.791   6.645   0.992
 5008SOL     OW15922   5.203   6.421   1.249
 5008SOL    HW115923   5.240   6.483   1.318
 5008SOL    HW215924   5.263   6.340   1.242
 5009SOL     OW15925   0.126   2.016   0.459
 5009SOL    HW115926   0.071   1.954   0.515
 5009SOL    HW215927   0.146   2.099   0.511
 5010SOL     OW15928   4.172   3.016   1.713
 5010SOL    HW115929   4.117   3.096   1.733
 5010SOL    HW215930   4.266   3.043   1.693
 5011SOL     OW15931   1.636   4.758   2.426
 5011SOL    HW115932   1.696   4.684   2.394
 5011SOL    HW215933   1.593   4.731   2.511
 5012SOL     OW15934   5.642   3.454   5.593
 5012SOL    HW115935   5.614   3.538   5.548
 5012SOL    HW215936   5.636   3.377   5.529
 5013SOL     OW15937   5.245   1.534   6.876
 5013SOL    HW115938   5.205   1.449   6.909
 5013SOL    HW215939   5.331   1.514   6.829
 5014SOL     OW15940   5.720   4.879   1.269
 5014SOL    HW115941   5.771   4.930   1.338
 5014SOL    HW215942   5.734   4.921   1.179
 5015SOL     OW15943   4.947   1.834   4.880
 5015SOL    HW115944   4.915   1.748   4.839
 5015SOL    HW215945   4.893   1.853   4.962
 5016SOL     OW15946   2.146   2.824   6.109
 5016SOL    HW115947   2.103   2.894   6.051
 5016SOL    HW215948   2.099   2.737   6.096
 5017SOL     OW15949   2.478   2.498   1.398
 5017SOL    HW115950   2.424   2.551   1.463
 5017SOL    HW215951   2.451   2.523   1.305
 5018SOL     OW15952   1.229   4.727   2.924
 5018SOL    HW115953   1.261   4.684   2.839
 5018SOL    HW215954   1.148   4.782   2.904
 5019SOL     OW15955   1.242   5.330   5.969
 5019SOL    HW115956   1.298   5.287   5.898
 5019SOL    HW215957   1.243   5.429   5.956
 5020SOL     OW15958   5.639   7.006   6.956
 5020SOL    HW115959   5.679   0.054   0.002
 5020SOL    HW215960   5.558   6.964   6.997
 5021SOL     OW15961   0.687   1.478   0.199
 5021SOL    HW115962   0.689   1.387   0.241
 5021SOL    HW215963   0.593   1.498   0.169
 5022SOL     OW15964   1.681   1.479   1.007
 5022SOL    HW115965   1.607   1.506   0.945
 5022SOL    HW215966   1.755   1.545   1.002
 5023SOL     OW15967   0.222   3.433   1.976
 5023SOL    HW115968   0.270   3.380   1.906
 5023SOL    HW215969   0.164   3.373   2.030
 5024SOL     OW15970   6.051   5.399   1.658
 5024SOL    HW115971   6.035   5.301   1.643
 5024SOL    HW215972   6.022   5.424   1.751
 5025SOL     OW15973   4.199   1.610   2.903
 5025SOL    HW115974   4.244   1.520   2.902
 5025SOL    HW215975   4.188   1.643   2.809
 5026SOL     OW15976   6.206   6.080   5.447
 5026SOL    HW115977   6.155   5.999   5.420
 5026SOL    HW215978   6.152   6.162   5.425
 5027SOL     OW15979   0.115   6.067   2.050
 5027SOL    HW115980   0.196   6.055   2.108
 5027SOL    HW215981   0.068   6.152   2.075
 5028SOL     OW15982   0.354   2.035   2.238
 5028SOL    HW115983   0.424   2.001   2.301
 5028SOL    HW215984   0.397   2.081   2.161
 5029SOL     OW15985   6.520   2.196   2.397
 5029SOL    HW115986   6.511   2.249   2.481
 5029SOL    HW215987   6.440   2.212   2.339
 5030SOL     OW15988   6.841   6.320   6.733
 5030SOL    HW115989   6.742   6.324   6.721
 5030SOL    HW215990   6.875   6.231   6.704
 5031SOL     OW15991   6.592   0.692   5.975
 5031SOL    HW115992   6.599   0.786   6.009
 5031SOL    HW215993   6.679   0.664   5.935
 5032SOL     OW15994   1.657   2.151   0.108
 5032SOL    HW115995   1.686   2.092   0.183
 5032SOL    HW215996   1.575   2.201   0.134
 5033SOL     OW15997   2.174   6.778   5.758
 5033SOL    HW115998   2.181   6.851   5.826
 5033SOL    HW215999   2.238   6.705   5.781
 5034SOL     OW16000   6.129   0.460   3.306
 5034SOL    HW116001   6.162   0.368   3.285
 5034SOL    HW216002   6.053   0.454   3.371
 5035SOL     OW16003   0.665   3.656   6.477
 5035SOL    HW116004   0.734   3.685   6.543
 5035SOL    HW216005   0.698   3.575   6.427
 5036SOL     OW16006   0.573   4.986   6.755
 5036SOL    HW116007   0.534   4.944   6.673
 5036SOL    HW216008   0.662   5.025   6.733
 5037SOL     OW16009   5.755   3.871   1.707
 5037SOL    HW116010   5.682   3.932   1.739
 5037SOL    HW216011   5.821   3.856   1.781
 5038SOL     OW16012   3.422   3.781   5.898
 5038SOL    HW116013   3.416   3.741   5.990
 5038SOL    HW216014   3.517   3.803   5.877
 5039SOL     OW16015   2.655   4.338   5.994
 5039SOL    HW116016   2.679   4.241   5.995
 5039SOL    HW216017   2.645   4.369   5.899
 5040SOL     OW16018   1.645   6.339   5.551
 5040SOL    HW116019   1.611   6.353   5.645
 5040SOL    HW216020   1.703   6.258   5.549
 5041SOL     OW16021   1.984   1.793   2.632
 5041SOL    HW116022   2.076   1.824   2.607
 5041SOL    HW216023   1.965   1.821   2.726
 5042SOL     OW16024   6.374   3.200   0.102
 5042SOL    HW116025   6.403   3.128   0.165
 5042SOL    HW216026   6.281   3.183   0.072
 5043SOL     OW16027   2.979   0.205   6.083
 5043SOL    HW116028   2.988   0.141   6.007
 5043SOL    HW216029   3.012   0.162   6.167
 5044SOL     OW16030   0.568   6.652   6.868
 5044SOL    HW116031   0.596   6.676   6.961
 5044SOL    HW216032   0.603   6.560   6.846
 5045SOL     OW16033   5.267   0.325   6.300
 5045SOL    HW116034   5.293   0.380   6.380
 5045SOL    HW216035   5.339   0.257   6.283
 5046SOL     OW16036   3.382   4.023   2.651
 5046SOL    HW116037   3.446   3.950   2.625
 5046SOL    HW216038   3.405   4.056   2.743
 5047SOL     OW16039   1.259   4.371   2.958
 5047SOL    HW116040   1.199   4.317   2.900
 5047SOL    HW216041   1.296   4.448   2.906
 5048SOL     OW16042   0.990   1.754   2.704
 5048SOL    HW116043   0.958   1.692   2.775
 5048SOL    HW216044   0.936   1.740   2.621
 5049SOL     OW16045   5.483   2.004   6.586
 5049SOL    HW116046   5.514   2.030   6.677
 5049SOL    HW216047   5.387   1.975   6.590
 5050SOL     OW16048   1.973   1.142   1.581
 5050SOL    HW116049   1.901   1.125   1.514
 5050SOL    HW216050   2.055   1.174   1.534
 5051SOL     OW16051   4.296   4.529   0.938
 5051SOL    HW116052   4.203   4.559   0.920
 5051SOL    HW216053   4.295   4.446   0.995
 5052SOL     OW16054   2.494   1.038   6.045
 5052SOL    HW116055   2.546   1.107   5.995
 5052SOL    HW216056   2.454   1.078   6.127
 5053SOL     OW16057   2.167   4.024   3.796
 5053SOL    HW116058   2.183   4.028   3.895
 5053SOL    HW216059   2.100   3.952   3.777
 5054SOL     OW16060   3.340   5.631   5.021
 5054SOL    HW116061   3.402   5.600   5.093
 5054SOL    HW216062   3.248   5.597   5.038
 5055SOL     OW16063   2.093   2.231   5.672
 5055SOL    HW116064   2.052   2.320   5.648
 5055SOL    HW216065   2.061   2.203   5.762
 5056SOL     OW16066   6.130   4.212   6.923
 5056SOL    HW116067   6.188   4.151   6.977
 5056SOL    HW216068   6.053   4.243   6.979
 5057SOL     OW16069   6.527   5.708   4.063
 5057SOL    HW116070   6.599   5.650   4.025
 5057SOL    HW216071   6.549   5.804   4.048
 5058SOL     OW16072   2.704   3.264   5.629
 5058SOL    HW116073   2.665   3.262   5.537
 5058SOL    HW216074   2.642   3.218   5.693
 5059SOL     OW16075   6.122   1.233   3.639
 5059SOL    HW116076   6.143   1.330   3.652
 5059SOL    HW216077   6.036   1.211   3.686
 5060SOL     OW16078   0.857   2.175   5.831
 5060SOL    HW116079   0.886   2.080   5.818
 5060SOL    HW216080   0.854   2.221   5.743
 5061SOL     OW16081   4.401   2.578   1.761
 5061SOL    HW116082   4.317   2.618   1.725
 5061SOL    HW216083   4.434   2.509   1.698
 5062SOL     OW16084   5.589   0.705   3.223
 5062SOL    HW116085   5.642   0.620   3.226
 5062SOL    HW216086   5.625   0.765   3.151
 5063SOL     OW16087   0.970   6.882   1.750
 5063SOL    HW116088   0.978   6.960   1.811
 5063SOL    HW216089   0.971   6.797   1.804
 5064SOL     OW16090   4.892   4.028   1.452
 5064SOL    HW116091   4.848   4.014   1.540
 5064SOL    HW216092   4.948   3.948   1.430
 5065SOL     OW16093   2.154   0.539   3.348
 5065SOL    HW116094   2.252   0.555   3.358
 5065SOL    HW216095   2.112   0.615   3.298
 5066SOL     OW16096   4.760   5.072   1.941
 5066SOL    HW116097   4.687   5.040   2.001
 5066SOL    HW216098   4.819   5.136   1.990
 5067SOL     OW16099   4.975   0.893   1.477
 5067SOL    HW116100   5.006   0.987   1.484
 5067SOL    HW216101   4.880   0.886   1.510
 5068SOL     OW16102   3.763   4.548   0.726
 5068SOL    HW116103   3.776   4.454   0.697
 5068SOL    HW216104   3.852   4.591   0.742
 5069SOL     OW16105   1.927   3.509   5.536
 5069SOL    HW116106   1.854   3.574   5.552
 5069SOL    HW216107   1.950   3.507   5.438
 5070SOL     OW16108   4.813   4.152   3.877
 5070SOL    HW116109   4.796   4.080   3.945
 5070SOL    HW216110   4.757   4.232   3.899
 5071SOL     OW16111   4.078   2.215   3.264
 5071SOL    HW116112   4.147   2.260   3.320
 5071SOL    HW216113   3.989   2.220   3.309
 5072SOL     OW16114   0.995   0.398   1.335
 5072SOL    HW116115   1.032   0.344   1.259
 5072SOL    HW216116   0.915   0.449   1.304
 5073SOL     OW16117   0.152   5.706   1.939
 5073SOL    HW116118   0.096   5.706   1.856
 5073SOL    HW216119   0.248   5.714   1.914
 5074SOL     OW16120   3.422   2.872   1.361
 5074SOL    HW116121   3.521   2.874   1.374
 5074SOL    HW216122   3.391   2.777   1.359
 5075SOL     OW16123   1.128   2.160   6.873
 5075SOL    HW116124   1.113   2.258   6.883
 5075SOL    HW216125   1.055   2.110   6.920
 5076SOL     OW16126   4.041   1.146   0.742
 5076SOL    HW116127   4.025   1.051   0.770
 5076SOL    HW216128   4.082   1.147   0.650
 5077SOL     OW16129   1.218   4.380   5.494
 5077SOL    HW116130   1.315   4.397   5.480
 5077SOL    HW216131   1.175   4.356   5.406
 5078SOL     OW16132   1.759   0.988   3.659
 5078SOL    HW116133   1.802   0.904   3.625
 5078SOL    HW216134   1.817   1.029   3.730
 5079SOL     OW16135   2.497   3.233   6.145
 5079SOL    HW116136   2.422   3.183   6.102
 5079SOL    HW216137   2.546   3.172   6.207
 5080SOL     OW16138   6.282   6.235   6.168
 5080SOL    HW116139   6.302   6.333   6.162
 5080SOL    HW216140   6.332   6.186   6.098
 5081SOL     OW16141   3.363   2.944   4.024
 5081SOL    HW116142   3.278   2.970   3.977
 5081SOL    HW216143   3.347   2.941   4.122
 5082SOL     OW16144   4.575   5.989   7.017
 5082SOL    HW116145   4.660   5.989   6.965
 5082SOL    HW216146   4.558   6.080   0.036
 5083SOL     OW16147   2.330   6.956   2.754
 5083SOL    HW116148   2.272   0.019   2.765
 5083SOL    HW216149   2.333   6.905   2.840
 5084SOL     OW16150   0.326   4.775   4.639
 5084SOL    HW116151   0.274   4.817   4.714
 5084SOL    HW216152   0.321   4.834   4.558
 5085SOL     OW16153   5.141   3.452   6.505
 5085SOL    HW116154   5.125   3.388   6.581
 5085SOL    HW216155   5.119   3.545   6.535
 5086SOL     OW16156   0.311   5.112   3.449
 5086SOL    HW116157   0.291   5.155   3.537
 5086SOL    HW216158   0.248   5.147   3.379
 5087SOL     OW16159   1.168   4.961   1.907
 5087SOL    HW116160   1.177   4.864   1.929
 5087SOL    HW216161   1.150   5.013   1.990
 5088SOL     OW16162   6.562   1.283   5.324
 5088SOL    HW116163   6.516   1.352   5.380
 5088SOL    HW216164   6.618   1.327   5.254
 5089SOL     OW16165   5.025   3.870   4.261
 5089SOL    HW116166   5.033   3.770   4.268
 5089SOL    HW216167   5.058   3.911   4.346
 5090SOL     OW16168   2.088   3.689   3.050
 5090SOL    HW116169   1.993   3.682   3.078
 5090SOL    HW216170   2.093   3.702   2.950
 5091SOL     OW16171   0.654   0.153   2.208
 5091SOL    HW116172   0.662   0.146   2.109
 5091SOL    HW216173   0.723   0.094   2.251
 5092SOL     OW16174   3.945   3.018   1.547
 5092SOL    HW116175   3.961   2.947   1.616
 5092SOL    HW216176   3.959   3.108   1.588
 5093SOL     OW16177   2.876   1.324   1.622
 5093SOL    HW116178   2.849   1.416   1.593
 5093SOL    HW216179   2.861   1.260   1.546
 5094SOL     OW16180   2.127   6.017   5.363
 5094SOL    HW116181   2.081   6.095   5.320
 5094SOL    HW216182   2.210   5.995   5.311
 5095SOL     OW16183   6.438   2.393   5.099
 5095SOL    HW116184   6.377   2.463   5.062
 5095SOL    HW216185   6.465   2.330   5.027
 5096SOL     OW16186   4.367   4.087   0.855
 5096SOL    HW116187   4.391   4.058   0.762
 5096SOL    HW216188   4.350   4.007   0.912
 5097SOL     OW16189   1.242   0.435   6.819
 5097SOL    HW116190   1.261   0.457   6.723
 5097SOL    HW216191   1.303   0.363   6.850
 5098SOL     OW16192   1.403   0.584   1.762
 5098SOL    HW116193   1.400   0.517   1.836
 5098SOL    HW216194   1.436   0.672   1.798
 5099SOL     OW16195   0.600   6.386   6.810
 5099SOL    HW116196   0.570   6.297   6.842
 5099SOL    HW216197   0.621   6.382   6.713
 5100SOL     OW16198   4.056   5.496   5.568
 5100SOL    HW116199   4.031   5.467   5.475
 5100SOL    HW216200   4.037   5.422   5.632
 5101SOL     OW16201   4.753   6.733   0.334
 5101SOL    HW116202   4.738   6.818   0.284
 5101SOL    HW216203   4.711   6.739   0.424
 5102SOL     OW16204   5.662   0.607   4.326
 5102SOL    HW116205   5.670   0.648   4.417
 5102SOL    HW216206   5.567   0.583   4.309
 5103SOL     OW16207   0.430   1.390   4.541
 5103SOL    HW116208   0.446   1.458   4.469
 5103SOL    HW216209   0.505   1.392   4.607
 5104SOL     OW16210   1.572   6.718   3.039
 5104SOL    HW116211   1.491   6.727   2.980
 5104SOL    HW216212   1.543   6.717   3.135
 5105SOL     OW16213   3.451   2.684   0.211
 5105SOL    HW116214   3.458   2.765   0.153
 5105SOL    HW216215   3.355   2.667   0.235
 5106SOL     OW16216   3.275   1.009   0.613
 5106SOL    HW116217   3.337   1.012   0.534
 5106SOL    HW216218   3.221   0.925   0.610
 5107SOL     OW16219   3.547   0.426   0.420
 5107SOL    HW116220   3.565   0.509   0.367
 5107SOL    HW216221   3.461   0.385   0.390
 5108SOL     OW16222   2.924   3.740   4.694
 5108SOL    HW116223   2.993   3.812   4.688
 5108SOL    HW216224   2.911   3.699   4.603
 5109SOL     OW16225   1.386   0.819   0.748
 5109SOL    HW116226   1.327   0.847   0.824
 5109SOL    HW216227   1.337   0.832   0.662
 5110SOL     OW16228   0.590   0.591   6.501
 5110SOL    HW116229   0.652   0.608   6.578
 5110SOL    HW216230   0.497   0.582   6.536
 5111SOL     OW16231   2.630   1.340   5.184
 5111SOL    HW116232   2.544   1.304   5.220
 5111SOL    HW216233   2.680   1.387   5.257
 5112SOL     OW16234   0.685   6.617   2.534
 5112SOL    HW116235   0.609   6.558   2.562
 5112SOL    HW216236   0.692   6.694   2.598
 5113SOL     OW16237   2.280   6.928   1.842
 5113SOL    HW116238   2.309   0.005   1.832
 5113SOL    HW216239   2.360   6.868   1.834
 5114SOL     OW16240   3.174   2.280   0.807
 5114SOL    HW116241   3.191   2.269   0.904
 5114SOL    HW216242   3.077   2.298   0.791
 5115SOL     OW16243   1.992   4.935   4.416
 5115SOL    HW116244   2.026   4.915   4.508
 5115SOL    HW216245   1.958   5.029   4.413
 5116SOL     OW16246   5.737   6.748   6.698
 5116SOL    HW116247   5.824   6.703   6.720
 5116SOL    HW216248   5.739   6.842   6.732
 5117SOL     OW16249   2.749   4.710   4.796
 5117SOL    HW116250   2.802   4.679   4.875
 5117SOL    HW216251   2.668   4.759   4.828
 5118SOL     OW16252   4.816   0.619   0.494
 5118SOL    HW116253   4.883   0.688   0.521
 5118SOL    HW216254   4.735   0.664   0.456
 5119SOL     OW16255   5.595   0.794   1.930
 5119SOL    HW116256   5.557   0.781   1.838
 5119SOL    HW216257   5.531   0.757   1.998
 5120SOL     OW16258   4.043   1.442   4.041
 5120SOL    HW116259   4.116   1.415   3.979
 5120SOL    HW216260   3.957   1.401   4.010
 5121SOL     OW16261   2.497   2.308   0.666
 5121SOL    HW116262   2.516   2.215   0.632
 5121SOL    HW216263   2.413   2.342   0.626
 5122SOL     OW16264   2.993   0.045   3.373
 5122SOL    HW116265   2.926   0.096   3.427
 5122SOL    HW216266   2.982   6.965   3.390
 5123SOL     OW16267   5.732   2.044   5.127
 5123SOL    HW116268   5.655   2.042   5.063
 5123SOL    HW216269   5.814   2.007   5.083
 5124SOL     OW16270   2.913   5.256   4.970
 5124SOL    HW116271   2.933   5.186   5.038
 5124SOL    HW216272   2.815   5.272   4.966
 5125SOL     OW16273   6.070   2.835   4.122
 5125SOL    HW116274   6.100   2.741   4.105
 5125SOL    HW216275   5.988   2.835   4.180
 5126SOL     OW16276   5.995   5.290   5.809
 5126SOL    HW116277   6.056   5.218   5.777
 5126SOL    HW216278   6.003   5.299   5.908
 5127SOL     OW16279   6.921   3.832   0.360
 5127SOL    HW116280   6.949   3.902   0.294
 5127SOL    HW216281   6.961   3.853   0.449
 5128SOL     OW16282   0.321   0.555   6.516
 5128SOL    HW116283   0.281   0.496   6.447
 5128SOL    HW216284   0.293   0.524   6.607
 5129SOL     OW16285   4.718   6.860   3.045
 5129SOL    HW116286   4.645   6.856   2.977
 5129SOL    HW216287   4.806   6.849   2.999
 5130SOL     OW16288   1.249   5.851   4.337
 5130SOL    HW116289   1.254   5.950   4.349
 5130SOL    HW216290   1.158   5.819   4.365
 5131SOL     OW16291   3.053   4.815   3.603
 5131SOL    HW116292   2.983   4.845   3.667
 5131SOL    HW216293   3.125   4.765   3.652
 5132SOL     OW16294   3.629   1.588   6.288
 5132SOL    HW116295   3.535   1.615   6.305
 5132SOL    HW216296   3.664   1.639   6.209
 5133SOL     OW16297   2.533   5.357   6.494
 5133SOL    HW116298   2.618   5.343   6.444
 5133SOL    HW216299   2.526   5.453   6.523
 5134SOL     OW16300   6.543   0.797   2.155
 5134SOL    HW116301   6.624   0.760   2.200
 5134SOL    HW216302   6.477   0.827   2.225
 5135SOL     OW16303   5.048   3.477   3.885
 5135SOL    HW116304   5.064   3.571   3.857
 5135SOL    HW216305   5.079   3.464   3.979
 5136SOL     OW16306   5.328   0.476   6.530
 5136SOL    HW116307   5.274   0.549   6.570
 5136SOL    HW216308   5.346   0.406   6.599
 5137SOL     OW16309   5.181   3.317   4.893
 5137SOL    HW116310   5.280   3.328   4.905
 5137SOL    HW216311   5.162   3.228   4.851
 5138SOL     OW16312   3.565   4.058   4.743
 5138SOL    HW116313   3.486   3.997   4.750
 5138SOL    HW216314   3.575   4.109   4.829
 5139SOL     OW16315   0.694   0.032   4.545
 5139SOL    HW116316   0.630   0.107   4.527
 5139SOL    HW216317   0.646   6.963   4.537
 5140SOL     OW16318   4.095   1.532   5.456
 5140SOL    HW116319   4.001   1.502   5.476
 5140SOL    HW216320   4.100   1.631   5.466
 5141SOL     OW16321   6.559   3.632   1.409
 5141SOL    HW116322   6.480   3.598   1.461
 5141SOL    HW216323   6.607   3.701   1.464
 5142SOL     OW16324   5.598   6.469   4.474
 5142SOL    HW116325   5.549   6.486   4.389
 5142SOL    HW216326   5.694   6.495   4.463
 5143SOL     OW16327   0.377   4.163   4.256
 5143SOL    HW116328   0.322   4.183   4.175
 5143SOL    HW216329   0.425   4.246   4.285
 5144SOL     OW16330   1.668   4.895   5.791
 5144SOL    HW116331   1.640   4.883   5.696
 5144SOL    HW216332   1.610   4.839   5.850
 5145SOL     OW16333   3.683   5.987   5.803
 5145SOL    HW116334   3.743   6.051   5.755
 5145SOL    HW216335   3.681   6.010   5.900
 5146SOL     OW16336   3.331   3.931   5.285
 5146SOL    HW116337   3.356   4.021   5.248
 5146SOL    HW216338   3.413   3.884   5.316
 5147SOL     OW16339   6.226   5.582   4.024
 5147SOL    HW116340   6.318   5.621   4.025
 5147SOL    HW216341   6.168   5.634   3.961
 5148SOL     OW16342   0.117   1.119   2.257
 5148SOL    HW116343   0.082   1.176   2.331
 5148SOL    HW216344   0.041   1.074   2.211
 5149SOL     OW16345   5.820   5.963   4.584
 5149SOL    HW116346   5.889   5.946   4.654
 5149SOL    HW216347   5.812   5.883   4.525
 5150SOL     OW16348   2.265   4.586   4.002
 5150SOL    HW116349   2.218   4.635   4.075
 5150SOL    HW216350   2.350   4.547   4.038
 5151SOL     OW16351   0.294   4.106   1.996
 5151SOL    HW116352   0.304   4.014   1.960
 5151SOL    HW216353   0.366   4.165   1.959
 5152SOL     OW16354   2.122   5.467   0.026
 5152SOL    HW116355   2.183   5.460   6.966
 5152SOL    HW216356   2.159   5.414   0.102
 5153SOL     OW16357   0.337   2.085   1.039
 5153SOL    HW116358   0.325   2.152   1.112
 5153SOL    HW216359   0.295   2.120   0.955
 5154SOL     OW16360   1.047   2.926   5.865
 5154SOL    HW116361   1.140   2.925   5.902
 5154SOL    HW216362   1.052   2.924   5.765
 5155SOL     OW16363   4.022   0.203   2.000
 5155SOL    HW116364   4.043   0.105   2.007
 5155SOL    HW216365   4.096   0.256   2.041
 5156SOL     OW16366   5.629   4.637   5.259
 5156SOL    HW116367   5.625   4.667   5.355
 5156SOL    HW216368   5.698   4.691   5.211
 5157SOL     OW16369   3.066   1.935   2.861
 5157SOL    HW116370   3.077   2.033   2.844
 5157SOL    HW216371   2.981   1.903   2.821
 5158SOL     OW16372   4.023   2.319   0.929
 5158SOL    HW116373   4.043   2.328   0.832
 5158SOL    HW216374   4.024   2.410   0.971
 5159SOL     OW16375   5.959   3.296   5.462
 5159SOL    HW116376   5.948   3.219   5.525
 5159SOL    HW216377   5.963   3.381   5.515
 5160SOL     OW16378   6.694   4.736   3.134
 5160SOL    HW116379   6.684   4.653   3.080
 5160SOL    HW216380   6.706   4.713   3.231
 5161SOL     OW16381   1.806   3.703   0.416
 5161SOL    HW116382   1.860   3.645   0.477
 5161SOL    HW216383   1.712   3.667   0.411
 5162SOL     OW16384   1.054   5.355   2.644
 5162SOL    HW116385   1.061   5.302   2.560
 5162SOL    HW216386   1.133   5.336   2.703
 5163SOL     OW16387   3.267   6.433   0.510
 5163SOL    HW116388   3.275   6.478   0.599
 5163SOL    HW216389   3.234   6.339   0.524
 5164SOL     OW16390   3.217   3.063   0.249
 5164SOL    HW116391   3.187   3.037   0.157
 5164SOL    HW216392   3.312   3.094   0.245
 5165SOL     OW16393   0.800   4.165   5.992
 5165SOL    HW116394   0.865   4.177   6.067
 5165SOL    HW216395   0.741   4.245   5.986
 5166SOL     OW16396   2.624   5.100   2.442
 5166SOL    HW116397   2.558   5.164   2.401
 5166SOL    HW216398   2.678   5.147   2.511
 5167SOL     OW16399   6.184   4.307   5.563
 5167SOL    HW116400   6.234   4.376   5.616
 5167SOL    HW216401   6.211   4.313   5.467
 5168SOL     OW16402   5.245   3.273   2.945
 5168SOL    HW116403   5.214   3.305   2.856
 5168SOL    HW216404   5.241   3.173   2.948
 5169SOL     OW16405   3.832   2.123   3.371
 5169SOL    HW116406   3.827   2.105   3.273
 5169SOL    HW216407   3.878   2.047   3.417
 5170SOL     OW16408   1.319   3.555   4.856
 5170SOL    HW116409   1.280   3.581   4.767
 5170SOL    HW216410   1.333   3.636   4.912
 5171SOL     OW16411   7.002   4.112   6.123
 5171SOL    HW116412   6.982   4.087   6.028
 5171SOL    HW216413   0.014   4.208   6.126
 5172SOL     OW16414   1.816   3.718   3.014
 5172SOL    HW116415   1.783   3.699   2.922
 5172SOL    HW216416   1.763   3.664   3.080
 5173SOL     OW16417   4.153   5.595   5.205
 5173SOL    HW116418   4.241   5.637   5.182
 5173SOL    HW216419   4.168   5.502   5.238
 5174SOL     OW16420   2.506   4.832   3.440
 5174SOL    HW116421   2.412   4.864   3.451
 5174SOL    HW216422   2.551   4.885   3.368
 5175SOL     OW16423   2.740   3.625   6.576
 5175SOL    HW116424   2.660   3.679   6.552
 5175SOL    HW216425   2.785   3.665   6.655
 5176SOL     OW16426   5.240   4.398   6.718
 5176SOL    HW116427   5.190   4.356   6.642
 5176SOL    HW216428   5.178   4.415   6.793
 5177SOL     OW16429   5.280   0.015   0.694
 5177SOL    HW116430   5.272   6.971   0.772
 5177SOL    HW216431   5.241   6.989   0.612
 5178SOL     OW16432   1.465   4.408   2.006
 5178SOL    HW116433   1.370   4.424   2.032
 5178SOL    HW216434   1.502   4.491   1.963
 5179SOL     OW16435   4.645   4.332   3.992
 5179SOL    HW116436   4.605   4.361   4.079
 5179SOL    HW216437   4.594   4.375   3.917
 5180SOL     OW16438   3.661   1.569   1.581
 5180SOL    HW116439   3.596   1.504   1.544
 5180SOL    HW216440   3.633   1.662   1.557
 5181SOL     OW16441   5.887   0.555   2.201
 5181SOL    HW116442   5.855   0.617   2.273
 5181SOL    HW216443   5.838   0.468   2.208
 5182SOL     OW16444   4.514   4.669   2.317
 5182SOL    HW116445   4.518   4.630   2.225
 5182SOL    HW216446   4.464   4.608   2.378
 5183SOL     OW16447   3.453   1.722   2.866
 5183SOL    HW116448   3.533   1.673   2.833
 5183SOL    HW216449   3.479   1.783   2.941
 5184SOL     OW16450   2.006   2.551   3.544
 5184SOL    HW116451   2.012   2.621   3.473
 5184SOL    HW216452   1.958   2.471   3.508
 5185SOL     OW16453   4.872   0.971   3.014
 5185SOL    HW116454   4.891   1.060   2.972
 5185SOL    HW216455   4.783   0.939   2.983
 5186SOL     OW16456   6.129   1.890   6.334
 5186SOL    HW116457   6.144   1.987   6.314
 5186SOL    HW216458   6.216   1.848   6.359
 5187SOL     OW16459   1.232   5.800   5.274
 5187SOL    HW116460   1.327   5.792   5.244
 5187SOL    HW216461   1.227   5.864   5.350
 5188SOL     OW16462   6.453   6.137   1.759
 5188SOL    HW116463   6.533   6.112   1.704
 5188SOL    HW216464   6.414   6.222   1.724
 5189SOL     OW16465   4.833   6.162   0.140
 5189SOL    HW116466   4.921   6.174   0.187
 5189SOL    HW216467   4.772   6.107   0.198
 5190SOL     OW16468   0.791   3.424   4.048
 5190SOL    HW116469   0.747   3.398   3.962
 5190SOL    HW216470   0.721   3.441   4.118
 5191SOL     OW16471   3.289   6.267   2.080
 5191SOL    HW116472   3.279   6.364   2.059
 5191SOL    HW216473   3.345   6.256   2.161
 5192SOL     OW16474   1.609   6.111   1.446
 5192SOL    HW116475   1.687   6.174   1.450
 5192SOL    HW216476   1.642   6.017   1.445
 5193SOL     OW16477   5.273   5.901   5.621
 5193SOL    HW116478   5.181   5.938   5.631
 5193SOL    HW216479   5.276   5.808   5.657
 5194SOL     OW16480   3.373   2.859   7.012
 5194SOL    HW116481   3.294   2.822   0.045
 5194SOL    HW216482   3.343   2.887   6.921
 5195SOL     OW16483   0.203   0.529   3.844
 5195SOL    HW116484   0.140   0.464   3.887
 5195SOL    HW216485   0.294   0.517   3.884
 5196SOL     OW16486   5.106   6.972   2.042
 5196SOL    HW116487   5.149   0.009   1.970
 5196SOL    HW216488   5.078   6.884   2.005
 5197SOL     OW16489   2.512   3.741   6.499
 5197SOL    HW116490   2.448   3.715   6.427
 5197SOL    HW216491   2.485   3.830   6.537
 5198SOL     OW16492   4.567   5.873   2.883
 5198SOL    HW116493   4.664   5.898   2.890
 5198SOL    HW216494   4.512   5.938   2.934
 5199SOL     OW16495   1.176   6.050   0.604
 5199SOL    HW116496   1.109   6.078   0.673
 5199SOL    HW216497   1.128   6.019   0.521
 5200SOL     OW16498   6.801   4.012   4.976
 5200SOL    HW116499   6.707   4.036   5.002
 5200SOL    HW216500   6.853   4.096   4.961
 5201SOL     OW16501   0.649   6.371   2.999
 5201SOL    HW116502   0.742   6.343   2.974
 5201SOL    HW216503   0.654   6.441   3.071
 5202SOL     OW16504   4.953   2.773   6.042
 5202SOL    HW116505   4.959   2.727   6.130
 5202SOL    HW216506   5.023   2.845   6.037
 5203SOL     OW16507   2.162   2.115   6.204
 5203SOL    HW116508   2.090   2.057   6.242
 5203SOL    HW216509   2.228   2.138   6.275
 5204SOL     OW16510   3.820   4.909   6.779
 5204SOL    HW116511   3.904   4.960   6.800
 5204SOL    HW216512   3.830   4.863   6.691
 5205SOL     OW16513   0.704   6.675   0.419
 5205SOL    HW116514   0.737   6.586   0.390
 5205SOL    HW216515   0.781   6.738   0.430
 5206SOL     OW16516   6.906   4.682   5.158
 5206SOL    HW116517   6.807   4.670   5.157
 5206SOL    HW216518   6.944   4.647   5.244
 5207SOL     OW16519   0.989   6.016   3.629
 5207SOL    HW116520   1.069   6.065   3.594
 5207SOL    HW216521   0.994   6.010   3.729
 5208SOL     OW16522   3.225   2.072   6.702
 5208SOL    HW116523   3.242   2.058   6.605
 5208SOL    HW216524   3.245   1.988   6.753
 5209SOL     OW16525   5.776   6.204   3.217
 5209SOL    HW116526   5.697   6.145   3.234
 5209SOL    HW216527   5.848   6.152   3.171
 5210SOL     OW16528   5.381   2.200   5.607
 5210SOL    HW116529   5.479   2.203   5.622
 5210SOL    HW216530   5.362   2.172   5.512
 5211SOL     OW16531   3.573   2.892   4.663
 5211SOL    HW116532   3.585   2.878   4.761
 5211SOL    HW216533   3.529   2.981   4.647
 5212SOL     OW16534   6.132   1.713   0.492
 5212SOL    HW116535   6.170   1.621   0.487
 5212SOL    HW216536   6.057   1.714   0.559
 5213SOL     OW16537   4.417   3.893   6.756
 5213SOL    HW116538   4.348   3.932   6.695
 5213SOL    HW216539   4.430   3.796   6.734
 5214SOL     OW16540   4.900   1.592   5.963
 5214SOL    HW116541   4.965   1.527   6.001
 5214SOL    HW216542   4.888   1.668   6.027
 5215SOL     OW16543   5.830   5.001   3.142
 5215SOL    HW116544   5.857   5.091   3.174
 5215SOL    HW216545   5.830   4.936   3.219
 5216SOL     OW16546   4.336   5.634   1.734
 5216SOL    HW116547   4.370   5.656   1.642
 5216SOL    HW216548   4.238   5.650   1.738
 5217SOL     OW16549   3.377   5.256   3.985
 5217SOL    HW116550   3.423   5.319   4.047
 5217SOL    HW216551   3.317   5.195   4.037
 5218SOL     OW16552   0.939   0.829   3.516
 5218SOL    HW116553   1.020   0.802   3.568
 5218SOL    HW216554   0.965   0.893   3.444
 5219SOL     OW16555   4.294   0.583   5.856
 5219SOL    HW116556   4.305   0.518   5.781
 5219SOL    HW216557   4.309   0.537   5.943
 5220SOL     OW16558   1.369   5.899   2.451
 5220SOL    HW116559   1.461   5.932   2.469
 5220SOL    HW216560   1.304   5.974   2.461
 5221SOL     OW16561   5.547   1.862   3.851
 5221SOL    HW116562   5.598   1.947   3.839
 5221SOL    HW216563   5.458   1.883   3.890
 5222SOL     OW16564   3.172   6.148   3.612
 5222SOL    HW116565   3.190   6.085   3.536
 5222SOL    HW216566   3.075   6.173   3.612
 5223SOL     OW16567   5.441   1.389   0.722
 5223SOL    HW116568   5.412   1.467   0.667
 5223SOL    HW216569   5.487   1.422   0.805
 5224SOL     OW16570   6.800   2.380   4.184
 5224SOL    HW116571   6.883   2.430   4.208
 5224SOL    HW216572   6.817   2.282   4.194
 5225SOL     OW16573   0.455   0.046   3.035
 5225SOL    HW116574   0.380   0.108   3.013
 5225SOL    HW216575   0.447   6.980   2.981
 5226SOL     OW16576   0.184   5.621   4.983
 5226SOL    HW116577   0.112   5.605   5.051
 5226SOL    HW216578   0.215   5.716   4.990
 5227SOL     OW16579   1.437   4.331   4.068
 5227SOL    HW116580   1.521   4.329   4.014
 5227SOL    HW216581   1.390   4.419   4.054
 5228SOL     OW16582   6.609   2.103   1.203
 5228SOL    HW116583   6.650   2.125   1.114
 5228SOL    HW216584   6.656   2.154   1.275
 5229SOL     OW16585   2.040   4.825   0.013
 5229SOL    HW116586   2.065   4.901   6.970
 5229SOL    HW216587   2.060   4.738   6.985
 5230SOL     OW16588   0.724   6.060   1.017
 5230SOL    HW116589   0.650   6.048   1.083
 5230SOL    HW216590   0.724   6.154   0.983
 5231SOL     OW16591   3.990   3.460   4.848
 5231SOL    HW116592   3.995   3.408   4.763
 5231SOL    HW216593   4.018   3.403   4.924
 5232SOL     OW16594   2.948   1.836   5.965
 5232SOL    HW116595   2.886   1.786   5.904
 5232SOL    HW216596   2.956   1.931   5.933
 5233SOL     OW16597   5.880   0.326   1.896
 5233SOL    HW116598   5.943   0.258   1.933
 5233SOL    HW216599   5.827   0.366   1.971
 5234SOL     OW16600   2.233   0.652   0.163
 5234SOL    HW116601   2.281   0.711   0.229
 5234SOL    HW216602   2.254   0.681   0.070
 5235SOL     OW16603   1.808   2.942   1.068
 5235SOL    HW116604   1.748   3.021   1.054
 5235SOL    HW216605   1.893   2.971   1.111
 5236SOL     OW16606   6.069   3.837   2.305
 5236SOL    HW116607   6.037   3.895   2.381
 5236SOL    HW216608   6.049   3.882   2.218
 5237SOL     OW16609   2.222   0.514   5.235
 5237SOL    HW116610   2.248   0.558   5.149
 5237SOL    HW216611   2.194   0.584   5.300
 5238SOL     OW16612   1.360   4.676   0.590
 5238SOL    HW116613   1.404   4.710   0.673
 5238SOL    HW216614   1.291   4.741   0.560
 5239SOL     OW16615   4.124   3.554   4.291
 5239SOL    HW116616   4.211   3.604   4.297
 5239SOL    HW216617   4.084   3.548   4.383
 5240SOL     OW16618   3.142   1.921   6.394
 5240SOL    HW116619   3.059   1.954   6.438
 5240SOL    HW216620   3.142   1.948   6.297
 5241SOL     OW16621   0.597   5.341   5.737
 5241SOL    HW116622   0.681   5.329   5.683
 5241SOL    HW216623   0.585   5.261   5.797
 5242SOL     OW16624   6.708   6.519   5.836
 5242SOL    HW116625   6.798   6.493   5.870
 5242SOL    HW216626   6.666   6.585   5.898
 5243SOL     OW16627   1.464   5.810   1.917
 5243SOL    HW116628   1.488   5.721   1.877
 5243SOL    HW216629   1.470   5.804   2.017
 5244SOL     OW16630   3.178   3.933   5.964
 5244SOL    HW116631   3.079   3.927   5.979
 5244SOL    HW216632   3.196   3.960   5.869
 5245SOL     OW16633   4.746   4.577   0.242
 5245SOL    HW116634   4.716   4.639   0.315
 5245SOL    HW216635   4.740   4.483   0.275
 5246SOL     OW16636   5.640   4.508   2.308
 5246SOL    HW116637   5.549   4.478   2.282
 5246SOL    HW216638   5.655   4.602   2.278
 5247SOL     OW16639   1.184   6.597   0.338
 5247SOL    HW116640   1.265   6.542   0.359
 5247SOL    HW216641   1.106   6.562   0.392
 5248SOL     OW16642   6.228   0.467   4.577
 5248SOL    HW116643   6.316   0.420   4.591
 5248SOL    HW216644   6.237   0.531   4.501
 5249SOL     OW16645   0.221   4.969   4.832
 5249SOL    HW116646   0.147   5.006   4.775
 5249SOL    HW216647   0.184   4.938   4.919
 5250SOL     OW16648   1.013   1.172   5.336
 5250SOL    HW116649   0.960   1.192   5.418
 5250SOL    HW216650   0.953   1.169   5.256
 5251SOL     OW16651   0.419   3.573   0.394
 5251SOL    HW116652   0.357   3.589   0.317
 5251SOL    HW216653   0.380   3.504   0.455
 5252SOL     OW16654   2.462   5.682   1.107
 5252SOL    HW116655   2.374   5.723   1.132
 5252SOL    HW216656   2.448   5.614   1.035
 5253SOL     OW16657   5.593   3.697   4.458
 5253SOL    HW116658   5.599   3.598   4.466
 5253SOL    HW216659   5.531   3.732   4.529
 5254SOL     OW16660   4.924   0.702   3.079
 5254SOL    HW116661   4.909   0.800   3.066
 5254SOL    HW216662   4.837   0.658   3.102
 5255SOL     OW16663   4.553   0.186   6.306
 5255SOL    HW116664   4.504   0.221   6.386
 5255SOL    HW216665   4.562   0.258   6.237
 5256SOL     OW16666   4.337   0.535   3.513
 5256SOL    HW116667   4.338   0.504   3.418
 5256SOL    HW216668   4.409   0.603   3.527
 5257SOL     OW16669   4.537   7.005   2.363
 5257SOL    HW116670   4.530   0.028   2.454
 5257SOL    HW216671   4.633   6.993   2.339
 5258SOL     OW16672   4.962   3.123   1.376
 5258SOL    HW116673   4.912   3.113   1.461
 5258SOL    HW216674   5.047   3.070   1.381
 5259SOL     OW16675   4.339   6.029   1.117
 5259SOL    HW116676   4.343   6.075   1.205
 5259SOL    HW216677   4.358   6.094   1.044
 5260SOL     OW16678   5.440   3.515   0.950
 5260SOL    HW116679   5.406   3.451   0.881
 5260SOL    HW216680   5.533   3.543   0.927
 5261SOL     OW16681   1.650   3.069   6.853
 5261SOL    HW116682   1.575   3.007   6.832
 5261SOL    HW216683   1.640   3.104   6.947
 5262SOL     OW16684   2.591   0.443   2.871
 5262SOL    HW116685   2.637   0.400   2.949
 5262SOL    HW216686   2.578   0.376   2.798
 5263SOL     OW16687   1.219   1.078   5.511
 5263SOL    HW116688   1.178   1.028   5.587
 5263SOL    HW216689   1.153   1.081   5.435
 5264SOL     OW16690   6.256   0.949   2.615
 5264SOL    HW116691   6.177   0.936   2.555
 5264SOL    HW216692   6.227   0.992   2.700
 5265SOL     OW16693   5.342   4.526   3.175
 5265SOL    HW116694   5.359   4.543   3.272
 5265SOL    HW216695   5.418   4.472   3.138
 5266SOL     OW16696   2.577   0.573   2.465
 5266SOL    HW116697   2.497   0.589   2.523
 5266SOL    HW216698   2.547   0.543   2.375
 5267SOL     OW16699   4.996   4.594   5.969
 5267SOL    HW116700   5.002   4.694   5.967
 5267SOL    HW216701   4.916   4.565   5.916
 5268SOL     OW16702   6.221   6.826   6.089
 5268SOL    HW116703   6.124   6.823   6.112
 5268SOL    HW216704   6.240   6.908   6.035
 5269SOL     OW16705   2.039   0.117   4.228
 5269SOL    HW116706   2.054   0.214   4.247
 5269SOL    HW216707   2.056   0.064   4.311
 5270SOL     OW16708   5.461   1.579   2.412
 5270SOL    HW116709   5.529   1.515   2.379
 5270SOL    HW216710   5.433   1.553   2.505
 5271SOL     OW16711   5.290   4.988   4.986
 5271SOL    HW116712   5.197   4.965   4.955
 5271SOL    HW216713   5.291   5.081   5.023
 5272SOL     OW16714   1.752   6.282   2.468
 5272SOL    HW116715   1.786   6.279   2.374
 5272SOL    HW216716   1.722   6.375   2.489
 5273SOL     OW16717   6.886   3.131   2.879
 5273SOL    HW116718   6.969   3.079   2.856
 5273SOL    HW216719   6.864   3.118   2.975
 5274SOL     OW16720   6.157   5.703   2.431
 5274SOL    HW116721   6.081   5.768   2.433
 5274SOL    HW216722   6.140   5.635   2.359
 5275SOL     OW16723   3.505   2.253   6.509
 5275SOL    HW116724   3.578   2.202   6.464
 5275SOL    HW216725   3.528   2.266   6.605
 5276SOL     OW16726   1.254   0.973   1.231
 5276SOL    HW116727   1.250   0.874   1.241
 5276SOL    HW216728   1.192   1.016   1.297
 5277SOL     OW16729   1.856   2.588   3.113
 5277SOL    HW116730   1.787   2.543   3.169
 5277SOL    HW216731   1.856   2.686   3.132
 5278SOL     OW16732   4.872   0.135   4.034
 5278SOL    HW116733   4.969   0.111   4.024
 5278SOL    HW216734   4.864   0.234   4.045
 5279SOL     OW16735   1.844   5.338   6.718
 5279SOL    HW116736   1.770   5.275   6.742
 5279SOL    HW216737   1.926   5.286   6.696
 5280SOL     OW16738   2.998   6.286   5.683
 5280SOL    HW116739   2.911   6.325   5.652
 5280SOL    HW216740   3.049   6.251   5.605
 5281SOL     OW16741   0.850   1.536   3.186
 5281SOL    HW116742   0.921   1.512   3.120
 5281SOL    HW216743   0.837   1.635   3.187
 5282SOL     OW16744   1.747   1.548   3.295
 5282SOL    HW116745   1.710   1.568   3.385
 5282SOL    HW216746   1.700   1.603   3.226
 5283SOL     OW16747   2.949   0.101   2.251
 5283SOL    HW116748   3.033   0.058   2.220
 5283SOL    HW216749   2.955   0.200   2.240
 5284SOL     OW16750   5.159   2.488   3.054
 5284SOL    HW116751   5.079   2.433   3.079
 5284SOL    HW216752   5.142   2.533   2.966
 5285SOL     OW16753   1.269   4.134   4.448
 5285SOL    HW116754   1.243   4.099   4.538
 5285SOL    HW216755   1.291   4.057   4.388
 5286SOL     OW16756   0.017   4.072   1.435
 5286SOL    HW116757   6.956   4.083   1.374
 5286SOL    HW216758   7.003   4.066   1.530
 5287SOL     OW16759   1.671   5.878   1.558
 5287SOL    HW116760   1.648   5.906   1.651
 5287SOL    HW216761   1.740   5.806   1.560
 5288SOL     OW16762   4.066   0.736   2.248
 5288SOL    HW116763   4.058   0.750   2.150
 5288SOL    HW216764   4.156   0.698   2.270
 5289SOL     OW16765   1.592   5.306   6.336
 5289SOL    HW116766   1.558   5.284   6.245
 5289SOL    HW216767   1.516   5.334   6.395
 5290SOL     OW16768   1.477   4.137   5.321
 5290SOL    HW116769   1.563   4.107   5.280
 5290SOL    HW216770   1.484   4.234   5.347
 5291SOL     OW16771   3.020   4.857   5.907
 5291SOL    HW116772   2.935   4.818   5.942
 5291SOL    HW216773   3.063   4.912   5.979
 5292SOL     OW16774   6.378   5.110   0.092
 5292SOL    HW116775   6.311   5.168   0.045
 5292SOL    HW216776   6.453   5.089   0.030
 5293SOL     OW16777   1.177   0.245   4.234
 5293SOL    HW116778   1.116   0.320   4.204
 5293SOL    HW216779   1.170   0.170   4.169
 5294SOL     OW16780   5.836   2.810   4.247
 5294SOL    HW116781   5.783   2.727   4.265
 5294SOL    HW216782   5.839   2.867   4.330
 5295SOL     OW16783   4.138   0.937   2.425
 5295SOL    HW116784   4.213   0.976   2.371
 5295SOL    HW216785   4.100   0.857   2.377
 5296SOL     OW16786   2.438   4.820   0.010
 5296SOL    HW116787   2.529   4.847   6.994
 5296SOL    HW216788   2.417   4.727   6.996
 5297SOL     OW16789   2.736   2.402   0.904
 5297SOL    HW116790   2.672   2.478   0.912
 5297SOL    HW216791   2.692   2.317   0.932
 5298SOL     OW16792   1.135   5.485   0.056
 5298SOL    HW116793   1.157   5.467   6.978
 5298SOL    HW216794   1.219   5.507   0.106
 5299SOL     OW16795   2.056   2.814   0.816
 5299SOL    HW116796   2.008   2.726   0.821
 5299SOL    HW216797   2.137   2.805   0.758
 5300SOL     OW16798   0.748   6.318   0.976
 5300SOL    HW116799   0.713   6.412   0.977
 5300SOL    HW216800   0.817   6.307   1.047
 5301SOL     OW16801   3.592   2.598   6.456
 5301SOL    HW116802   3.619   2.695   6.457
 5301SOL    HW216803   3.493   2.591   6.448
 5302SOL     OW16804   5.716   5.702   4.002
 5302SOL    HW116805   5.626   5.694   3.958
 5302SOL    HW216806   5.767   5.777   3.959
 5303SOL     OW16807   6.465   5.778   3.238
 5303SOL    HW116808   6.377   5.816   3.210
 5303SOL    HW216809   6.514   5.847   3.292
 5304SOL     OW16810   5.237   1.013   6.646
 5304SOL    HW116811   5.141   0.985   6.636
 5304SOL    HW216812   5.290   0.982   6.568
 5305SOL     OW16813   0.999   5.500   2.887
 5305SOL    HW116814   0.958   5.432   2.948
 5305SOL    HW216815   1.000   5.466   2.794
 5306SOL     OW16816   0.620   4.278   4.830
 5306SOL    HW116817   0.545   4.342   4.849
 5306SOL    HW216818   0.683   4.320   4.764
 5307SOL     OW16819   4.369   1.035   0.223
 5307SOL    HW116820   4.357   1.090   0.140
 5307SOL    HW216821   4.345   0.940   0.203
 5308SOL     OW16822   0.778   5.652   3.770
 5308SOL    HW116823   0.703   5.695   3.721
 5308SOL    HW216824   0.800   5.707   3.851
 5309SOL     OW16825   3.917   4.781   1.390
 5309SOL    HW116826   3.919   4.702   1.329
 5309SOL    HW216827   3.893   4.752   1.482
 5310SOL     OW16828   6.473   3.539   2.199
 5310SOL    HW116829   6.511   3.452   2.167
 5310SOL    HW216830   6.373   3.535   2.192
 5311SOL     OW16831   6.261   5.711   0.466
 5311SOL    HW116832   6.285   5.727   0.562
 5311SOL    HW216833   6.289   5.789   0.411
 5312SOL     OW16834   0.428   5.055   2.031
 5312SOL    HW116835   0.459   4.980   1.972
 5312SOL    HW216836   0.500   5.124   2.036
 5313SOL     OW16837   1.856   4.183   6.395
 5313SOL    HW116838   1.814   4.258   6.343
 5313SOL    HW216839   1.798   4.159   6.472
 5314SOL     OW16840   3.290   6.287   6.960
 5314SOL    HW116841   3.209   6.253   7.008
 5314SOL    HW216842   3.349   6.336   0.006
 5315SOL     OW16843   4.825   3.031   1.579
 5315SOL    HW116844   4.865   2.991   1.661
 5315SOL    HW216845   4.792   2.958   1.519
 5316SOL     OW16846   0.453   4.082   4.739
 5316SOL    HW116847   0.510   4.001   4.756
 5316SOL    HW216848   0.501   4.164   4.769
 5317SOL     OW16849   6.923   6.852   5.183
 5317SOL    HW116850   6.926   6.778   5.250
 5317SOL    HW216851   6.976   6.828   5.102
 5318SOL     OW16852   0.090   2.677   6.407
 5318SOL    HW116853   0.008   2.682   6.350
 5318SOL    HW216854   0.164   2.728   6.364
 5319SOL     OW16855   4.011   6.974   6.902
 5319SOL    HW116856   3.948   6.991   6.977
 5319SOL    HW216857   3.996   0.024   6.830
 5320SOL     OW16858   6.153   5.029   0.462
 5320SOL    HW116859   6.186   4.963   0.394
 5320SOL    HW216860   6.143   5.119   0.418
 5321SOL     OW16861   0.779   4.074   3.736
 5321SOL    HW116862   0.852   4.114   3.793
 5321SOL    HW216863   0.769   4.127   3.652
 5322SOL     OW16864   4.125   6.244   6.702
 5322SOL    HW116865   4.078   6.181   6.765
 5322SOL    HW216866   4.060   6.311   6.667
 5323SOL     OW16867   3.552   2.240   6.773
 5323SOL    HW116868   3.466   2.266   6.817
 5323SOL    HW216869   3.604   2.322   6.751
 5324SOL     OW16870   4.418   2.228   0.596
 5324SOL    HW116871   4.350   2.300   0.586
 5324SOL    HW216872   4.377   2.139   0.576
 5325SOL     OW16873   4.546   0.636   4.632
 5325SOL    HW116874   4.644   0.645   4.653
 5325SOL    HW216875   4.497   0.715   4.669
 5326SOL     OW16876   0.374   5.292   4.041
 5326SOL    HW116877   0.278   5.264   4.049
 5326SOL    HW216878   0.401   5.291   3.945
 5327SOL     OW16879   5.435   3.282   4.754
 5327SOL    HW116880   5.434   3.187   4.725
 5327SOL    HW216881   5.480   3.291   4.842
 5328SOL     OW16882   4.778   2.722   5.455
 5328SOL    HW116883   4.753   2.817   5.439
 5328SOL    HW216884   4.711   2.680   5.516
 5329SOL     OW16885   6.693   4.838   6.694
 5329SOL    HW116886   6.706   4.811   6.598
 5329SOL    HW216887   6.748   4.779   6.753
 5330SOL     OW16888   3.621   4.004   5.526
 5330SOL    HW116889   3.582   3.915   5.501
 5330SOL    HW216890   3.586   4.074   5.464
 5331SOL     OW16891   5.086   1.284   0.768
 5331SOL    HW116892   5.054   1.203   0.816
 5331SOL    HW216893   5.156   1.257   0.701
 5332SOL     OW16894   0.294   4.030   1.362
 5332SOL    HW116895   0.358   4.106   1.369
 5332SOL    HW216896   0.201   4.062   1.381
 5333SOL     OW16897   1.025   0.958   3.295
 5333SOL    HW116898   1.031   1.055   3.273
 5333SOL    HW216899   1.112   0.914   3.276
 5334SOL     OW16900   3.736   6.610   4.224
 5334SOL    HW116901   3.763   6.684   4.162
 5334SOL    HW216902   3.750   6.639   4.319
 5335SOL     OW16903   5.932   5.436   2.308
 5335SOL    HW116904   5.950   5.499   2.233
 5335SOL    HW216905   6.019   5.401   2.345
 5336SOL     OW16906   2.337   1.909   3.286
 5336SOL    HW116907   2.373   1.820   3.314
 5336SOL    HW216908   2.237   1.904   3.280
 5337SOL     OW16909   5.242   4.428   2.207
 5337SOL    HW116910   5.227   4.398   2.113
 5337SOL    HW216911   5.301   4.509   2.207
 5338SOL     OW16912   6.105   0.710   5.612
 5338SOL    HW116913   6.093   0.684   5.707
 5338SOL    HW216914   6.055   0.645   5.554
 5339SOL     OW16915   6.560   2.078   3.944
 5339SOL    HW116916   6.551   2.030   3.857
 5339SOL    HW216917   6.629   2.150   3.936
 5340SOL     OW16918   5.425   2.444   0.913
 5340SOL    HW116919   5.417   2.538   0.945
 5340SOL    HW216920   5.492   2.394   0.968
 5341SOL     OW16921   3.592   4.318   6.018
 5341SOL    HW116922   3.552   4.394   5.967
 5341SOL    HW216923   3.688   4.306   5.992
 5342SOL     OW16924   4.243   6.708   3.885
 5342SOL    HW116925   4.290   6.759   3.814
 5342SOL    HW216926   4.257   6.752   3.973
 5343SOL     OW16927   3.684   3.179   4.356
 5343SOL    HW116928   3.757   3.133   4.305
 5343SOL    HW216929   3.705   3.177   4.454
 5344SOL     OW16930   1.894   2.012   1.503
 5344SOL    HW116931   1.947   2.085   1.460
 5344SOL    HW216932   1.900   2.021   1.603
 5345SOL     OW16933   3.269   6.580   0.741
 5345SOL    HW116934   3.297   6.676   0.737
 5345SOL    HW216935   3.178   6.574   0.782
 5346SOL     OW16936   3.311   5.896   4.080
 5346SOL    HW116937   3.317   5.973   4.016
 5346SOL    HW216938   3.377   5.909   4.154
 5347SOL     OW16939   0.032   3.087   1.896
 5347SOL    HW116940   0.015   3.168   1.953
 5347SOL    HW216941   7.007   3.007   1.938
 5348SOL     OW16942   6.406   1.785   1.231
 5348SOL    HW116943   6.369   1.864   1.181
 5348SOL    HW216944   6.464   1.818   1.306
 5349SOL     OW16945   2.226   2.818   0.409
 5349SOL    HW116946   2.230   2.917   0.392
 5349SOL    HW216947   2.133   2.794   0.438
 5350SOL     OW16948   1.524   6.773   5.352
 5350SOL    HW116949   1.453   6.721   5.400
 5350SOL    HW216950   1.552   6.724   5.270
 5351SOL     OW16951   6.757   4.965   2.293
 5351SOL    HW116952   6.816   5.044   2.275
 5351SOL    HW216953   6.814   4.882   2.296
 5352SOL     OW16954   1.941   5.275   3.276
 5352SOL    HW116955   1.867   5.323   3.228
 5352SOL    HW216956   1.902   5.216   3.347
 5353SOL     OW16957   3.824   5.044   4.036
 5353SOL    HW116958   3.802   5.139   4.013
 5353SOL    HW216959   3.793   4.984   3.962
 5354SOL     OW16960   2.316   4.869   1.623
 5354SOL    HW116961   2.364   4.781   1.627
 5354SOL    HW216962   2.322   4.914   1.712
 5355SOL     OW16963   6.429   4.076   4.642
 5355SOL    HW116964   6.512   4.095   4.694
 5355SOL    HW216965   6.352   4.126   4.682
 5356SOL     OW16966   6.045   4.375   2.516
 5356SOL    HW116967   6.027   4.357   2.613
 5356SOL    HW216968   6.133   4.422   2.507
 5357SOL     OW16969   3.357   6.108   0.180
 5357SOL    HW116970   3.258   6.116   0.186
 5357SOL    HW216971   3.380   6.026   0.126
 5358SOL     OW16972   4.854   1.204   0.045
 5358SOL    HW116973   4.763   1.226   0.009
 5358SOL    HW216974   4.856   1.108   0.073
 5359SOL     OW16975   1.625   1.035   5.850
 5359SOL    HW116976   1.660   0.994   5.934
 5359SOL    HW216977   1.701   1.068   5.794
 5360SOL     OW16978   3.335   6.095   3.835
 5360SOL    HW116979   3.380   6.015   3.796
 5360SOL    HW216980   3.266   6.130   3.771
 5361SOL     OW16981   2.937   1.144   4.691
 5361SOL    HW116982   2.927   1.134   4.790
 5361SOL    HW216983   2.847   1.133   4.648
 5362SOL     OW16984   6.670   6.049   2.669
 5362SOL    HW116985   6.586   6.091   2.702
 5362SOL    HW216986   6.662   5.949   2.676
 5363SOL     OW16987   0.028   0.152   5.697
 5363SOL    HW116988   6.997   0.201   5.770
 5363SOL    HW216989   6.981   0.092   5.649
 5364SOL     OW16990   7.004   6.672   2.407
 5364SOL    HW116991   6.974   6.749   2.349
 5364SOL    HW216992   6.952   6.590   2.382
 5365SOL     OW16993   3.834   2.685   0.688
 5365SOL    HW116994   3.894   2.747   0.637
 5365SOL    HW216995   3.747   2.730   0.706
 5366SOL     OW16996   5.884   5.898   1.429
 5366SOL    HW116997   5.886   5.978   1.489
 5366SOL    HW216998   5.896   5.926   1.334
 5367SOL     OW16999   0.671   6.687   0.682
 5367SOL    HW117000   0.748   6.750   0.695
 5367SOL    HW217001   0.645   6.684   0.586
 5368SOL     OW17002   5.786   0.151   2.640
 5368SOL    HW117003   5.730   0.089   2.694
 5368SOL    HW217004   5.834   0.215   2.701
 5369SOL     OW17005   2.753   6.686   0.922
 5369SOL    HW117006   2.701   6.685   1.008
 5369SOL    HW217007   2.697   6.727   0.850
 5370SOL     OW17008   4.728   2.236   1.616
 5370SOL    HW117009   4.729   2.241   1.716
 5370SOL    HW217010   4.727   2.140   1.587
 5371SOL     OW17011   0.207   3.715   4.939
 5371SOL    HW117012   0.278   3.644   4.948
 5371SOL    HW217013   0.249   3.799   4.906
 5372SOL     OW17014   1.793   6.070   3.468
 5372SOL    HW117015   1.709   6.017   3.457
 5372SOL    HW217016   1.845   6.069   3.383
 5373SOL     OW17017   3.481   6.701   4.627
 5373SOL    HW117018   3.513   6.607   4.636
 5373SOL    HW217019   3.421   6.723   4.704
 5374SOL     OW17020   2.073   4.451   0.656
 5374SOL    HW117021   2.026   4.363   0.659
 5374SOL    HW217022   2.005   4.525   0.661
 5375SOL     OW17023   0.801   5.460   4.273
 5375SOL    HW117024   0.707   5.465   4.239
 5375SOL    HW217025   0.819   5.537   4.334
 5376SOL     OW17026   1.751   2.675   1.048
 5376SOL    HW117027   1.758   2.639   1.141
 5376SOL    HW217028   1.774   2.772   1.049
 5377SOL     OW17029   0.245   6.726   2.332
 5377SOL    HW117030   0.228   6.805   2.273
 5377SOL    HW217031   0.162   6.701   2.381
 5378SOL     OW17032   0.022   0.554   2.414
 5378SOL    HW117033   0.018   0.560   2.315
 5378SOL    HW217034   0.009   0.645   2.454
 5379SOL     OW17035   1.093   4.891   4.893
 5379SOL    HW117036   0.995   4.896   4.875
 5379SOL    HW217037   1.129   4.804   4.858
 5380SOL     OW17038   2.726   1.147   2.793
 5380SOL    HW117039   2.747   1.208   2.717
 5380SOL    HW217040   2.689   1.061   2.758
 5381SOL     OW17041   6.493   4.808   2.249
 5381SOL    HW117042   6.400   4.799   2.214
 5381SOL    HW217043   6.530   4.897   2.221
 5382SOL     OW17044   2.873   1.253   2.127
 5382SOL    HW117045   2.836   1.252   2.034
 5382SOL    HW217046   2.971   1.273   2.123
 5383SOL     OW17047   1.995   1.996   5.294
 5383SOL    HW117048   2.070   2.005   5.359
 5383SOL    HW217049   2.009   2.059   5.217
 5384SOL     OW17050   5.692   6.804   5.462
 5384SOL    HW117051   5.669   6.900   5.445
 5384SOL    HW217052   5.608   6.751   5.474
 5385SOL     OW17053   3.542   3.430   3.827
 5385SOL    HW117054   3.580   3.501   3.886
 5385SOL    HW217055   3.514   3.352   3.883
 5386SOL     OW17056   5.266   1.028   4.292
 5386SOL    HW117057   5.216   1.022   4.379
 5386SOL    HW217058   5.346   1.087   4.305
 5387SOL     OW17059   2.010   0.294   3.366
 5387SOL    HW117060   2.039   0.389   3.379
 5387SOL    HW217061   2.072   0.248   3.303
 5388SOL     OW17062   0.356   1.671   3.738
 5388SOL    HW117063   0.297   1.752   3.732
 5388SOL    HW217064   0.318   1.606   3.804
 5389SOL     OW17065   3.732   1.603   3.402
 5389SOL    HW117066   3.784   1.644   3.327
 5389SOL    HW217067   3.641   1.643   3.406
 5390SOL     OW17068   4.820   4.061   3.180
 5390SOL    HW117069   4.837   4.023   3.271
 5390SOL    HW217070   4.873   4.145   3.169
 5391SOL     OW17071   2.467   1.496   0.927
 5391SOL    HW117072   2.395   1.549   0.881
 5391SOL    HW217073   2.427   1.413   0.966
 5392SOL     OW17074   5.282   3.573   1.170
 5392SOL    HW117075   5.200   3.612   1.130
 5392SOL    HW217076   5.353   3.566   1.101
 5393SOL     OW17077   4.820   6.996   5.506
 5393SOL    HW117078   4.870   0.021   5.581
 5393SOL    HW217079   4.875   6.923   5.466
 5394SOL     OW17080   0.311   5.177   0.850
 5394SOL    HW117081   0.236   5.234   0.883
 5394SOL    HW217082   0.398   5.212   0.885
 5395SOL     OW17083   4.346   0.882   1.238
 5395SOL    HW117084   4.414   0.852   1.304
 5395SOL    HW217085   4.264   0.913   1.287
 5396SOL     OW17086   5.157   4.130   1.676
 5396SOL    HW117087   5.089   4.180   1.622
 5396SOL    HW217088   5.241   4.184   1.683
 5397SOL     OW17089   0.819   3.108   1.399
 5397SOL    HW117090   0.837   3.020   1.443
 5397SOL    HW217091   0.825   3.181   1.467
 5398SOL     OW17092   3.038   2.200   3.619
 5398SOL    HW117093   3.092   2.117   3.600
 5398SOL    HW217094   2.982   2.221   3.539
 5399SOL     OW17095   2.672   6.427   0.825
 5399SOL    HW117096   2.715   6.501   0.877
 5399SOL    HW217097   2.640   6.356   0.887
 5400SOL     OW17098   3.452   3.730   6.792
 5400SOL    HW117099   3.377   3.700   6.733
 5400SOL    HW217100   3.432   3.821   6.829
 5401SOL     OW17101   5.984   3.986   2.098
 5401SOL    HW117102   5.952   3.964   2.006
 5401SOL    HW217103   5.922   4.054   2.139
 5402SOL     OW17104   2.257   5.867   1.699
 5402SOL    HW117105   2.285   5.775   1.724
 5402SOL    HW217106   2.274   5.929   1.776
 5403SOL     OW17107   5.958   2.837   5.464
 5403SOL    HW117108   5.890   2.822   5.392
 5403SOL    HW217109   6.004   2.751   5.485
 5404SOL     OW17110   0.869   0.056   2.644
 5404SOL    HW117111   0.825   0.110   2.573
 5404SOL    HW217112   0.828   0.078   2.733
 5405SOL     OW17113   5.761   6.155   0.115
 5405SOL    HW117114   5.680   6.200   0.153
 5405SOL    HW217115   5.827   6.138   0.189
 5406SOL     OW17116   2.252   0.154   5.507
 5406SOL    HW117117   2.259   0.179   5.411
 5406SOL    HW217118   2.191   0.076   5.517
 5407SOL     OW17119   3.645   1.756   2.025
 5407SOL    HW117120   3.559   1.769   2.074
 5407SOL    HW217121   3.649   1.663   1.990
 5408SOL     OW17122   3.196   0.857   5.191
 5408SOL    HW117123   3.164   0.934   5.135
 5408SOL    HW217124   3.166   0.771   5.149
 5409SOL     OW17125   6.895   2.002   3.228
 5409SOL    HW117126   6.924   2.081   3.174
 5409SOL    HW217127   6.869   2.033   3.320
 5410SOL     OW17128   1.353   2.642   6.759
 5410SOL    HW117129   1.269   2.697   6.760
 5410SOL    HW217130   1.432   2.700   6.779
 5411SOL     OW17131   6.184   4.760   5.390
 5411SOL    HW117132   6.233   4.800   5.468
 5411SOL    HW217133   6.147   4.833   5.333
 5412SOL     OW17134   4.043   1.222   6.680
 5412SOL    HW117135   3.951   1.203   6.714
 5412SOL    HW217136   4.041   1.224   6.580
 5413SOL     OW17137   0.548   0.241   1.277
 5413SOL    HW117138   0.592   0.194   1.354
 5413SOL    HW217139   0.598   0.220   1.193
 5414SOL     OW17140   6.361   3.196   5.310
 5414SOL    HW117141   6.376   3.282   5.263
 5414SOL    HW217142   6.263   3.180   5.321
 5415SOL     OW17143   1.063   5.938   1.637
 5415SOL    HW117144   0.977   5.943   1.689
 5415SOL    HW217145   1.085   6.028   1.601
 5416SOL     OW17146   3.507   4.763   6.217
 5416SOL    HW117147   3.517   4.684   6.157
 5416SOL    HW217148   3.577   4.831   6.194
 5417SOL     OW17149   4.163   6.645   4.451
 5417SOL    HW117150   4.257   6.680   4.460
 5417SOL    HW217151   4.166   6.550   4.421
 5418SOL     OW17152   5.311   0.771   4.458
 5418SOL    HW117153   5.355   0.788   4.370
 5418SOL    HW217154   5.234   0.834   4.469
 5419SOL     OW17155   3.421   5.304   0.428
 5419SOL    HW117156   3.430   5.239   0.352
 5419SOL    HW217157   3.331   5.295   0.470
 5420SOL     OW17158   1.832   2.987   1.629
 5420SOL    HW117159   1.741   3.026   1.616
 5420SOL    HW217160   1.894   3.024   1.560
 5421SOL     OW17161   2.623   4.617   3.086
 5421SOL    HW117162   2.686   4.605   3.163
 5421SOL    HW217163   2.581   4.707   3.091
 5422SOL     OW17164   1.132   6.071   5.271
 5422SOL    HW117165   1.033   6.067   5.278
 5422SOL    HW217166   1.173   6.046   5.359
 5423SOL     OW17167   5.888   3.573   6.731
 5423SOL    HW117168   5.917   3.543   6.822
 5423SOL    HW217169   5.951   3.643   6.698
 5424SOL     OW17170   6.118   3.488   4.314
 5424SOL    HW117171   6.051   3.542   4.263
 5424SOL    HW217172   6.083   3.395   4.327
 5425SOL     OW17173   5.107   1.917   4.153
 5425SOL    HW117174   5.010   1.898   4.136
 5425SOL    HW217175   5.121   1.934   4.251
 5426SOL     OW17176   6.114   4.823   3.888
 5426SOL    HW117177   6.109   4.747   3.824
 5426SOL    HW217178   6.164   4.899   3.847
 5427SOL     OW17179   5.266   4.831   0.451
 5427SOL    HW117180   5.205   4.821   0.373
 5427SOL    HW217181   5.213   4.854   0.532
 5428SOL     OW17182   6.424   6.753   2.095
 5428SOL    HW117183   6.442   6.734   2.191
 5428SOL    HW217184   6.463   6.842   2.070
 5429SOL     OW17185   1.484   0.791   5.068
 5429SOL    HW117186   1.399   0.758   5.111
 5429SOL    HW217187   1.532   0.852   5.131
 5430SOL     OW17188   2.480   2.364   6.141
 5430SOL    HW117189   2.479   2.314   6.228
 5430SOL    HW217190   2.469   2.300   6.066
 5431SOL     OW17191   3.232   4.539   6.429
 5431SOL    HW117192   3.276   4.507   6.513
 5431SOL    HW217193   3.275   4.496   6.350
 5432SOL     OW17194   3.650   5.806   5.614
 5432SOL    HW117195   3.710   5.727   5.620
 5432SOL    HW217196   3.671   5.870   5.687
 5433SOL     OW17197   0.347   1.348   2.565
 5433SOL    HW117198   0.390   1.283   2.503
 5433SOL    HW217199   0.270   1.304   2.612
 5434SOL     OW17200   4.505   1.470   4.711
 5434SOL    HW117201   4.507   1.565   4.678
 5434SOL    HW217202   4.424   1.456   4.767
 5435SOL     OW17203   6.330   2.064   1.196
 5435SOL    HW117204   6.281   2.117   1.127
 5435SOL    HW217205   6.428   2.068   1.178
 5436SOL     OW17206   5.668   4.368   4.484
 5436SOL    HW117207   5.590   4.428   4.504
 5436SOL    HW217208   5.650   4.318   4.400
 5437SOL     OW17209   2.826   5.127   5.856
 5437SOL    HW117210   2.782   5.197   5.913
 5437SOL    HW217211   2.769   5.045   5.856
 5438SOL     OW17212   6.230   3.703   2.523
 5438SOL    HW117213   6.218   3.611   2.560
 5438SOL    HW217214   6.148   3.731   2.474
 5439SOL     OW17215   0.023   2.312   0.231
 5439SOL    HW117216   7.009   2.220   0.208
 5439SOL    HW217217   0.116   2.307   0.268
 5440SOL     OW17218   6.781   0.330   3.135
 5440SOL    HW117219   6.742   0.309   3.045
 5440SOL    HW217220   6.812   0.425   3.137
 5441SOL     OW17221   4.621   2.676   3.582
 5441SOL    HW117222   4.720   2.682   3.598
 5441SOL    HW217223   4.576   2.636   3.661
 5442SOL     OW17224   3.319   6.702   3.577
 5442SOL    HW117225   3.283   6.616   3.540
 5442SOL    HW217226   3.258   6.736   3.648
 5443SOL     OW17227   3.317   5.637   4.012
 5443SOL    HW117228   3.307   5.732   4.042
 5443SOL    HW217229   3.390   5.594   4.064
 5444SOL     OW17230   0.142   0.879   3.185
 5444SOL    HW117231   0.113   0.825   3.264
 5444SOL    HW217232   0.234   0.852   3.158
 5445SOL     OW17233   6.611   4.068   4.037
 5445SOL    HW117234   6.575   4.153   4.076
 5445SOL    HW217235   6.535   4.014   4.000
 5446SOL     OW17236   5.932   5.166   4.900
 5446SOL    HW117237   5.876   5.177   4.982
 5446SOL    HW217238   5.926   5.248   4.843
 5447SOL     OW17239   1.383   1.804   0.873
 5447SOL    HW117240   1.323   1.725   0.888
 5447SOL    HW217241   1.339   1.869   0.812
 5448SOL     OW17242   5.933   4.169   4.400
 5448SOL    HW117243   5.855   4.107   4.411
 5448SOL    HW217244   5.928   4.212   4.309
 5449SOL     OW17245   1.775   1.323   0.749
 5449SOL    HW117246   1.746   1.303   0.843
 5449SOL    HW217247   1.695   1.335   0.691
 5450SOL     OW17248   3.179   0.036   0.831
 5450SOL    HW117249   3.229   0.108   0.879
 5450SOL    HW217250   3.244   6.996   0.780
 5451SOL     OW17251   2.177   5.783   3.744
 5451SOL    HW117252   2.135   5.693   3.757
 5451SOL    HW217253   2.118   5.839   3.685
 5452SOL     OW17254   2.960   4.163   0.104
 5452SOL    HW117255   2.970   4.165   0.005
 5452SOL    HW217256   3.039   4.117   0.144
 5453SOL     OW17257   5.447   4.049   1.514
 5453SOL    HW117258   5.516   4.085   1.451
 5453SOL    HW217259   5.399   3.972   1.471
 5454SOL     OW17260   5.580   5.392   5.674
 5454SOL    HW117261   5.666   5.342   5.680
 5454SOL    HW217262   5.503   5.328   5.676
 5455SOL     OW17263   0.031   2.209   3.048
 5455SOL    HW117264   0.020   2.255   3.136
 5455SOL    HW217265   0.110   2.149   3.052
 5456SOL     OW17266   2.802   0.118   0.548
 5456SOL    HW117267   2.857   0.109   0.465
 5456SOL    HW217268   2.726   0.052   0.545
 5457SOL     OW17269   0.142   2.209   1.487
 5457SOL    HW117270   0.192   2.172   1.565
 5457SOL    HW217271   0.077   2.279   1.519
 5458SOL     OW17272   0.546   4.593   0.504
 5458SOL    HW117273   0.525   4.634   0.593
 5458SOL    HW217274   0.499   4.644   0.432
 5459SOL     OW17275   3.287   3.593   6.545
 5459SOL    HW117276   3.222   3.651   6.495
 5459SOL    HW217277   3.263   3.497   6.532
 5460SOL     OW17278   3.826   6.329   3.210
 5460SOL    HW117279   3.808   6.425   3.189
 5460SOL    HW217280   3.866   6.284   3.130
 5461SOL     OW17281   0.478   0.846   5.615
 5461SOL    HW117282   0.420   0.854   5.696
 5461SOL    HW217283   0.567   0.888   5.633
 5462SOL     OW17284   6.197   6.957   1.398
 5462SOL    HW117285   6.155   6.875   1.438
 5462SOL    HW217286   6.138   6.993   1.326
 5463SOL     OW17287   0.186   1.585   6.951
 5463SOL    HW117288   0.128   1.581   0.015
 5463SOL    HW217289   0.219   1.679   6.939
 5464SOL     OW17290   6.704   0.263   4.583
 5464SOL    HW117291   6.621   0.234   4.631
 5464SOL    HW217292   6.755   0.327   4.640
 5465SOL     OW17293   4.838   0.656   4.560
 5465SOL    HW117294   4.877   0.716   4.490
 5465SOL    HW217295   4.859   0.560   4.537
 5466SOL     OW17296   5.166   3.050   4.846
 5466SOL    HW117297   5.220   3.014   4.923
 5466SOL    HW217298   5.069   3.034   4.864
 5467SOL     OW17299   5.136   4.344   3.240
 5467SOL    HW117300   5.193   4.404   3.184
 5467SOL    HW217301   5.122   4.257   3.193
 5468SOL     OW17302   6.731   2.789   3.784
 5468SOL    HW117303   6.677   2.711   3.815
 5468SOL    HW217304   6.718   2.803   3.686
 5469SOL     OW17305   2.640   6.620   5.663
 5469SOL    HW117306   2.686   6.531   5.659
 5469SOL    HW217307   2.699   6.686   5.710
 5470SOL     OW17308   3.661   5.554   3.084
 5470SOL    HW117309   3.705   5.555   3.174
 5470SOL    HW217310   3.698   5.477   3.031
 5471SOL     OW17311   6.184   0.197   3.238
 5471SOL    HW117312   6.244   0.146   3.300
 5471SOL    HW217313   6.150   0.136   3.167
 5472SOL     OW17314   2.588   3.896   6.797
 5472SOL    HW117315   2.569   3.848   6.882
 5472SOL    HW217316   2.506   3.896   6.740
 5473SOL     OW17317   1.350   3.351   1.895
 5473SOL    HW117318   1.325   3.383   1.986
 5473SOL    HW217319   1.431   3.401   1.864
 5474SOL     OW17320   0.986   4.239   3.885
 5474SOL    HW117321   1.019   4.299   3.812
 5474SOL    HW217322   0.979   4.291   3.970
 5475SOL     OW17323   1.961   2.546   0.863
 5475SOL    HW117324   1.894   2.493   0.811
 5475SOL    HW217325   1.919   2.576   0.949
 5476SOL     OW17326   2.216   3.998   5.407
 5476SOL    HW117327   2.284   3.971   5.338
 5476SOL    HW217328   2.243   3.962   5.496
 5477SOL     OW17329   2.177   4.662   2.441
 5477SOL    HW117330   2.114   4.730   2.478
 5477SOL    HW217331   2.129   4.576   2.425
 5478SOL     OW17332   3.044   6.182   4.242
 5478SOL    HW117333   3.032   6.124   4.161
 5478SOL    HW217334   3.027   6.278   4.217
 5479SOL     OW17335   5.734   0.802   6.751
 5479SOL    HW117336   5.731   0.817   6.652
 5479SOL    HW217337   5.645   0.767   6.782
 5480SOL     OW17338   5.912   5.532   4.091
 5480SOL    HW117339   5.841   5.603   4.085
 5480SOL    HW217340   5.998   5.574   4.120
 5481SOL     OW17341   4.726   1.544   4.512
 5481SOL    HW117342   4.653   1.475   4.507
 5481SOL    HW217343   4.732   1.591   4.424
 5482SOL     OW17344   3.761   4.416   1.647
 5482SOL    HW117345   3.736   4.499   1.696
 5482SOL    HW217346   3.680   4.378   1.602
 5483SOL     OW17347   0.012   2.181   5.523
 5483SOL    HW117348   6.947   2.204   5.471
 5483SOL    HW217349   0.092   2.207   5.470
 5484SOL     OW17350   4.131   1.231   3.649
 5484SOL    HW117351   4.045   1.196   3.611
 5484SOL    HW217352   4.119   1.325   3.679
 5485SOL     OW17353   3.938   0.047   4.360
 5485SOL    HW117354   3.947   6.966   4.375
 5485SOL    HW217355   4.015   0.094   4.403
 5486SOL     OW17356   2.165   6.463   5.054
 5486SOL    HW117357   2.218   6.474   5.139
 5486SOL    HW217358   2.215   6.506   4.979
 5487SOL     OW17359   5.580   2.866   6.916
 5487SOL    HW117360   5.660   2.817   6.951
 5487SOL    HW217361   5.610   2.937   6.852
 5488SOL     OW17362   5.910   0.111   1.581
 5488SOL    HW117363   5.952   0.200   1.599
 5488SOL    HW217364   5.914   0.092   1.483
 5489SOL     OW17365   0.420   4.409   2.201
 5489SOL    HW117366   0.332   4.417   2.248
 5489SOL    HW217367   0.463   4.322   2.225
 5490SOL     OW17368   3.231   0.173   1.565
 5490SOL    HW117369   3.193   0.113   1.495
 5490SOL    HW217370   3.297   0.122   1.620
 5491SOL     OW17371   1.197   4.311   0.714
 5491SOL    HW117372   1.110   4.341   0.677
 5491SOL    HW217373   1.183   4.269   0.804
 5492SOL     OW17374   0.149   3.396   5.904
 5492SOL    HW117375   0.077   3.368   5.841
 5492SOL    HW217376   0.181   3.487   5.879
 5493SOL     OW17377   2.915   3.610   4.460
 5493SOL    HW117378   2.933   3.512   4.447
 5493SOL    HW217379   2.903   3.654   4.371
 5494SOL     OW17380   0.283   3.153   5.998
 5494SOL    HW117381   0.218   3.137   6.073
 5494SOL    HW217382   0.272   3.247   5.966
 5495SOL     OW17383   4.004   1.346   1.186
 5495SOL    HW117384   4.006   1.377   1.091
 5495SOL    HW217385   3.998   1.247   1.188
 5496SOL     OW17386   3.961   0.961   3.415
 5496SOL    HW117387   4.017   0.917   3.485
 5496SOL    HW217388   3.865   0.941   3.431
 5497SOL     OW17389   0.037   1.370   4.863
 5497SOL    HW117390   0.131   1.395   4.887
 5497SOL    HW217391   7.011   1.447   4.816
 5498SOL     OW17392   6.599   6.014   0.927
 5498SOL    HW117393   6.573   6.053   0.839
 5498SOL    HW217394   6.669   5.944   0.913
 5499SOL     OW17395   0.313   0.681   4.928
 5499SOL    HW117396   0.281   0.675   5.023
 5499SOL    HW217397   0.308   0.591   4.886
 5500SOL     OW17398   1.166   0.468   0.535
 5500SOL    HW117399   1.199   0.551   0.490
 5500SOL    HW217400   1.121   0.410   0.467
 5501SOL     OW17401   3.341   1.648   0.105
 5501SOL    HW117402   3.440   1.656   0.090
 5501SOL    HW217403   3.324   1.598   0.190
 5502SOL     OW17404   5.230   3.897   6.863
 5502SOL    HW117405   5.182   3.970   6.912
 5502SOL    HW217406   5.170   3.818   6.854
 5503SOL     OW17407   0.055   4.650   2.078
 5503SOL    HW117408   0.139   4.702   2.066
 5503SOL    HW217409   0.077   4.553   2.091
 5504SOL     OW17410   4.881   1.377   5.770
 5504SOL    HW117411   4.806   1.312   5.778
 5504SOL    HW217412   4.875   1.444   5.844
 5505SOL     OW17413   2.213   5.309   4.422
 5505SOL    HW117414   2.247   5.255   4.345
 5505SOL    HW217415   2.127   5.270   4.454
 5506SOL     OW17416   0.917   3.780   0.428
 5506SOL    HW117417   0.899   3.682   0.422
 5506SOL    HW217418   0.998   3.803   0.373
 5507SOL     OW17419   3.997   1.336   4.861
 5507SOL    HW117420   3.983   1.266   4.930
 5507SOL    HW217421   3.913   1.389   4.849
 5508SOL     OW17422   1.388   1.348   0.630
 5508SOL    HW117423   1.377   1.249   0.638
 5508SOL    HW217424   1.422   1.384   0.718
 5509SOL     OW17425   0.201   6.037   6.894
 5509SOL    HW117426   0.223   6.132   6.918
 5509SOL    HW217427   0.107   6.017   6.923
 5510SOL     OW17428   4.949   5.493   0.405
 5510SOL    HW117429   5.024   5.505   0.471
 5510SOL    HW217430   4.946   5.572   0.344
 5511SOL     OW17431   1.565   1.182   3.336
 5511SOL    HW117432   1.528   1.133   3.415
 5511SOL    HW217433   1.661   1.207   3.354
 5512SOL     OW17434   5.032   2.435   0.906
 5512SOL    HW117435   4.975   2.367   0.953
 5512SOL    HW217436   5.094   2.477   0.972
 5513SOL     OW17437   3.873   4.231   5.960
 5513SOL    HW117438   3.839   4.225   5.867
 5513SOL    HW217439   3.972   4.248   5.959
 5514SOL     OW17440   3.683   0.142   4.337
 5514SOL    HW117441   3.772   0.099   4.339
 5514SOL    HW217442   3.642   0.140   4.429
 5515SOL     OW17443   0.657   5.899   2.425
 5515SOL    HW117444   0.685   5.879   2.331
 5515SOL    HW217445   0.724   5.860   2.488
 5516SOL     OW17446   1.830   3.867   6.267
 5516SOL    HW117447   1.860   3.959   6.245
 5516SOL    HW217448   1.739   3.870   6.309
 5517SOL     OW17449   2.084   3.252   2.078
 5517SOL    HW117450   2.115   3.169   2.031
 5517SOL    HW217451   2.140   3.330   2.051
 5518SOL     OW17452   5.613   6.385   6.498
 5518SOL    HW117453   5.619   6.381   6.398
 5518SOL    HW217454   5.705   6.389   6.537
 5519SOL     OW17455   5.648   3.639   3.242
 5519SOL    HW117456   5.551   3.636   3.218
 5519SOL    HW217457   5.661   3.706   3.315
 5520SOL     OW17458   6.684   6.831   2.509
 5520SOL    HW117459   6.728   6.904   2.457
 5520SOL    HW217460   6.727   6.823   2.599
 5521SOL     OW17461   5.485   6.555   2.058
 5521SOL    HW117462   5.507   6.584   2.151
 5521SOL    HW217463   5.517   6.624   1.993
 5522SOL     OW17464   5.993   5.334   0.846
 5522SOL    HW117465   6.048   5.395   0.903
 5522SOL    HW217466   6.048   5.302   0.769
 5523SOL     OW17467   3.714   1.065   1.836
 5523SOL    HW117468   3.683   1.111   1.753
 5523SOL    HW217469   3.775   0.989   1.811
 5524SOL     OW17470   4.878   0.453   4.298
 5524SOL    HW117471   4.854   0.362   4.331
 5524SOL    HW217472   4.978   0.464   4.299
 5525SOL     OW17473   0.257   2.394   0.996
 5525SOL    HW117474   0.230   2.339   0.918
 5525SOL    HW217475   0.243   2.342   1.080
 5526SOL     OW17476   4.794   5.875   3.351
 5526SOL    HW117477   4.767   5.813   3.424
 5526SOL    HW217478   4.713   5.906   3.301
 5527SOL     OW17479   5.176   3.536   4.106
 5527SOL    HW117480   5.209   3.445   4.084
 5527SOL    HW217481   5.253   3.593   4.136
 5528SOL     OW17482   1.140   0.791   7.017
 5528SOL    HW117483   1.220   0.730   7.016
 5528SOL    HW217484   1.057   0.736   0.007
 5529SOL     OW17485   3.420   6.907   3.837
 5529SOL    HW117486   3.381   6.822   3.873
 5529SOL    HW217487   3.462   6.959   3.912
 5530SOL     OW17488   5.635   2.317   1.025
 5530SOL    HW117489   5.664   2.324   0.929
 5530SOL    HW217490   5.705   2.267   1.076
 5531SOL     OW17491   3.763   3.637   1.832
 5531SOL    HW117492   3.813   3.711   1.879
 5531SOL    HW217493   3.667   3.662   1.822
 5532SOL     OW17494   1.219   3.682   1.077
 5532SOL    HW117495   1.221   3.617   1.001
 5532SOL    HW217496   1.278   3.647   1.151
 5533SOL     OW17497   3.653   2.092   2.851
 5533SOL    HW117498   3.607   2.032   2.917
 5533SOL    HW217499   3.600   2.094   2.766
 5534SOL     OW17500   0.762   1.511   6.758
 5534SOL    HW117501   0.704   1.562   6.693
 5534SOL    HW217502   0.834   1.463   6.707
 5535SOL     OW17503   0.433   2.738   3.222
 5535SOL    HW117504   0.462   2.655   3.175
 5535SOL    HW217505   0.506   2.770   3.282
 5536SOL     OW17506   3.496   1.123   4.071
 5536SOL    HW117507   3.537   1.205   4.032
 5536SOL    HW217508   3.568   1.059   4.098
 5537SOL     OW17509   2.737   1.180   2.398
 5537SOL    HW117510   2.769   1.217   2.311
 5537SOL    HW217511   2.641   1.204   2.410
 5538SOL     OW17512   2.692   5.991   5.529
 5538SOL    HW117513   2.668   5.914   5.588
 5538SOL    HW217514   2.697   6.074   5.583
 5539SOL     OW17515   1.400   3.560   1.380
 5539SOL    HW117516   1.409   3.660   1.382
 5539SOL    HW217517   1.334   3.531   1.449
 5540SOL     OW17518   4.470   4.485   3.834
 5540SOL    HW117519   4.380   4.520   3.861
 5540SOL    HW217520   4.484   4.499   3.736
 5541SOL     OW17521   5.108   6.835   6.371
 5541SOL    HW117522   5.156   6.796   6.293
 5541SOL    HW217523   5.009   6.835   6.353
 5542SOL     OW17524   4.707   3.506   6.346
 5542SOL    HW117525   4.685   3.410   6.362
 5542SOL    HW217526   4.645   3.564   6.399
 5543SOL     OW17527   3.476   4.551   5.932
 5543SOL    HW117528   3.553   4.606   5.899
 5543SOL    HW217529   3.394   4.574   5.879
 5544SOL     OW17530   4.573   5.574   6.800
 5544SOL    HW117531   4.563   5.509   6.875
 5544SOL    HW217532   4.511   5.652   6.815
 5545SOL     OW17533   4.723   1.320   2.215
 5545SOL    HW117534   4.775   1.247   2.260
 5545SOL    HW217535   4.627   1.293   2.206
 5546SOL     OW17536   0.442   4.700   4.324
 5546SOL    HW117537   0.478   4.731   4.236
 5546SOL    HW217538   0.518   4.669   4.382
 5547SOL     OW17539   2.591   6.686   5.223
 5547SOL    HW117540   2.665   6.735   5.269
 5547SOL    HW217541   2.535   6.638   5.291
 5548SOL     OW17542   6.755   1.886   5.431
 5548SOL    HW117543   6.815   1.933   5.366
 5548SOL    HW217544   6.673   1.854   5.384
 5549SOL     OW17545   5.106   4.561   6.448
 5549SOL    HW117546   5.118   4.599   6.540
 5549SOL    HW217547   5.014   4.583   6.415
 5550SOL     OW17548   2.753   5.672   2.188
 5550SOL    HW117549   2.800   5.760   2.189
 5550SOL    HW217550   2.813   5.602   2.151
 5551SOL     OW17551   2.318   0.548   2.908
 5551SOL    HW117552   2.411   0.522   2.885
 5551SOL    HW217553   2.289   0.500   2.991
 5552SOL     OW17554   6.828   0.499   6.823
 5552SOL    HW117555   6.738   0.541   6.826
 5552SOL    HW217556   6.820   0.405   6.789
 5553SOL     OW17557   3.889   6.469   0.208
 5553SOL    HW117558   3.918   6.454   0.113
 5553SOL    HW217559   3.836   6.553   0.213
 5554SOL     OW17560   3.265   1.705   5.319
 5554SOL    HW117561   3.238   1.634   5.253
 5554SOL    HW217562   3.346   1.752   5.285
 5555SOL     OW17563   0.174   4.748   4.316
 5555SOL    HW117564   0.259   4.696   4.322
 5555SOL    HW217565   0.191   4.843   4.343
 5556SOL     OW17566   0.599   2.765   4.447
 5556SOL    HW117567   0.601   2.838   4.380
 5556SOL    HW217568   0.508   2.758   4.487
 5557SOL     OW17569   3.977   5.587   2.785
 5557SOL    HW117570   3.980   5.559   2.689
 5557SOL    HW217571   3.886   5.566   2.823
 5558SOL     OW17572   5.308   3.676   6.468
 5558SOL    HW117573   5.227   3.664   6.411
 5558SOL    HW217574   5.347   3.587   6.490
 5559SOL     OW17575   2.478   6.885   2.253
 5559SOL    HW117576   2.576   6.888   2.231
 5559SOL    HW217577   2.463   6.924   2.343
 5560SOL     OW17578   0.520   6.759   3.620
 5560SOL    HW117579   0.428   6.767   3.581
 5560SOL    HW217580   0.544   6.844   3.667
 5561SOL     OW17581   2.311   1.877   4.057
 5561SOL    HW117582   2.255   1.806   4.014
 5561SOL    HW217583   2.395   1.836   4.093
 5562SOL     OW17584   2.453   2.685   6.995
 5562SOL    HW117585   2.494   2.604   0.019
 5562SOL    HW217586   2.353   2.680   7.005
 5563SOL     OW17587   4.954   6.412   2.528
 5563SOL    HW117588   4.928   6.485   2.464
 5563SOL    HW217589   5.050   6.388   2.515
 5564SOL     OW17590   4.528   1.676   1.534
 5564SOL    HW117591   4.600   1.695   1.601
 5564SOL    HW217592   4.554   1.716   1.446
 5565SOL     OW17593   4.673   1.133   6.368
 5565SOL    HW117594   4.730   1.211   6.393
 5565SOL    HW217595   4.715   1.048   6.402
 5566SOL     OW17596   1.825   5.408   1.110
 5566SOL    HW117597   1.746   5.436   1.056
 5566SOL    HW217598   1.801   5.329   1.166
 5567SOL     OW17599   1.008   4.596   1.683
 5567SOL    HW117600   1.080   4.592   1.752
 5567SOL    HW217601   0.923   4.625   1.726
 5568SOL     OW17602   5.003   2.453   2.559
 5568SOL    HW117603   4.968   2.425   2.648
 5568SOL    HW217604   4.936   2.431   2.488
 5569SOL     OW17605   3.422   1.985   1.817
 5569SOL    HW117606   3.366   2.044   1.759
 5569SOL    HW217607   3.517   1.990   1.786
 5570SOL     OW17608   5.952   4.539   4.595
 5570SOL    HW117609   5.871   4.482   4.576
 5570SOL    HW217610   6.034   4.487   4.572
 5571SOL     OW17611   0.431   6.915   6.837
 5571SOL    HW117612   0.489   6.954   6.765
 5571SOL    HW217613   0.464   6.824   6.861
 5572SOL     OW17614   2.061   2.952   6.477
 5572SOL    HW117615   2.129   3.008   6.524
 5572SOL    HW217616   2.012   3.008   6.410
 5573SOL     OW17617   1.566   3.057   0.116
 5573SOL    HW117618   1.527   3.045   0.207
 5573SOL    HW217619   1.593   2.967   0.080
 5574SOL     OW17620   0.222   1.159   3.832
 5574SOL    HW117621   0.181   1.160   3.923
 5574SOL    HW217622   0.217   1.067   3.794
 5575SOL     OW17623   1.429   1.052   1.699
 5575SOL    HW117624   1.363   0.981   1.724
 5575SOL    HW217625   1.521   1.014   1.699
 5576SOL     OW17626   6.732   6.018   1.922
 5576SOL    HW117627   6.655   6.064   1.965
 5576SOL    HW217628   6.757   6.065   1.838
 5577SOL     OW17629   2.771   2.860   6.150
 5577SOL    HW117630   2.694   2.801   6.175
 5577SOL    HW217631   2.838   2.806   6.100
 5578SOL     OW17632   4.175   2.844   0.845
 5578SOL    HW117633   4.145   2.801   0.930
 5578SOL    HW217634   4.143   2.939   0.843
 5579SOL     OW17635   6.380   3.674   5.996
 5579SOL    HW117636   6.400   3.759   5.949
 5579SOL    HW217637   6.297   3.685   6.051
 5580SOL     OW17638   4.668   1.667   0.003
 5580SOL    HW117639   4.745   1.731   0.003
 5580SOL    HW217640   4.701   1.576   6.997
 5581SOL     OW17641   2.504   0.202   1.152
 5581SOL    HW117642   2.409   0.173   1.166
 5581SOL    HW217643   2.558   0.125   1.119
 5582SOL     OW17644   3.379   3.296   3.627
 5582SOL    HW117645   3.443   3.224   3.600
 5582SOL    HW217646   3.428   3.365   3.680
 5583SOL     OW17647   3.990   6.381   2.692
 5583SOL    HW117648   3.988   6.324   2.610
 5583SOL    HW217649   4.085   6.396   2.720
 5584SOL     OW17650   5.594   3.937   4.111
 5584SOL    HW117651   5.518   3.911   4.051
 5584SOL    HW217652   5.560   3.999   4.182
 5585SOL     OW17653   4.964   0.770   3.877
 5585SOL    HW117654   4.930   0.863   3.890
 5585SOL    HW217655   4.889   0.711   3.848
 5586SOL     OW17656   1.172   2.583   0.128
 5586SOL    HW117657   1.180   2.539   0.039
 5586SOL    HW217658   1.146   2.514   0.196
 5587SOL     OW17659   4.134   6.634   2.331
 5587SOL    HW117660   4.152   6.706   2.398
 5587SOL    HW217661   4.039   6.639   2.301
 5588SOL     OW17662   1.150   6.724   4.467
 5588SOL    HW117663   1.055   6.728   4.436
 5588SOL    HW217664   1.198   6.806   4.437
 5589SOL     OW17665   4.991   3.323   6.720
 5589SOL    HW117666   4.910   3.374   6.749
 5589SOL    HW217667   4.962   3.241   6.670
 5590SOL     OW17668   6.815   5.384   3.035
 5590SOL    HW117669   6.853   5.472   3.006
 5590SOL    HW217670   6.753   5.399   3.112
 5591SOL     OW17671   5.868   0.411   6.681
 5591SOL    HW117672   5.907   0.395   6.590
 5591SOL    HW217673   5.934   0.385   6.751
 5592SOL     OW17674   2.780   4.667   2.872
 5592SOL    HW117675   2.719   4.636   2.945
 5592SOL    HW217676   2.875   4.655   2.901
 5593SOL     OW17677   6.943   2.842   5.562
 5593SOL    HW117678   0.023   2.859   5.552
 5593SOL    HW217679   6.907   2.892   5.641
 5594SOL     OW17680   2.392   1.572   7.017
 5594SOL    HW117681   2.409   1.483   0.042
 5594SOL    HW217682   2.295   1.581   6.996
 5595SOL     OW17683   6.482   0.600   5.149
 5595SOL    HW117684   6.555   0.598   5.217
 5595SOL    HW217685   6.429   0.684   5.160
 5596SOL     OW17686   5.378   0.008   2.943
 5596SOL    HW117687   5.333   0.062   3.014
 5596SOL    HW217688   5.379   6.929   2.970
 5597SOL     OW17689   5.248   2.805   5.307
 5597SOL    HW117690   5.246   2.825   5.405
 5597SOL    HW217691   5.181   2.735   5.286
 5598SOL     OW17692   4.734   2.313   3.942
 5598SOL    HW117693   4.635   2.317   3.936
 5598SOL    HW217694   4.764   2.217   3.941
 5599SOL     OW17695   5.597   3.727   2.112
 5599SOL    HW117696   5.682   3.741   2.163
 5599SOL    HW217697   5.522   3.773   2.160
 5600SOL     OW17698   2.488   0.277   2.642
 5600SOL    HW117699   2.490   0.245   2.548
 5600SOL    HW217700   2.394   0.300   2.668
 5601SOL     OW17701   4.721   2.356   5.943
 5601SOL    HW117702   4.804   2.407   5.964
 5601SOL    HW217703   4.740   2.292   5.867
 5602SOL     OW17704   6.720   1.362   3.139
 5602SOL    HW117705   6.714   1.450   3.188
 5602SOL    HW217706   6.655   1.297   3.179
 5603SOL     OW17707   4.535   2.568   5.166
 5603SOL    HW117708   4.596   2.638   5.130
 5603SOL    HW217709   4.480   2.607   5.240
 5604SOL     OW17710   0.973   1.760   4.342
 5604SOL    HW117711   0.998   1.669   4.307
 5604SOL    HW217712   0.958   1.754   4.441
 5605SOL     OW17713   1.080   0.321   5.074
 5605SOL    HW117714   1.028   0.371   5.143
 5605SOL    HW217715   1.070   0.367   4.986
 5606SOL     OW17716   4.341   1.526   0.295
 5606SOL    HW117717   4.306   1.607   0.343
 5606SOL    HW217718   4.363   1.455   0.361
 5607SOL     OW17719   6.278   2.248   3.396
 5607SOL    HW117720   6.241   2.283   3.482
 5607SOL    HW217721   6.366   2.202   3.414
 5608SOL     OW17722   6.401   1.173   2.923
 5608SOL    HW117723   6.470   1.102   2.913
 5608SOL    HW217724   6.395   1.226   2.839
 5609SOL     OW17725   4.712   6.491   0.208
 5609SOL    HW117726   4.627   6.515   0.162
 5609SOL    HW217727   4.755   6.573   0.245
 5610SOL     OW17728   5.578   3.953   0.343
 5610SOL    HW117729   5.598   4.016   0.418
 5610SOL    HW217730   5.616   3.863   0.364
 5611SOL     OW17731   0.882   5.101   2.065
 5611SOL    HW117732   0.907   5.019   2.116
 5611SOL    HW217733   0.959   5.164   2.062
 5612SOL     OW17734   2.836   2.713   0.745
 5612SOL    HW117735   2.843   2.619   0.779
 5612SOL    HW217736   2.848   2.776   0.822
 5613SOL     OW17737   6.724   4.372   4.716
 5613SOL    HW117738   6.675   4.390   4.802
 5613SOL    HW217739   6.749   4.275   4.712
 5614SOL     OW17740   6.269   1.940   4.597
 5614SOL    HW117741   6.292   2.022   4.650
 5614SOL    HW217742   6.256   1.965   4.501
 5615SOL     OW17743   0.019   1.516   2.560
 5615SOL    HW117744   0.052   1.562   2.478
 5615SOL    HW217745   6.950   1.558   2.589
 5616SOL     OW17746   2.638   1.839   5.241
 5616SOL    HW117747   2.712   1.773   5.235
 5616SOL    HW217748   2.629   1.888   5.154
 5617SOL     OW17749   1.437   4.323   4.338
 5617SOL    HW117750   1.421   4.333   4.240
 5617SOL    HW217751   1.381   4.248   4.373
 5618SOL     OW17752   6.176   5.305   3.245
 5618SOL    HW117753   6.256   5.314   3.184
 5618SOL    HW217754   6.202   5.250   3.325
 5619SOL     OW17755   3.828   3.044   3.584
 5619SOL    HW117756   3.854   3.019   3.491
 5619SOL    HW217757   3.909   3.075   3.634
 5620SOL     OW17758   4.813   4.332   5.564
 5620SOL    HW117759   4.822   4.249   5.508
 5620SOL    HW217760   4.821   4.308   5.661
 5621SOL     OW17761   1.423   3.326   6.441
 5621SOL    HW117762   1.520   3.323   6.418
 5621SOL    HW217763   1.369   3.309   6.359
 5622SOL     OW17764   4.469   6.424   5.229
 5622SOL    HW117765   4.425   6.513   5.242
 5622SOL    HW217766   4.399   6.354   5.216
 5623SOL     OW17767   4.673   6.713   5.068
 5623SOL    HW117768   4.690   6.808   5.096
 5623SOL    HW217769   4.622   6.713   4.982
 5624SOL     OW17770   1.042   5.418   3.329
 5624SOL    HW117771   1.095   5.487   3.279
 5624SOL    HW217772   1.104   5.362   3.383
 5625SOL     OW17773   0.843   5.129   4.813
 5625SOL    HW117774   0.825   5.037   4.777
 5625SOL    HW217775   0.892   5.121   4.900
 5626SOL     OW17776   2.475   4.395   4.392
 5626SOL    HW117777   2.451   4.302   4.421
 5626SOL    HW217778   2.486   4.453   4.472
 5627SOL     OW17779   0.081   5.661   5.818
 5627SOL    HW117780   0.041   5.573   5.844
 5627SOL    HW217781   0.018   5.735   5.843
 5628SOL     OW17782   2.940   2.872   0.956
 5628SOL    HW117783   2.978   2.956   0.916
 5628SOL    HW217784   3.005   2.797   0.945
 5629SOL     OW17785   4.031   2.793   1.390
 5629SOL    HW117786   3.953   2.744   1.351
 5629SOL    HW217787   3.998   2.870   1.444
 5630SOL     OW17788   1.560   3.798   5.977
 5630SOL    HW117789   1.645   3.787   5.926
 5630SOL    HW217790   1.559   3.736   6.055
 5631SOL     OW17791   5.232   1.066   1.649
 5631SOL    HW117792   5.307   1.132   1.651
 5631SOL    HW217793   5.252   0.995   1.582
 5632SOL     OW17794   5.186   1.712   6.079
 5632SOL    HW117795   5.279   1.713   6.043
 5632SOL    HW217796   5.173   1.630   6.135
 5633SOL     OW17797   0.334   5.303   4.781
 5633SOL    HW117798   0.276   5.268   4.855
 5633SOL    HW217799   0.409   5.240   4.765
 5634SOL     OW17800   1.814   4.862   4.208
 5634SOL    HW117801   1.826   4.939   4.145
 5634SOL    HW217802   1.851   4.886   4.298
 5635SOL     OW17803   2.954   6.899   6.768
 5635SOL    HW117804   3.051   6.892   6.747
 5635SOL    HW217805   2.905   6.824   6.724
 5636SOL     OW17806   5.971   0.934   5.713
 5636SOL    HW117807   6.007   0.856   5.662
 5636SOL    HW217808   6.045   0.997   5.735
 5637SOL     OW17809   5.160   6.905   3.860
 5637SOL    HW117810   5.186   6.820   3.815
 5637SOL    HW217811   5.137   6.974   3.791
 5638SOL     OW17812   5.433   5.706   1.342
 5638SOL    HW117813   5.401   5.800   1.348
 5638SOL    HW217814   5.354   5.645   1.330
 5639SOL     OW17815   1.241   0.828   1.769
 5639SOL    HW117816   1.192   0.742   1.757
 5639SOL    HW217817   1.187   0.889   1.827
 5640SOL     OW17818   2.797   6.852   2.163
 5640SOL    HW117819   2.874   6.820   2.219
 5640SOL    HW217820   2.812   6.948   2.138
 5641SOL     OW17821   0.412   4.683   5.974
 5641SOL    HW117822   0.400   4.635   5.888
 5641SOL    HW217823   0.357   4.639   6.045
 5642SOL     OW17824   1.457   5.230   5.806
 5642SOL    HW117825   1.414   5.187   5.727
 5642SOL    HW217826   1.552   5.253   5.784
 5643SOL     OW17827   3.533   0.872   4.995
 5643SOL    HW117828   3.563   0.820   4.915
 5643SOL    HW217829   3.434   0.858   5.008
 5644SOL     OW17830   4.749   0.661   3.748
 5644SOL    HW117831   4.787   0.572   3.721
 5644SOL    HW217832   4.679   0.647   3.818
 5645SOL     OW17833   6.787   4.248   2.814
 5645SOL    HW117834   6.817   4.214   2.903
 5645SOL    HW217835   6.817   4.342   2.802
 5646SOL     OW17836   2.061   5.392   3.578
 5646SOL    HW117837   1.984   5.422   3.523
 5646SOL    HW217838   2.062   5.442   3.665
 5647SOL     OW17839   6.364   6.683   6.891
 5647SOL    HW117840   6.461   6.672   6.871
 5647SOL    HW217841   6.322   6.743   6.823
 5648SOL     OW17842   1.699   0.955   3.225
 5648SOL    HW117843   1.629   1.022   3.251
 5648SOL    HW217844   1.658   0.886   3.166
 5649SOL     OW17845   1.312   6.142   6.102
 5649SOL    HW117846   1.215   6.134   6.125
 5649SOL    HW217847   1.325   6.118   6.006
 5650SOL     OW17848   0.556   5.364   1.276
 5650SOL    HW117849   0.603   5.370   1.363
 5650SOL    HW217850   0.458   5.381   1.289
 5651SOL     OW17851   0.055   1.238   1.788
 5651SOL    HW117852   0.080   1.328   1.753
 5651SOL    HW217853   0.018   1.182   1.714
 5652SOL     OW17854   5.483   6.301   1.922
 5652SOL    HW117855   5.468   6.392   1.961
 5652SOL    HW217856   5.485   6.308   1.822
 5653SOL     OW17857   0.281   6.393   6.601
 5653SOL    HW117858   0.286   6.461   6.674
 5653SOL    HW217859   0.358   6.331   6.608
 5654SOL     OW17860   0.133   5.985   5.629
 5654SOL    HW117861   0.147   6.007   5.725
 5654SOL    HW217862   0.044   5.942   5.616
 5655SOL     OW17863   1.580   3.225   4.337
 5655SOL    HW117864   1.524   3.279   4.400
 5655SOL    HW217865   1.534   3.139   4.317
 5656SOL     OW17866   2.215   4.435   0.421
 5656SOL    HW117867   2.126   4.460   0.458
 5656SOL    HW217868   2.284   4.502   0.452
 5657SOL     OW17869   5.444   0.133   0.925
 5657SOL    HW117870   5.502   0.052   0.921
 5657SOL    HW217871   5.375   0.122   0.997
 5658SOL     OW17872   3.354   6.038   5.896
 5658SOL    HW117873   3.362   6.052   5.797
 5658SOL    HW217874   3.413   5.962   5.923
 5659SOL     OW17875   3.084   3.951   3.164
 5659SOL    HW117876   3.128   3.895   3.093
 5659SOL    HW217877   3.016   3.896   3.212
 5660SOL     OW17878   5.508   0.562   5.903
 5660SOL    HW117879   5.441   0.489   5.889
 5660SOL    HW217880   5.568   0.568   5.823
 5661SOL     OW17881   6.799   4.806   6.022
 5661SOL    HW117882   6.894   4.799   5.991
 5661SOL    HW217883   6.759   4.890   5.985
 5662SOL     OW17884   2.647   5.048   3.955
 5662SOL    HW117885   2.717   4.981   3.978
 5662SOL    HW217886   2.631   5.046   3.856
 5663SOL     OW17887   2.075   3.988   0.023
 5663SOL    HW117888   2.008   4.013   0.093
 5663SOL    HW217889   2.153   4.050   0.027
 5664SOL     OW17890   6.768   3.768   4.237
 5664SOL    HW117891   6.778   3.841   4.169
 5664SOL    HW217892   6.672   3.745   4.248
 5665SOL     OW17893   2.053   1.834   0.139
 5665SOL    HW117894   2.150   1.813   0.133
 5665SOL    HW217895   2.040   1.933   0.134
 5666SOL     OW17896   5.657   6.001   0.545
 5666SOL    HW117897   5.577   6.002   0.605
 5666SOL    HW217898   5.717   6.078   0.569
 5667SOL     OW17899   0.745   4.390   3.593
 5667SOL    HW117900   0.656   4.370   3.552
 5667SOL    HW217901   0.735   4.406   3.691
 5668SOL     OW17902   5.428   1.960   5.938
 5668SOL    HW117903   5.493   2.036   5.938
 5668SOL    HW217904   5.453   1.895   6.009
 5669SOL     OW17905   0.780   3.423   6.358
 5669SOL    HW117906   0.768   3.414   6.259
 5669SOL    HW217907   0.878   3.424   6.380
 5670SOL     OW17908   0.287   3.153   3.908
 5670SOL    HW117909   0.307   3.081   3.841
 5670SOL    HW217910   0.369   3.206   3.926
 5671SOL     OW17911   0.956   6.305   6.489
 5671SOL    HW117912   0.983   6.375   6.423
 5671SOL    HW217913   1.038   6.262   6.527
 5672SOL     OW17914   4.425   4.785   6.765
 5672SOL    HW117915   4.356   4.768   6.835
 5672SOL    HW217916   4.510   4.816   6.808
 5673SOL     OW17917   0.890   6.231   2.128
 5673SOL    HW117918   0.929   6.143   2.100
 5673SOL    HW217919   0.946   6.305   2.092
 5674SOL     OW17920   6.935   3.971   3.673
 5674SOL    HW117921   7.009   4.019   3.626
 5674SOL    HW217922   6.946   3.980   3.771
 5675SOL     OW17923   4.469   1.630   6.310
 5675SOL    HW117924   4.437   1.680   6.390
 5675SOL    HW217925   4.419   1.659   6.229
 5676SOL     OW17926   1.923   1.826   1.958
 5676SOL    HW117927   1.885   1.915   1.983
 5676SOL    HW217928   2.023   1.828   1.970
 5677SOL     OW17929   0.797   2.403   2.887
 5677SOL    HW117930   0.828   2.338   2.817
 5677SOL    HW217931   0.742   2.474   2.845
 5678SOL     OW17932   2.683   6.636   3.015
 5678SOL    HW117933   2.742   6.672   2.943
 5678SOL    HW217934   2.705   6.680   3.102
 5679SOL     OW17935   1.196   0.601   3.175
 5679SOL    HW117936   1.137   0.560   3.106
 5679SOL    HW217937   1.196   0.544   3.257
 5680SOL     OW17938   1.361   5.343   0.451
 5680SOL    HW117939   1.404   5.359   0.362
 5680SOL    HW217940   1.386   5.253   0.484
 5681SOL     OW17941   0.396   3.603   6.441
 5681SOL    HW117942   0.353   3.649   6.520
 5681SOL    HW217943   0.494   3.620   6.442
 5682SOL     OW17944   1.973   4.715   5.507
 5682SOL    HW117945   2.014   4.782   5.445
 5682SOL    HW217946   1.880   4.744   5.530
 5683SOL     OW17947   4.263   1.616   6.736
 5683SOL    HW117948   4.311   1.666   6.809
 5683SOL    HW217949   4.228   1.530   6.773
 5684SOL     OW17950   3.808   2.909   4.521
 5684SOL    HW117951   3.868   2.878   4.595
 5684SOL    HW217952   3.713   2.897   4.549
 5685SOL     OW17953   1.352   3.682   1.799
 5685SOL    HW117954   1.429   3.625   1.826
 5685SOL    HW217955   1.385   3.772   1.769
 5686SOL     OW17956   2.966   0.024   6.370
 5686SOL    HW117957   2.929   6.977   6.303
 5686SOL    HW217958   3.036   6.995   6.425
 5687SOL     OW17959   6.775   3.781   4.862
 5687SOL    HW117960   6.726   3.723   4.927
 5687SOL    HW217961   6.799   3.867   4.906
 5688SOL     OW17962   6.493   1.772   0.166
 5688SOL    HW117963   6.431   1.703   0.203
 5688SOL    HW217964   6.459   1.803   0.077
 5689SOL     OW17965   4.050   0.739   6.725
 5689SOL    HW117966   4.024   0.657   6.777
 5689SOL    HW217967   4.088   0.807   6.788
 5690SOL     OW17968   2.574   6.565   0.588
 5690SOL    HW117969   2.514   6.623   0.643
 5690SOL    HW217970   2.612   6.492   0.645
 5691SOL     OW17971   2.563   6.272   1.625
 5691SOL    HW117972   2.619   6.251   1.705
 5691SOL    HW217973   2.500   6.197   1.607
 5692SOL     OW17974   6.838   3.241   6.082
 5692SOL    HW117975   6.766   3.304   6.110
 5692SOL    HW217976   6.825   3.216   5.986
 5693SOL     OW17977   5.985   2.866   2.598
 5693SOL    HW117978   5.958   2.929   2.525
 5693SOL    HW217979   6.000   2.775   2.561
 5694SOL     OW17980   1.030   1.702   3.652
 5694SOL    HW117981   1.092   1.630   3.621
 5694SOL    HW217982   1.078   1.764   3.713
 5695SOL     OW17983   1.053   2.687   2.662
 5695SOL    HW117984   1.092   2.770   2.702
 5695SOL    HW217985   1.120   2.613   2.666
 5696SOL     OW17986   1.173   6.818   3.320
 5696SOL    HW117987   1.114   6.898   3.328
 5696SOL    HW217988   1.269   6.848   3.321
 5697SOL     OW17989   5.911   2.283   1.136
 5697SOL    HW117990   5.911   2.184   1.126
 5697SOL    HW217991   5.949   2.324   1.053
 5698SOL     OW17992   0.330   2.996   2.172
 5698SOL    HW117993   0.365   3.088   2.190
 5698SOL    HW217994   0.239   2.987   2.213
 5699SOL     OW17995   6.343   2.496   3.225
 5699SOL    HW117996   6.265   2.558   3.231
 5699SOL    HW217997   6.312   2.402   3.234
 5700SOL     OW17998   6.696   6.498   4.598
 5700SOL    HW117999   6.620   6.548   4.557
 5700SOL    HW218000   6.693   6.403   4.568
 5701SOL     OW18001   1.244   6.076   3.195
 5701SOL    HW118002   1.284   5.984   3.203
 5701SOL    HW218003   1.160   6.081   3.249
 5702SOL     OW18004   1.422   0.434   5.096
 5702SOL    HW118005   1.372   0.357   5.135
 5702SOL    HW218006   1.487   0.469   5.164
 5703SOL     OW18007   5.205   4.279   1.222
 5703SOL    HW118008   5.154   4.259   1.305
 5703SOL    HW218009   5.302   4.289   1.244
 5704SOL     OW18010   4.377   5.408   2.119
 5704SOL    HW118011   4.371   5.314   2.087
 5704SOL    HW218012   4.406   5.409   2.215
 5705SOL     OW18013   5.016   0.963   0.313
 5705SOL    HW118014   5.058   1.054   0.311
 5705SOL    HW218015   5.083   0.894   0.286
 5706SOL     OW18016   0.712   2.101   0.559
 5706SOL    HW118017   0.773   2.150   0.621
 5706SOL    HW218018   0.761   2.026   0.514
 5707SOL     OW18019   0.669   6.972   0.212
 5707SOL    HW118020   0.756   7.007   0.177
 5707SOL    HW218021   0.659   6.876   0.185
 5708SOL     OW18022   5.115   6.298   0.818
 5708SOL    HW118023   5.161   6.386   0.824
 5708SOL    HW218024   5.017   6.312   0.804
 5709SOL     OW18025   0.977   6.951   3.927
 5709SOL    HW118026   1.006   6.855   3.929
 5709SOL    HW218027   0.915   6.969   4.003
 5710SOL     OW18028   2.769   3.044   5.945
 5710SOL    HW118029   2.766   3.001   6.035
 5710SOL    HW218030   2.850   3.104   5.940
 5711SOL     OW18031   4.611   0.368   3.048
 5711SOL    HW118032   4.616   0.440   3.118
 5711SOL    HW218033   4.604   0.410   2.957
 5712SOL     OW18034   0.789   5.725   6.142
 5712SOL    HW118035   0.877   5.768   6.128
 5712SOL    HW218036   0.763   5.674   6.060
 5713SOL     OW18037   1.329   2.258   1.442
 5713SOL    HW118038   1.297   2.331   1.503
 5713SOL    HW218039   1.389   2.297   1.372
 5714SOL     OW18040   0.827   6.125   6.683
 5714SOL    HW118041   0.730   6.137   6.664
 5714SOL    HW218042   0.873   6.093   6.600
 5715SOL     OW18043   1.275   6.302   3.327
 5715SOL    HW118044   1.284   6.219   3.273
 5715SOL    HW218045   1.179   6.324   3.340
 5716SOL     OW18046   1.595   4.303   6.575
 5716SOL    HW118047   1.630   4.216   6.609
 5716SOL    HW218048   1.567   4.293   6.480
 5717SOL     OW18049   2.196   6.312   0.561
 5717SOL    HW118050   2.280   6.284   0.610
 5717SOL    HW218051   2.193   6.412   0.556
 5718SOL     OW18052   0.965   3.745   6.318
 5718SOL    HW118053   0.931   3.832   6.353
 5718SOL    HW218054   0.989   3.755   6.221
 5719SOL     OW18055   2.260   1.430   6.080
 5719SOL    HW118056   2.219   1.441   5.989
 5719SOL    HW218057   2.360   1.436   6.072
 5720SOL     OW18058   1.104   4.962   4.605
 5720SOL    HW118059   1.187   4.953   4.549
 5720SOL    HW218060   1.105   4.893   4.677
 5721SOL     OW18061   0.022   3.691   0.998
 5721SOL    HW118062   6.968   3.626   1.024
 5721SOL    HW218063   0.074   3.654   0.922
 5722SOL     OW18064   5.721   1.847   4.821
 5722SOL    HW118065   5.693   1.759   4.783
 5722SOL    HW218066   5.781   1.893   4.756
 5723SOL     OW18067   4.181   3.547   0.126
 5723SOL    HW118068   4.103   3.593   0.082
 5723SOL    HW218069   4.242   3.616   0.165
 5724SOL     OW18070   3.945   2.535   5.336
 5724SOL    HW118071   3.870   2.472   5.317
 5724SOL    HW218072   4.020   2.518   5.272
 5725SOL     OW18073   6.110   5.651   3.616
 5725SOL    HW118074   6.080   5.560   3.644
 5725SOL    HW218075   6.140   5.648   3.520
 5726SOL     OW18076   6.553   3.368   4.239
 5726SOL    HW118077   6.517   3.406   4.154
 5726SOL    HW218078   6.482   3.314   4.285
 5727SOL     OW18079   1.103   2.461   4.113
 5727SOL    HW118080   1.121   2.543   4.168
 5727SOL    HW218081   1.109   2.484   4.016
 5728SOL     OW18082   4.842   1.268   6.539
 5728SOL    HW118083   4.794   1.354   6.559
 5728SOL    HW218084   4.890   1.237   6.622
 5729SOL     OW18085   0.859   1.565   0.620
 5729SOL    HW118086   0.833   1.468   0.626
 5729SOL    HW218087   0.937   1.574   0.558
 5730SOL     OW18088   4.204   4.984   5.603
 5730SOL    HW118089   4.134   4.922   5.566
 5730SOL    HW218090   4.264   4.932   5.664
 5731SOL     OW18091   1.937   6.631   3.919
 5731SOL    HW118092   2.029   6.602   3.892
 5731SOL    HW218093   1.894   6.679   3.843
 5732SOL     OW18094   6.664   4.750   5.530
 5732SOL    HW118095   6.651   4.737   5.432
 5732SOL    HW218096   6.621   4.836   5.559
 5733SOL     OW18097   3.000   0.493   5.545
 5733SOL    HW118098   3.097   0.517   5.554
 5733SOL    HW218099   2.983   0.407   5.593
 5734SOL     OW18100   1.720   6.415   6.440
 5734SOL    HW118101   1.672   6.471   6.372
 5734SOL    HW218102   1.813   6.448   6.451
 5735SOL     OW18103   3.949   1.702   2.958
 5735SOL    HW118104   4.049   1.693   2.955
 5735SOL    HW218105   3.916   1.732   2.869
 5736SOL     OW18106   5.704   4.120   0.537
 5736SOL    HW118107   5.726   4.130   0.634
 5736SOL    HW218108   5.655   4.202   0.506
 5737SOL     OW18109   5.456   6.274   6.696
 5737SOL    HW118110   5.496   6.201   6.753
 5737SOL    HW218111   5.528   6.319   6.644
 5738SOL     OW18112   3.311   2.566   6.448
 5738SOL    HW118113   3.339   2.495   6.384
 5738SOL    HW218114   3.300   2.527   6.540
 5739SOL     OW18115   1.152   6.131   5.660
 5739SOL    HW118116   1.073   6.069   5.664
 5739SOL    HW218117   1.123   6.223   5.686
 5740SOL     OW18118   4.409   4.297   1.065
 5740SOL    HW118119   4.417   4.272   1.161
 5740SOL    HW218120   4.417   4.216   1.008
 5741SOL     OW18121   6.782   4.057   4.351
 5741SOL    HW118122   6.691   4.062   4.310
 5741SOL    HW218123   6.808   3.961   4.360
 5742SOL     OW18124   4.424   6.284   2.292
 5742SOL    HW118125   4.363   6.311   2.366
 5742SOL    HW218126   4.381   6.211   2.238
 5743SOL     OW18127   2.057   5.901   5.662
 5743SOL    HW118128   2.078   5.804   5.669
 5743SOL    HW218129   2.097   5.938   5.578
 5744SOL     OW18130   5.024   1.170   1.436
 5744SOL    HW118131   5.071   1.218   1.511
 5744SOL    HW218132   5.063   1.198   1.349
 5745SOL     OW18133   1.891   0.826   3.392
 5745SOL    HW118134   1.837   0.902   3.355
 5745SOL    HW218135   1.985   0.857   3.407
 5746SOL     OW18136   4.812   0.199   2.040
 5746SOL    HW118137   4.808   0.110   1.994
 5746SOL    HW218138   4.871   0.261   1.987
 5747SOL     OW18139   1.505   5.185   1.568
 5747SOL    HW118140   1.510   5.285   1.561
 5747SOL    HW218141   1.480   5.147   1.479
 5748SOL     OW18142   1.074   0.246   1.572
 5748SOL    HW118143   1.072   0.305   1.491
 5748SOL    HW218144   0.997   0.182   1.568
 5749SOL     OW18145   1.819   6.606   5.158
 5749SOL    HW118146   1.919   6.610   5.155
 5749SOL    HW218147   1.789   6.584   5.251
 5750SOL     OW18148   6.145   6.176   4.484
 5750SOL    HW118149   6.102   6.194   4.395
 5750SOL    HW218150   6.083   6.206   4.557
 5751SOL     OW18151   2.439   2.602   5.060
 5751SOL    HW118152   2.507   2.638   5.123
 5751SOL    HW218153   2.368   2.671   5.044
 5752SOL     OW18154   5.180   0.483   0.290
 5752SOL    HW118155   5.251   0.461   0.356
 5752SOL    HW218156   5.164   0.404   0.230
 5753SOL     OW18157   3.584   4.114   4.132
 5753SOL    HW118158   3.516   4.105   4.205
 5753SOL    HW218159   3.675   4.122   4.172
 5754SOL     OW18160   0.295   5.471   1.863
 5754SOL    HW118161   0.317   5.461   1.960
 5754SOL    HW218162   0.376   5.450   1.809
 5755SOL     OW18163   1.750   2.075   6.467
 5755SOL    HW118164   1.720   1.998   6.412
 5755SOL    HW218165   1.691   2.084   6.547
 5756SOL     OW18166   0.107   0.052   2.867
 5756SOL    HW118167   0.149   0.094   2.947
 5756SOL    HW218168   0.075   6.978   2.891
 5757SOL     OW18169   6.738   5.319   3.522
 5757SOL    HW118170   6.770   5.331   3.616
 5757SOL    HW218171   6.638   5.316   3.521
 5758SOL     OW18172   2.035   1.179   3.215
 5758SOL    HW118173   2.009   1.084   3.194
 5758SOL    HW218174   2.049   1.229   3.129
 5759SOL     OW18175   4.990   0.427   6.689
 5759SOL    HW118176   5.037   0.514   6.669
 5759SOL    HW218177   4.986   0.413   6.788
 5760SOL     OW18178   6.653   2.105   0.927
 5760SOL    HW118179   6.710   2.145   0.856
 5760SOL    HW218180   6.576   2.166   0.946
 5761SOL     OW18181   6.036   4.569   6.074
 5761SOL    HW118182   5.977   4.493   6.100
 5761SOL    HW218183   6.043   4.574   5.975
 5762SOL     OW18184   5.018   4.269   1.425
 5762SOL    HW118185   4.983   4.334   1.492
 5762SOL    HW218186   4.954   4.193   1.415
 5763SOL     OW18187   6.710   5.621   0.758
 5763SOL    HW118188   6.804   5.632   0.789
 5763SOL    HW218189   6.687   5.523   0.754
 5764SOL     OW18190   5.013   4.925   4.912
 5764SOL    HW118191   4.998   4.874   4.996
 5764SOL    HW218192   4.994   5.022   4.928
 5765SOL     OW18193   6.475   3.126   0.454
 5765SOL    HW118194   6.421   3.210   0.444
 5765SOL    HW218195   6.415   3.052   0.483
 5766SOL     OW18196   1.573   1.916   5.886
 5766SOL    HW118197   1.574   1.980   5.809
 5766SOL    HW218198   1.641   1.844   5.872
 5767SOL     OW18199   2.031   0.262   0.947
 5767SOL    HW118200   1.935   0.275   0.921
 5767SOL    HW218201   2.076   0.351   0.954
 5768SOL     OW18202   1.030   6.661   4.068
 5768SOL    HW118203   1.114   6.616   4.099
 5768SOL    HW218204   0.965   6.592   4.036
 5769SOL     OW18205   2.035   5.779   4.365
 5769SOL    HW118206   1.987   5.735   4.288
 5769SOL    HW218207   2.107   5.718   4.398
 5770SOL     OW18208   6.383   5.906   6.293
 5770SOL    HW118209   6.481   5.889   6.295
 5770SOL    HW218210   6.346   5.899   6.386
 5771SOL     OW18211   0.904   6.913   4.673
 5771SOL    HW118212   0.840   6.962   4.613
 5771SOL    HW218213   0.908   6.817   4.645
 5772SOL     OW18214   5.680   1.050   1.894
 5772SOL    HW118215   5.640   0.960   1.914
 5772SOL    HW218216   5.772   1.039   1.858
 5773SOL     OW18217   4.221   0.516   3.027
 5773SOL    HW118218   4.272   0.506   2.941
 5773SOL    HW218219   4.130   0.478   3.016
 5774SOL     OW18220   2.968   6.400   4.081
 5774SOL    HW118221   2.995   6.495   4.095
 5774SOL    HW218222   3.001   6.370   3.991
 5775SOL     OW18223   1.434   0.262   2.706
 5775SOL    HW118224   1.395   0.283   2.795
 5775SOL    HW218225   1.481   0.174   2.710
 5776SOL     OW18226   0.451   0.873   4.011
 5776SOL    HW118227   0.365   0.851   3.965
 5776SOL    HW218228   0.519   0.804   3.990
 5777SOL     OW18229   6.978   0.168   4.965
 5777SOL    HW118230   0.058   0.158   4.949
 5777SOL    HW218231   6.952   0.117   5.047
 5778SOL     OW18232   1.629   0.280   0.090
 5778SOL    HW118233   1.650   0.375   0.115
 5778SOL    HW218234   1.658   0.219   0.163
 5779SOL     OW18235   4.246   2.575   1.210
 5779SOL    HW118236   4.266   2.478   1.220
 5779SOL    HW218237   4.280   2.625   1.289
 5780SOL     OW18238   6.367   5.950   4.244
 5780SOL    HW118239   6.364   6.049   4.256
 5780SOL    HW218240   6.392   5.907   4.331
 5781SOL     OW18241   6.556   5.158   4.511
 5781SOL    HW118242   6.511   5.071   4.534
 5781SOL    HW218243   6.652   5.141   4.490
 5782SOL     OW18244   1.221   1.589   0.935
 5782SOL    HW118245   1.194   1.645   1.014
 5782SOL    HW218246   1.155   1.515   0.923
 5783SOL     OW18247   1.109   0.545   1.745
 5783SOL    HW118248   1.119   0.552   1.645
 5783SOL    HW218249   1.200   0.534   1.786
 5784SOL     OW18250   6.964   5.835   6.006
 5784SOL    HW118251   6.982   5.856   6.102
 5784SOL    HW218252   6.874   5.792   5.998
 5785SOL     OW18253   1.871   1.729   0.339
 5785SOL    HW118254   1.934   1.770   0.273
 5785SOL    HW218255   1.917   1.719   0.427
 5786SOL     OW18256   0.843   4.161   0.714
 5786SOL    HW118257   0.867   4.249   0.756
 5786SOL    HW218258   0.834   4.174   0.615
 5787SOL     OW18259   3.504   2.096   4.937
 5787SOL    HW118260   3.443   2.028   4.898
 5787SOL    HW218261   3.453   2.179   4.960
 5788SOL     OW18262   3.017   1.094   1.334
 5788SOL    HW118263   2.926   1.100   1.376
 5788SOL    HW218264   3.045   0.998   1.328
 5789SOL     OW18265   3.407   4.570   6.829
 5789SOL    HW118266   3.403   4.669   6.818
 5789SOL    HW218267   3.323   4.537   6.872
 5790SOL     OW18268   1.092   4.650   4.734
 5790SOL    HW118269   1.065   4.565   4.778
 5790SOL    HW218270   1.107   4.635   4.636
 5791SOL     OW18271   3.563   1.554   2.571
 5791SOL    HW118272   3.620   1.479   2.605
 5791SOL    HW218273   3.469   1.523   2.561
 5792SOL     OW18274   6.124   3.347   2.379
 5792SOL    HW118275   6.054   3.299   2.325
 5792SOL    HW218276   6.165   3.420   2.323
 5793SOL     OW18277   5.020   1.045   4.129
 5793SOL    HW118278   5.046   1.103   4.051
 5793SOL    HW218279   5.077   1.068   4.208
 5794SOL     OW18280   2.648   0.637   0.447
 5794SOL    HW118281   2.559   0.675   0.469
 5794SOL    HW218282   2.714   0.665   0.517
 5795SOL     OW18283   6.585   0.313   6.490
 5795SOL    HW118284   6.625   0.376   6.423
 5795SOL    HW218285   6.626   0.329   6.579
 5796SOL     OW18286   4.764   1.294   6.051
 5796SOL    HW118287   4.703   1.370   6.072
 5796SOL    HW218288   4.838   1.290   6.119
 5797SOL     OW18289   4.627   2.111   6.287
 5797SOL    HW118290   4.564   2.184   6.315
 5797SOL    HW218291   4.721   2.140   6.304
 5798SOL     OW18292   0.879   4.580   4.966
 5798SOL    HW118293   0.850   4.518   4.894
 5798SOL    HW218294   0.871   4.674   4.934
 5799SOL     OW18295   0.421   0.437   3.215
 5799SOL    HW118296   0.436   0.385   3.299
 5799SOL    HW218297   0.509   0.449   3.168
 5800SOL     OW18298   6.021   6.183   1.911
 5800SOL    HW118299   6.031   6.093   1.954
 5800SOL    HW218300   6.108   6.231   1.911
 5801SOL     OW18301   2.128   2.624   3.307
 5801SOL    HW118302   2.096   2.661   3.219
 5801SOL    HW218303   2.214   2.575   3.293
 5802SOL     OW18304   0.877   4.008   2.411
 5802SOL    HW118305   0.921   3.959   2.486
 5802SOL    HW218306   0.862   3.946   2.334
 5803SOL     OW18307   2.324   5.498   2.084
 5803SOL    HW118308   2.318   5.476   1.987
 5803SOL    HW218309   2.413   5.471   2.120
 5804SOL     OW18310   0.305   5.955   3.718
 5804SOL    HW118311   0.209   5.978   3.736
 5804SOL    HW218312   0.364   6.027   3.754
 5805SOL     OW18313   2.253   3.326   0.026
 5805SOL    HW118314   2.234   3.244   0.080
 5805SOL    HW218315   2.351   3.345   0.026
 5806SOL     OW18316   6.576   5.098   4.954
 5806SOL    HW118317   6.535   5.010   4.978
 5806SOL    HW218318   6.648   5.084   4.886
 5807SOL     OW18319   0.302   3.952   1.720
 5807SOL    HW118320   0.341   3.866   1.755
 5807SOL    HW218321   0.344   3.973   1.632
 5808SOL     OW18322   6.035   5.905   4.764
 5808SOL    HW118323   6.095   5.954   4.828
 5808SOL    HW218324   6.083   5.825   4.728
 5809SOL     OW18325   5.376   1.915   4.505
 5809SOL    HW118326   5.382   1.867   4.592
 5809SOL    HW218327   5.337   1.854   4.436
 5810SOL     OW18328   4.276   1.407   4.902
 5810SOL    HW118329   4.321   1.355   4.975
 5810SOL    HW218330   4.180   1.380   4.896
 5811SOL     OW18331   3.348   1.222   4.886
 5811SOL    HW118332   3.290   1.278   4.827
 5811SOL    HW218333   3.409   1.167   4.829
 5812SOL     OW18334   6.221   2.245   4.578
 5812SOL    HW118335   6.244   2.248   4.675
 5812SOL    HW218336   6.203   2.338   4.545
 5813SOL     OW18337   1.837   2.029   1.162
 5813SOL    HW118338   1.761   2.018   1.098
 5813SOL    HW218339   1.803   2.032   1.255
 5814SOL     OW18340   6.219   4.402   1.718
 5814SOL    HW118341   6.128   4.373   1.689
 5814SOL    HW218342   6.281   4.323   1.716
 5815SOL     OW18343   3.827   2.016   4.411
 5815SOL    HW118344   3.729   2.032   4.403
 5815SOL    HW218345   3.868   2.015   4.320
 5816SOL     OW18346   4.575   5.238   0.262
 5816SOL    HW118347   4.649   5.192   0.311
 5816SOL    HW218348   4.564   5.331   0.297
 5817SOL     OW18349   5.300   3.766   5.850
 5817SOL    HW118350   5.374   3.757   5.916
 5817SOL    HW218351   5.246   3.848   5.871
 5818SOL     OW18352   6.418   6.064   4.918
 5818SOL    HW118353   6.474   5.982   4.923
 5818SOL    HW218354   6.352   6.064   4.993
 5819SOL     OW18355   3.505   6.470   6.769
 5819SOL    HW118356   3.539   6.518   6.850
 5819SOL    HW218357   3.559   6.387   6.754
 5820SOL     OW18358   4.465   5.204   3.847
 5820SOL    HW118359   4.430   5.201   3.754
 5820SOL    HW218360   4.428   5.127   3.899
 5821SOL     OW18361   0.251   6.557   1.575
 5821SOL    HW118362   0.168   6.557   1.631
 5821SOL    HW218363   0.309   6.479   1.602
 5822SOL     OW18364   1.860   2.402   1.503
 5822SOL    HW118365   1.776   2.350   1.492
 5822SOL    HW218366   1.904   2.377   1.589
 5823SOL     OW18367   1.894   0.710   5.651
 5823SOL    HW118368   1.873   0.802   5.619
 5823SOL    HW218369   1.847   0.643   5.594
 5824SOL     OW18370   6.569   5.348   2.341
 5824SOL    HW118371   6.666   5.361   2.318
 5824SOL    HW218372   6.546   5.405   2.420
 5825SOL     OW18373   0.981   1.703   5.583
 5825SOL    HW118374   0.987   1.711   5.683
 5825SOL    HW218375   0.886   1.683   5.557
 5826SOL     OW18376   6.871   5.041   5.786
 5826SOL    HW118377   6.810   5.054   5.863
 5826SOL    HW218378   6.821   5.055   5.701
 5827SOL     OW18379   2.328   4.231   5.242
 5827SOL    HW118380   2.347   4.294   5.167
 5827SOL    HW218381   2.343   4.137   5.211
 5828SOL     OW18382   6.501   1.902   1.450
 5828SOL    HW118383   6.493   1.996   1.416
 5828SOL    HW218384   6.535   1.904   1.544
 5829SOL     OW18385   1.399   0.776   3.237
 5829SOL    HW118386   1.325   0.719   3.200
 5829SOL    HW218387   1.478   0.770   3.176
 5830SOL     OW18388   5.303   6.522   5.784
 5830SOL    HW118389   5.322   6.465   5.704
 5830SOL    HW218390   5.353   6.608   5.777
 5831SOL     OW18391   0.870   1.274   5.559
 5831SOL    HW118392   0.774   1.295   5.538
 5831SOL    HW218393   0.895   1.316   5.646
 5832SOL     OW18394   2.913   4.754   7.003
 5832SOL    HW118395   2.849   4.723   0.055
 5832SOL    HW218396   2.949   4.675   6.953
 5833SOL     OW18397   3.503   3.666   4.426
 5833SOL    HW118398   3.434   3.729   4.460
 5833SOL    HW218399   3.565   3.714   4.365
 5834SOL     OW18400   6.986   3.301   6.870
 5834SOL    HW118401   0.017   3.243   6.805
 5834SOL    HW218402   0.016   3.302   6.957
 5835SOL     OW18403   5.130   3.106   3.679
 5835SOL    HW118404   5.123   3.011   3.707
 5835SOL    HW218405   5.041   3.150   3.686
 5836SOL     OW18406   2.610   6.338   2.085
 5836SOL    HW118407   2.635   6.307   2.177
 5836SOL    HW218408   2.564   6.426   2.091
 5837SOL     OW18409   4.001   3.813   5.970
 5837SOL    HW118410   4.031   3.829   5.876
 5837SOL    HW218411   3.918   3.865   5.988
 5838SOL     OW18412   2.497   2.222   0.944
 5838SOL    HW118413   2.514   2.261   0.854
 5838SOL    HW218414   2.436   2.282   0.996
 5839SOL     OW18415   0.759   1.723   2.518
 5839SOL    HW118416   0.727   1.635   2.552
 5839SOL    HW218417   0.766   1.720   2.418
 5840SOL     OW18418   0.372   5.688   6.140
 5840SOL    HW118419   0.377   5.624   6.217
 5840SOL    HW218420   0.386   5.639   6.054
 5841SOL     OW18421   5.007   2.072   2.687
 5841SOL    HW118422   4.961   2.151   2.727
 5841SOL    HW218423   5.046   2.098   2.598
 5842SOL     OW18424   4.597   3.053   1.347
 5842SOL    HW118425   4.615   3.092   1.257
 5842SOL    HW218426   4.653   2.971   1.360
 5843SOL     OW18427   1.746   4.075   3.243
 5843SOL    HW118428   1.655   4.047   3.212
 5843SOL    HW218429   1.759   4.046   3.338
 5844SOL     OW18430   1.966   6.312   5.684
 5844SOL    HW118431   1.873   6.311   5.721
 5844SOL    HW218432   2.006   6.403   5.697
 5845SOL     OW18433   0.321   0.611   2.632
 5845SOL    HW118434   0.237   0.560   2.647
 5845SOL    HW218435   0.362   0.582   2.545
 5846SOL     OW18436   6.988   2.774   4.765
 5846SOL    HW118437   0.009   2.854   4.811
 5846SOL    HW218438   6.949   2.712   4.833
 5847SOL     OW18439   2.460   2.214   2.057
 5847SOL    HW118440   2.399   2.160   2.114
 5847SOL    HW218441   2.464   2.174   1.965
 5848SOL     OW18442   2.105   6.273   3.339
 5848SOL    HW118443   2.197   6.310   3.322
 5848SOL    HW218444   2.069   6.310   3.425
 5849SOL     OW18445   0.601   0.224   6.056
 5849SOL    HW118446   0.585   0.126   6.061
 5849SOL    HW218447   0.515   0.273   6.067
 5850SOL     OW18448   6.835   3.159   2.469
 5850SOL    HW118449   6.736   3.163   2.458
 5850SOL    HW218450   6.878   3.145   2.380
 5851SOL     OW18451   4.990   3.474   2.803
 5851SOL    HW118452   4.971   3.376   2.804
 5851SOL    HW218453   4.960   3.515   2.890
 5852SOL     OW18454   6.175   5.647   2.931
 5852SOL    HW118455   6.132   5.566   2.891
 5852SOL    HW218456   6.137   5.730   2.890
 5853SOL     OW18457   3.447   5.918   4.318
 5853SOL    HW118458   3.504   5.908   4.399
 5853SOL    HW218459   3.363   5.967   4.342
 5854SOL     OW18460   5.301   4.489   6.274
 5854SOL    HW118461   5.313   4.528   6.183
 5854SOL    HW218462   5.215   4.522   6.313
 5855SOL     OW18463   0.395   1.598   4.752
 5855SOL    HW118464   0.487   1.560   4.742
 5855SOL    HW218465   0.345   1.585   4.667
 5856SOL     OW18466   2.071   5.527   3.808
 5856SOL    HW118467   1.988   5.573   3.840
 5856SOL    HW218468   2.075   5.435   3.848
 5857SOL     OW18469   6.407   1.990   5.968
 5857SOL    HW118470   6.500   2.009   5.937
 5857SOL    HW218471   6.343   2.048   5.918
 5858SOL     OW18472   2.570   2.018   2.343
 5858SOL    HW118473   2.584   2.107   2.300
 5858SOL    HW218474   2.472   2.005   2.361
 5859SOL     OW18475   5.725   6.235   1.331
 5859SOL    HW118476   5.706   6.294   1.253
 5859SOL    HW218477   5.810   6.185   1.316
 5860SOL     OW18478   0.827   3.451   1.850
 5860SOL    HW118479   0.860   3.410   1.935
 5860SOL    HW218480   0.894   3.518   1.818
 5861SOL     OW18481   4.289   1.758   4.378
 5861SOL    HW118482   4.295   1.664   4.413
 5861SOL    HW218483   4.196   1.791   4.389
 5862SOL     OW18484   5.199   4.881   1.328
 5862SOL    HW118485   5.182   4.794   1.282
 5862SOL    HW218486   5.269   4.868   1.398
 5863SOL     OW18487   3.402   1.626   4.989
 5863SOL    HW118488   3.393   1.717   5.029
 5863SOL    HW218489   3.361   1.625   4.898
 5864SOL     OW18490   4.127   3.598   1.713
 5864SOL    HW118491   4.215   3.605   1.665
 5864SOL    HW218492   4.128   3.515   1.770
 5865SOL     OW18493   5.902   0.335   4.979
 5865SOL    HW118494   5.839   0.325   4.902
 5865SOL    HW218495   5.932   0.245   5.009
 5866SOL     OW18496   4.405   4.651   0.021
 5866SOL    HW118497   4.477   4.710   0.059
 5866SOL    HW218498   4.446   4.565   7.007
 5867SOL     OW18499   1.402   3.847   0.677
 5867SOL    HW118500   1.448   3.809   0.597
 5867SOL    HW218501   1.318   3.796   0.693
 5868SOL     OW18502   0.998   1.403   5.806
 5868SOL    HW118503   1.079   1.354   5.773
 5868SOL    HW218504   1.027   1.489   5.849
 5869SOL     OW18505   1.611   5.874   3.440
 5869SOL    HW118506   1.673   5.797   3.429
 5869SOL    HW218507   1.524   5.853   3.395
 5870SOL     OW18508   5.255   5.682   4.881
 5870SOL    HW118509   5.217   5.736   4.956
 5870SOL    HW218510   5.286   5.743   4.808
 5871SOL     OW18511   4.024   2.457   1.473
 5871SOL    HW118512   4.033   2.457   1.572
 5871SOL    HW218513   4.004   2.550   1.441
 5872SOL     OW18514   4.188   6.478   1.249
 5872SOL    HW118515   4.237   6.553   1.203
 5872SOL    HW218516   4.090   6.495   1.245
 5873SOL     OW18517   3.009   2.048   1.645
 5873SOL    HW118518   2.931   2.103   1.614
 5873SOL    HW218519   3.004   2.039   1.745
 5874SOL     OW18520   2.994   4.170   6.830
 5874SOL    HW118521   3.058   4.097   6.805
 5874SOL    HW218522   2.910   4.160   6.778
 5875SOL     OW18523   4.327   0.947   6.429
 5875SOL    HW118524   4.231   0.957   6.402
 5875SOL    HW218525   4.359   1.033   6.469
 5876SOL     OW18526   3.374   3.794   0.847
 5876SOL    HW118527   3.291   3.747   0.817
 5876SOL    HW218528   3.388   3.779   0.945
 5877SOL     OW18529   0.307   0.317   1.175
 5877SOL    HW118530   0.302   0.411   1.141
 5877SOL    HW218531   0.400   0.299   1.209
 5878SOL     OW18532   6.188   5.425   4.443
 5878SOL    HW118533   6.204   5.389   4.351
 5878SOL    HW218534   6.187   5.350   4.509
 5879SOL     OW18535   2.156   3.799   6.733
 5879SOL    HW118536   2.222   3.769   6.803
 5879SOL    HW218537   2.063   3.785   6.767
 5880SOL     OW18538   5.593   4.641   6.775
 5880SOL    HW118539   5.648   4.559   6.792
 5880SOL    HW218540   5.536   4.628   6.694
 5881SOL     OW18541   1.027   6.442   2.287
 5881SOL    HW118542   1.062   6.486   2.370
 5881SOL    HW218543   1.100   6.390   2.243
 5882SOL     OW18544   0.207   5.461   6.287
 5882SOL    HW118545   0.130   5.497   6.235
 5882SOL    HW218546   0.178   5.438   6.380
 5883SOL     OW18547   0.677   1.856   6.807
 5883SOL    HW118548   0.675   1.766   6.851
 5883SOL    HW218549   0.585   1.881   6.778
 5884SOL     OW18550   4.715   1.288   4.177
 5884SOL    HW118551   4.793   1.275   4.238
 5884SOL    HW218552   4.732   1.366   4.117
 5885SOL     OW18553   0.123   5.713   2.540
 5885SOL    HW118554   0.143   5.780   2.468
 5885SOL    HW218555   0.188   5.725   2.615
 5886SOL     OW18556   0.336   2.161   3.917
 5886SOL    HW118557   0.297   2.132   4.005
 5886SOL    HW218558   0.408   2.229   3.934
 5887SOL     OW18559   2.439   2.268   1.732
 5887SOL    HW118560   2.533   2.297   1.750
 5887SOL    HW218561   2.391   2.339   1.680
 5888SOL     OW18562   1.843   0.336   1.178
 5888SOL    HW118563   1.929   0.386   1.187
 5888SOL    HW218564   1.767   0.401   1.175
 5889SOL     OW18565   6.645   1.318   0.126
 5889SOL    HW118566   6.643   1.392   0.059
 5889SOL    HW218567   6.741   1.292   0.142
 5890SOL     OW18568   2.105   0.639   2.483
 5890SOL    HW118569   2.013   0.600   2.478
 5890SOL    HW218570   2.118   0.704   2.408
 5891SOL     OW18571   3.199   3.979   6.725
 5891SOL    HW118572   3.236   3.955   6.814
 5891SOL    HW218573   3.157   3.898   6.683
 5892SOL     OW18574   0.990   5.385   1.804
 5892SOL    HW118575   1.007   5.301   1.752
 5892SOL    HW218576   1.048   5.387   1.885
 5893SOL     OW18577   2.195   4.206   2.315
 5893SOL    HW118578   2.182   4.163   2.404
 5893SOL    HW218579   2.200   4.136   2.244
 5894SOL     OW18580   0.769   5.601   4.512
 5894SOL    HW118581   0.771   5.515   4.563
 5894SOL    HW218582   0.702   5.663   4.554
 5895SOL     OW18583   5.213   3.520   3.595
 5895SOL    HW118584   5.248   3.453   3.661
 5895SOL    HW218585   5.115   3.509   3.585
 5896SOL     OW18586   4.087   1.527   1.404
 5896SOL    HW118587   4.113   1.618   1.374
 5896SOL    HW218588   4.058   1.472   1.326
 5897SOL     OW18589   3.995   0.616   1.720
 5897SOL    HW118590   3.995   0.580   1.627
 5897SOL    HW218591   3.986   0.541   1.785
 5898SOL     OW18592   2.762   0.880   4.593
 5898SOL    HW118593   2.770   0.961   4.534
 5898SOL    HW218594   2.669   0.877   4.631
 5899SOL     OW18595   6.005   5.488   0.086
 5899SOL    HW118596   5.931   5.461   0.148
 5899SOL    HW218597   6.086   5.513   0.140
 5900SOL     OW18598   6.823   4.458   3.243
 5900SOL    HW118599   6.863   4.371   3.273
 5900SOL    HW218600   6.724   4.456   3.254
 5901SOL     OW18601   3.245   0.590   0.989
 5901SOL    HW118602   3.285   0.679   0.967
 5901SOL    HW218603   3.305   0.541   1.052
 5902SOL     OW18604   6.255   3.231   5.673
 5902SOL    HW118605   6.284   3.325   5.652
 5902SOL    HW218606   6.253   3.178   5.588
 5903SOL     OW18607   5.053   4.374   5.735
 5903SOL    HW118608   4.986   4.445   5.710
 5903SOL    HW218609   5.094   4.397   5.823
 5904SOL     OW18610   1.311   4.951   0.824
 5904SOL    HW118611   1.224   4.904   0.840
 5904SOL    HW218612   1.386   4.885   0.828
 5905SOL     OW18613   6.750   6.991   3.657
 5905SOL    HW118614   6.728   0.021   3.742
 5905SOL    HW218615   6.847   6.966   3.656
 5906SOL     OW18616   4.334   1.708   3.760
 5906SOL    HW118617   4.405   1.708   3.830
 5906SOL    HW218618   4.362   1.768   3.684
 5907SOL     OW18619   0.783   6.041   0.451
 5907SOL    HW118620   0.788   5.996   0.540
 5907SOL    HW218621   0.786   5.972   0.378
 5908SOL     OW18622   6.276   3.358   0.438
 5908SOL    HW118623   6.207   3.344   0.508
 5908SOL    HW218624   6.301   3.455   0.434
 5909SOL     OW18625   6.357   5.070   6.456
 5909SOL    HW118626   6.429   5.130   6.422
 5909SOL    HW218627   6.397   4.983   6.485
 5910SOL     OW18628   0.380   4.660   2.107
 5910SOL    HW118629   0.403   4.572   2.149
 5910SOL    HW218630   0.417   4.735   2.163
 5911SOL     OW18631   6.543   4.376   6.839
 5911SOL    HW118632   6.562   4.473   6.821
 5911SOL    HW218633   6.444   4.361   6.838
 5912SOL     OW18634   5.642   3.055   6.719
 5912SOL    HW118635   5.679   3.085   6.631
 5912SOL    HW218636   5.622   3.135   6.775
 5913SOL     OW18637   3.494   3.279   6.416
 5913SOL    HW118638   3.443   3.337   6.353
 5913SOL    HW218639   3.572   3.238   6.368
 5914SOL     OW18640   2.522   5.625   6.452
 5914SOL    HW118641   2.606   5.639   6.398
 5914SOL    HW218642   2.443   5.623   6.390
 5915SOL     OW18643   5.473   4.496   1.694
 5915SOL    HW118644   5.443   4.489   1.789
 5915SOL    HW218645   5.408   4.448   1.635
 5916SOL     OW18646   4.446   5.929   5.211
 5916SOL    HW118647   4.455   5.829   5.210
 5916SOL    HW218648   4.373   5.956   5.149
 5917SOL     OW18649   3.523   3.768   3.593
 5917SOL    HW118650   3.573   3.789   3.677
 5917SOL    HW218651   3.482   3.852   3.557
 5918SOL     OW18652   1.991   3.060   5.302
 5918SOL    HW118653   2.084   3.047   5.268
 5918SOL    HW218654   1.976   2.998   5.379
 5919SOL     OW18655   4.015   2.544   1.093
 5919SOL    HW118656   4.098   2.552   1.148
 5919SOL    HW218657   3.991   2.633   1.054
 5920SOL     OW18658   3.676   0.463   0.070
 5920SOL    HW118659   3.700   0.538   0.132
 5920SOL    HW218660   3.580   0.439   0.083
 5921SOL     OW18661   3.823   5.301   5.974
 5921SOL    HW118662   3.780   5.381   5.934
 5921SOL    HW218663   3.811   5.302   6.073
 5922SOL     OW18664   6.578   5.540   3.180
 5922SOL    HW118665   6.505   5.475   3.159
 5922SOL    HW218666   6.538   5.625   3.215
 5923SOL     OW18667   5.516   1.052   0.876
 5923SOL    HW118668   5.508   1.106   0.960
 5923SOL    HW218669   5.613   1.036   0.857
 5924SOL     OW18670   0.216   1.561   3.951
 5924SOL    HW118671   0.266   1.522   4.029
 5924SOL    HW218672   0.164   1.490   3.906
 5925SOL     OW18673   4.089   5.560   2.278
 5925SOL    HW118674   4.136   5.646   2.255
 5925SOL    HW218675   4.140   5.483   2.241
 5926SOL     OW18676   3.885   4.949   1.953
 5926SOL    HW118677   3.796   4.930   1.996
 5926SOL    HW218678   3.870   4.979   1.859
 5927SOL     OW18679   1.549   4.502   3.171
 5927SOL    HW118680   1.493   4.427   3.207
 5927SOL    HW218681   1.595   4.473   3.087
 5928SOL     OW18682   3.588   0.187   0.956
 5928SOL    HW118683   3.522   0.237   1.011
 5928SOL    HW218684   3.614   0.242   0.877
 5929SOL     OW18685   1.060   6.068   6.209
 5929SOL    HW118686   1.015   6.056   6.297
 5929SOL    HW218687   1.074   5.979   6.166
 5930SOL     OW18688   6.873   2.342   3.543
 5930SOL    HW118689   6.809   2.416   3.524
 5930SOL    HW218690   6.906   2.349   3.637
 5931SOL     OW18691   6.813   5.362   3.776
 5931SOL    HW118692   6.789   5.450   3.817
 5931SOL    HW218693   6.886   5.319   3.829
 5932SOL     OW18694   1.771   6.843   0.563
 5932SOL    HW118695   1.810   6.763   0.518
 5932SOL    HW218696   1.675   6.853   0.536
 5933SOL     OW18697   0.594   6.036   3.820
 5933SOL    HW118698   0.623   6.112   3.763
 5933SOL    HW218699   0.647   6.036   3.905
 5934SOL     OW18700   3.808   4.027   4.439
 5934SOL    HW118701   3.727   4.085   4.432
 5934SOL    HW218702   3.784   3.932   4.422
 5935SOL     OW18703   4.394   3.753   5.887
 5935SOL    HW118704   4.327   3.756   5.962
 5935SOL    HW218705   4.355   3.702   5.810
 5936SOL     OW18706   4.137   3.624   0.904
 5936SOL    HW118707   4.199   3.564   0.853
 5936SOL    HW218708   4.131   3.713   0.859
 5937SOL     OW18709   0.664   4.741   2.854
 5937SOL    HW118710   0.663   4.746   2.953
 5937SOL    HW218711   0.696   4.651   2.825
 5938SOL     OW18712   0.793   4.932   4.082
 5938SOL    HW118713   0.802   4.918   3.983
 5938SOL    HW218714   0.829   5.021   4.107
 5939SOL     OW18715   2.903   0.095   3.116
 5939SOL    HW118716   2.919   0.089   3.215
 5939SOL    HW218717   2.963   0.165   3.078
 5940SOL     OW18718   4.210   5.675   1.246
 5940SOL    HW118719   4.290   5.704   1.193
 5940SOL    HW218720   4.163   5.756   1.282
 5941SOL     OW18721   5.959   3.209   1.845
 5941SOL    HW118722   5.949   3.120   1.889
 5941SOL    HW218723   5.872   3.236   1.804
 5942SOL     OW18724   5.123   2.982   0.382
 5942SOL    HW118725   5.170   2.895   0.362
 5942SOL    HW218726   5.144   3.048   0.310
 5943SOL     OW18727   3.644   5.550   0.447
 5943SOL    HW118728   3.572   5.483   0.463
 5943SOL    HW218729   3.716   5.509   0.391
 5944SOL     OW18730   6.167   2.472   1.084
 5944SOL    HW118731   6.147   2.386   1.036
 5944SOL    HW218732   6.224   2.452   1.164
 5945SOL     OW18733   6.116   5.272   5.265
 5945SOL    HW118734   6.213   5.294   5.257
 5945SOL    HW218735   6.062   5.357   5.267
 5946SOL     OW18736   3.116   3.364   5.693
 5946SOL    HW118737   3.196   3.375   5.634
 5946SOL    HW218738   3.039   3.416   5.655
 5947SOL     OW18739   4.146   3.437   1.927
 5947SOL    HW118740   4.154   3.512   1.993
 5947SOL    HW218741   4.088   3.365   1.964
 5948SOL     OW18742   4.398   5.358   2.908
 5948SOL    HW118743   4.308   5.398   2.891
 5948SOL    HW218744   4.463   5.430   2.931
 5949SOL     OW18745   4.259   3.302   1.652
 5949SOL    HW118746   4.332   3.320   1.718
 5949SOL    HW218747   4.299   3.277   1.564
 5950SOL     OW18748   4.956   2.875   5.577
 5950SOL    HW118749   5.054   2.889   5.564
 5950SOL    HW218750   4.923   2.805   5.514
 5951SOL     OW18751   0.065   5.493   4.749
 5951SOL    HW118752   0.115   5.529   4.827
 5951SOL    HW218753   0.115   5.416   4.710
 5952SOL     OW18754   5.471   4.789   3.946
 5952SOL    HW118755   5.553   4.754   3.993
 5952SOL    HW218756   5.429   4.861   4.001
 5953SOL     OW18757   6.203   2.737   5.097
 5953SOL    HW118758   6.104   2.724   5.099
 5953SOL    HW218759   6.244   2.672   5.033
 5954SOL     OW18760   0.466   4.252   5.682
 5954SOL    HW118761   0.377   4.286   5.713
 5954SOL    HW218762   0.530   4.328   5.675
 5955SOL     OW18763   5.040   5.773   2.536
 5955SOL    HW118764   5.126   5.725   2.521
 5955SOL    HW218765   5.058   5.859   2.584
 5956SOL     OW18766   3.511   1.189   5.891
 5956SOL    HW118767   3.495   1.173   5.989
 5956SOL    HW218768   3.559   1.276   5.879
 5957SOL     OW18769   4.476   0.685   5.507
 5957SOL    HW118770   4.479   0.721   5.601
 5957SOL    HW218771   4.384   0.652   5.487
 5958SOL     OW18772   6.341   5.893   2.397
 5958SOL    HW118773   6.280   5.814   2.408
 5958SOL    HW218774   6.435   5.865   2.412
 5959SOL     OW18775   3.838   2.223   5.545
 5959SOL    HW118776   3.862   2.127   5.554
 5959SOL    HW218777   3.844   2.267   5.635
 5960SOL     OW18778   3.835   5.465   4.153
 5960SOL    HW118779   3.869   5.556   4.175
 5960SOL    HW218780   3.781   5.430   4.230
 5961SOL     OW18781   5.199   0.886   3.085
 5961SOL    HW118782   5.126   0.837   3.038
 5961SOL    HW218783   5.273   0.905   3.020
 5962SOL     OW18784   5.106   6.063   0.982
 5962SOL    HW118785   5.134   6.148   0.937
 5962SOL    HW218786   5.013   6.075   1.018
 5963SOL     OW18787   3.427   3.134   4.648
 5963SOL    HW118788   3.391   3.197   4.579
 5963SOL    HW218789   3.365   3.131   4.726
 5964SOL     OW18790   0.132   4.974   5.790
 5964SOL    HW118791   0.057   5.034   5.762
 5964SOL    HW218792   0.194   4.959   5.713
 5965SOL     OW18793   0.926   2.274   0.093
 5965SOL    HW118794   0.843   2.222   0.073
 5965SOL    HW218795   0.919   2.314   0.185
 5966SOL     OW18796   2.343   5.705   5.280
 5966SOL    HW118797   2.416   5.661   5.228
 5966SOL    HW218798   2.301   5.776   5.224
 5967SOL     OW18799   4.019   6.246   0.305
 5967SOL    HW118800   3.984   6.339   0.309
 5967SOL    HW218801   4.113   6.244   0.340
 5968SOL     OW18802   5.164   0.699   1.406
 5968SOL    HW118803   5.083   0.757   1.395
 5968SOL    HW218804   5.193   0.665   1.316
 5969SOL     OW18805   0.231   0.745   7.005
 5969SOL    HW118806   0.298   0.683   6.964
 5969SOL    HW218807   0.174   0.694   0.051
 5970SOL     OW18808   0.831   4.230   2.828
 5970SOL    HW118809   0.743   4.208   2.785
 5970SOL    HW218810   0.830   4.198   2.923
 5971SOL     OW18811   1.279   1.209   2.765
 5971SOL    HW118812   1.307   1.115   2.781
 5971SOL    HW218813   1.297   1.234   2.670
 5972SOL     OW18814   5.235   6.224   6.559
 5972SOL    HW118815   5.192   6.308   6.527
 5972SOL    HW218816   5.319   6.246   6.608
 5973SOL     OW18817   1.862   3.520   2.509
 5973SOL    HW118818   1.907   3.431   2.515
 5973SOL    HW218819   1.881   3.561   2.419
 5974SOL     OW18820   5.789   4.506   6.472
 5974SOL    HW118821   5.740   4.583   6.433
 5974SOL    HW218822   5.869   4.539   6.521
 5975SOL     OW18823   3.593   1.920   0.796
 5975SOL    HW118824   3.648   1.888   0.873
 5975SOL    HW218825   3.502   1.946   0.828
 5976SOL     OW18826   3.121   3.472   4.906
 5976SOL    HW118827   3.129   3.500   4.811
 5976SOL    HW218828   3.032   3.500   4.941
 5977SOL     OW18829   2.859   5.367   0.739
 5977SOL    HW118830   2.917   5.379   0.820
 5977SOL    HW218831   2.784   5.304   0.761
 5978SOL     OW18832   5.136   5.857   3.535
 5978SOL    HW118833   5.146   5.787   3.464
 5978SOL    HW218834   5.117   5.945   3.492
 5979SOL     OW18835   6.379   0.323   2.557
 5979SOL    HW118836   6.301   0.320   2.496
 5979SOL    HW218837   6.441   0.247   2.536
 5980SOL     OW18838   3.641   3.254   0.407
 5980SOL    HW118839   3.566   3.203   0.364
 5980SOL    HW218840   3.688   3.195   0.473
 5981SOL     OW18841   5.958   1.531   1.741
 5981SOL    HW118842   5.964   1.516   1.642
 5981SOL    HW218843   5.878   1.587   1.761
 5982SOL     OW18844   6.696   2.721   1.561
 5982SOL    HW118845   6.791   2.728   1.529
 5982SOL    HW218846   6.636   2.706   1.482
 5983SOL     OW18847   2.130   0.907   4.274
 5983SOL    HW118848   2.089   0.949   4.354
 5983SOL    HW218849   2.117   0.808   4.278
 5984SOL     OW18850   6.301   6.460   5.005
 5984SOL    HW118851   6.372   6.395   4.978
 5984SOL    HW218852   6.319   6.493   5.097
 5985SOL     OW18853   6.498   2.927   4.317
 5985SOL    HW118854   6.548   3.007   4.283
 5985SOL    HW218855   6.454   2.950   4.404
 5986SOL     OW18856   3.325   3.502   4.271
 5986SOL    HW118857   3.372   3.461   4.193
 5986SOL    HW218858   3.392   3.546   4.331
 5987SOL     OW18859   4.333   0.322   4.876
 5987SOL    HW118860   4.410   0.352   4.819
 5987SOL    HW218861   4.330   0.222   4.877
 5988SOL     OW18862   5.467   6.760   5.233
 5988SOL    HW118863   5.394   6.711   5.184
 5988SOL    HW218864   5.462   6.738   5.331
 5989SOL     OW18865   2.660   5.811   0.233
 5989SOL    HW118866   2.658   5.796   0.332
 5989SOL    HW218867   2.567   5.802   0.197
 5990SOL     OW18868   4.000   4.742   0.682
 5990SOL    HW118869   3.983   4.838   0.703
 5990SOL    HW218870   4.050   4.735   0.595
 5991SOL     OW18871   3.785   5.780   6.172
 5991SOL    HW118872   3.711   5.715   6.155
 5991SOL    HW218873   3.752   5.873   6.157
 5992SOL     OW18874   3.410   0.371   3.000
 5992SOL    HW118875   3.388   0.466   3.019
 5992SOL    HW218876   3.466   0.334   3.075
 5993SOL     OW18877   3.056   6.099   5.876
 5993SOL    HW118878   3.146   6.064   5.850
 5993SOL    HW218879   3.024   6.164   5.808
 5994SOL     OW18880   6.768   2.614   2.320
 5994SOL    HW118881   6.814   2.588   2.405
 5994SOL    HW218882   6.704   2.689   2.338
 5995SOL     OW18883   5.742   5.164   2.635
 5995SOL    HW118884   5.676   5.233   2.607
 5995SOL    HW218885   5.751   5.165   2.735
 5996SOL     OW18886   1.017   6.223   0.378
 5996SOL    HW118887   1.073   6.186   0.304
 5996SOL    HW218888   0.939   6.163   0.394
 5997SOL     OW18889   0.980   5.841   2.890
 5997SOL    HW118890   0.936   5.753   2.877
 5997SOL    HW218891   0.910   5.913   2.894
 5998SOL     OW18892   6.339   2.211   2.204
 5998SOL    HW118893   6.357   2.159   2.121
 5998SOL    HW218894   6.241   2.211   2.223
 5999SOL     OW18895   1.571   1.468   2.553
 5999SOL    HW118896   1.559   1.369   2.546
 5999SOL    HW218897   1.615   1.502   2.470
 6000SOL     OW18898   4.224   6.902   1.491
 6000SOL    HW118899   4.143   6.942   1.449
 6000SOL    HW218900   4.226   6.803   1.472
 6001SOL     OW18901   0.445   4.117   6.593
 6001SOL    HW118902   0.506   4.045   6.559
 6001SOL    HW218903   0.358   4.112   6.545
 6002SOL     OW18904   6.621   6.997   1.520
 6002SOL    HW118905   6.609   6.934   1.443
 6002SOL    HW218906   6.682   0.054   1.493
 6003SOL     OW18907   0.202   2.259   4.183
 6003SOL    HW118908   0.124   2.313   4.216
 6003SOL    HW218909   0.169   2.181   4.130
 6004SOL     OW18910   0.511   4.365   3.421
 6004SOL    HW118911   0.472   4.291   3.366
 6004SOL    HW218912   0.500   4.452   3.373
 6005SOL     OW18913   4.769   5.303   4.579
 6005SOL    HW118914   4.863   5.304   4.545
 6005SOL    HW218915   4.759   5.229   4.647
 6006SOL     OW18916   2.763   0.588   6.735
 6006SOL    HW118917   2.692   0.518   6.743
 6006SOL    HW218918   2.725   0.668   6.688
 6007SOL     OW18919   5.075   3.517   5.066
 6007SOL    HW118920   5.100   3.440   5.007
 6007SOL    HW218921   4.986   3.553   5.037
 6008SOL     OW18922   1.776   5.014   5.297
 6008SOL    HW118923   1.740   4.994   5.206
 6008SOL    HW218924   1.757   4.938   5.359
 6009SOL     OW18925   3.789   0.636   4.057
 6009SOL    HW118926   3.799   0.573   4.134
 6009SOL    HW218927   3.872   0.636   4.002
 6010SOL     OW18928   1.637   4.277   3.644
 6010SOL    HW118929   1.671   4.346   3.580
 6010SOL    HW218930   1.608   4.196   3.593
 6011SOL     OW18931   5.157   2.649   3.302
 6011SOL    HW118932   5.184   2.607   3.215
 6011SOL    HW218933   5.146   2.579   3.372
 6012SOL     OW18934   5.227   0.926   0.036
 6012SOL    HW118935   5.319   0.911   7.017
 6012SOL    HW218936   5.220   0.885   0.127
 6013SOL     OW18937   5.783   2.755   2.728
 6013SOL    HW118938   5.850   2.818   2.686
 6013SOL    HW218939   5.710   2.808   2.771
 6014SOL     OW18940   4.105   3.122   0.799
 6014SOL    HW118941   4.060   3.147   0.713
 6014SOL    HW218942   4.088   3.193   0.868
 6015SOL     OW18943   5.847   2.105   4.764
 6015SOL    HW118944   5.758   2.116   4.719
 6015SOL    HW218945   5.915   2.076   4.697
 6016SOL     OW18946   6.507   1.505   5.847
 6016SOL    HW118947   6.411   1.533   5.851
 6016SOL    HW218948   6.558   1.552   5.920
 6017SOL     OW18949   0.420   4.344   2.916
 6017SOL    HW118950   0.457   4.432   2.945
 6017SOL    HW218951   0.348   4.359   2.848
 6018SOL     OW18952   2.908   0.863   6.551
 6018SOL    HW118953   2.975   0.799   6.589
 6018SOL    HW218954   2.817   0.839   6.584
 6019SOL     OW18955   6.430   1.722   4.212
 6019SOL    HW118956   6.515   1.770   4.232
 6019SOL    HW218957   6.447   1.652   4.142
 6020SOL     OW18958   2.221   5.134   1.203
 6020SOL    HW118959   2.254   5.226   1.185
 6020SOL    HW218960   2.283   5.088   1.267
 6021SOL     OW18961   4.087   0.881   1.958
 6021SOL    HW118962   4.001   0.834   1.976
 6021SOL    HW218963   4.148   0.822   1.906
 6022SOL     OW18964   4.844   1.902   4.218
 6022SOL    HW118965   4.831   1.803   4.214
 6022SOL    HW218966   4.790   1.940   4.292
 6023SOL     OW18967   6.177   1.261   1.735
 6023SOL    HW118968   6.082   1.236   1.713
 6023SOL    HW218969   6.240   1.200   1.687
 6024SOL     OW18970   0.564   5.085   2.971
 6024SOL    HW118971   0.470   5.106   2.998
 6024SOL    HW218972   0.572   5.088   2.871
 6025SOL     OW18973   3.458   1.806   2.611
 6025SOL    HW118974   3.431   1.820   2.706
 6025SOL    HW218975   3.489   1.712   2.599
 6026SOL     OW18976   6.998   3.949   4.548
 6026SOL    HW118977   0.001   3.921   4.454
 6026SOL    HW218978   7.018   3.873   4.610
 6027SOL     OW18979   1.595   3.842   6.415
 6027SOL    HW118980   1.536   3.811   6.490
 6027SOL    HW218981   1.540   3.862   6.335
 6028SOL     OW18982   0.815   4.354   0.046
 6028SOL    HW118983   0.901   4.305   0.059
 6028SOL    HW218984   0.746   4.291   0.010
 6029SOL     OW18985   2.444   6.379   4.712
 6029SOL    HW118986   2.468   6.290   4.674
 6029SOL    HW218987   2.527   6.427   4.742
 6030SOL     OW18988   4.276   6.274   2.702
 6030SOL    HW118989   4.243   6.289   2.609
 6030SOL    HW218990   4.258   6.179   2.729
 6031SOL     OW18991   3.796   5.365   2.937
 6031SOL    HW118992   3.869   5.310   2.976
 6031SOL    HW218993   3.788   5.346   2.839
 6032SOL     OW18994   2.403   4.406   3.048
 6032SOL    HW118995   2.340   4.485   3.051
 6032SOL    HW218996   2.497   4.439   3.048
 6033SOL     OW18997   2.876   1.667   2.628
 6033SOL    HW118998   2.934   1.618   2.564
 6033SOL    HW218999   2.819   1.601   2.678
 6034SOL     OW19000   0.896   5.198   4.191
 6034SOL    HW119001   0.935   5.158   4.273
 6034SOL    HW219002   0.842   5.279   4.215
 6035SOL     OW19003   6.778   0.439   2.710
 6035SOL    HW119004   6.820   0.349   2.695
 6035SOL    HW219005   6.847   0.503   2.745
 6036SOL     OW19006   6.067   6.210   4.235
 6036SOL    HW119007   6.121   6.228   4.152
 6036SOL    HW219008   5.973   6.242   4.221
 6037SOL     OW19009   4.466   4.788   6.241
 6037SOL    HW119010   4.447   4.882   6.272
 6037SOL    HW219011   4.563   4.767   6.256
 6038SOL     OW19012   1.516   2.912   6.251
 6038SOL    HW119013   1.574   2.938   6.328
 6038SOL    HW219014   1.478   2.820   6.268
 6039SOL     OW19015   3.167   3.060   2.652
 6039SOL    HW119016   3.142   3.085   2.558
 6039SOL    HW219017   3.087   3.021   2.698
 6040SOL     OW19018   0.547   2.217   6.331
 6040SOL    HW119019   0.549   2.149   6.405
 6040SOL    HW219020   0.464   2.272   6.339
 6041SOL     OW19021   2.117   0.452   4.885
 6041SOL    HW119022   2.185   0.525   4.892
 6041SOL    HW219023   2.050   0.463   4.958
 6042SOL     OW19024   5.260   5.987   2.220
 6042SOL    HW119025   5.253   5.889   2.202
 6042SOL    HW219026   5.170   6.029   2.212
 6043SOL     OW19027   0.846   4.758   5.737
 6043SOL    HW119028   0.886   4.677   5.693
 6043SOL    HW219029   0.920   4.815   5.774
 6044SOL     OW19030   1.605   1.947   1.350
 6044SOL    HW119031   1.576   1.896   1.269
 6044SOL    HW219032   1.674   1.894   1.400
 6045SOL     OW19033   6.570   4.935   1.372
 6045SOL    HW119034   6.486   4.959   1.420
 6045SOL    HW219035   6.649   4.967   1.424
 6046SOL     OW19036   3.210   1.794   6.751
 6046SOL    HW119037   3.119   1.834   6.755
 6046SOL    HW219038   3.203   1.697   6.727
 6047SOL     OW19039   6.085   2.430   2.096
 6047SOL    HW119040   6.069   2.358   2.164
 6047SOL    HW219041   6.109   2.515   2.143
 6048SOL     OW19042   4.597   6.109   4.076
 6048SOL    HW119043   4.565   6.195   4.115
 6048SOL    HW219044   4.608   6.041   4.149
 6049SOL     OW19045   5.983   3.086   5.951
 6049SOL    HW119046   5.972   3.177   5.911
 6049SOL    HW219047   5.989   3.018   5.878
 6050SOL     OW19048   3.082   5.284   4.628
 6050SOL    HW119049   3.074   5.209   4.694
 6050SOL    HW219050   3.042   5.367   4.666
 6051SOL     OW19051   2.610   1.720   4.568
 6051SOL    HW119052   2.521   1.700   4.528
 6051SOL    HW219053   2.622   1.667   4.652
 6052SOL     OW19054   6.212   6.996   0.856
 6052SOL    HW119055   6.114   7.011   0.844
 6052SOL    HW219056   6.256   6.987   0.767
 6053SOL     OW19057   3.317   1.048   6.378
 6053SOL    HW119058   3.299   1.142   6.407
 6053SOL    HW219059   3.401   1.044   6.325
 6054SOL     OW19060   2.882   3.826   0.114
 6054SOL    HW119061   2.922   3.783   0.195
 6054SOL    HW219062   2.818   3.897   0.143
 6055SOL     OW19063   5.104   1.280   5.648
 6055SOL    HW119064   5.157   1.241   5.723
 6055SOL    HW219065   5.023   1.326   5.684
 6056SOL     OW19066   4.785   2.917   4.566
 6056SOL    HW119067   4.768   3.016   4.559
 6056SOL    HW219068   4.780   2.877   4.475
 6057SOL     OW19069   5.172   2.630   4.551
 6057SOL    HW119070   5.089   2.607   4.500
 6057SOL    HW219071   5.176   2.576   4.635
 6058SOL     OW19072   4.945   2.419   1.887
 6058SOL    HW119073   4.854   2.398   1.923
 6058SOL    HW219074   4.936   2.454   1.794
 6059SOL     OW19075   4.947   4.871   4.638
 6059SOL    HW119076   4.979   4.888   4.731
 6059SOL    HW219077   4.950   4.956   4.585
 6060SOL     OW19078   3.332   4.057   6.169
 6060SOL    HW119079   3.247   4.054   6.222
 6060SOL    HW219080   3.314   4.031   6.074
 6061SOL     OW19081   4.003   2.069   1.698
 6061SOL    HW119082   4.004   2.122   1.783
 6061SOL    HW219083   4.034   1.976   1.716
 6062SOL     OW19084   1.969   1.810   4.819
 6062SOL    HW119085   2.018   1.882   4.867
 6062SOL    HW219086   1.879   1.844   4.791
 6063SOL     OW19087   3.567   1.327   6.685
 6063SOL    HW119088   3.561   1.413   6.635
 6063SOL    HW219089   3.486   1.317   6.744
 6064SOL     OW19090   2.566   6.271   1.048
 6064SOL    HW119091   2.649   6.308   1.089
 6064SOL    HW219092   2.556   6.175   1.073
 6065SOL     OW19093   5.819   6.727   2.400
 6065SOL    HW119094   5.902   6.700   2.351
 6065SOL    HW219095   5.739   6.703   2.346
 6066SOL     OW19096   4.527   2.153   6.645
 6066SOL    HW119097   4.607   2.132   6.589
 6066SOL    HW219098   4.462   2.207   6.591
 6067SOL     OW19099   5.433   1.612   6.006
 6067SOL    HW119100   5.499   1.602   5.932
 6067SOL    HW219101   5.418   1.523   6.049
 6068SOL     OW19102   5.521   2.819   4.789
 6068SOL    HW119103   5.498   2.899   4.734
 6068SOL    HW219104   5.606   2.835   4.838
 6069SOL     OW19105   6.825   3.002   4.937
 6069SOL    HW119106   6.880   3.059   4.998
 6069SOL    HW219107   6.841   3.028   4.842
 6070SOL     OW19108   2.351   2.556   0.282
 6070SOL    HW119109   2.326   2.644   0.241
 6070SOL    HW219110   2.441   2.529   0.248
 6071SOL     OW19111   5.672   4.791   4.605
 6071SOL    HW119112   5.601   4.774   4.673
 6071SOL    HW219113   5.760   4.761   4.642
 6072SOL     OW19114   0.359   6.774   1.908
 6072SOL    HW119115   0.280   6.808   1.855
 6072SOL    HW219116   0.419   6.721   1.848
 6073SOL     OW19117   6.360   4.225   1.002
 6073SOL    HW119118   6.357   4.314   0.956
 6073SOL    HW219119   6.268   4.200   1.032
 6074SOL     OW19120   1.209   6.335   4.345
 6074SOL    HW119121   1.229   6.406   4.278
 6074SOL    HW219122   1.182   6.377   4.432
 6075SOL     OW19123   0.081   2.114   6.790
 6075SOL    HW119124   0.150   2.082   6.854
 6075SOL    HW219125   7.010   2.075   6.815
 6076SOL     OW19126   2.032   6.268   4.334
 6076SOL    HW119127   1.952   6.329   4.337
 6076SOL    HW219128   2.058   6.242   4.427
 6077SOL     OW19129   5.060   5.848   1.756
 6077SOL    HW119130   5.119   5.928   1.744
 6077SOL    HW219131   5.011   5.855   1.843
 6078SOL     OW19132   3.772   5.193   1.189
 6078SOL    HW119133   3.840   5.264   1.206
 6078SOL    HW219134   3.740   5.156   1.276
 6079SOL     OW19135   3.078   3.068   6.384
 6079SOL    HW119136   3.157   3.086   6.326
 6079SOL    HW219137   3.082   3.128   6.465
 6080SOL     OW19138   0.002   0.565   1.678
 6080SOL    HW119139   0.064   0.584   1.602
 6080SOL    HW219140   0.043   0.595   1.764
 6081SOL     OW19141   6.051   2.957   4.824
 6081SOL    HW119142   6.069   2.912   4.736
 6081SOL    HW219143   6.128   2.940   4.886
 6082SOL     OW19144   2.407   1.912   3.616
 6082SOL    HW119145   2.473   1.893   3.542
 6082SOL    HW219146   2.362   1.827   3.643
 6083SOL     OW19147   0.073   4.831   6.864
 6083SOL    HW119148   0.049   4.918   6.907
 6083SOL    HW219149   0.148   4.789   6.916
 6084SOL     OW19150   0.202   5.456   3.757
 6084SOL    HW119151   0.132   5.523   3.783
 6084SOL    HW219152   0.292   5.487   3.787
 6085SOL     OW19153   0.358   4.252   0.093
 6085SOL    HW119154   0.296   4.224   0.166
 6085SOL    HW219155   0.395   4.343   0.114
 6086SOL     OW19156   3.218   1.587   5.548
 6086SOL    HW119157   3.240   1.641   5.467
 6086SOL    HW219158   3.278   1.508   5.553
 6087SOL     OW19159   4.698   5.993   0.353
 6087SOL    HW119160   4.627   6.061   0.337
 6087SOL    HW219161   4.661   5.902   0.333
 6088SOL     OW19162   5.852   6.419   4.400
 6088SOL    HW119163   5.845   6.324   4.370
 6088SOL    HW219164   5.863   6.479   4.321
 6089SOL     OW19165   6.490   3.203   1.328
 6089SOL    HW119166   6.391   3.208   1.344
 6089SOL    HW219167   6.512   3.242   1.239
 6090SOL     OW19168   2.311   6.293   5.306
 6090SOL    HW119169   2.384   6.240   5.264
 6090SOL    HW219170   2.279   6.247   5.388
 6091SOL     OW19171   2.321   1.822   2.399
 6091SOL    HW119172   2.283   1.735   2.431
 6091SOL    HW219173   2.327   1.820   2.299
 6092SOL     OW19174   3.683   0.229   3.391
 6092SOL    HW119175   3.688   0.157   3.460
 6092SOL    HW219176   3.674   0.318   3.435
 6093SOL     OW19177   1.269   3.429   2.865
 6093SOL    HW119178   1.314   3.473   2.787
 6093SOL    HW219179   1.190   3.377   2.834
 6094SOL     OW19180   3.950   1.063   1.122
 6094SOL    HW119181   3.974   1.092   1.029
 6094SOL    HW219182   3.858   1.025   1.123
 6095SOL     OW19183   3.942   3.482   6.734
 6095SOL    HW119184   4.004   3.484   6.657
 6095SOL    HW219185   3.883   3.401   6.728
 6096SOL     OW19186   6.090   0.520   3.979
 6096SOL    HW119187   6.007   0.483   3.938
 6096SOL    HW219188   6.102   0.483   4.071
 6097SOL     OW19189   1.667   0.198   2.078
 6097SOL    HW119190   1.573   0.182   2.110
 6097SOL    HW219191   1.671   0.286   2.030
 6098SOL     OW19192   1.329   2.538   6.492
 6098SOL    HW119193   1.275   2.455   6.476
 6098SOL    HW219194   1.363   2.537   6.586
 6099SOL     OW19195   0.044   6.107   0.327
 6099SOL    HW119196   7.011   6.190   0.305
 6099SOL    HW219197   0.069   6.107   0.424
 6100SOL     OW19198   4.875   3.700   6.930
 6100SOL    HW119199   4.910   3.747   7.011
 6100SOL    HW219200   4.952   3.672   6.872
 6101SOL     OW19201   5.981   1.912   4.623
 6101SOL    HW119202   5.952   1.834   4.568
 6101SOL    HW219203   6.070   1.892   4.665
 6102SOL     OW19204   3.428   0.107   3.363
 6102SOL    HW119205   3.526   0.119   3.343
 6102SOL    HW219206   3.417   0.078   3.458
 6103SOL     OW19207   0.622   2.274   2.319
 6103SOL    HW119208   0.633   2.235   2.411
 6103SOL    HW219209   0.526   2.297   2.305
 6104SOL     OW19210   5.935   1.396   5.401
 6104SOL    HW119211   6.017   1.355   5.360
 6104SOL    HW219212   5.885   1.326   5.451
 6105SOL     OW19213   1.553   0.762   5.510
 6105SOL    HW119214   1.574   0.733   5.417
 6105SOL    HW219215   1.537   0.861   5.511
 6106SOL     OW19216   1.496   3.896   5.510
 6106SOL    HW119217   1.561   3.820   5.519
 6106SOL    HW219218   1.547   3.981   5.496
 6107SOL     OW19219   2.656   4.620   3.976
 6107SOL    HW119220   2.621   4.595   3.885
 6107SOL    HW219221   2.590   4.592   4.046
 6108SOL     OW19222   1.049   2.608   1.922
 6108SOL    HW119223   0.964   2.592   1.972
 6108SOL    HW219224   1.116   2.538   1.947
 6109SOL     OW19225   4.831   3.066   6.727
 6109SOL    HW119226   4.813   3.080   6.630
 6109SOL    HW219227   4.847   2.969   6.745
 6110SOL     OW19228   3.595   2.761   6.838
 6110SOL    HW119229   3.603   2.842   6.780
 6110SOL    HW219230   3.525   2.777   6.908
 6111SOL     OW19231   2.348   4.416   2.351
 6111SOL    HW119232   2.412   4.397   2.425
 6111SOL    HW219233   2.302   4.331   2.325
 6112SOL     OW19234   3.150   0.252   3.364
 6112SOL    HW119235   3.105   0.162   3.362
 6112SOL    HW219236   3.248   0.240   3.378
 6113SOL     OW19237   1.364   0.992   6.081
 6113SOL    HW119238   1.308   1.070   6.109
 6113SOL    HW219239   1.432   0.972   6.151
 6114SOL     OW19240   4.697   5.159   0.853
 6114SOL    HW119241   4.766   5.151   0.925
 6114SOL    HW219242   4.612   5.116   0.883
 6115SOL     OW19243   5.098   0.018   3.626
 6115SOL    HW119244   5.044   6.953   3.610
 6115SOL    HW219245   5.113   0.065   3.538
 6116SOL     OW19246   3.099   0.677   0.328
 6116SOL    HW119247   3.008   0.669   0.287
 6116SOL    HW219248   3.158   0.729   0.267
 6117SOL     OW19249   0.000   0.620   5.751
 6117SOL    HW119250   0.034   0.714   5.758
 6117SOL    HW219251   6.967   0.609   5.666
 6118SOL     OW19252   6.174   0.533   1.826
 6118SOL    HW119253   6.252   0.502   1.772
 6118SOL    HW219254   6.141   0.458   1.883
 6119SOL     OW19255   0.540   3.526   5.381
 6119SOL    HW119256   0.521   3.570   5.469
 6119SOL    HW219257   0.630   3.556   5.348
 6120SOL     OW19258   4.269   6.764   4.143
 6120SOL    HW119259   4.221   6.740   4.227
 6120SOL    HW219260   4.366   6.780   4.163
 6121SOL     OW19261   0.660   3.431   4.997
 6121SOL    HW119262   0.563   3.456   5.006
 6121SOL    HW219263   0.707   3.448   5.084
 6122SOL     OW19264   3.946   0.055   1.421
 6122SOL    HW119265   3.978   0.041   1.515
 6122SOL    HW219266   3.948   0.153   1.400
 6123SOL     OW19267   0.014   0.409   6.522
 6123SOL    HW119268   6.998   0.353   6.597
 6123SOL    HW219269   6.975   0.490   6.513
 6124SOL     OW19270   2.087   1.547   0.124
 6124SOL    HW119271   2.000   1.506   0.151
 6124SOL    HW219272   2.069   1.623   0.062
 6125SOL     OW19273   2.231   5.952   0.350
 6125SOL    HW119274   2.208   5.958   0.253
 6125SOL    HW219275   2.148   5.960   0.405
 6126SOL     OW19276   6.927   6.497   4.285
 6126SOL    HW119277   6.850   6.435   4.267
 6126SOL    HW219278   6.964   6.529   4.198
 6127SOL     OW19279   2.723   0.138   2.425
 6127SOL    HW119280   2.805   0.109   2.374
 6127SOL    HW219281   2.745   0.143   2.522
 6128SOL     OW19282   6.194   3.530   0.796
 6128SOL    HW119283   6.255   3.554   0.721
 6128SOL    HW219284   6.247   3.492   0.872
 6129SOL     OW19285   6.388   3.621   2.834
 6129SOL    HW119286   6.433   3.569   2.906
 6129SOL    HW219287   6.290   3.601   2.834
 6130SOL     OW19288   6.360   2.156   4.131
 6130SOL    HW119289   6.276   2.199   4.097
 6130SOL    HW219290   6.416   2.127   4.053
 6131SOL     OW19291   0.102   1.709   5.175
 6131SOL    HW119292   0.077   1.792   5.224
 6131SOL    HW219293   0.102   1.631   5.237
 6132SOL     OW19294   5.111   1.226   0.355
 6132SOL    HW119295   5.186   1.218   0.420
 6132SOL    HW219296   5.026   1.242   0.405
 6133SOL     OW19297   1.060   2.236   2.552
 6133SOL    HW119298   1.038   2.259   2.456
 6133SOL    HW219299   1.115   2.153   2.554
 6134SOL     OW19300   4.035   4.351   6.437
 6134SOL    HW119301   4.005   4.334   6.343
 6134SOL    HW219302   3.983   4.292   6.499
 6135SOL     OW19303   0.278   0.228   1.740
 6135SOL    HW119304   0.316   0.311   1.699
 6135SOL    HW219305   0.345   0.188   1.803
 6136SOL     OW19306   1.191   2.886   2.017
 6136SOL    HW119307   1.162   2.795   2.046
 6136SOL    HW219308   1.114   2.934   1.976
 6137SOL     OW19309   5.645   2.117   3.797
 6137SOL    HW119310   5.613   2.210   3.817
 6137SOL    HW219311   5.719   2.122   3.730
 6138SOL     OW19312   4.554   6.244   1.855
 6138SOL    HW119313   4.650   6.264   1.837
 6138SOL    HW219314   4.540   6.145   1.850
 6139SOL     OW19315   2.062   1.847   5.658
 6139SOL    HW119316   2.052   1.944   5.636
 6139SOL    HW219317   2.136   1.837   5.726
 6140SOL     OW19318   0.758   6.223   1.741
 6140SOL    HW119319   0.702   6.140   1.743
 6140SOL    HW219320   0.737   6.275   1.658
 6141SOL     OW19321   5.788   5.812   6.374
 6141SOL    HW119322   5.696   5.778   6.394
 6141SOL    HW219323   5.783   5.879   6.300
 6142SOL     OW19324   7.004   5.007   1.032
 6142SOL    HW119325   0.040   4.926   1.054
 6142SOL    HW219326   6.908   4.992   1.054
 6143SOL     OW19327   6.055   4.903   0.706
 6143SOL    HW119328   6.046   4.815   0.659
 6143SOL    HW219329   6.087   4.972   0.641
 6144SOL     OW19330   6.370   4.765   2.866
 6144SOL    HW119331   6.271   4.780   2.861
 6144SOL    HW219332   6.395   4.690   2.806
 6145SOL     OW19333   4.538   5.507   4.148
 6145SOL    HW119334   4.620   5.550   4.109
 6145SOL    HW219335   4.544   5.408   4.138
 6146SOL     OW19336   3.820   0.501   3.728
 6146SOL    HW119337   3.902   0.531   3.680
 6146SOL    HW219338   3.752   0.469   3.662
 6147SOL     OW19339   1.498   3.770   4.525
 6147SOL    HW119340   1.508   3.868   4.512
 6147SOL    HW219341   1.588   3.727   4.529
 6148SOL     OW19342   0.115   6.867   4.854
 6148SOL    HW119343   0.130   6.965   4.843
 6148SOL    HW219344   0.022   6.844   4.822
 6149SOL     OW19345   3.838   5.118   1.735
 6149SOL    HW119346   3.919   5.176   1.727
 6149SOL    HW219347   3.762   5.173   1.770
 6150SOL     OW19348   4.116   4.647   6.631
 6150SOL    HW119349   4.118   4.638   6.730
 6150SOL    HW219350   4.090   4.559   6.590
 6151SOL     OW19351   6.229   3.737   5.626
 6151SOL    HW119352   6.177   3.791   5.692
 6151SOL    HW219353   6.167   3.695   5.560
 6152SOL     OW19354   5.712   5.726   5.402
 6152SOL    HW119355   5.718   5.778   5.488
 6152SOL    HW219356   5.803   5.720   5.361
 6153SOL     OW19357   4.924   3.892   2.041
 6153SOL    HW119358   4.881   3.823   1.982
 6153SOL    HW219359   4.991   3.848   2.101
 6154SOL     OW19360   5.758   1.458   2.621
 6154SOL    HW119361   5.850   1.460   2.660
 6154SOL    HW219362   5.726   1.551   2.605
 6155SOL     OW19363   1.693   2.282   4.309
 6155SOL    HW119364   1.643   2.367   4.324
 6155SOL    HW219365   1.777   2.301   4.259
 6156SOL     OW19366   4.653   4.829   2.059
 6156SOL    HW119367   4.590   4.807   1.985
 6156SOL    HW219368   4.604   4.827   2.147
 6157SOL     OW19369   1.366   1.466   4.401
 6157SOL    HW119370   1.346   1.426   4.491
 6157SOL    HW219371   1.445   1.421   4.362
 6158SOL     OW19372   4.496   0.782   5.792
 6158SOL    HW119373   4.431   0.717   5.832
 6158SOL    HW219374   4.546   0.828   5.865
 6159SOL     OW19375   4.733   1.953   1.532
 6159SOL    HW119376   4.702   1.891   1.604
 6159SOL    HW219377   4.741   1.903   1.446
 6160SOL     OW19378   4.465   6.770   6.375
 6160SOL    HW119379   4.543   6.777   6.438
 6160SOL    HW219380   4.471   6.842   6.307
 6161SOL     OW19381   5.982   1.183   5.072
 6161SOL    HW119382   5.904   1.245   5.080
 6161SOL    HW219383   6.011   1.178   4.976
 6162SOL     OW19384   1.482   6.238   3.584
 6162SOL    HW119385   1.465   6.256   3.487
 6162SOL    HW219386   1.437   6.308   3.639
 6163SOL     OW19387   5.542   6.091   1.486
 6163SOL    HW119388   5.612   6.130   1.426
 6163SOL    HW219389   5.586   6.054   1.568
 6164SOL     OW19390   2.898   2.683   1.745
 6164SOL    HW119391   2.827   2.655   1.681
 6164SOL    HW219392   2.926   2.605   1.800
 6165SOL     OW19393   4.999   0.182   6.598
 6165SOL    HW119394   4.940   0.157   6.521
 6165SOL    HW219395   4.976   0.275   6.628
 6166SOL     OW19396   4.067   0.878   6.312
 6166SOL    HW119397   4.112   0.905   6.227
 6166SOL    HW219398   3.978   0.837   6.292
 6167SOL     OW19399   0.923   3.834   3.235
 6167SOL    HW119400   0.968   3.923   3.231
 6167SOL    HW219401   0.955   3.783   3.315
 6168SOL     OW19402   0.519   3.683   1.224
 6168SOL    HW119403   0.532   3.698   1.126
 6168SOL    HW219404   0.553   3.763   1.275
 6169SOL     OW19405   1.549   2.989   1.263
 6169SOL    HW119406   1.642   2.997   1.298
 6169SOL    HW219407   1.485   3.025   1.331
 6170SOL     OW19408   1.114   3.681   5.459
 6170SOL    HW119409   1.117   3.700   5.361
 6170SOL    HW219410   1.079   3.761   5.508
 6171SOL     OW19411   0.451   2.704   0.553
 6171SOL    HW119412   0.457   2.631   0.484
 6171SOL    HW219413   0.543   2.728   0.583
 6172SOL     OW19414   1.316   3.115   2.474
 6172SOL    HW119415   1.298   3.071   2.562
 6172SOL    HW219416   1.333   3.045   2.404
 6173SOL     OW19417   6.604   4.918   2.877
 6173SOL    HW119418   6.507   4.894   2.885
 6173SOL    HW219419   6.660   4.852   2.927
 6174SOL     OW19420   5.347   6.066   3.893
 6174SOL    HW119421   5.379   6.082   3.987
 6174SOL    HW219422   5.261   6.015   3.896
 6175SOL     OW19423   4.048   0.646   3.949
 6175SOL    HW119424   4.045   0.590   3.866
 6175SOL    HW219425   4.090   0.593   4.023
 6176SOL     OW19426   5.708   4.282   5.557
 6176SOL    HW119427   5.699   4.286   5.458
 6176SOL    HW219428   5.652   4.206   5.593
 6177SOL     OW19429   5.421   1.645   2.038
 6177SOL    HW119430   5.513   1.611   2.019
 6177SOL    HW219431   5.383   1.687   1.955
 6178SOL     OW19432   5.386   5.106   2.105
 6178SOL    HW119433   5.475   5.133   2.143
 6178SOL    HW219434   5.389   5.010   2.077
 6179SOL     OW19435   6.880   4.148   3.039
 6179SOL    HW119436   6.875   4.214   3.114
 6179SOL    HW219437   6.975   4.119   3.027
 6180SOL     OW19438   2.617   4.634   0.969
 6180SOL    HW119439   2.711   4.668   0.966
 6180SOL    HW219440   2.554   4.709   0.951
 6181SOL     OW19441   4.767   6.326   5.987
 6181SOL    HW119442   4.860   6.363   5.974
 6181SOL    HW219443   4.753   6.248   5.926
 6182SOL     OW19444   4.238   3.067   5.987
 6182SOL    HW119445   4.150   3.069   6.034
 6182SOL    HW219446   4.229   3.017   5.901
 6183SOL     OW19447   1.792   2.167   3.619
 6183SOL    HW119448   1.854   2.168   3.697
 6183SOL    HW219449   1.827   2.229   3.548
 6184SOL     OW19450   3.030   6.401   6.322
 6184SOL    HW119451   3.022   6.494   6.360
 6184SOL    HW219452   3.029   6.405   6.223
 6185SOL     OW19453   0.317   3.715   6.715
 6185SOL    HW119454   0.417   3.717   6.705
 6185SOL    HW219455   0.290   3.777   6.789
 6186SOL     OW19456   5.977   1.449   0.653
 6186SOL    HW119457   6.066   1.481   0.685
 6186SOL    HW219458   5.954   1.363   0.699
 6187SOL     OW19459   5.093   2.937   4.161
 6187SOL    HW119460   5.155   2.902   4.232
 6187SOL    HW219461   5.095   2.876   4.082
 6188SOL     OW19462   1.816   1.400   5.983
 6188SOL    HW119463   1.841   1.320   6.038
 6188SOL    HW219464   1.817   1.482   6.041
 6189SOL     OW19465   4.223   5.188   2.741
 6189SOL    HW119466   4.167   5.160   2.819
 6189SOL    HW219467   4.205   5.128   2.664
 6190SOL     OW19468   0.086   4.193   4.667
 6190SOL    HW119469   0.146   4.192   4.587
 6190SOL    HW219470   0.019   4.120   4.659
 6191SOL     OW19471   2.837   2.927   6.404
 6191SOL    HW119472   2.926   2.973   6.404
 6191SOL    HW219473   2.817   2.894   6.312
 6192SOL     OW19474   2.400   1.890   6.481
 6192SOL    HW119475   2.430   1.951   6.408
 6192SOL    HW219476   2.308   1.916   6.511
 6193SOL     OW19477   4.661   5.977   1.234
 6193SOL    HW119478   4.620   6.022   1.313
 6193SOL    HW219479   4.646   5.879   1.239
 6194SOL     OW19480   0.164   0.457   6.262
 6194SOL    HW119481   0.193   0.392   6.191
 6194SOL    HW219482   0.119   0.407   6.336
 6195SOL     OW19483   5.063   5.730   4.208
 6195SOL    HW119484   5.098   5.766   4.294
 6195SOL    HW219485   4.976   5.683   4.223
 6196SOL     OW19486   5.023   4.178   2.194
 6196SOL    HW119487   4.968   4.095   2.205
 6196SOL    HW219488   5.091   4.164   2.122
 6197SOL     OW19489   2.322   5.568   1.673
 6197SOL    HW119490   2.317   5.599   1.578
 6197SOL    HW219491   2.229   5.557   1.709
 6198SOL     OW19492   4.670   0.043   0.903
 6198SOL    HW119493   4.638   0.132   0.934
 6198SOL    HW219494   4.755   0.020   0.950
 6199SOL     OW19495   0.441   0.851   0.366
 6199SOL    HW119496   0.480   0.903   0.442
 6199SOL    HW219497   0.360   0.898   0.331
 6200SOL     OW19498   0.728   1.636   5.461
 6200SOL    HW119499   0.674   1.717   5.482
 6200SOL    HW219500   0.682   1.555   5.495
 6201SOL     OW19501   0.739   3.352   5.541
 6201SOL    HW119502   0.646   3.375   5.511
 6201SOL    HW219503   0.800   3.429   5.526
 6202SOL     OW19504   5.066   1.055   2.078
 6202SOL    HW119505   5.087   1.004   1.994
 6202SOL    HW219506   5.134   1.033   2.148
 6203SOL     OW19507   6.015   5.927   2.105
 6203SOL    HW119508   6.009   5.978   2.191
 6203SOL    HW219509   6.108   5.890   2.095
 6204SOL     OW19510   1.136   5.849   4.733
 6204SOL    HW119511   1.189   5.933   4.725
 6204SOL    HW219512   1.157   5.804   4.820
 6205SOL     OW19513   6.343   5.026   1.491
 6205SOL    HW119514   6.290   4.976   1.559
 6205SOL    HW219515   6.306   5.118   1.481
 6206SOL     OW19516   6.295   1.662   2.392
 6206SOL    HW119517   6.305   1.611   2.307
 6206SOL    HW219518   6.217   1.628   2.443
 6207SOL     OW19519   2.418   6.011   5.403
 6207SOL    HW119520   2.454   6.040   5.314
 6207SOL    HW219521   2.452   5.920   5.425
 6208SOL     OW19522   3.737   2.350   5.331
 6208SOL    HW119523   3.762   2.307   5.418
 6208SOL    HW219524   3.701   2.281   5.268
 6209SOL     OW19525   3.092   5.713   6.635
 6209SOL    HW119526   3.183   5.694   6.598
 6209SOL    HW219527   3.068   5.808   6.615
 6210SOL     OW19528   4.858   3.781   2.754
 6210SOL    HW119529   4.853   3.861   2.815
 6210SOL    HW219530   4.793   3.712   2.785
 6211SOL     OW19531   2.967   6.532   5.357
 6211SOL    HW119532   2.932   6.447   5.396
 6211SOL    HW219533   3.055   6.555   5.401
 6212SOL     OW19534   2.439   4.827   4.088
 6212SOL    HW119535   2.494   4.879   4.023
 6212SOL    HW219536   2.368   4.777   4.038
 6213SOL     OW19537   4.557   6.793   6.999
 6213SOL    HW119538   4.654   6.770   6.999
 6213SOL    HW219539   4.506   6.726   0.035
 6214SOL     OW19540   5.538   6.001   5.598
 6214SOL    HW119541   5.555   5.913   5.642
 6214SOL    HW219542   5.442   6.027   5.610
 6215SOL     OW19543   3.603   2.978   6.695
 6215SOL    HW119544   3.596   2.948   6.600
 6215SOL    HW219545   3.591   3.077   6.700
 6216SOL     OW19546   6.070   2.216   2.260
 6216SOL    HW119547   6.027   2.171   2.338
 6216SOL    HW219548   6.063   2.156   2.179
 6217SOL     OW19549   1.039   4.391   3.116
 6217SOL    HW119550   0.974   4.319   3.091
 6217SOL    HW219551   1.129   4.370   3.078
 6218SOL     OW19552   3.704   0.073   6.923
 6218SOL    HW119553   3.699   0.026   6.836
 6218SOL    HW219554   3.663   0.016   6.995
 6219SOL     OW19555   1.214   1.212   4.549
 6219SOL    HW119556   1.133   1.221   4.490
 6219SOL    HW219557   1.243   1.116   4.551
 6220SOL     OW19558   3.077   1.170   5.393
 6220SOL    HW119559   3.144   1.180   5.319
 6220SOL    HW219560   2.991   1.138   5.355
 6221SOL     OW19561   6.015   0.248   0.136
 6221SOL    HW119562   6.053   0.183   0.071
 6221SOL    HW219563   6.066   0.243   0.222
 6222SOL     OW19564   0.739   0.818   2.434
 6222SOL    HW119565   0.709   0.814   2.339
 6222SOL    HW219566   0.802   0.742   2.452
 6223SOL     OW19567   1.526   5.159   3.058
 6223SOL    HW119568   1.478   5.075   3.033
 6223SOL    HW219569   1.461   5.225   3.097
 6224SOL     OW19570   3.766   0.990   5.801
 6224SOL    HW119571   3.717   1.053   5.741
 6224SOL    HW219572   3.858   0.974   5.765
 6225SOL     OW19573   3.615   2.495   6.722
 6225SOL    HW119574   3.657   2.569   6.775
 6225SOL    HW219575   3.611   2.521   6.625
 6226SOL     OW19576   1.257   1.641   4.048
 6226SOL    HW119577   1.354   1.659   4.032
 6226SOL    HW219578   1.245   1.597   4.137
 6227SOL     OW19579   3.681   5.321   5.338
 6227SOL    HW119580   3.620   5.275   5.272
 6227SOL    HW219581   3.775   5.290   5.323
 6228SOL     OW19582   0.901   2.483   2.569
 6228SOL    HW119583   0.950   2.400   2.597
 6228SOL    HW219584   0.967   2.555   2.549
 6229SOL     OW19585   0.656   3.154   4.958
 6229SOL    HW119586   0.738   3.136   5.011
 6229SOL    HW219587   0.635   3.252   4.961
 6230SOL     OW19588   1.006   2.296   3.579
 6230SOL    HW119589   1.044   2.224   3.637
 6230SOL    HW219590   1.077   2.361   3.555
 6231SOL     OW19591   5.643   4.886   0.243
 6231SOL    HW119592   5.628   4.895   0.341
 6231SOL    HW219593   5.717   4.820   0.226
 6232SOL     OW19594   6.264   1.611   0.229
 6232SOL    HW119595   6.218   1.535   0.183
 6232SOL    HW219596   6.273   1.590   0.326
 6233SOL     OW19597   5.937   2.602   1.875
 6233SOL    HW119598   5.878   2.609   1.794
 6233SOL    HW219599   6.030   2.582   1.846
 6234SOL     OW19600   0.204   0.006   5.487
 6234SOL    HW119601   0.176   0.101   5.478
 6234SOL    HW219602   0.130   6.971   5.530
 6235SOL     OW19603   0.358   0.503   1.640
 6235SOL    HW119604   0.336   0.576   1.574
 6235SOL    HW219605   0.336   0.535   1.732
 6236SOL     OW19606   0.218   4.643   0.871
 6236SOL    HW119607   0.135   4.674   0.918
 6236SOL    HW219608   0.247   4.555   0.909
 6237SOL     OW19609   3.860   0.292   6.975
 6237SOL    HW119610   3.800   0.352   0.010
 6237SOL    HW219611   3.809   0.211   6.945
 6238SOL     OW19612   4.556   6.434   3.002
 6238SOL    HW119613   4.488   6.479   3.059
 6238SOL    HW219614   4.647   6.448   3.041
 6239SOL     OW19615   4.116   0.870   0.916
 6239SOL    HW119616   4.059   0.794   0.946
 6239SOL    HW219617   4.115   0.876   0.817
 6240SOL     OW19618   3.319   3.473   5.549
 6240SOL    HW119619   3.293   3.557   5.597
 6240SOL    HW219620   3.416   3.478   5.524
 6241SOL     OW19621   3.829   0.657   3.327
 6241SOL    HW119622   3.754   0.653   3.393
 6241SOL    HW219623   3.798   0.620   3.239
 6242SOL     OW19624   3.580   0.142   3.009
 6242SOL    HW119625   3.617   0.070   3.069
 6242SOL    HW219626   3.578   0.109   2.915
 6243SOL     OW19627   6.852   6.985   6.292
 6243SOL    HW119628   6.873   6.939   6.205
 6243SOL    HW219629   6.754   6.977   6.311
 6244SOL     OW19630   5.181   3.617   3.348
 6244SOL    HW119631   5.153   3.541   3.290
 6244SOL    HW219632   5.209   3.582   3.438
 6245SOL     OW19633   1.398   4.015   1.734
 6245SOL    HW119634   1.487   4.025   1.778
 6245SOL    HW219635   1.344   4.098   1.749
 6246SOL     OW19636   1.257   1.069   4.865
 6246SOL    HW119637   1.261   1.108   4.957
 6246SOL    HW219638   1.331   1.108   4.810
 6247SOL     OW19639   1.766   6.320   3.549
 6247SOL    HW119640   1.705   6.319   3.628
 6247SOL    HW219641   1.779   6.226   3.516
 6248SOL     OW19642   3.533   3.841   0.179
 6248SOL    HW119643   3.507   3.747   0.156
 6248SOL    HW219644   3.615   3.840   0.237
 6249SOL     OW19645   6.823   3.209   0.963
 6249SOL    HW119646   6.872   3.219   0.877
 6249SOL    HW219647   6.734   3.166   0.946
 6250SOL     OW19648   6.564   6.839   0.915
 6250SOL    HW119649   6.547   6.931   0.951
 6250SOL    HW219650   6.511   6.826   0.831
 6251SOL     OW19651   4.128   6.003   4.798
 6251SOL    HW119652   4.030   6.002   4.777
 6251SOL    HW219653   4.167   6.092   4.772
 6252SOL     OW19654   2.611   4.435   6.796
 6252SOL    HW119655   2.638   4.410   6.703
 6252SOL    HW219656   2.586   4.352   6.846
 6253SOL     OW19657   2.391   4.901   4.348
 6253SOL    HW119658   2.338   4.983   4.327
 6253SOL    HW219659   2.448   4.877   4.270
 6254SOL     OW19660   6.513   0.203   0.860
 6254SOL    HW119661   6.601   0.180   0.902
 6254SOL    HW219662   6.511   0.300   0.837
 6255SOL     OW19663   2.206   1.604   0.790
 6255SOL    HW119664   2.175   1.566   0.703
 6255SOL    HW219665   2.133   1.660   0.830
 6256SOL     OW19666   4.463   5.398   2.395
 6256SOL    HW119667   4.392   5.404   2.466
 6256SOL    HW219668   4.513   5.311   2.406
 6257SOL     OW19669   4.085   2.978   0.138
 6257SOL    HW119670   4.045   2.897   0.180
 6257SOL    HW219671   4.022   3.056   0.149
 6258SOL     OW19672   3.279   6.715   4.829
 6258SOL    HW119673   3.272   6.783   4.903
 6258SOL    HW219674   3.275   6.623   4.868
 6259SOL     OW19675   2.130   0.894   6.337
 6259SOL    HW119676   2.164   0.858   6.250
 6259SOL    HW219677   2.069   0.827   6.378
 6260SOL     OW19678   3.407   0.085   0.270
 6260SOL    HW119679   3.465   0.007   0.249
 6260SOL    HW219680   3.463   0.161   0.303
 6261SOL     OW19681   4.686   6.837   0.589
 6261SOL    HW119682   4.775   6.880   0.605
 6261SOL    HW219683   4.638   6.827   0.676
 6262SOL     OW19684   1.621   6.043   2.482
 6262SOL    HW119685   1.689   5.969   2.488
 6262SOL    HW219686   1.669   6.131   2.482
 6263SOL     OW19687   0.860   6.584   5.111
 6263SOL    HW119688   0.884   6.644   5.034
 6263SOL    HW219689   0.802   6.634   5.175
 6264SOL     OW19690   2.127   0.389   1.546
 6264SOL    HW119691   2.042   0.352   1.507
 6264SOL    HW219692   2.203   0.369   1.484
 6265SOL     OW19693   4.481   3.308   0.567
 6265SOL    HW119694   4.522   3.377   0.508
 6265SOL    HW219695   4.475   3.221   0.518
 6266SOL     OW19696   4.411   6.577   3.177
 6266SOL    HW119697   4.486   6.618   3.228
 6266SOL    HW219698   4.335   6.642   3.170
 6267SOL     OW19699   2.049   0.050   4.497
 6267SOL    HW119700   2.112   6.990   4.505
 6267SOL    HW219701   2.092   0.132   4.536
 6268SOL     OW19702   3.102   0.666   1.807
 6268SOL    HW119703   3.159   0.695   1.884
 6268SOL    HW219704   3.154   0.603   1.750
 6269SOL     OW19705   6.301   6.936   2.335
 6269SOL    HW119706   6.353   6.857   2.369
 6269SOL    HW219707   6.220   6.905   2.286
 6270SOL     OW19708   0.600   0.163   6.916
 6270SOL    HW119709   0.564   0.070   6.926
 6270SOL    HW219710   0.700   0.160   6.922
 6271SOL     OW19711   6.380   2.412   6.169
 6271SOL    HW119712   6.343   2.475   6.101
 6271SOL    HW219713   6.459   2.364   6.130
 6272SOL     OW19714   0.666   1.642   0.443
 6272SOL    HW119715   0.714   1.618   0.528
 6272SOL    HW219716   0.703   1.587   0.368
 6273SOL     OW19717   0.176   5.563   3.004
 6273SOL    HW119718   0.138   5.471   3.021
 6273SOL    HW219719   0.232   5.591   3.081
 6274SOL     OW19720   3.143   6.927   4.562
 6274SOL    HW119721   3.105   6.854   4.619
 6274SOL    HW219722   3.190   6.887   4.484
 6275SOL     OW19723   1.839   6.064   0.741
 6275SOL    HW119724   1.830   6.078   0.839
 6275SOL    HW219725   1.856   6.152   0.696
 6276SOL     OW19726   3.051   5.361   3.560
 6276SOL    HW119727   3.032   5.389   3.654
 6276SOL    HW219728   2.977   5.390   3.500
 6277SOL     OW19729   4.893   2.292   1.184
 6277SOL    HW119730   4.800   2.325   1.166
 6277SOL    HW219731   4.897   2.193   1.165
 6278SOL     OW19732   3.885   0.641   4.901
 6278SOL    HW119733   3.881   0.635   4.801
 6278SOL    HW219734   3.966   0.594   4.934
 6279SOL     OW19735   4.183   6.008   0.804
 6279SOL    HW119736   4.121   5.999   0.726
 6279SOL    HW219737   4.152   5.950   0.879
 6280SOL     OW19738   0.278   1.576   6.564
 6280SOL    HW119739   0.232   1.663   6.580
 6280SOL    HW219740   0.235   1.505   6.619
 6281SOL     OW19741   6.510   4.802   3.908
 6281SOL    HW119742   6.442   4.771   3.842
 6281SOL    HW219743   6.466   4.855   3.980
 6282SOL     OW19744   5.753   2.896   4.916
 6282SOL    HW119745   5.816   2.834   4.870
 6282SOL    HW219746   5.796   2.986   4.925
 6283SOL     OW19747   0.834   4.285   4.410
 6283SOL    HW119748   0.777   4.204   4.424
 6283SOL    HW219749   0.788   4.348   4.348
 6284SOL     OW19750   1.406   5.384   6.794
 6284SOL    HW119751   1.436   5.364   6.700
 6284SOL    HW219752   1.481   5.427   6.844
 6285SOL     OW19753   0.663   3.083   3.226
 6285SOL    HW119754   0.680   3.094   3.324
 6285SOL    HW219755   0.710   3.001   3.193
 6286SOL     OW19756   0.708   3.241   4.381
 6286SOL    HW119757   0.782   3.254   4.315
 6286SOL    HW219758   0.649   3.322   4.382
 6287SOL     OW19759   3.515   5.130   5.201
 6287SOL    HW119760   3.467   5.119   5.288
 6287SOL    HW219761   3.449   5.156   5.130
 6288SOL     OW19762   5.197   4.651   1.569
 6288SOL    HW119763   5.280   4.606   1.535
 6288SOL    HW219764   5.144   4.586   1.623
 6289SOL     OW19765   2.304   4.824   6.409
 6289SOL    HW119766   2.234   4.889   6.377
 6289SOL    HW219767   2.377   4.874   6.456
 6290SOL     OW19768   5.971   5.485   6.221
 6290SOL    HW119769   5.882   5.520   6.192
 6290SOL    HW219770   5.967   5.461   6.318
 6291SOL     OW19771   3.316   3.691   3.449
 6291SOL    HW119772   3.389   3.701   3.517
 6291SOL    HW219773   3.290   3.595   3.441
 6292SOL     OW19774   2.543   2.088   5.360
 6292SOL    HW119775   2.524   2.154   5.287
 6292SOL    HW219776   2.587   2.008   5.321
 6293SOL     OW19777   4.479   1.819   0.744
 6293SOL    HW119778   4.489   1.727   0.705
 6293SOL    HW219779   4.425   1.875   0.681
 6294SOL     OW19780   4.401   0.177   3.598
 6294SOL    HW119781   4.313   0.166   3.646
 6294SOL    HW219782   4.438   0.268   3.618
 6295SOL     OW19783   5.361   5.040   4.622
 6295SOL    HW119784   5.378   4.966   4.689
 6295SOL    HW219785   5.443   5.096   4.614
 6296SOL     OW19786   0.247   4.424   5.191
 6296SOL    HW119787   0.316   4.474   5.138
 6296SOL    HW219788   0.285   4.400   5.280
 6297SOL     OW19789   6.242   0.516   5.254
 6297SOL    HW119790   6.222   0.448   5.185
 6297SOL    HW219791   6.337   0.547   5.245
 6298SOL     OW19792   6.873   3.826   6.165
 6298SOL    HW119793   6.945   3.774   6.121
 6298SOL    HW219794   6.892   3.924   6.156
 6299SOL     OW19795   5.477   2.597   1.828
 6299SOL    HW119796   5.576   2.589   1.814
 6299SOL    HW219797   5.453   2.693   1.840
 6300SOL     OW19798   6.180   0.636   6.636
 6300SOL    HW119799   6.253   0.571   6.657
 6300SOL    HW219800   6.121   0.647   6.716
 6301SOL     OW19801   2.766   6.002   6.414
 6301SOL    HW119802   2.830   6.078   6.405
 6301SOL    HW219803   2.674   6.037   6.430
 6302SOL     OW19804   2.055   1.346   5.533
 6302SOL    HW119805   2.032   1.443   5.537
 6302SOL    HW219806   2.072   1.313   5.626
 6303SOL     OW19807   0.539   6.339   6.037
 6303SOL    HW119808   0.572   6.420   5.988
 6303SOL    HW219809   0.521   6.362   6.132
 6304SOL     OW19810   3.599   1.365   3.341
 6304SOL    HW119811   3.513   1.389   3.385
 6304SOL    HW219812   3.674   1.415   3.384
 6305SOL     OW19813   5.839   6.200   0.600
 6305SOL    HW119814   5.839   6.294   0.635
 6305SOL    HW219815   5.933   6.167   0.595
 6306SOL     OW19816   0.565   3.727   4.099
 6306SOL    HW119817   0.491   3.778   4.143
 6306SOL    HW219818   0.606   3.783   4.027
 6307SOL     OW19819   3.524   2.915   3.752
 6307SOL    HW119820   3.444   2.918   3.812
 6307SOL    HW219821   3.601   2.960   3.797
 6308SOL     OW19822   1.228   2.042   5.764
 6308SOL    HW119823   1.271   1.959   5.729
 6308SOL    HW219824   1.213   2.106   5.689
 6309SOL     OW19825   0.152   6.798   3.971
 6309SOL    HW119826   0.198   6.869   4.024
 6309SOL    HW219827   0.220   6.735   3.933
 6310SOL     OW19828   2.352   6.659   2.527
 6310SOL    HW119829   2.350   6.746   2.477
 6310SOL    HW219830   2.302   6.669   2.613
 6311SOL     OW19831   5.003   1.930   6.174
 6311SOL    HW119832   4.918   1.879   6.182
 6311SOL    HW219833   5.075   1.870   6.141
 6312SOL     OW19834   0.895   6.362   5.938
 6312SOL    HW119835   0.933   6.373   6.029
 6312SOL    HW219836   0.879   6.265   5.920
 6313SOL     OW19837   6.285   6.977   2.724
 6313SOL    HW119838   6.253   0.017   2.649
 6313SOL    HW219839   6.296   0.014   2.807
 6314SOL     OW19840   3.092   6.929   2.010
 6314SOL    HW119841   3.044   6.937   1.923
 6314SOL    HW219842   3.190   6.917   1.994
 6315SOL     OW19843   2.764   1.917   4.717
 6315SOL    HW119844   2.813   1.830   4.709
 6315SOL    HW219845   2.667   1.903   4.697
 6316SOL     OW19846   4.655   2.086   5.344
 6316SOL    HW119847   4.563   2.049   5.357
 6316SOL    HW219848   4.649   2.185   5.332
 6317SOL     OW19849   4.890   3.657   2.406
 6317SOL    HW119850   4.922   3.735   2.460
 6317SOL    HW219851   4.945   3.651   2.322
 6318SOL     OW19852   4.444   6.968   6.186
 6318SOL    HW119853   4.480   0.032   6.231
 6318SOL    HW219854   4.350   6.983   6.158
 6319SOL     OW19855   6.821   2.070   5.226
 6319SOL    HW119856   6.728   2.095   5.253
 6319SOL    HW219857   6.834   2.089   5.128
 6320SOL     OW19858   6.980   6.541   4.753
 6320SOL    HW119859   0.050   6.584   4.773
 6320SOL    HW219860   6.923   6.605   4.701
 6321SOL     OW19861   4.926   3.297   0.445
 6321SOL    HW119862   4.914   3.199   0.427
 6321SOL    HW219863   4.980   3.338   0.371
 6322SOL     OW19864   2.816   2.794   0.495
 6322SOL    HW119865   2.825   2.764   0.589
 6322SOL    HW219866   2.730   2.846   0.484
 6323SOL     OW19867   1.340   1.987   1.531
 6323SOL    HW119868   1.419   1.943   1.489
 6323SOL    HW219869   1.340   2.084   1.509
 6324SOL     OW19870   4.211   1.742   0.425
 6324SOL    HW119871   4.175   1.822   0.378
 6324SOL    HW219872   4.138   1.698   0.477
 6325SOL     OW19873   2.051   3.095   2.875
 6325SOL    HW119874   2.031   2.997   2.883
 6325SOL    HW219875   2.100   3.112   2.789
 6326SOL     OW19876   5.700   5.238   6.770
 6326SOL    HW119877   5.773   5.215   6.833
 6326SOL    HW219878   5.646   5.313   6.808
 6327SOL     OW19879   0.233   1.756   4.135
 6327SOL    HW119880   0.202   1.697   4.061
 6327SOL    HW219881   0.332   1.768   4.129
 6328SOL     OW19882   4.047   3.259   6.916
 6328SOL    HW119883   4.115   3.212   6.859
 6328SOL    HW219884   3.994   3.321   6.860
 6329SOL     OW19885   1.314   2.913   5.335
 6329SOL    HW119886   1.323   3.007   5.299
 6329SOL    HW219887   1.343   2.911   5.430
 6330SOL     OW19888   5.897   6.709   1.700
 6330SOL    HW119889   5.948   6.790   1.728
 6330SOL    HW219890   5.802   6.735   1.680
 6331SOL     OW19891   6.573   3.657   4.984
 6331SOL    HW119892   6.553   3.573   5.035
 6331SOL    HW219893   6.543   3.646   4.889
 6332SOL     OW19894   0.856   3.155   1.117
 6332SOL    HW119895   0.854   3.121   1.211
 6332SOL    HW219896   0.903   3.244   1.115
 6333SOL     OW19897   4.428   0.248   5.604
 6333SOL    HW119898   4.411   0.257   5.702
 6333SOL    HW219899   4.450   0.153   5.582
 6334SOL     OW19900   3.085   1.258   2.414
 6334SOL    HW119901   3.163   1.285   2.358
 6334SOL    HW219902   3.056   1.335   2.471
 6335SOL     OW19903   4.238   0.816   0.129
 6335SOL    HW119904   4.256   0.720   0.110
 6335SOL    HW219905   4.140   0.833   0.124
 6336SOL     OW19906   0.602   2.998   6.529
 6336SOL    HW119907   0.594   3.045   6.441
 6336SOL    HW219908   0.558   3.053   6.600
 6337SOL     OW19909   3.914   5.480   4.765
 6337SOL    HW119910   3.909   5.512   4.670
 6337SOL    HW219911   3.959   5.549   4.821
 6338SOL     OW19912   2.972   2.281   4.277
 6338SOL    HW119913   2.905   2.272   4.350
 6338SOL    HW219914   3.057   2.235   4.304
 6339SOL     OW19915   0.924   3.730   3.898
 6339SOL    HW119916   0.955   3.732   3.993
 6339SOL    HW219917   0.941   3.640   3.859
 6340SOL     OW19918   2.436   4.185   1.366
 6340SOL    HW119919   2.342   4.169   1.336
 6340SOL    HW219920   2.495   4.111   1.334
 6341SOL     OW19921   0.020   3.653   4.276
 6341SOL    HW119922   6.947   3.688   4.252
 6341SOL    HW219923   0.087   3.727   4.270
 6342SOL     OW19924   3.472   1.620   0.761
 6342SOL    HW119925   3.475   1.529   0.720
 6342SOL    HW219926   3.438   1.685   0.693
 6343SOL     OW19927   3.968   0.156   6.699
 6343SOL    HW119928   4.066   0.169   6.713
 6343SOL    HW219929   3.947   0.171   6.602
 6344SOL     OW19930   5.688   1.819   4.252
 6344SOL    HW119931   5.646   1.910   4.255
 6344SOL    HW219932   5.699   1.790   4.157
 6345SOL     OW19933   4.582   2.787   1.737
 6345SOL    HW119934   4.508   2.720   1.734
 6345SOL    HW219935   4.543   2.879   1.747
 6346SOL     OW19936   0.015   5.125   4.733
 6346SOL    HW119937   0.039   5.163   4.822
 6346SOL    HW219938   0.043   5.188   4.661
 6347SOL     OW19939   2.046   1.471   1.124
 6347SOL    HW119940   1.989   1.538   1.076
 6347SOL    HW219941   2.056   1.499   1.219
 6348SOL     OW19942   1.092   3.126   6.069
 6348SOL    HW119943   1.040   3.208   6.092
 6348SOL    HW219944   1.050   3.080   5.991
 6349SOL     OW19945   1.820   0.609   0.673
 6349SOL    HW119946   1.870   0.590   0.757
 6349SOL    HW219947   1.723   0.585   0.686
 6350SOL     OW19948   0.768   4.943   3.542
 6350SOL    HW119949   0.826   4.960   3.463
 6350SOL    HW219950   0.674   4.926   3.512
 6351SOL     OW19951   6.410   3.678   3.348
 6351SOL    HW119952   6.468   3.691   3.429
 6351SOL    HW219953   6.364   3.590   3.353
 6352SOL     OW19954   2.434   0.539   4.732
 6352SOL    HW119955   2.516   0.496   4.692
 6352SOL    HW219956   2.364   0.549   4.661
 6353SOL     OW19957   2.024   6.540   0.012
 6353SOL    HW119958   2.028   6.498   6.939
 6353SOL    HW219959   2.117   6.553   0.047
 6354SOL     OW19960   3.592   6.100   3.032
 6354SOL    HW119961   3.517   6.166   3.033
 6354SOL    HW219962   3.675   6.145   2.996
 6355SOL     OW19963   2.921   5.563   0.201
 6355SOL    HW119964   2.956   5.630   0.136
 6355SOL    HW219965   2.953   5.586   0.293
 6356SOL     OW19966   5.516   4.877   0.512
 6356SOL    HW119967   5.430   4.836   0.482
 6356SOL    HW219968   5.562   4.815   0.576
 6357SOL     OW19969   6.345   2.592   2.335
 6357SOL    HW119970   6.419   2.561   2.275
 6357SOL    HW219971   6.281   2.647   2.282
 6358SOL     OW19972   0.097   1.783   6.556
 6358SOL    HW119973   0.002   1.776   6.526
 6358SOL    HW219974   0.135   1.869   6.524
 6359SOL     OW19975   6.217   6.624   0.749
 6359SOL    HW119976   6.302   6.632   0.802
 6359SOL    HW219977   6.144   6.594   0.810
 6360SOL     OW19978   1.077   3.437   4.466
 6360SOL    HW119979   1.144   3.510   4.479
 6360SOL    HW219980   1.077   3.376   4.545
 6361SOL     OW19981   1.248   0.933   0.962
 6361SOL    HW119982   1.240   0.924   1.062
 6361SOL    HW219983   1.298   1.017   0.941
 6362SOL     OW19984   1.290   5.917   6.560
 6362SOL    HW119985   1.362   5.870   6.612
 6362SOL    HW219986   1.328   5.951   6.474
 6363SOL     OW19987   3.102   5.421   4.144
 6363SOL    HW119988   3.110   5.496   4.079
 6363SOL    HW219989   3.007   5.415   4.177
 6364SOL     OW19990   2.821   2.770   5.377
 6364SOL    HW119991   2.795   2.685   5.331
 6364SOL    HW219992   2.747   2.801   5.437
 6365SOL     OW19993   5.537   6.539   4.208
 6365SOL    HW119994   5.460   6.566   4.149
 6365SOL    HW219995   5.621   6.534   4.154
 6366SOL     OW19996   0.466   5.666   5.352
 6366SOL    HW119997   0.401   5.596   5.321
 6366SOL    HW219998   0.427   5.715   5.430
 6367SOL     OW19999   3.248   2.135   2.734
 6367SOL    HW120000   3.191   2.120   2.653
 6367SOL    HW220001   3.344   2.129   2.709
 6368SOL     OW20002   4.322   4.794   4.533
 6368SOL    HW120003   4.320   4.796   4.633
 6368SOL    HW220004   4.239   4.751   4.498
 6369SOL     OW20005   1.883   0.439   4.482
 6369SOL    HW120006   1.814   0.500   4.522
 6369SOL    HW220007   1.943   0.405   4.554
 6370SOL     OW20008   5.283   4.258   3.445
 6370SOL    HW120009   5.370   4.299   3.419
 6370SOL    HW220010   5.213   4.283   3.377
 6371SOL     OW20011   5.330   4.228   2.378
 6371SOL    HW120012   5.263   4.219   2.451
 6371SOL    HW220013   5.307   4.308   2.322
 6372SOL     OW20014   1.192   1.486   2.332
 6372SOL    HW120015   1.221   1.401   2.378
 6372SOL    HW220016   1.095   1.479   2.308
 6373SOL     OW20017   5.699   4.449   2.770
 6373SOL    HW120018   5.748   4.363   2.788
 6373SOL    HW220019   5.642   4.439   2.689
 6374SOL     OW20020   4.742   3.484   1.323
 6374SOL    HW120021   4.688   3.548   1.268
 6374SOL    HW220022   4.723   3.391   1.293
 6375SOL     OW20023   0.430   2.201   2.000
 6375SOL    HW120024   0.517   2.153   2.004
 6375SOL    HW220025   0.441   2.287   1.950
 6376SOL     OW20026   3.956   1.523   6.135
 6376SOL    HW120027   3.990   1.568   6.053
 6376SOL    HW220028   3.926   1.430   6.113
 6377SOL     OW20029   0.097   1.790   5.527
 6377SOL    HW120030   0.021   1.834   5.479
 6377SOL    HW220031   0.132   1.852   5.596
 6378SOL     OW20032   5.623   5.340   3.483
 6378SOL    HW120033   5.572   5.282   3.546
 6378SOL    HW220034   5.721   5.328   3.499
 6379SOL     OW20035   0.632   4.866   5.891
 6379SOL    HW120036   0.572   4.811   5.949
 6379SOL    HW220037   0.694   4.805   5.841
 6380SOL     OW20038   6.716   2.332   4.654
 6380SOL    HW120039   6.756   2.399   4.591
 6380SOL    HW220040   6.729   2.364   4.748
 6381SOL     OW20041   4.049   2.834   0.570
 6381SOL    HW120042   4.074   2.836   0.667
 6381SOL    HW220043   4.127   2.866   0.516
 6382SOL     OW20044   3.384   1.815   1.089
 6382SOL    HW120045   3.427   1.820   0.999
 6382SOL    HW220046   3.409   1.895   1.142
 6383SOL     OW20047   1.853   3.155   2.242
 6383SOL    HW120048   1.782   3.174   2.175
 6383SOL    HW220049   1.919   3.090   2.203
 6384SOL     OW20050   5.738   3.193   2.377
 6384SOL    HW120051   5.728   3.213   2.474
 6384SOL    HW220052   5.731   3.277   2.324
 6385SOL     OW20053   6.461   4.169   2.496
 6385SOL    HW120054   6.543   4.113   2.483
 6385SOL    HW220055   6.389   4.114   2.537
 6386SOL     OW20056   1.885   3.369   6.738
 6386SOL    HW120057   1.847   3.278   6.722
 6386SOL    HW220058   1.812   3.432   6.761
 6387SOL     OW20059   5.922   1.599   0.049
 6387SOL    HW120060   5.917   1.565   0.143
 6387SOL    HW220061   6.015   1.588   0.014
 6388SOL     OW20062   5.787   5.526   1.737
 6388SOL    HW120063   5.883   5.551   1.740
 6388SOL    HW220064   5.737   5.593   1.682
 6389SOL     OW20065   1.042   0.270   1.100
 6389SOL    HW120066   1.125   0.281   1.045
 6389SOL    HW220067   0.962   0.292   1.043
 6390SOL     OW20068   6.552   0.189   5.830
 6390SOL    HW120069   6.471   0.247   5.837
 6390SOL    HW220070   6.550   0.140   5.743
 6391SOL     OW20071   1.743   0.874   6.047
 6391SOL    HW120072   1.830   0.850   6.091
 6391SOL    HW220073   1.673   0.886   6.117
 6392SOL     OW20074   3.247   5.983   3.417
 6392SOL    HW120075   3.343   5.955   3.419
 6392SOL    HW220076   3.216   5.989   3.322
 6393SOL     OW20077   5.988   5.792   1.672
 6393SOL    HW120078   5.984   5.832   1.581
 6393SOL    HW220079   6.077   5.749   1.686
 6394SOL     OW20080   2.310   5.420   0.572
 6394SOL    HW120081   2.383   5.488   0.582
 6394SOL    HW220082   2.299   5.370   0.657
 6395SOL     OW20083   6.817   3.593   2.098
 6395SOL    HW120084   6.845   3.559   2.188
 6395SOL    HW220085   6.858   3.536   2.027
 6396SOL     OW20086   6.567   3.895   6.147
 6396SOL    HW120087   6.643   3.954   6.173
 6396SOL    HW220088   6.508   3.943   6.082
 6397SOL     OW20089   6.207   1.208   2.230
 6397SOL    HW120090   6.269   1.215   2.153
 6397SOL    HW220091   6.173   1.114   2.237
 6398SOL     OW20092   1.831   6.760   2.085
 6398SOL    HW120093   1.759   6.716   2.031
 6398SOL    HW220094   1.848   6.852   2.050
 6399SOL     OW20095   1.270   0.416   6.519
 6399SOL    HW120096   1.271   0.317   6.532
 6399SOL    HW220097   1.210   0.439   6.443
 6400SOL     OW20098   1.973   4.835   2.594
 6400SOL    HW120099   2.037   4.895   2.642
 6400SOL    HW220100   1.941   4.881   2.511
 6401SOL     OW20101   5.839   5.157   2.897
 6401SOL    HW120102   5.915   5.214   2.929
 6401SOL    HW220103   5.824   5.083   2.963
 6402SOL     OW20104   2.278   2.807   4.196
 6402SOL    HW120105   2.330   2.757   4.127
 6402SOL    HW220106   2.240   2.743   4.263
 6403SOL     OW20107   6.083   6.063   5.987
 6403SOL    HW120108   6.116   6.141   6.040
 6403SOL    HW220109   6.151   5.989   5.990
 6404SOL     OW20110   4.911   1.266   2.588
 6404SOL    HW120111   4.963   1.350   2.601
 6404SOL    HW220112   4.909   1.242   2.490
 6405SOL     OW20113   4.621   1.073   4.543
 6405SOL    HW120114   4.583   1.104   4.630
 6405SOL    HW220115   4.564   1.000   4.506
 6406SOL     OW20116   1.209   2.974   1.669
 6406SOL    HW120117   1.139   2.911   1.703
 6406SOL    HW220118   1.279   2.988   1.739
 6407SOL     OW20119   2.256   6.887   4.376
 6407SOL    HW120120   2.279   6.914   4.283
 6407SOL    HW220121   2.313   6.809   4.403
 6408SOL     OW20122   5.612   0.693   1.053
 6408SOL    HW120123   5.534   0.647   1.010
 6408SOL    HW220124   5.690   0.691   0.991
 6409SOL     OW20125   6.977   4.909   2.889
 6409SOL    HW120126   0.039   4.879   2.837
 6409SOL    HW220127   6.927   4.978   2.837
 6410SOL     OW20128   2.009   1.053   5.971
 6410SOL    HW120129   2.013   0.961   6.010
 6410SOL    HW220130   2.025   1.121   6.043
 6411SOL     OW20131   1.249   2.896   2.330
 6411SOL    HW120132   1.258   2.824   2.261
 6411SOL    HW220133   1.162   2.944   2.316
 6412SOL     OW20134   2.206   0.486   6.412
 6412SOL    HW120135   2.254   0.573   6.409
 6412SOL    HW220136   2.270   0.411   6.393
 6413SOL     OW20137   3.488   5.001   4.283
 6413SOL    HW120138   3.415   5.066   4.300
 6413SOL    HW220139   3.482   4.968   4.189
 6414SOL     OW20140   6.051   0.328   6.867
 6414SOL    HW120141   6.047   0.232   6.893
 6414SOL    HW220142   6.083   0.383   6.945
 6415SOL     OW20143   1.292   3.637   4.011
 6415SOL    HW120144   1.298   3.676   4.103
 6415SOL    HW220145   1.284   3.710   3.944
 6416SOL     OW20146   2.202   6.539   6.041
 6416SOL    HW120147   2.128   6.502   6.096
 6416SOL    HW220148   2.198   6.500   5.949
 6417SOL     OW20149   5.135   3.087   0.834
 6417SOL    HW120150   5.159   3.069   0.929
 6417SOL    HW220151   5.102   3.181   0.825
 6418SOL     OW20152   5.124   4.121   2.828
 6418SOL    HW120153   5.215   4.163   2.825
 6418SOL    HW220154   5.054   4.193   2.820
 6419SOL     OW20155   1.472   5.506   3.684
 6419SOL    HW120156   1.450   5.494   3.587
 6419SOL    HW220157   1.437   5.595   3.716
 6420SOL     OW20158   2.184   1.649   3.962
 6420SOL    HW120159   2.099   1.600   3.979
 6420SOL    HW220160   2.260   1.599   4.003
 6421SOL     OW20161   3.997   0.494   0.732
 6421SOL    HW120162   4.056   0.456   0.660
 6421SOL    HW220163   3.912   0.441   0.737
 6422SOL     OW20164   6.575   1.671   5.246
 6422SOL    HW120165   6.637   1.647   5.172
 6422SOL    HW220166   6.492   1.713   5.208
 6423SOL     OW20167   4.888   5.645   4.687
 6423SOL    HW120168   4.873   5.572   4.753
 6423SOL    HW220169   4.980   5.637   4.648
 6424SOL     OW20170   1.445   4.073   4.949
 6424SOL    HW120171   1.429   4.042   4.855
 6424SOL    HW220172   1.495   4.159   4.947
 6425SOL     OW20173   6.632   5.807   3.454
 6425SOL    HW120174   6.702   5.868   3.491
 6425SOL    HW220175   6.669   5.758   3.375
 6426SOL     OW20176   5.998   5.406   3.674
 6426SOL    HW120177   5.983   5.368   3.766
 6426SOL    HW220178   5.965   5.340   3.606
 6427SOL     OW20179   2.921   3.786   3.282
 6427SOL    HW120180   2.946   3.724   3.357
 6427SOL    HW220181   2.925   3.737   3.195
 6428SOL     OW20182   5.311   3.121   0.193
 6428SOL    HW120183   5.289   3.198   0.253
 6428SOL    HW220184   5.409   3.120   0.175
 6429SOL     OW20185   0.542   1.151   5.754
 6429SOL    HW120186   0.504   1.194   5.671
 6429SOL    HW220187   0.467   1.120   5.812
 6430SOL     OW20188   6.625   0.822   4.239
 6430SOL    HW120189   6.535   0.863   4.255
 6430SOL    HW220190   6.672   0.872   4.167
 6431SOL     OW20191   4.644   6.018   3.162
 6431SOL    HW120192   4.717   6.011   3.094
 6431SOL    HW220193   4.576   5.946   3.146
 6432SOL     OW20194   4.137   4.342   5.947
 6432SOL    HW120195   4.228   4.309   5.973
 6432SOL    HW220196   4.134   4.358   5.848
 6433SOL     OW20197   3.299   4.736   0.430
 6433SOL    HW120198   3.307   4.652   0.376
 6433SOL    HW220199   3.261   4.809   0.372
 6434SOL     OW20200   2.632   0.512   6.406
 6434SOL    HW120201   2.627   0.475   6.313
 6434SOL    HW220202   2.721   0.555   6.420
 6435SOL     OW20203   5.764   6.797   1.104
 6435SOL    HW120204   5.818   6.806   1.021
 6435SOL    HW220205   5.666   6.803   1.082
 6436SOL     OW20206   1.218   3.657   3.121
 6436SOL    HW120207   1.158   3.577   3.126
 6436SOL    HW220208   1.312   3.629   3.137
 6437SOL     OW20209   1.565   2.798   0.027
 6437SOL    HW120210   1.479   2.787   0.076
 6437SOL    HW220211   1.552   2.773   6.948
 6438SOL     OW20212   0.549   4.944   6.158
 6438SOL    HW120213   0.474   4.942   6.092
 6438SOL    HW220214   0.578   5.039   6.174
 6439SOL     OW20215   5.157   0.683   2.207
 6439SOL    HW120216   5.181   0.606   2.267
 6439SOL    HW220217   5.093   0.651   2.136
 6440SOL     OW20218   2.934   0.957   6.009
 6440SOL    HW120219   2.910   0.947   6.105
 6440SOL    HW220220   3.014   0.900   5.989
 6441SOL     OW20221   1.109   0.879   1.477
 6441SOL    HW120222   1.130   0.788   1.439
 6441SOL    HW220223   1.154   0.889   1.566
 6442SOL     OW20224   2.922   1.699   4.693
 6442SOL    HW120225   2.977   1.692   4.610
 6442SOL    HW220226   2.929   1.613   4.744
 6443SOL     OW20227   3.363   2.923   5.780
 6443SOL    HW120228   3.421   2.872   5.844
 6443SOL    HW220229   3.346   2.867   5.699
 6444SOL     OW20230   5.951   2.157   4.477
 6444SOL    HW120231   6.049   2.173   4.487
 6444SOL    HW220232   5.932   2.059   4.485
 6445SOL     OW20233   3.872   3.326   3.324
 6445SOL    HW120234   3.807   3.400   3.306
 6445SOL    HW220235   3.922   3.346   3.408
 6446SOL     OW20236   0.140   2.276   0.548
 6446SOL    HW120237   0.209   2.345   0.571
 6446SOL    HW220238   0.072   2.316   0.487
 6447SOL     OW20239   6.464   4.395   1.994
 6447SOL    HW120240   6.413   4.372   2.077
 6447SOL    HW220241   6.490   4.311   1.947
 6448SOL     OW20242   5.321   4.932   1.625
 6448SOL    HW120243   5.256   4.856   1.618
 6448SOL    HW220244   5.315   4.973   1.716
 6449SOL     OW20245   2.970   5.561   2.050
 6449SOL    HW120246   3.037   5.608   2.108
 6449SOL    HW220247   2.986   5.585   1.954
 6450SOL     OW20248   0.822   4.164   0.433
 6450SOL    HW120249   0.781   4.073   0.427
 6450SOL    HW220250   0.765   4.230   0.385
 6451SOL     OW20251   2.401   1.210   5.543
 6451SOL    HW120252   2.461   1.150   5.595
 6451SOL    HW220253   2.310   1.211   5.584
 6452SOL     OW20254   4.825   4.033   2.304
 6452SOL    HW120255   4.774   4.106   2.258
 6452SOL    HW220256   4.788   3.944   2.276
 6453SOL     OW20257   2.859   0.234   1.532
 6453SOL    HW120258   2.789   0.265   1.597
 6453SOL    HW220259   2.933   0.302   1.527
 6454SOL     OW20260   0.596   1.303   2.660
 6454SOL    HW120261   0.508   1.335   2.623
 6454SOL    HW220262   0.580   1.242   2.737
 6455SOL     OW20263   6.317   2.877   3.798
 6455SOL    HW120264   6.232   2.854   3.845
 6455SOL    HW220265   6.361   2.954   3.844
 6456SOL     OW20266   1.509   0.606   2.867
 6456SOL    HW120267   1.444   0.535   2.895
 6456SOL    HW220268   1.543   0.586   2.775
 6457SOL     OW20269   5.285   0.353   1.362
 6457SOL    HW120270   5.307   0.428   1.300
 6457SOL    HW220271   5.194   0.367   1.401
 6458SOL     OW20272   1.426   5.491   4.655
 6458SOL    HW120273   1.330   5.510   4.676
 6458SOL    HW220274   1.467   5.570   4.611
 6459SOL     OW20275   6.079   2.623   2.473
 6459SOL    HW120276   6.163   2.622   2.419
 6459SOL    HW220277   6.000   2.634   2.412
 6460SOL     OW20278   6.036   5.568   5.784
 6460SOL    HW120279   6.027   5.471   5.803
 6460SOL    HW220280   5.953   5.616   5.812
 6461SOL     OW20281   2.946   4.533   6.821
 6461SOL    HW120282   2.854   4.514   6.853
 6461SOL    HW220283   2.942   4.570   6.728
 6462SOL     OW20284   1.215   3.096   4.576
 6462SOL    HW120285   1.163   3.063   4.498
 6462SOL    HW220286   1.153   3.134   4.644
 6463SOL     OW20287   5.490   6.899   0.343
 6463SOL    HW120288   5.481   6.973   0.410
 6463SOL    HW220289   5.465   6.812   0.387
 6464SOL     OW20290   1.796   5.956   5.242
 6464SOL    HW120291   1.703   5.970   5.277
 6464SOL    HW220292   1.799   5.976   5.144
 6465SOL     OW20293   0.063   3.007   2.667
 6465SOL    HW120294   0.151   3.030   2.626
 6465SOL    HW220295   7.009   3.010   2.597
 6466SOL     OW20296   6.380   0.818   6.540
 6466SOL    HW120297   6.305   0.770   6.586
 6466SOL    HW220298   6.343   0.897   6.491
 6467SOL     OW20299   3.901   0.303   1.065
 6467SOL    HW120300   3.968   0.306   0.992
 6467SOL    HW220301   3.818   0.257   1.033
 6468SOL     OW20302   3.551   6.797   2.021
 6468SOL    HW120303   3.532   6.716   1.966
 6468SOL    HW220304   3.525   6.780   2.116
 6469SOL     OW20305   3.744   2.108   3.682
 6469SOL    HW120306   3.777   2.154   3.599
 6469SOL    HW220307   3.793   2.144   3.762
 6470SOL     OW20308   5.916   2.586   1.093
 6470SOL    HW120309   5.995   2.533   1.064
 6470SOL    HW220310   5.834   2.529   1.090
 6471SOL     OW20311   0.757   6.223   5.576
 6471SOL    HW120312   0.702   6.290   5.626
 6471SOL    HW220313   0.806   6.165   5.641
 6472SOL     OW20314   6.468   5.737   2.944
 6472SOL    HW120315   6.492   5.692   3.030
 6472SOL    HW220316   6.379   5.705   2.913
 6473SOL     OW20317   2.006   1.670   5.195
 6473SOL    HW120318   2.015   1.764   5.227
 6473SOL    HW220319   2.038   1.663   5.100
 6474SOL     OW20320   4.327   5.554   5.930
 6474SOL    HW120321   4.387   5.634   5.941
 6474SOL    HW220322   4.241   5.583   5.889
 6475SOL     OW20323   6.017   4.090   3.675
 6475SOL    HW120324   5.997   4.187   3.687
 6475SOL    HW220325   6.104   4.080   3.626
 6476SOL     OW20326   4.879   3.136   7.013
 6476SOL    HW120327   4.836   3.128   6.923
 6476SOL    HW220328   4.978   3.125   7.004
 6477SOL     OW20329   6.332   5.329   1.153
 6477SOL    HW120330   6.282   5.375   1.080
 6477SOL    HW220331   6.284   5.244   1.177
 6478SOL     OW20332   3.224   6.455   2.861
 6478SOL    HW120333   3.196   6.529   2.922
 6478SOL    HW220334   3.324   6.448   2.862
 6479SOL     OW20335   3.638   5.676   4.357
 6479SOL    HW120336   3.668   5.705   4.266
 6479SOL    HW220337   3.539   5.682   4.364
 6480SOL     OW20338   2.522   0.912   0.110
 6480SOL    HW120339   2.575   0.877   0.033
 6480SOL    HW220340   2.584   0.936   0.185
 6481SOL     OW20341   3.503   2.354   1.656
 6481SOL    HW120342   3.439   2.282   1.680
 6481SOL    HW220343   3.580   2.353   1.720
 6482SOL     OW20344   6.457   2.300   6.815
 6482SOL    HW120345   6.406   2.221   6.849
 6482SOL    HW220346   6.425   2.383   6.862
 6483SOL     OW20347   0.163   6.282   2.956
 6483SOL    HW120348   0.239   6.320   2.903
 6483SOL    HW220349   0.197   6.251   3.045
 6484SOL     OW20350   2.954   1.244   2.961
 6484SOL    HW120351   3.040   1.209   2.926
 6484SOL    HW220352   2.879   1.215   2.902
 6485SOL     OW20353   2.070   5.428   4.183
 6485SOL    HW120354   2.058   5.384   4.094
 6485SOL    HW220355   2.167   5.448   4.197
 6486SOL     OW20356   1.407   5.294   2.463
 6486SOL    HW120357   1.470   5.294   2.385
 6486SOL    HW220358   1.416   5.207   2.512
 6487SOL     OW20359   1.356   6.809   5.725
 6487SOL    HW120360   1.277   6.870   5.722
 6487SOL    HW220361   1.328   6.719   5.757
 6488SOL     OW20362   3.838   5.531   4.510
 6488SOL    HW120363   3.798   5.617   4.478
 6488SOL    HW220364   3.925   5.516   4.464
 6489SOL     OW20365   3.321   3.441   6.253
 6489SOL    HW120366   3.281   3.408   6.168
 6489SOL    HW220367   3.320   3.541   6.254
 6490SOL     OW20368   3.155   0.846   6.282
 6490SOL    HW120369   3.058   0.851   6.303
 6490SOL    HW220370   3.205   0.914   6.334
 6491SOL     OW20371   3.345   0.679   1.339
 6491SOL    HW120372   3.318   0.614   1.411
 6491SOL    HW220373   3.410   0.635   1.277
 6492SOL     OW20374   3.673   3.718   4.967
 6492SOL    HW120375   3.701   3.689   4.875
 6492SOL    HW220376   3.575   3.705   4.977
 6493SOL     OW20377   1.342   4.410   6.406
 6493SOL    HW120378   1.345   4.356   6.322
 6493SOL    HW220379   1.268   4.477   6.400
 6494SOL     OW20380   6.941   6.841   2.813
 6494SOL    HW120381   6.867   6.907   2.795
 6494SOL    HW220382   6.948   6.777   2.737
 6495SOL     OW20383   0.113   0.942   4.454
 6495SOL    HW120384   0.158   0.965   4.368
 6495SOL    HW220385   0.109   0.843   4.465
 6496SOL     OW20386   5.823   0.687   2.416
 6496SOL    HW120387   5.744   0.723   2.466
 6496SOL    HW220388   5.851   0.600   2.456
 6497SOL     OW20389   0.739   0.504   1.283
 6497SOL    HW120390   0.712   0.478   1.376
 6497SOL    HW220391   0.659   0.498   1.223
 6498SOL     OW20392   0.825   3.575   4.496
 6498SOL    HW120393   0.909   3.524   4.478
 6498SOL    HW220394   0.751   3.510   4.516
 6499SOL     OW20395   5.276   3.588   5.228
 6499SOL    HW120396   5.299   3.518   5.296
 6499SOL    HW220397   5.207   3.551   5.165
 6500SOL     OW20398   0.301   4.014   3.005
 6500SOL    HW120399   0.237   3.938   3.019
 6500SOL    HW220400   0.253   4.089   2.959
 6501SOL     OW20401   6.795   1.203   0.956
 6501SOL    HW120402   6.855   1.283   0.958
 6501SOL    HW220403   6.792   1.167   0.863
 6502SOL     OW20404   7.003   3.780   1.625
 6502SOL    HW120405   0.046   3.860   1.626
 6502SOL    HW220406   6.983   3.754   1.531
 6503SOL     OW20407   5.828   0.779   3.787
 6503SOL    HW120408   5.782   0.865   3.809
 6503SOL    HW220409   5.926   0.796   3.774
 6504SOL     OW20410   3.482   6.411   6.297
 6504SOL    HW120411   3.409   6.393   6.362
 6504SOL    HW220412   3.528   6.326   6.274
 6505SOL     OW20413   5.007   6.173   6.324
 6505SOL    HW120414   4.966   6.254   6.366
 6505SOL    HW220415   4.936   6.109   6.298
 6506SOL     OW20416   6.948   2.732   3.312
 6506SOL    HW120417   6.960   2.691   3.221
 6506SOL    HW220418   0.010   2.712   3.368
 6507SOL     OW20419   2.630   6.144   6.106
 6507SOL    HW120420   2.719   6.173   6.140
 6507SOL    HW220421   2.633   6.046   6.085
 6508SOL     OW20422   1.886   0.487   2.897
 6508SOL    HW120423   1.932   0.553   2.838
 6508SOL    HW220424   1.867   0.404   2.845
 6509SOL     OW20425   4.739   1.943   4.704
 6509SOL    HW120426   4.808   1.878   4.735
 6509SOL    HW220427   4.732   2.018   4.769
 6510SOL     OW20428   5.249   5.139   6.898
 6510SOL    HW120429   5.230   5.178   6.988
 6510SOL    HW220430   5.291   5.049   6.909
 6511SOL     OW20431   4.405   1.141   4.966
 6511SOL    HW120432   4.412   1.042   4.955
 6511SOL    HW220433   4.494   1.183   4.946
 6512SOL     OW20434   3.453   0.003   2.397
 6512SOL    HW120435   3.533   6.981   2.441
 6512SOL    HW220436   3.370   6.976   2.432
 6513SOL     OW20437   1.812   5.658   3.864
 6513SOL    HW120438   1.724   5.638   3.906
 6513SOL    HW220439   1.802   5.731   3.796
 6514SOL     OW20440   5.999   0.854   4.074
 6514SOL    HW120441   5.995   0.758   4.046
 6514SOL    HW220442   6.006   0.859   4.174
 6515SOL     OW20443   1.490   3.415   3.699
 6515SOL    HW120444   1.567   3.401   3.637
 6515SOL    HW220445   1.409   3.369   3.662
 6516SOL     OW20446   0.247   3.088   1.276
 6516SOL    HW120447   0.197   3.002   1.286
 6516SOL    HW220448   0.300   3.087   1.191
 6517SOL     OW20449   6.903   2.087   1.539
 6517SOL    HW120450   6.953   2.168   1.510
 6517SOL    HW220451   6.961   2.031   1.598
 6518SOL     OW20452   0.561   0.353   1.677
 6518SOL    HW120453   0.651   0.397   1.680
 6518SOL    HW220454   0.495   0.415   1.636
 6519SOL     OW20455   0.180   1.559   2.763
 6519SOL    HW120456   0.135   1.532   2.677
 6519SOL    HW220457   0.176   1.484   2.828
 6520SOL     OW20458   6.935   5.035   0.072
 6520SOL    HW120459   6.946   5.110   0.138
 6520SOL    HW220460   6.954   4.948   0.119
 6521SOL     OW20461   2.162   2.951   4.439
 6521SOL    HW120462   2.148   3.050   4.445
 6521SOL    HW220463   2.218   2.930   4.359
 6522SOL     OW20464   2.560   4.519   5.156
 6522SOL    HW120465   2.508   4.439   5.126
 6522SOL    HW220466   2.635   4.536   5.092
 6523SOL     OW20467   3.875   0.606   6.566
 6523SOL    HW120468   3.947   0.657   6.613
 6523SOL    HW220469   3.842   0.660   6.488
 6524SOL     OW20470   2.654   3.056   1.465
 6524SOL    HW120471   2.677   2.966   1.427
 6524SOL    HW220472   2.738   3.103   1.492
 6525SOL     OW20473   1.828   4.937   2.955
 6525SOL    HW120474   1.762   4.987   2.899
 6525SOL    HW220475   1.812   4.957   3.052
 6526SOL     OW20476   0.793   0.442   1.581
 6526SOL    HW120477   0.814   0.540   1.579
 6526SOL    HW220478   0.876   0.390   1.562
 6527SOL     OW20479   6.669   2.131   6.717
 6527SOL    HW120480   6.643   2.089   6.630
 6527SOL    HW220481   6.615   2.213   6.733
 6528SOL     OW20482   6.191   1.237   5.312
 6528SOL    HW120483   6.249   1.202   5.238
 6528SOL    HW220484   6.136   1.162   5.349
 6529SOL     OW20485   2.190   0.156   2.842
 6529SOL    HW120486   2.195   0.233   2.778
 6529SOL    HW220487   2.097   0.150   2.879
 6530SOL     OW20488   6.799   1.858   1.309
 6530SOL    HW120489   6.750   1.917   1.374
 6530SOL    HW220490   6.765   1.874   1.217
 6531SOL     OW20491   4.920   3.345   4.860
 6531SOL    HW120492   5.020   3.348   4.849
 6531SOL    HW220493   4.892   3.413   4.928
 6532SOL     OW20494   1.248   1.532   1.290
 6532SOL    HW120495   1.338   1.532   1.247
 6532SOL    HW220496   1.200   1.447   1.269
 6533SOL     OW20497   4.289   5.895   0.430
 6533SOL    HW120498   4.324   5.949   0.507
 6533SOL    HW220499   4.320   5.936   0.344
 6534SOL     OW20500   4.587   5.014   1.536
 6534SOL    HW120501   4.505   5.020   1.478
 6534SOL    HW220502   4.637   4.930   1.514
 6535SOL     OW20503   6.531   4.266   4.216
 6535SOL    HW120504   6.528   4.189   4.281
 6535SOL    HW220505   6.449   4.322   4.227
 6536SOL     OW20506   0.344   2.044   5.573
 6536SOL    HW120507   0.397   2.043   5.657
 6536SOL    HW220508   0.364   2.128   5.522
 6537SOL     OW20509   6.480   4.666   6.088
 6537SOL    HW120510   6.427   4.583   6.106
 6537SOL    HW220511   6.574   4.641   6.062
 6538SOL     OW20512   1.679   3.710   5.595
 6538SOL    HW120513   1.734   3.771   5.652
 6538SOL    HW220514   1.633   3.643   5.654
 6539SOL     OW20515   5.327   0.417   6.973
 6539SOL    HW120516   5.396   0.490   6.967
 6539SOL    HW220517   5.237   0.457   6.991
 6540SOL     OW20518   3.736   2.747   6.208
 6540SOL    HW120519   3.740   2.811   6.131
 6540SOL    HW220520   3.673   2.783   6.277
 6541SOL     OW20521   5.100   1.577   5.204
 6541SOL    HW120522   5.011   1.559   5.246
 6541SOL    HW220523   5.167   1.509   5.237
 6542SOL     OW20524   0.844   3.102   3.736
 6542SOL    HW120525   0.887   3.013   3.747
 6542SOL    HW220526   0.853   3.154   3.821
 6543SOL     OW20527   4.537   3.090   5.762
 6543SOL    HW120528   4.618   3.084   5.820
 6543SOL    HW220529   4.488   3.003   5.763
 6544SOL     OW20530   1.310   6.552   3.437
 6544SOL    HW120531   1.284   6.461   3.406
 6544SOL    HW220532   1.255   6.578   3.516
 6545SOL     OW20533   3.952   0.743   0.578
 6545SOL    HW120534   4.017   0.818   0.593
 6545SOL    HW220535   3.986   0.660   0.622
 6546SOL     OW20536   2.716   4.093   5.823
 6546SOL    HW120537   2.756   4.182   5.802
 6546SOL    HW220538   2.688   4.048   5.739
 6547SOL     OW20539   4.901   0.720   6.240
 6547SOL    HW120540   4.898   0.710   6.140
 6547SOL    HW220541   4.916   0.631   6.282
 6548SOL     OW20542   1.484   4.008   0.888
 6548SOL    HW120543   1.437   3.986   0.803
 6548SOL    HW220544   1.559   4.072   0.870
 6549SOL     OW20545   4.507   0.799   2.221
 6549SOL    HW120546   4.428   0.801   2.282
 6549SOL    HW220547   4.497   0.724   2.156
 6550SOL     OW20548   0.080   6.829   4.451
 6550SOL    HW120549   0.066   6.895   4.377
 6550SOL    HW220550   7.013   6.778   4.466
 6551SOL     OW20551   2.122   3.634   1.805
 6551SOL    HW120552   2.087   3.558   1.751
 6551SOL    HW220553   2.176   3.597   1.882
 6552SOL     OW20554   1.828   6.963   0.045
 6552SOL    HW120555   1.737   6.957   0.085
 6552SOL    HW220556   1.821   6.986   6.965
 6553SOL     OW20557   0.461   2.435   3.175
 6553SOL    HW120558   0.458   2.355   3.234
 6553SOL    HW220559   0.422   2.412   3.086
 6554SOL     OW20560   1.394   0.135   4.371
 6554SOL    HW120561   1.303   0.164   4.342
 6554SOL    HW220562   1.456   0.137   4.292
 6555SOL     OW20563   5.325   2.188   3.059
 6555SOL    HW120564   5.230   2.160   3.072
 6555SOL    HW220565   5.333   2.241   2.975
 6556SOL     OW20566   5.853   4.539   3.420
 6556SOL    HW120567   5.937   4.578   3.382
 6556SOL    HW220568   5.857   4.439   3.412
 6557SOL     OW20569   2.736   0.582   3.104
 6557SOL    HW120570   2.694   0.633   3.029
 6557SOL    HW220571   2.702   0.488   3.104
 6558SOL     OW20572   6.199   4.891   0.164
 6558SOL    HW120573   6.277   4.946   0.133
 6558SOL    HW220574   6.220   4.854   0.255
 6559SOL     OW20575   0.173   4.302   6.865
 6559SOL    HW120576   0.115   4.316   6.946
 6559SOL    HW220577   0.261   4.262   6.894
 6560SOL     OW20578   4.039   4.554   1.687
 6560SOL    HW120579   3.958   4.496   1.675
 6560SOL    HW220580   4.121   4.501   1.667
 6561SOL     OW20581   3.364   4.059   1.328
 6561SOL    HW120582   3.303   4.017   1.262
 6561SOL    HW220583   3.446   4.003   1.339
 6562SOL     OW20584   5.949   2.033   1.425
 6562SOL    HW120585   5.898   2.115   1.398
 6562SOL    HW220586   6.042   2.058   1.450
 6563SOL     OW20587   5.481   5.553   5.882
 6563SOL    HW120588   5.456   5.526   5.975
 6563SOL    HW220589   5.540   5.483   5.841
 6564SOL     OW20590   6.451   4.105   1.994
 6564SOL    HW120591   6.551   4.112   1.991
 6564SOL    HW220592   6.423   4.071   2.084
 6565SOL     OW20593   6.141   1.203   3.088
 6565SOL    HW120594   6.081   1.157   3.022
 6565SOL    HW220595   6.235   1.202   3.054
 6566SOL     OW20596   3.800   6.667   2.450
 6566SOL    HW120597   3.737   6.595   2.479
 6566SOL    HW220598   3.819   6.659   2.352
 6567SOL     OW20599   4.942   0.598   2.052
 6567SOL    HW120600   4.922   0.689   2.017
 6567SOL    HW220601   4.966   0.538   1.976
 6568SOL     OW20602   3.297   1.635   3.655
 6568SOL    HW120603   3.355   1.670   3.581
 6568SOL    HW220604   3.254   1.711   3.703
 6569SOL     OW20605   2.938   2.857   0.258
 6569SOL    HW120606   2.864   2.903   0.208
 6569SOL    HW220607   2.899   2.803   0.332
 6570SOL     OW20608   3.145   0.945   2.240
 6570SOL    HW120609   3.198   1.004   2.301
 6570SOL    HW220610   3.057   0.923   2.282
 6571SOL     OW20611   2.965   4.961   2.382
 6571SOL    HW120612   2.942   4.907   2.301
 6571SOL    HW220613   2.884   4.971   2.440
 6572SOL     OW20614   0.175   3.879   4.368
 6572SOL    HW120615   0.212   3.940   4.438
 6572SOL    HW220616   0.227   3.889   4.283
 6573SOL     OW20617   0.552   1.941   2.415
 6573SOL    HW120618   0.630   1.954   2.354
 6573SOL    HW220619   0.565   1.858   2.469
 6574SOL     OW20620   2.652   5.757   2.688
 6574SOL    HW120621   2.600   5.840   2.667
 6574SOL    HW220622   2.589   5.685   2.717
 6575SOL     OW20623   0.603   6.811   4.011
 6575SOL    HW120624   0.687   6.850   4.049
 6575SOL    HW220625   0.627   6.739   3.945
 6576SOL     OW20626   3.052   5.951   0.392
 6576SOL    HW120627   3.088   5.860   0.414
 6576SOL    HW220628   3.011   5.949   0.301
 6577SOL     OW20629   1.167   1.902   3.370
 6577SOL    HW120630   1.091   1.919   3.433
 6577SOL    HW220631   1.204   1.989   3.338
 6578SOL     OW20632   0.645   6.156   2.598
 6578SOL    HW120633   0.692   6.226   2.545
 6578SOL    HW220634   0.686   6.066   2.579
 6579SOL     OW20635   6.952   3.009   3.459
 6579SOL    HW120636   6.927   2.931   3.402
 6579SOL    HW220637   0.033   3.009   3.474
 6580SOL     OW20638   0.283   1.764   0.743
 6580SOL    HW120639   0.261   1.861   0.744
 6580SOL    HW220640   0.347   1.745   0.668
 6581SOL     OW20641   2.469   0.813   0.636
 6581SOL    HW120642   2.472   0.908   0.669
 6581SOL    HW220643   2.484   0.751   0.713
 6582SOL     OW20644   6.976   1.265   3.336
 6582SOL    HW120645   6.895   1.292   3.386
 6582SOL    HW220646   0.032   1.242   3.400
 6583SOL     OW20647   4.889   6.773   5.923
 6583SOL    HW120648   4.822   6.818   5.982
 6583SOL    HW220649   4.858   6.779   5.828
 6584SOL     OW20650   4.634   2.312   0.174
 6584SOL    HW120651   4.718   2.362   0.195
 6584SOL    HW220652   4.564   2.375   0.142
 6585SOL     OW20653   5.880   5.934   0.015
 6585SOL    HW120654   5.845   6.025   0.033
 6585SOL    HW220655   5.805   5.871   7.015
 6586SOL     OW20656   5.903   1.218   5.842
 6586SOL    HW120657   5.816   1.170   5.851
 6586SOL    HW220658   5.921   1.270   5.926
 6587SOL     OW20659   1.353   4.982   5.894
 6587SOL    HW120660   1.297   4.972   5.976
 6587SOL    HW220661   1.431   5.041   5.913
 6588SOL     OW20662   0.513   2.878   1.277
 6588SOL    HW120663   0.532   2.975   1.291
 6588SOL    HW220664   0.565   2.845   1.198
 6589SOL     OW20665   4.572   0.342   1.944
 6589SOL    HW120666   4.565   0.274   1.871
 6589SOL    HW220667   4.646   0.317   2.006
 6590SOL     OW20668   0.185   1.408   6.758
 6590SOL    HW120669   0.136   1.339   6.811
 6590SOL    HW220670   0.199   1.489   6.815
 6591SOL     OW20671   5.517   5.782   3.382
 6591SOL    HW120672   5.463   5.758   3.463
 6591SOL    HW220673   5.587   5.713   3.367
 6592SOL     OW20674   5.807   6.755   3.217
 6592SOL    HW120675   5.735   6.781   3.152
 6592SOL    HW220676   5.793   6.659   3.244
 6593SOL     OW20677   2.747   2.334   2.444
 6593SOL    HW120678   2.729   2.304   2.350
 6593SOL    HW220679   2.801   2.264   2.491
 6594SOL     OW20680   3.147   1.206   5.683
 6594SOL    HW120681   3.226   1.149   5.660
 6594SOL    HW220682   3.090   1.219   5.601
 6595SOL     OW20683   1.869   4.308   6.991
 6595SOL    HW120684   1.934   4.324   0.047
 6595SOL    HW220685   1.833   4.215   6.997
 6596SOL     OW20686   3.546   0.002   4.140
 6596SOL    HW120687   3.603   0.055   4.203
 6596SOL    HW220688   3.599   6.945   4.101
 6597SOL     OW20689   1.461   5.369   0.821
 6597SOL    HW120690   1.408   5.450   0.797
 6597SOL    HW220691   1.501   5.380   0.912
 6598SOL     OW20692   1.771   4.829   3.848
 6598SOL    HW120693   1.809   4.917   3.821
 6598SOL    HW220694   1.698   4.843   3.915
 6599SOL     OW20695   4.288   6.548   6.385
 6599SOL    HW120696   4.322   6.459   6.355
 6599SOL    HW220697   4.358   6.618   6.371
 6600SOL     OW20698   3.622   6.383   5.454
 6600SOL    HW120699   3.551   6.313   5.456
 6600SOL    HW220700   3.624   6.430   5.542
 6601SOL     OW20701   0.985   2.498   4.607
 6601SOL    HW120702   0.984   2.589   4.566
 6601SOL    HW220703   0.982   2.429   4.535
 6602SOL     OW20704   1.737   0.574   1.253
 6602SOL    HW120705   1.677   0.570   1.333
 6602SOL    HW220706   1.825   0.614   1.279
 6603SOL     OW20707   0.355   3.164   3.280
 6603SOL    HW120708   0.451   3.143   3.264
 6603SOL    HW220709   0.344   3.262   3.298
 6604SOL     OW20710   1.700   0.061   1.496
 6604SOL    HW120711   1.660   0.143   1.536
 6604SOL    HW220712   1.796   0.054   1.524
 6605SOL     OW20713   5.649   5.604   2.060
 6605SOL    HW120714   5.586   5.677   2.031
 6605SOL    HW220715   5.629   5.521   2.009
 6606SOL     OW20716   6.502   5.096   2.299
 6606SOL    HW120717   6.584   5.040   2.315
 6606SOL    HW220718   6.522   5.191   2.323
 6607SOL     OW20719   1.085   4.818   3.352
 6607SOL    HW120720   1.008   4.770   3.311
 6607SOL    HW220721   1.121   4.886   3.289
 6608SOL     OW20722   0.022   6.988   6.868
 6608SOL    HW120723   0.002   6.931   6.788
 6608SOL    HW220724   6.975   6.967   6.941
 6609SOL     OW20725   5.707   0.469   7.011
 6609SOL    HW120726   5.668   0.489   6.921
 6609SOL    HW220727   5.719   0.371   0.003
 6610SOL     OW20728   2.174   6.666   6.568
 6610SOL    HW120729   2.198   6.741   6.507
 6610SOL    HW220730   2.159   6.701   6.660
 6611SOL     OW20731   4.746   2.792   3.354
 6611SOL    HW120732   4.812   2.722   3.383
 6611SOL    HW220733   4.663   2.784   3.409
 6612SOL     OW20734   6.432   1.842   6.232
 6612SOL    HW120735   6.445   1.920   6.294
 6612SOL    HW220736   6.403   1.875   6.143
 6613SOL     OW20737   6.790   6.207   5.516
 6613SOL    HW120738   6.831   6.281   5.570
 6613SOL    HW220739   6.742   6.144   5.577
 6614SOL     OW20740   4.564   5.350   6.980
 6614SOL    HW120741   4.467   5.355   6.954
 6614SOL    HW220742   4.573   5.289   0.042
 6615SOL     OW20743   1.727   5.715   1.280
 6615SOL    HW120744   1.662   5.772   1.331
 6615SOL    HW220745   1.721   5.735   1.183
 6616SOL     OW20746   4.241   0.198   6.723
 6616SOL    HW120747   4.292   0.243   6.650
 6616SOL    HW220748   4.219   0.263   6.795
 6617SOL     OW20749   4.694   5.497   3.411
 6617SOL    HW120750   4.716   5.533   3.502
 6617SOL    HW220751   4.707   5.570   3.343
 6618SOL     OW20752   1.957   2.154   2.129
 6618SOL    HW120753   1.942   2.128   2.224
 6618SOL    HW220754   1.875   2.134   2.075
 6619SOL     OW20755   5.442   6.878   4.004
 6619SOL    HW120756   5.501   6.917   4.074
 6619SOL    HW220757   5.362   6.836   4.047
 6620SOL     OW20758   2.013   2.483   5.657
 6620SOL    HW120759   1.999   2.522   5.565
 6620SOL    HW220760   1.951   2.527   5.721
 6621SOL     OW20761   3.670   3.226   5.440
 6621SOL    HW120762   3.610   3.146   5.449
 6621SOL    HW220763   3.690   3.242   5.344
 6622SOL     OW20764   5.933   5.629   2.111
 6622SOL    HW120765   5.955   5.724   2.089
 6622SOL    HW220766   5.845   5.604   2.071
 6623SOL     OW20767   3.870   2.792   5.253
 6623SOL    HW120768   3.856   2.827   5.161
 6623SOL    HW220769   3.888   2.693   5.250
 6624SOL     OW20770   0.178   4.811   5.253
 6624SOL    HW120771   0.116   4.763   5.314
 6624SOL    HW220772   0.127   4.852   5.178
 6625SOL     OW20773   5.117   2.229   5.149
 6625SOL    HW120774   5.121   2.131   5.166
 6625SOL    HW220775   5.206   2.270   5.167
 6626SOL     OW20776   2.932   6.919   5.592
 6626SOL    HW120777   2.913   6.883   5.501
 6626SOL    HW220778   3.018   6.969   5.591
 6627SOL     OW20779   1.716   6.885   4.475
 6627SOL    HW120780   1.743   6.977   4.444
 6627SOL    HW220781   1.645   6.894   4.546
 6628SOL     OW20782   5.989   4.933   4.730
 6628SOL    HW120783   5.947   4.847   4.759
 6628SOL    HW220784   5.956   5.007   4.789
 6629SOL     OW20785   4.502   6.383   6.603
 6629SOL    HW120786   4.433   6.400   6.532
 6629SOL    HW220787   4.571   6.320   6.568
 6630SOL     OW20788   3.752   1.759   1.261
 6630SOL    HW120789   3.701   1.675   1.279
 6630SOL    HW220790   3.734   1.825   1.333
 6631SOL     OW20791   2.053   5.931   4.041
 6631SOL    HW120792   2.126   5.903   4.103
 6631SOL    HW220793   2.044   5.864   3.967
 6632SOL     OW20794   1.040   0.705   0.948
 6632SOL    HW120795   1.066   0.800   0.960
 6632SOL    HW220796   0.967   0.681   1.012
 6633SOL     OW20797   2.418   5.054   6.255
 6633SOL    HW120798   2.319   5.065   6.264
 6633SOL    HW220799   2.438   4.972   6.202
 6634SOL     OW20800   5.652   1.163   5.353
 6634SOL    HW120801   5.709   1.156   5.435
 6634SOL    HW220802   5.568   1.213   5.374
 6635SOL     OW20803   4.606   4.244   3.072
 6635SOL    HW120804   4.686   4.304   3.065
 6635SOL    HW220805   4.633   4.156   3.111
 6636SOL     OW20806   4.840   1.459   6.923
 6636SOL    HW120807   4.889   1.371   6.919
 6636SOL    HW220808   4.907   1.533   6.924
 6637SOL     OW20809   1.089   6.943   6.568
 6637SOL    HW120810   1.004   6.909   6.529
 6637SOL    HW220811   1.141   6.866   6.607
 6638SOL     OW20812   2.976   3.376   3.223
 6638SOL    HW120813   2.940   3.441   3.289
 6638SOL    HW220814   2.987   3.422   3.134
 6639SOL     OW20815   4.691   4.774   6.846
 6639SOL    HW120816   4.744   4.806   6.768
 6639SOL    HW220817   4.678   4.675   6.839
 6640SOL     OW20818   6.271   1.481   5.246
 6640SOL    HW120819   6.310   1.521   5.329
 6640SOL    HW220820   6.255   1.384   5.260
 6641SOL     OW20821   2.879   1.545   6.863
 6641SOL    HW120822   2.889   1.448   6.885
 6641SOL    HW220823   2.805   1.584   6.917
 6642SOL     OW20824   2.505   6.106   6.529
 6642SOL    HW120825   2.444   6.054   6.470
 6642SOL    HW220826   2.529   6.193   6.484
 6643SOL     OW20827   5.062   6.208   6.832
 6643SOL    HW120828   4.986   6.265   6.861
 6643SOL    HW220829   5.120   6.259   6.768
 6644SOL     OW20830   2.486   5.898   1.427
 6644SOL    HW120831   2.404   5.890   1.484
 6644SOL    HW220832   2.530   5.808   1.419
 6645SOL     OW20833   5.423   3.965   1.092
 6645SOL    HW120834   5.360   3.940   1.018
 6645SOL    HW220835   5.440   3.885   1.149
 6646SOL     OW20836   4.716   1.291   5.061
 6646SOL    HW120837   4.731   1.387   5.083
 6646SOL    HW220838   4.800   1.239   5.078
 6647SOL     OW20839   4.569   0.230   0.659
 6647SOL    HW120840   4.470   0.224   0.651
 6647SOL    HW220841   4.609   0.139   0.656
 6648SOL     OW20842   3.679   6.833   3.974
 6648SOL    HW120843   3.764   6.865   3.934
 6648SOL    HW220844   3.660   6.740   3.944
 6649SOL     OW20845   6.075   1.612   6.408
 6649SOL    HW120846   6.066   1.678   6.483
 6649SOL    HW220847   6.061   1.659   6.321
 6650SOL     OW20848   3.741   1.218   5.619
 6650SOL    HW120849   3.765   1.274   5.541
 6650SOL    HW220850   3.720   1.277   5.697
 6651SOL     OW20851   1.652   0.668   5.853
 6651SOL    HW120852   1.671   0.657   5.756
 6651SOL    HW220853   1.688   0.755   5.886
 6652SOL     OW20854   0.211   4.760   6.628
 6652SOL    HW120855   0.239   4.669   6.657
 6652SOL    HW220856   0.162   4.805   6.703
 6653SOL     OW20857   4.115   3.439   1.394
 6653SOL    HW120858   4.143   3.395   1.479
 6653SOL    HW220859   4.040   3.388   1.353
 6654SOL     OW20860   1.477   5.477   1.506
 6654SOL    HW120861   1.418   5.540   1.454
 6654SOL    HW220862   1.573   5.498   1.486
 6655SOL     OW20863   0.288   6.718   3.522
 6655SOL    HW120864   0.243   6.664   3.593
 6655SOL    HW220865   0.226   6.730   3.445
 6656SOL     OW20866   5.972   2.356   2.629
 6656SOL    HW120867   6.024   2.416   2.690
 6656SOL    HW220868   5.952   2.404   2.543
 6657SOL     OW20869   5.763   4.235   5.271
 6657SOL    HW120870   5.825   4.235   5.193
 6657SOL    HW220871   5.669   4.220   5.240
 6658SOL     OW20872   5.037   1.224   5.392
 6658SOL    HW120873   5.064   1.243   5.487
 6658SOL    HW220874   4.939   1.242   5.382
 6659SOL     OW20875   2.126   2.825   1.100
 6659SOL    HW120876   2.135   2.909   1.152
 6659SOL    HW220877   2.104   2.847   1.005
 6660SOL     OW20878   1.762   5.048   0.959
 6660SOL    HW120879   1.717   5.098   1.033
 6660SOL    HW220880   1.850   5.012   0.992
 6661SOL     OW20881   2.261   0.249   5.257
 6661SOL    HW120882   2.248   0.348   5.253
 6661SOL    HW220883   2.271   0.213   5.164
 6662SOL     OW20884   1.316   0.696   0.353
 6662SOL    HW120885   1.356   0.622   0.297
 6662SOL    HW220886   1.330   0.783   0.307
 6663SOL     OW20887   6.525   6.332   4.952
 6663SOL    HW120888   6.530   6.234   4.969
 6663SOL    HW220889   6.618   6.369   4.941
 6664SOL     OW20890   2.088   7.005   0.327
 6664SOL    HW120891   2.133   0.069   0.363
 6664SOL    HW220892   2.047   6.954   0.402
 6665SOL     OW20893   1.516   6.214   4.665
 6665SOL    HW120894   1.567   6.213   4.751
 6665SOL    HW220895   1.535   6.298   4.616
 6666SOL     OW20896   6.483   6.398   5.832
 6666SOL    HW120897   6.574   6.436   5.817
 6666SOL    HW220898   6.435   6.391   5.745
 6667SOL     OW20899   6.964   6.400   5.660
 6667SOL    HW120900   0.029   6.455   5.669
 6667SOL    HW220901   6.924   6.385   5.751
 6668SOL     OW20902   0.321   5.861   1.076
 6668SOL    HW120903   0.396   5.925   1.093
 6668SOL    HW220904   0.240   5.890   1.127
 6669SOL     OW20905   2.758   2.205   1.840
 6669SOL    HW120906   2.727   2.277   1.778
 6669SOL    HW220907   2.812   2.245   1.913
 6670SOL     OW20908   2.862   1.447   5.328
 6670SOL    HW120909   2.949   1.426   5.284
 6670SOL    HW220910   2.861   1.408   5.420
 6671SOL     OW20911   4.211   6.768   0.610
 6671SOL    HW120912   4.271   6.693   0.636
 6671SOL    HW220913   4.140   6.734   0.549
 6672SOL     OW20914   6.520   2.472   0.184
 6672SOL    HW120915   6.439   2.430   0.226
 6672SOL    HW220916   6.570   2.523   0.254
 6673SOL     OW20917   4.770   4.018   3.645
 6673SOL    HW120918   4.788   4.073   3.726
 6673SOL    HW220919   4.808   3.927   3.657
 6674SOL     OW20920   0.190   3.887   0.468
 6674SOL    HW120921   0.190   3.925   0.375
 6674SOL    HW220922   0.262   3.930   0.522
 6675SOL     OW20923   6.303   2.671   0.937
 6675SOL    HW120924   6.251   2.612   0.998
 6675SOL    HW220925   6.350   2.741   0.990
 6676SOL     OW20926   0.398   3.517   4.941
 6676SOL    HW120927   0.367   3.524   5.036
 6676SOL    HW220928   0.342   3.449   4.893
 6677SOL     OW20929   1.182   1.513   6.159
 6677SOL    HW120930   1.276   1.539   6.136
 6677SOL    HW220931   1.153   1.563   6.241
 6678SOL     OW20932   3.317   3.871   0.389
 6678SOL    HW120933   3.374   3.875   0.470
 6678SOL    HW220934   3.374   3.872   0.307
 6679SOL     OW20935   3.519   0.690   4.272
 6679SOL    HW120936   3.500   0.749   4.194
 6679SOL    HW220937   3.524   0.595   4.242
 6680SOL     OW20938   4.176   6.867   6.343
 6680SOL    HW120939   4.125   6.806   6.403
 6680SOL    HW220940   4.270   6.834   6.333
 6681SOL     OW20941   4.903   5.809   0.452
 6681SOL    HW120942   4.954   5.750   0.389
 6681SOL    HW220943   4.852   5.878   0.399
 6682SOL     OW20944   2.338   5.014   0.353
 6682SOL    HW120945   2.332   5.020   0.253
 6682SOL    HW220946   2.283   5.088   0.393
 6683SOL     OW20947   5.998   3.255   5.214
 6683SOL    HW120948   6.009   3.277   5.311
 6683SOL    HW220949   6.033   3.163   5.197
 6684SOL     OW20950   3.491   6.470   1.904
 6684SOL    HW120951   3.559   6.432   1.840
 6684SOL    HW220952   3.446   6.548   1.862
 6685SOL     OW20953   4.727   2.812   6.444
 6685SOL    HW120954   4.777   2.884   6.396
 6685SOL    HW220955   4.667   2.854   6.512
 6686SOL     OW20956   5.117   5.259   3.998
 6686SOL    HW120957   5.023   5.270   4.029
 6686SOL    HW220958   5.177   5.238   4.075
 6687SOL     OW20959   0.556   3.433   1.894
 6687SOL    HW120960   0.500   3.512   1.873
 6687SOL    HW220961   0.653   3.458   1.890
 6688SOL     OW20962   5.306   4.369   1.515
 6688SOL    HW120963   5.372   4.356   1.440
 6688SOL    HW220964   5.218   4.331   1.488
 6689SOL     OW20965   4.089   3.843   5.727
 6689SOL    HW120966   4.128   3.931   5.702
 6689SOL    HW220967   4.159   3.772   5.719
 6690SOL     OW20968   0.364   0.029   0.641
 6690SOL    HW120969   0.349   6.949   0.625
 6690SOL    HW220970   0.327   0.054   0.731
 6691SOL     OW20971   2.363   0.626   2.607
 6691SOL    HW120972   2.276   0.612   2.560
 6691SOL    HW220973   2.356   0.706   2.666
 6692SOL     OW20974   3.820   4.028   3.586
 6692SOL    HW120975   3.861   4.018   3.677
 6692SOL    HW220976   3.815   3.939   3.542
 6693SOL     OW20977   3.976   2.085   5.294
 6693SOL    HW120978   4.034   2.029   5.353
 6693SOL    HW220979   3.900   2.122   5.347
 6694SOL     OW20980   3.857   5.719   1.273
 6694SOL    HW120981   3.830   5.645   1.334
 6694SOL    HW220982   3.811   5.709   1.185
 6695SOL     OW20983   2.708   2.222   6.817
 6695SOL    HW120984   2.690   2.311   6.774
 6695SOL    HW220985   2.627   2.164   6.809
 6696SOL     OW20986   3.666   2.910   4.100
 6696SOL    HW120987   3.699   2.930   4.008
 6696SOL    HW220988   3.567   2.896   4.098
 6697SOL     OW20989   4.857   1.372   3.099
 6697SOL    HW120990   4.758   1.373   3.092
 6697SOL    HW220991   4.885   1.342   3.190
 6698SOL     OW20992   3.522   2.327   0.850
 6698SOL    HW120993   3.594   2.267   0.814
 6698SOL    HW220994   3.561   2.391   0.916
 6699SOL     OW20995   2.232   5.990   5.853
 6699SOL    HW120996   2.325   5.987   5.818
 6699SOL    HW220997   2.167   5.980   5.777
 6700SOL     OW20998   0.118   1.462   1.617
 6700SOL    HW120999   0.135   1.427   1.524
 6700SOL    HW221000   0.029   1.508   1.619
 6701SOL     OW21001   5.661   5.367   1.893
 6701SOL    HW121002   5.692   5.278   1.858
 6701SOL    HW221003   5.708   5.440   1.844
 6702SOL     OW21004   2.117   2.544   1.446
 6702SOL    HW121005   2.096   2.640   1.424
 6702SOL    HW221006   2.032   2.494   1.461
 6703SOL     OW21007   6.378   0.063   1.079
 6703SOL    HW121008   6.440   0.105   1.013
 6703SOL    HW221009   6.293   0.037   1.034
 6704SOL     OW21010   3.881   1.990   2.740
 6704SOL    HW121011   3.801   2.027   2.788
 6704SOL    HW221012   3.851   1.935   2.662
 6705SOL     OW21013   6.071   3.474   1.398
 6705SOL    HW121014   5.991   3.462   1.457
 6705SOL    HW221015   6.136   3.400   1.415
 6706SOL     OW21016   0.780   5.409   1.531
 6706SOL    HW121017   0.750   5.395   1.626
 6706SOL    HW221018   0.878   5.389   1.524
 6707SOL     OW21019   5.838   7.002   3.344
 6707SOL    HW121020   5.860   6.907   3.324
 6707SOL    HW221021   5.741   7.009   3.368
 6708SOL     OW21022   5.750   5.432   0.647
 6708SOL    HW121023   5.692   5.507   0.678
 6708SOL    HW221024   5.710   5.390   0.566
 6709SOL     OW21025   1.524   6.405   2.814
 6709SOL    HW121026   1.551   6.320   2.770
 6709SOL    HW221027   1.587   6.478   2.786
 6710SOL     OW21028   3.696   1.068   6.126
 6710SOL    HW121029   3.603   1.078   6.161
 6710SOL    HW221030   3.693   1.036   6.031
 6711SOL     OW21031   4.965   6.307   5.148
 6711SOL    HW121032   4.966   6.381   5.080
 6711SOL    HW221033   4.896   6.326   5.217
 6712SOL     OW21034   5.838   3.812   0.645
 6712SOL    HW121035   5.750   3.809   0.599
 6712SOL    HW221036   5.826   3.786   0.741
 6713SOL     OW21037   2.018   0.683   2.736
 6713SOL    HW121038   2.092   0.733   2.781
 6713SOL    HW221039   2.029   0.689   2.637
 6714SOL     OW21040   6.319   1.072   6.457
 6714SOL    HW121041   6.399   1.128   6.436
 6714SOL    HW221042   6.253   1.080   6.382
 6715SOL     OW21043   0.930   0.392   0.678
 6715SOL    HW121044   0.859   0.341   0.629
 6715SOL    HW221045   1.020   0.359   0.648
 6716SOL     OW21046   0.568   5.682   2.202
 6716SOL    HW121047   0.504   5.612   2.170
 6716SOL    HW221048   0.624   5.645   2.276
 6717SOL     OW21049   3.293   2.905   6.762
 6717SOL    HW121050   3.216   2.875   6.706
 6717SOL    HW221051   3.373   2.921   6.704
 6718SOL     OW21052   4.958   0.279   0.551
 6718SOL    HW121053   4.901   0.330   0.615
 6718SOL    HW221054   5.054   0.289   0.578
 6719SOL     OW21055   2.922   6.437   0.168
 6719SOL    HW121056   2.915   6.412   0.264
 6719SOL    HW221057   2.931   6.536   0.159
 6720SOL     OW21058   1.906   6.913   4.096
 6720SOL    HW121059   1.979   6.904   4.164
 6720SOL    HW221060   1.900   7.008   4.066
 6721SOL     OW21061   6.513   6.518   0.260
 6721SOL    HW121062   6.610   6.503   0.278
 6721SOL    HW221063   6.463   6.519   0.347
 6722SOL     OW21064   6.466   2.842   1.143
 6722SOL    HW121065   6.415   2.830   1.228
 6722SOL    HW221066   6.561   2.865   1.164
 6723SOL     OW21067   1.502   0.081   4.635
 6723SOL    HW121068   1.444   0.098   4.555
 6723SOL    HW221069   1.483   0.150   4.705
 6724SOL     OW21070   2.634   3.541   6.171
 6724SOL    HW121071   2.644   3.524   6.269
 6724SOL    HW221072   2.688   3.475   6.120
 6725SOL     OW21073   6.591   2.922   1.735
 6725SOL    HW121074   6.564   3.011   1.698
 6725SOL    HW221075   6.606   2.858   1.660
 6726SOL     OW21076   1.389   2.929   4.680
 6726SOL    HW121077   1.329   3.002   4.645
 6726SOL    HW221078   1.392   2.854   4.615
 6727SOL     OW21079   0.039   4.730   5.925
 6727SOL    HW121080   0.102   4.708   6.000
 6727SOL    HW221081   0.070   4.813   5.879
 6728SOL     OW21082   4.018   2.130   2.413
 6728SOL    HW121083   3.921   2.106   2.411
 6728SOL    HW221084   4.028   2.225   2.444
 6729SOL     OW21085   6.047   0.654   1.027
 6729SOL    HW121086   6.127   0.711   1.047
 6729SOL    HW221087   6.072   0.558   1.034
 6730SOL     OW21088   2.046   6.985   1.764
 6730SOL    HW121089   2.141   6.964   1.785
 6730SOL    HW221090   1.992   6.985   1.848
 6731SOL     OW21091   1.417   6.902   1.057
 6731SOL    HW121092   1.406   6.803   1.066
 6731SOL    HW221093   1.372   6.947   1.135
 6732SOL     OW21094   5.674   3.951   4.852
 6732SOL    HW121095   5.697   4.011   4.776
 6732SOL    HW221096   5.739   3.874   4.855
 6733SOL     OW21097   3.557   5.585   6.203
 6733SOL    HW121098   3.570   5.594   6.302
 6733SOL    HW221099   3.587   5.495   6.173
 6734SOL     OW21100   5.895   1.725   4.468
 6734SOL    HW121101   5.800   1.702   4.447
 6734SOL    HW221102   5.947   1.641   4.481
 6735SOL     OW21103   6.198   3.734   4.874
 6735SOL    HW121104   6.216   3.641   4.904
 6735SOL    HW221105   6.233   3.747   4.781
 6736SOL     OW21106   2.787   3.592   0.040
 6736SOL    HW121107   2.829   3.675   0.077
 6736SOL    HW221108   2.689   3.592   0.062
 6737SOL     OW21109   1.483   3.082   0.875
 6737SOL    HW121110   1.430   3.034   0.945
 6737SOL    HW221111   1.560   3.130   0.918
 6738SOL     OW21112   1.818   5.689   3.431
 6738SOL    HW121113   1.917   5.702   3.441
 6738SOL    HW221114   1.795   5.593   3.443
 6739SOL     OW21115   5.150   5.620   4.570
 6739SOL    HW121116   5.199   5.546   4.524
 6739SOL    HW221117   5.155   5.703   4.515
 6740SOL     OW21118   6.990   0.098   5.271
 6740SOL    HW121119   6.908   0.129   5.319
 6740SOL    HW221120   6.977   0.003   5.242
 6741SOL     OW21121   4.248   2.213   5.627
 6741SOL    HW121122   4.231   2.224   5.725
 6741SOL    HW221123   4.329   2.157   5.613
 6742SOL     OW21124   5.887   5.892   3.287
 6742SOL    HW121125   5.864   5.880   3.384
 6742SOL    HW221126   5.960   5.959   3.278
 6743SOL     OW21127   4.632   4.380   6.327
 6743SOL    HW121128   4.551   4.409   6.277
 6743SOL    HW221129   4.706   4.361   6.263
 6744SOL     OW21130   6.194   4.332   5.967
 6744SOL    HW121131   6.240   4.337   6.056
 6744SOL    HW221132   6.185   4.424   5.929
 6745SOL     OW21133   0.294   0.054   3.718
 6745SOL    HW121134   0.382   0.070   3.762
 6745SOL    HW221135   0.223   0.109   3.762
 6746SOL     OW21136   0.867   1.076   4.046
 6746SOL    HW121137   0.867   1.046   3.951
 6746SOL    HW221138   0.778   1.057   4.087
 6747SOL     OW21139   5.631   1.122   5.910
 6747SOL    HW121140   5.625   1.050   5.840
 6747SOL    HW221141   5.628   1.081   6.001
 6748SOL     OW21142   3.115   1.908   3.131
 6748SOL    HW121143   3.115   1.933   3.034
 6748SOL    HW221144   3.100   1.990   3.187
 6749SOL     OW21145   3.796   3.794   0.790
 6749SOL    HW121146   3.737   3.863   0.831
 6749SOL    HW221147   3.742   3.734   0.732
 6750SOL     OW21148   3.559   2.052   4.332
 6750SOL    HW121149   3.483   2.057   4.267
 6750SOL    HW221150   3.524   2.031   4.423
 6751SOL     OW21151   5.588   6.982   2.792
 6751SOL    HW121152   5.511   6.967   2.853
 6751SOL    HW221153   5.586   6.913   2.719
 6752SOL     OW21154   1.392   6.995   3.251
 6752SOL    HW121155   1.374   0.022   3.163
 6752SOL    HW221156   1.464   6.926   3.239
 6753SOL     OW21157   3.196   1.320   6.102
 6753SOL    HW121158   3.123   1.317   6.170
 6753SOL    HW221159   3.166   1.375   6.024
 6754SOL     OW21160   0.082   1.430   1.338
 6754SOL    HW121161   0.011   1.415   1.269
 6754SOL    HW221162   0.114   1.525   1.332
 6755SOL     OW21163   4.226   1.115   2.054
 6755SOL    HW121164   4.154   1.046   2.057
 6755SOL    HW221165   4.274   1.109   1.966
 6756SOL     OW21166   3.653   5.796   5.316
 6756SOL    HW121167   3.626   5.803   5.412
 6756SOL    HW221168   3.614   5.712   5.277
 6757SOL     OW21169   3.722   2.022   0.512
 6757SOL    HW121170   3.642   1.982   0.467
 6757SOL    HW221171   3.695   2.063   0.599
 6758SOL     OW21172   6.332   2.500   1.970
 6758SOL    HW121173   6.254   2.473   2.027
 6758SOL    HW221174   6.414   2.507   2.027
 6759SOL     OW21175   1.660   4.175   4.344
 6759SOL    HW121176   1.649   4.100   4.278
 6759SOL    HW221177   1.586   4.241   4.331
 6760SOL     OW21178   6.722   4.010   1.954
 6760SOL    HW121179   6.713   3.961   1.867
 6760SOL    HW221180   6.737   3.945   2.028
 6761SOL     OW21181   0.031   2.319   5.749
 6761SOL    HW121182   6.967   2.376   5.752
 6761SOL    HW221183   0.031   2.263   5.666
 6762SOL     OW21184   0.579   4.669   4.717
 6762SOL    HW121185   0.570   4.595   4.784
 6762SOL    HW221186   0.489   4.694   4.681
 6763SOL     OW21187   6.415   5.639   3.488
 6763SOL    HW121188   6.502   5.687   3.473
 6763SOL    HW221189   6.354   5.654   3.410
 6764SOL     OW21190   2.060   5.537   1.226
 6764SOL    HW121191   1.968   5.516   1.192
 6764SOL    HW221192   2.123   5.465   1.196
 6765SOL     OW21193   5.505   4.864   3.671
 6765SOL    HW121194   5.470   4.862   3.764
 6765SOL    HW221195   5.564   4.786   3.655
 6766SOL     OW21196   5.430   6.428   6.014
 6766SOL    HW121197   5.481   6.343   6.004
 6766SOL    HW221198   5.370   6.441   5.935
 6767SOL     OW21199   2.422   1.731   1.294
 6767SOL    HW121200   2.503   1.688   1.254
 6767SOL    HW221201   2.352   1.661   1.311
 6768SOL     OW21202   1.206   6.470   4.857
 6768SOL    HW121203   1.250   6.510   4.937
 6768SOL    HW221204   1.157   6.387   4.884
 6769SOL     OW21205   2.518   0.776   6.384
 6769SOL    HW121206   2.533   0.679   6.405
 6769SOL    HW221207   2.550   0.795   6.292
 6770SOL     OW21208   5.804   1.404   3.001
 6770SOL    HW121209   5.851   1.370   3.082
 6770SOL    HW221210   5.866   1.401   2.923
 6771SOL     OW21211   4.333   1.643   3.386
 6771SOL    HW121212   4.318   1.692   3.300
 6771SOL    HW221213   4.244   1.619   3.426
 6772SOL     OW21214   4.383   2.166   2.988
 6772SOL    HW121215   4.408   2.165   3.084
 6772SOL    HW221216   4.289   2.200   2.978
 6773SOL     OW21217   0.009   6.110   1.811
 6773SOL    HW121218   0.038   6.031   1.757
 6773SOL    HW221219   0.030   6.094   1.907
 6774SOL     OW21220   0.586   3.828   4.809
 6774SOL    HW121221   0.589   3.733   4.778
 6774SOL    HW221222   0.617   3.833   4.904
 6775SOL     OW21223   2.695   2.246   2.197
 6775SOL    HW121224   2.617   2.250   2.135
 6775SOL    HW221225   2.779   2.262   2.146
 6776SOL     OW21226   4.914   3.816   0.146
 6776SOL    HW121227   4.862   3.900   0.161
 6776SOL    HW221228   4.994   3.814   0.206
 6777SOL     OW21229   5.053   4.592   0.562
 6777SOL    HW121230   4.957   4.583   0.587
 6777SOL    HW221231   5.063   4.572   0.464
 6778SOL     OW21232   6.071   5.263   1.994
 6778SOL    HW121233   6.152   5.246   2.050
 6778SOL    HW221234   6.061   5.361   1.977
 6779SOL     OW21235   5.561   5.739   6.203
 6779SOL    HW121236   5.631   5.690   6.152
 6779SOL    HW221237   5.474   5.734   6.153
 6780SOL     OW21238   2.060   2.912   2.513
 6780SOL    HW121239   2.102   2.984   2.458
 6780SOL    HW221240   2.131   2.848   2.542
 6781SOL     OW21241   6.867   2.032   4.269
 6781SOL    HW121242   6.964   2.007   4.259
 6781SOL    HW221243   6.814   1.988   4.197
 6782SOL     OW21244   0.853   1.135   2.739
 6782SOL    HW121245   0.771   1.110   2.686
 6782SOL    HW221246   0.850   1.090   2.828
 6783SOL     OW21247   6.590   1.109   5.564
 6783SOL    HW121248   6.603   1.168   5.484
 6783SOL    HW221249   6.493   1.102   5.585
 6784SOL     OW21250   1.274   3.545   0.838
 6784SOL    HW121251   1.230   3.604   0.771
 6784SOL    HW221252   1.336   3.481   0.791
 6785SOL     OW21253   5.838   5.749   4.425
 6785SOL    HW121254   5.935   5.729   4.439
 6785SOL    HW221255   5.811   5.724   4.332
 6786SOL     OW21256   1.799   2.384   0.707
 6786SOL    HW121257   1.764   2.374   0.614
 6786SOL    HW221258   1.839   2.297   0.737
 6787SOL     OW21259   2.537   2.927   6.994
 6787SOL    HW121260   2.451   2.980   6.994
 6787SOL    HW221261   2.516   2.829   6.996
 6788SOL     OW21262   1.153   4.273   1.307
 6788SOL    HW121263   1.082   4.248   1.242
 6788SOL    HW221264   1.205   4.350   1.271
 6789SOL     OW21265   0.637   5.335   3.258
 6789SOL    HW121266   0.573   5.368   3.327
 6789SOL    HW221267   0.707   5.278   3.301
 6790SOL     OW21268   0.079   3.672   0.602
 6790SOL    HW121269   0.146   3.637   0.668
 6790SOL    HW221270   0.115   3.755   0.561
 6791SOL     OW21271   4.042   1.504   2.436
 6791SOL    HW121272   3.966   1.486   2.374
 6791SOL    HW221273   4.087   1.589   2.408
 6792SOL     OW21274   6.002   0.172   4.753
 6792SOL    HW121275   5.993   0.149   4.849
 6792SOL    HW221276   6.062   0.106   4.708
 6793SOL     OW21277   2.192   1.308   0.968
 6793SOL    HW121278   2.154   1.384   1.020
 6793SOL    HW221279   2.141   1.298   0.882
 6794SOL     OW21280   5.029   0.713   5.719
 6794SOL    HW121281   4.930   0.729   5.717
 6794SOL    HW221282   5.058   0.666   5.636
 6795SOL     OW21283   2.206   6.590   0.527
 6795SOL    HW121284   2.258   6.646   0.463
 6795SOL    HW221285   2.148   6.649   0.583
 6796SOL     OW21286   5.950   0.690   2.835
 6796SOL    HW121287   5.917   0.622   2.900
 6796SOL    HW221288   6.020   0.747   2.878
 6797SOL     OW21289   6.939   2.624   1.855
 6797SOL    HW121290   6.940   2.524   1.848
 6797SOL    HW221291   0.005   2.661   1.817
 6798SOL     OW21292   5.620   6.708   1.880
 6798SOL    HW121293   5.708   6.676   1.915
 6798SOL    HW221294   5.611   6.806   1.897
 6799SOL     OW21295   0.144   0.269   1.983
 6799SOL    HW121296   0.174   0.267   1.887
 6799SOL    HW221297   0.206   0.328   2.035
 6800SOL     OW21298   2.163   3.099   2.338
 6800SOL    HW121299   2.120   3.171   2.284
 6800SOL    HW221300   2.165   3.014   2.285
 6801SOL     OW21301   0.466   6.852   2.850
 6801SOL    HW121302   0.426   6.781   2.908
 6801SOL    HW221303   0.561   6.828   2.829
 6802SOL     OW21304   3.310   5.988   1.501
 6802SOL    HW121305   3.340   6.023   1.412
 6802SOL    HW221306   3.219   5.947   1.492
 6803SOL     OW21307   4.484   3.280   5.423
 6803SOL    HW121308   4.444   3.215   5.487
 6803SOL    HW221309   4.549   3.234   5.364
 6804SOL     OW21310   3.463   4.987   4.020
 6804SOL    HW121311   3.475   4.935   3.935
 6804SOL    HW221312   3.461   5.085   4.000
 6805SOL     OW21313   0.460   4.890   6.522
 6805SOL    HW121314   0.493   4.827   6.452
 6805SOL    HW221315   0.369   4.861   6.552
 6806SOL     OW21316   6.646   0.714   3.031
 6806SOL    HW121317   6.622   0.811   3.023
 6806SOL    HW221318   6.575   0.658   2.987
 6807SOL     OW21319   3.505   3.645   1.466
 6807SOL    HW121320   3.449   3.713   1.513
 6807SOL    HW221321   3.585   3.689   1.425
 6808SOL     OW21322   0.265   2.297   5.975
 6808SOL    HW121323   0.273   2.233   6.052
 6808SOL    HW221324   0.175   2.285   5.932
 6809SOL     OW21325   0.865   3.462   1.369
 6809SOL    HW121326   0.779   3.510   1.384
 6809SOL    HW221327   0.897   3.422   1.454
 6810SOL     OW21328   1.699   0.817   2.482
 6810SOL    HW121329   1.718   0.915   2.477
 6810SOL    HW221330   1.603   0.800   2.460
 6811SOL     OW21331   5.352   3.436   1.745
 6811SOL    HW121332   5.348   3.336   1.748
 6811SOL    HW221333   5.416   3.469   1.814
 6812SOL     OW21334   3.133   3.530   4.644
 6812SOL    HW121335   3.057   3.491   4.591
 6812SOL    HW221336   3.159   3.618   4.605
 6813SOL     OW21337   5.073   2.861   3.429
 6813SOL    HW121338   5.108   2.783   3.377
 6813SOL    HW221339   5.109   2.946   3.390
 6814SOL     OW21340   3.449   1.754   6.084
 6814SOL    HW121341   3.503   1.775   6.003
 6814SOL    HW221342   3.363   1.711   6.056
 6815SOL     OW21343   3.746   6.205   0.863
 6815SOL    HW121344   3.703   6.207   0.772
 6815SOL    HW221345   3.722   6.120   0.909
 6816SOL     OW21346   6.886   0.771   6.449
 6816SOL    HW121347   6.799   0.723   6.460
 6816SOL    HW221348   6.884   0.826   6.365
 6817SOL     OW21349   2.346   2.591   2.687
 6817SOL    HW121350   2.362   2.662   2.619
 6817SOL    HW221351   2.417   2.521   2.679
 6818SOL     OW21352   2.396   6.532   1.663
 6818SOL    HW121353   2.431   6.610   1.715
 6818SOL    HW221354   2.468   6.463   1.655
 6819SOL     OW21355   4.291   1.757   3.125
 6819SOL    HW121356   4.238   1.710   3.055
 6819SOL    HW221357   4.388   1.758   3.100
 6820SOL     OW21358   2.043   5.923   1.552
 6820SOL    HW121359   2.123   5.912   1.611
 6820SOL    HW221360   1.993   5.837   1.547
 6821SOL     OW21361   4.008   2.147   4.978
 6821SOL    HW121362   4.014   2.201   4.894
 6821SOL    HW221363   3.920   2.098   4.980
 6822SOL     OW21364   5.609   2.424   6.034
 6822SOL    HW121365   5.683   2.474   6.079
 6822SOL    HW221366   5.524   2.435   6.086
 6823SOL     OW21367   4.842   3.814   5.685
 6823SOL    HW121368   4.842   3.830   5.586
 6823SOL    HW221369   4.766   3.753   5.709
 6824SOL     OW21370   1.150   2.337   0.257
 6824SOL    HW121371   1.082   2.288   0.202
 6824SOL    HW221372   1.149   2.300   0.350
 6825SOL     OW21373   5.225   6.809   0.864
 6825SOL    HW121374   5.157   6.824   0.937
 6825SOL    HW221375   5.195   6.733   0.806
 6826SOL     OW21376   1.808   3.228   3.334
 6826SOL    HW121377   1.813   3.178   3.421
 6826SOL    HW221378   1.894   3.219   3.285
 6827SOL     OW21379   4.461   5.054   6.298
 6827SOL    HW121380   4.542   5.108   6.277
 6827SOL    HW221381   4.388   5.115   6.331
 6828SOL     OW21382   3.145   1.320   1.672
 6828SOL    HW121383   3.160   1.372   1.588
 6828SOL    HW221384   3.048   1.325   1.698
 6829SOL     OW21385   5.289   5.898   5.059
 6829SOL    HW121386   5.249   5.989   5.050
 6829SOL    HW221387   5.386   5.902   5.036
 6830SOL     OW21388   5.128   0.830   3.569
 6830SOL    HW121389   5.136   0.819   3.470
 6830SOL    HW221390   5.198   0.774   3.614
 6831SOL     OW21391   1.183   0.209   0.007
 6831SOL    HW121392   1.129   0.247   6.950
 6831SOL    HW221393   1.275   0.188   6.991
 6832SOL     OW21394   2.805   4.242   0.765
 6832SOL    HW121395   2.709   4.270   0.773
 6832SOL    HW221396   2.812   4.143   0.774
 6833SOL     OW21397   3.550   4.208   6.271
 6833SOL    HW121398   3.569   4.249   6.182
 6833SOL    HW221399   3.470   4.148   6.263
 6834SOL     OW21400   4.967   6.727   0.655
 6834SOL    HW121401   5.008   6.701   0.568
 6834SOL    HW221402   4.957   6.826   0.659
 6835SOL     OW21403   4.410   0.864   4.423
 6835SOL    HW121404   4.360   0.903   4.345
 6835SOL    HW221405   4.497   0.826   4.392
 6836SOL     OW21406   2.638   4.624   0.444
 6836SOL    HW121407   2.628   4.686   0.366
 6836SOL    HW221408   2.618   4.530   0.415
 6837SOL     OW21409   0.785   2.261   1.762
 6837SOL    HW121410   0.720   2.223   1.828
 6837SOL    HW221411   0.843   2.188   1.726
 6838SOL     OW21412   3.554   6.298   0.102
 6838SOL    HW121413   3.648   6.281   0.134
 6838SOL    HW221414   3.489   6.255   0.165
 6839SOL     OW21415   5.890   1.091   6.338
 6839SOL    HW121416   5.864   1.177   6.293
 6839SOL    HW221417   5.937   1.112   6.424
 6840SOL     OW21418   3.624   0.807   4.719
 6840SOL    HW121419   3.557   0.745   4.680
 6840SOL    HW221420   3.715   0.766   4.713
 6841SOL     OW21421   4.519   4.431   6.942
 6841SOL    HW121422   4.587   4.437   6.868
 6841SOL    HW221423   4.510   4.335   6.970
 6842SOL     OW21424   3.131   3.688   0.500
 6842SOL    HW121425   3.151   3.697   0.598
 6842SOL    HW221426   3.210   3.718   0.447
 6843SOL     OW21427   6.092   6.404   1.274
 6843SOL    HW121428   6.016   6.469   1.274
 6843SOL    HW221429   6.080   6.340   1.197
 6844SOL     OW21430   5.111   0.466   3.991
 6844SOL    HW121431   5.156   0.499   3.908
 6844SOL    HW221432   5.169   0.397   4.036
 6845SOL     OW21433   6.559   4.278   3.554
 6845SOL    HW121434   6.604   4.301   3.641
 6845SOL    HW221435   6.463   4.307   3.557
 6846SOL     OW21436   3.484   3.117   0.239
 6846SOL    HW121437   3.527   3.163   0.162
 6846SOL    HW221438   3.517   3.022   0.244
 6847SOL     OW21439   0.611   3.502   4.232
 6847SOL    HW121440   0.599   3.589   4.184
 6847SOL    HW221441   0.565   3.506   4.321
 6848SOL     OW21442   4.723   6.364   3.438
 6848SOL    HW121443   4.653   6.293   3.425
 6848SOL    HW221444   4.688   6.434   3.500
 6849SOL     OW21445   3.953   4.996   5.057
 6849SOL    HW121446   3.892   4.955   4.988
 6849SOL    HW221447   3.898   5.048   5.122
 6850SOL     OW21448   5.605   4.275   2.084
 6850SOL    HW121449   5.551   4.194   2.109
 6850SOL    HW221450   5.698   4.266   2.120
 6851SOL     OW21451   0.527   2.118   2.886
 6851SOL    HW121452   0.558   2.146   2.795
 6851SOL    HW221453   0.523   2.018   2.891
 6852SOL     OW21454   2.878   4.767   0.503
 6852SOL    HW121455   2.955   4.707   0.527
 6852SOL    HW221456   2.794   4.713   0.498
 6853SOL     OW21457   5.905   4.654   0.324
 6853SOL    HW121458   5.948   4.565   0.307
 6853SOL    HW221459   5.914   4.712   0.242
 6854SOL     OW21460   4.723   1.553   6.383
 6854SOL    HW121461   4.720   1.519   6.478
 6854SOL    HW221462   4.630   1.556   6.347
 6855SOL     OW21463   4.144   5.536   3.781
 6855SOL    HW121464   4.175   5.628   3.757
 6855SOL    HW221465   4.134   5.529   3.881
 6856SOL     OW21466   5.840   2.882   5.188
 6856SOL    HW121467   5.799   2.861   5.099
 6856SOL    HW221468   5.779   2.941   5.240
 6857SOL     OW21469   3.084   2.792   6.645
 6857SOL    HW121470   2.990   2.814   6.621
 6857SOL    HW221471   3.088   2.698   6.680
 6858SOL     OW21472   4.057   3.681   3.152
 6858SOL    HW121473   4.077   3.611   3.220
 6858SOL    HW221474   4.047   3.770   3.196
 6859SOL     OW21475   0.251   1.673   1.292
 6859SOL    HW121476   0.236   1.718   1.380
 6859SOL    HW221477   0.306   1.732   1.234
 6860SOL     OW21478   6.737   4.932   1.053
 6860SOL    HW121479   6.657   4.990   1.066
 6860SOL    HW221480   6.709   4.836   1.045
 6861SOL     OW21481   4.272   5.360   0.386
 6861SOL    HW121482   4.290   5.458   0.382
 6861SOL    HW221483   4.196   5.342   0.448
 6862SOL     OW21484   1.367   5.357   6.523
 6862SOL    HW121485   1.303   5.358   6.599
 6862SOL    HW221486   1.317   5.343   6.437
 6863SOL     OW21487   5.894   6.684   5.830
 6863SOL    HW121488   5.855   6.735   5.753
 6863SOL    HW221489   5.865   6.588   5.825
 6864SOL     OW21490   2.646   5.203   4.363
 6864SOL    HW121491   2.696   5.119   4.346
 6864SOL    HW221492   2.629   5.214   4.461
 6865SOL     OW21493   1.260   6.300   3.988
 6865SOL    HW121494   1.164   6.283   4.010
 6865SOL    HW221495   1.315   6.220   4.011
 6866SOL     OW21496   6.064   5.124   4.020
 6866SOL    HW121497   6.106   5.081   3.940
 6866SOL    HW221498   6.076   5.064   4.099
 6867SOL     OW21499   2.289   4.404   1.558
 6867SOL    HW121500   2.349   4.484   1.558
 6867SOL    HW221501   2.319   4.340   1.488
 6868SOL     OW21502   1.465   5.608   6.431
 6868SOL    HW121503   1.471   5.686   6.494
 6868SOL    HW221504   1.425   5.530   6.479
 6869SOL     OW21505   5.650   0.974   6.259
 6869SOL    HW121506   5.744   1.006   6.269
 6869SOL    HW221507   5.645   0.909   6.183
 6870SOL     OW21508   0.550   5.182   1.725
 6870SOL    HW121509   0.565   5.126   1.644
 6870SOL    HW221510   0.560   5.279   1.700
 6871SOL     OW21511   5.807   4.252   3.396
 6871SOL    HW121512   5.896   4.212   3.415
 6871SOL    HW221513   5.756   4.193   3.333
 6872SOL     OW21514   0.505   2.359   1.386
 6872SOL    HW121515   0.480   2.312   1.470
 6872SOL    HW221516   0.535   2.452   1.407
 6873SOL     OW21517   6.761   3.483   4.401
 6873SOL    HW121518   6.693   3.438   4.344
 6873SOL    HW221519   6.796   3.564   4.354
 6874SOL     OW21520   6.905   5.611   2.895
 6874SOL    HW121521   6.982   5.653   2.942
 6874SOL    HW221522   6.920   5.613   2.797
 6875SOL     OW21523   2.494   2.454   2.344
 6875SOL    HW121524   2.503   2.356   2.331
 6875SOL    HW221525   2.584   2.494   2.364
 6876SOL     OW21526   3.841   0.096   3.685
 6876SOL    HW121527   3.886   0.013   3.718
 6876SOL    HW221528   3.808   0.150   3.763
 6877SOL     OW21529   2.433   3.684   0.873
 6877SOL    HW121530   2.504   3.648   0.934
 6877SOL    HW221531   2.452   3.656   0.779
 6878SOL     OW21532   3.667   1.186   4.453
 6878SOL    HW121533   3.767   1.193   4.449
 6878SOL    HW221534   3.639   1.094   4.425
 6879SOL     OW21535   0.782   2.763   0.704
 6879SOL    HW121536   0.745   2.698   0.770
 6879SOL    HW221537   0.865   2.804   0.742
 6880SOL     OW21538   2.532   5.574   5.154
 6880SOL    HW121539   2.577   5.584   5.065
 6880SOL    HW221540   2.517   5.477   5.173
 6881SOL     OW21541   1.519   4.779   0.815
 6881SOL    HW121542   1.582   4.749   0.743
 6881SOL    HW221543   1.561   4.762   0.904
 6882SOL     OW21544   2.894   0.573   6.984
 6882SOL    HW121545   2.856   0.595   6.894
 6882SOL    HW221546   2.862   0.641   0.033
 6883SOL     OW21547   5.018   1.662   6.851
 6883SOL    HW121548   5.111   1.624   6.851
 6883SOL    HW221549   4.984   1.667   6.757
 6884SOL     OW21550   1.912   4.694   3.661
 6884SOL    HW121551   1.870   4.744   3.736
 6884SOL    HW221552   1.988   4.638   3.695
 6885SOL     OW21553   4.040   4.815   4.058
 6885SOL    HW121554   3.945   4.840   4.039
 6885SOL    HW221555   4.089   4.803   3.972
 6886SOL     OW21556   0.120   0.905   4.153
 6886SOL    HW121557   0.066   0.884   4.071
 6886SOL    HW221558   0.183   0.981   4.132
 6887SOL     OW21559   5.037   5.507   6.476
 6887SOL    HW121560   5.037   5.598   6.518
 6887SOL    HW221561   5.054   5.438   6.547
 6888SOL     OW21562   5.544   5.831   6.680
 6888SOL    HW121563   5.546   5.891   6.601
 6888SOL    HW221564   5.632   5.784   6.689
 6889SOL     OW21565   1.801   2.605   5.260
 6889SOL    HW121566   1.789   2.540   5.185
 6889SOL    HW221567   1.712   2.645   5.284
 6890SOL     OW21568   4.239   6.583   1.826
 6890SOL    HW121569   4.325   6.566   1.778
 6890SOL    HW221570   4.250   6.563   1.923
 6891SOL     OW21571   2.275   4.247   3.242
 6891SOL    HW121572   2.177   4.231   3.231
 6891SOL    HW221573   2.311   4.292   3.160
 6892SOL     OW21574   3.149   1.989   3.516
 6892SOL    HW121575   3.102   1.910   3.475
 6892SOL    HW221576   3.245   1.986   3.491
 6893SOL     OW21577   4.608   4.792   0.111
 6893SOL    HW121578   4.662   4.800   0.027
 6893SOL    HW221579   4.649   4.723   0.170
 6894SOL     OW21580   6.129   5.251   0.639
 6894SOL    HW121581   6.101   5.230   0.545
 6894SOL    HW221582   6.214   5.203   0.660
 6895SOL     OW21583   3.321   4.831   0.909
 6895SOL    HW121584   3.378   4.913   0.909
 6895SOL    HW221585   3.282   4.817   0.817
 6896SOL     OW21586   2.431   0.142   3.870
 6896SOL    HW121587   2.442   0.177   3.777
 6896SOL    HW221588   2.447   0.043   3.871
 6897SOL     OW21589   4.791   3.441   5.361
 6897SOL    HW121590   4.744   3.483   5.439
 6897SOL    HW221591   4.779   3.498   5.280
 6898SOL     OW21592   4.342   1.530   2.099
 6898SOL    HW121593   4.423   1.499   2.048
 6898SOL    HW221594   4.271   1.460   2.093
 6899SOL     OW21595   5.160   6.116   1.540
 6899SOL    HW121596   5.151   6.209   1.575
 6899SOL    HW221597   5.072   6.087   1.500
 6900SOL     OW21598   6.065   5.828   5.330
 6900SOL    HW121599   6.085   5.794   5.238
 6900SOL    HW221600   6.080   5.754   5.396
 6901SOL     OW21601   6.715   6.165   6.103
 6901SOL    HW121602   6.788   6.122   6.051
 6901SOL    HW221603   6.754   6.216   6.180
 6902SOL     OW21604   5.537   6.058   6.845
 6902SOL    HW121605   5.503   6.073   6.938
 6902SOL    HW221606   5.527   5.961   6.821
 6903SOL     OW21607   2.986   5.061   5.137
 6903SOL    HW121608   3.062   5.001   5.163
 6903SOL    HW221609   2.903   5.007   5.126
 6904SOL     OW21610   6.670   0.888   4.517
 6904SOL    HW121611   6.650   0.868   4.421
 6904SOL    HW221612   6.735   0.964   4.522
 6905SOL     OW21613   5.955   6.517   6.336
 6905SOL    HW121614   5.946   6.445   6.267
 6905SOL    HW221615   5.922   6.484   6.424
 6906SOL     OW21616   4.541   1.328   4.452
 6906SOL    HW121617   4.553   1.313   4.354
 6906SOL    HW221618   4.585   1.253   4.503
 6907SOL     OW21619   5.310   3.157   1.725
 6907SOL    HW121620   5.382   3.088   1.738
 6907SOL    HW221621   5.269   3.145   1.634
 6908SOL     OW21622   0.623   5.134   6.494
 6908SOL    HW121623   0.672   5.139   6.581
 6908SOL    HW221624   0.568   5.050   6.492
 6909SOL     OW21625   4.727   4.318   1.544
 6909SOL    HW121626   4.698   4.368   1.625
 6909SOL    HW221627   4.715   4.220   1.559
 6910SOL     OW21628   0.628   2.780   3.454
 6910SOL    HW121629   0.675   2.869   3.462
 6910SOL    HW221630   0.686   2.717   3.403
 6911SOL     OW21631   4.264   6.098   4.043
 6911SOL    HW121632   4.293   6.024   4.104
 6911SOL    HW221633   4.302   6.184   4.076
 6912SOL     OW21634   3.736   3.894   6.278
 6912SOL    HW121635   3.807   3.824   6.269
 6912SOL    HW221636   3.745   3.960   6.204
 6913SOL     OW21637   5.506   6.045   3.673
 6913SOL    HW121638   5.429   6.054   3.736
 6913SOL    HW221639   5.515   5.949   3.644
 6914SOL     OW21640   6.238   4.039   3.510
 6914SOL    HW121641   6.253   4.044   3.411
 6914SOL    HW221642   6.271   3.951   3.544
 6915SOL     OW21643   6.156   2.868   1.804
 6915SOL    HW121644   6.059   2.892   1.795
 6915SOL    HW221645   6.166   2.768   1.799
 6916SOL     OW21646   5.860   1.877   6.840
 6916SOL    HW121647   5.793   1.861   6.913
 6916SOL    HW221648   5.952   1.857   6.874
 6917SOL     OW21649   3.389   6.996   1.669
 6917SOL    HW121650   3.323   6.936   1.625
 6917SOL    HW221651   3.479   6.984   1.626
 6918SOL     OW21652   0.353   2.759   4.617
 6918SOL    HW121653   0.391   2.709   4.695
 6918SOL    HW221654   0.368   2.857   4.630
 6919SOL     OW21655   6.254   5.914   3.611
 6919SOL    HW121656   6.224   5.818   3.615
 6919SOL    HW221657   6.349   5.920   3.641
 6920SOL     OW21658   3.863   6.095   5.624
 6920SOL    HW121659   3.883   6.143   5.709
 6920SOL    HW221660   3.849   6.162   5.551
 6921SOL     OW21661   5.161   5.720   3.912
 6921SOL    HW121662   5.145   5.632   3.868
 6921SOL    HW221663   5.135   5.713   4.009
 6922SOL     OW21664   1.695   6.206   4.898
 6922SOL    HW121665   1.775   6.266   4.900
 6922SOL    HW221666   1.629   6.237   4.966
 6923SOL     OW21667   5.088   5.796   3.228
 6923SOL    HW121668   5.017   5.866   3.230
 6923SOL    HW221669   5.098   5.760   3.136
 6924SOL     OW21670   2.394   4.274   6.631
 6924SOL    HW121671   2.484   4.314   6.613
 6924SOL    HW221672   2.344   4.263   6.544
 6925SOL     OW21673   4.993   6.187   3.788
 6925SOL    HW121674   5.038   6.099   3.801
 6925SOL    HW221675   4.896   6.173   3.769
 6926SOL     OW21676   3.175   2.134   1.041
 6926SOL    HW121677   3.208   2.083   1.120
 6926SOL    HW221678   3.100   2.083   0.998
 6927SOL     OW21679   3.997   3.130   6.097
 6927SOL    HW121680   3.961   3.196   6.163
 6927SOL    HW221681   3.986   3.166   6.005
 6928SOL     OW21682   5.672   5.986   1.068
 6928SOL    HW121683   5.765   6.003   1.035
 6928SOL    HW221684   5.646   5.891   1.049
 6929SOL     OW21685   5.486   5.533   1.616
 6929SOL    HW121686   5.519   5.619   1.655
 6929SOL    HW221687   5.390   5.520   1.639
 6930SOL     OW21688   0.865   0.584   2.452
 6930SOL    HW121689   0.844   0.576   2.550
 6930SOL    HW221690   0.843   0.497   2.407
 6931SOL     OW21691   1.852   0.576   2.536
 6931SOL    HW121692   1.799   0.653   2.501
 6931SOL    HW221693   1.867   0.589   2.634
 6932SOL     OW21694   4.541   6.196   0.252
 6932SOL    HW121695   4.494   6.216   0.167
 6932SOL    HW221696   4.611   6.265   0.269
 6933SOL     OW21697   3.138   6.091   5.517
 6933SOL    HW121698   3.144   6.148   5.436
 6933SOL    HW221699   3.226   6.046   5.534
 6934SOL     OW21700   4.535   3.702   6.466
 6934SOL    HW121701   4.500   3.781   6.415
 6934SOL    HW221702   4.593   3.734   6.541
 6935SOL     OW21703   4.721   5.597   2.256
 6935SOL    HW121704   4.723   5.682   2.203
 6935SOL    HW221705   4.723   5.619   2.354
 6936SOL     OW21706   6.233   1.678   3.140
 6936SOL    HW121707   6.272   1.661   3.050
 6936SOL    HW221708   6.179   1.761   3.138
 6937SOL     OW21709   6.455   6.134   0.320
 6937SOL    HW121710   6.442   6.160   0.225
 6937SOL    HW221711   6.373   6.157   0.372
 6938SOL     OW21712   5.928   2.670   5.063
 6938SOL    HW121713   5.893   2.581   5.091
 6938SOL    HW221714   5.916   2.736   5.137
 6939SOL     OW21715   1.071   5.113   1.683
 6939SOL    HW121716   1.126   5.060   1.748
 6939SOL    HW221717   0.984   5.067   1.667
 6940SOL     OW21718   3.684   0.549   6.258
 6940SOL    HW121719   3.627   0.495   6.319
 6940SOL    HW221720   3.695   0.502   6.171
 6941SOL     OW21721   3.351   4.079   1.939
 6941SOL    HW121722   3.267   4.097   1.888
 6941SOL    HW221723   3.328   4.053   2.033
 6942SOL     OW21724   6.316   6.844   1.672
 6942SOL    HW121725   6.413   6.864   1.681
 6942SOL    HW221726   6.298   6.802   1.583
 6943SOL     OW21727   3.015   5.708   7.003
 6943SOL    HW121728   3.088   5.748   6.947
 6943SOL    HW221729   2.968   5.636   6.952
 6944SOL     OW21730   0.554   4.366   6.672
 6944SOL    HW121731   0.648   4.386   6.644
 6944SOL    HW221732   0.506   4.319   6.597
 6945SOL     OW21733   6.088   1.173   6.602
 6945SOL    HW121734   6.050   1.257   6.563
 6945SOL    HW221735   6.174   1.151   6.557
 6946SOL     OW21736   4.309   6.984   0.753
 6946SOL    HW121737   4.287   0.055   0.713
 6946SOL    HW221738   4.275   6.911   0.693
 6947SOL     OW21739   3.227   5.638   6.312
 6947SOL    HW121740   3.263   5.640   6.219
 6947SOL    HW221741   3.247   5.550   6.354
 6948SOL     OW21742   0.641   0.554   0.506
 6948SOL    HW121743   0.657   0.595   0.416
 6948SOL    HW221744   0.673   0.459   0.505
 6949SOL     OW21745   4.105   6.969   3.567
 6949SOL    HW121746   4.058   6.881   3.563
 6949SOL    HW221747   4.105   7.011   3.476
 6950SOL     OW21748   1.273   2.044   4.501
 6950SOL    HW121749   1.373   2.051   4.496
 6950SOL    HW221750   1.233   2.132   4.476
 6951SOL     OW21751   6.293   5.361   5.949
 6951SOL    HW121752   6.305   5.425   5.873
 6951SOL    HW221753   6.244   5.280   5.918
 6952SOL     OW21754   0.417   5.867   3.191
 6952SOL    HW121755   0.462   5.914   3.267
 6952SOL    HW221756   0.459   5.897   3.105
 6953SOL     OW21757   4.344   6.665   1.133
 6953SOL    HW121758   4.251   6.703   1.133
 6953SOL    HW221759   4.406   6.729   1.179
 6954SOL     OW21760   6.876   3.928   2.298
 6954SOL    HW121761   6.862   3.913   2.396
 6954SOL    HW221762   6.801   3.886   2.247
 6955SOL     OW21763   6.056   7.015   2.210
 6955SOL    HW121764   5.997   0.012   2.289
 6955SOL    HW221765   6.039   0.069   2.142
 6956SOL     OW21766   6.061   6.098   3.669
 6956SOL    HW121767   5.976   6.053   3.644
 6956SOL    HW221768   6.135   6.031   3.672
 6957SOL     OW21769   6.448   5.394   0.573
 6957SOL    HW121770   6.436   5.342   0.489
 6957SOL    HW221771   6.474   5.488   0.551
 6958SOL     OW21772   4.003   3.232   4.348
 6958SOL    HW121773   3.997   3.133   4.341
 6958SOL    HW221774   4.061   3.267   4.274
 6959SOL     OW21775   2.090   3.232   3.638
 6959SOL    HW121776   2.049   3.218   3.729
 6959SOL    HW221777   2.094   3.331   3.619
 6960SOL     OW21778   1.848   4.710   1.257
 6960SOL    HW121779   1.817   4.620   1.288
 6960SOL    HW221780   1.940   4.702   1.220
 6961SOL     OW21781   5.848   1.039   3.968
 6961SOL    HW121782   5.910   0.963   3.988
 6961SOL    HW221783   5.818   1.081   4.054
 6962SOL     OW21784   4.904   6.306   1.837
 6962SOL    HW121785   4.999   6.291   1.864
 6962SOL    HW221786   4.893   6.288   1.739
 6963SOL     OW21787   5.411   5.908   0.710
 6963SOL    HW121788   5.317   5.896   0.680
 6963SOL    HW221789   5.435   5.835   0.774
 6964SOL     OW21790   3.175   0.888   5.542
 6964SOL    HW121791   3.250   0.949   5.566
 6964SOL    HW221792   3.105   0.939   5.491
 6965SOL     OW21793   0.929   1.120   0.583
 6965SOL    HW121794   0.913   1.064   0.502
 6965SOL    HW221795   0.937   1.061   0.663
 6966SOL     OW21796   1.210   2.312   3.078
 6966SOL    HW121797   1.244   2.387   3.022
 6966SOL    HW221798   1.157   2.249   3.021
 6967SOL     OW21799   2.783   1.014   5.575
 6967SOL    HW121800   2.686   0.993   5.565
 6967SOL    HW221801   2.835   0.969   5.503
 6968SOL     OW21802   3.831   6.972   2.901
 6968SOL    HW121803   3.843   6.910   2.823
 6968SOL    HW221804   3.787   6.922   2.976
 6969SOL     OW21805   3.030   2.448   1.658
 6969SOL    HW121806   2.987   2.437   1.747
 6969SOL    HW221807   3.127   2.468   1.669
 6970SOL     OW21808   4.494   4.605   5.338
 6970SOL    HW121809   4.499   4.535   5.266
 6970SOL    HW221810   4.481   4.560   5.426
 6971SOL     OW21811   6.525   4.610   1.411
 6971SOL    HW121812   6.624   4.619   1.425
 6971SOL    HW221813   6.480   4.599   1.499
 6972SOL     OW21814   5.376   4.773   3.050
 6972SOL    HW121815   5.444   4.773   2.977
 6972SOL    HW221816   5.370   4.682   3.090
 6973SOL     OW21817   0.780   3.019   3.497
 6973SOL    HW121818   0.861   2.974   3.460
 6973SOL    HW221819   0.802   3.062   3.584
 6974SOL     OW21820   3.035   3.634   3.084
 6974SOL    HW121821   2.995   3.667   2.999
 6974SOL    HW221822   3.134   3.647   3.081
 6975SOL     OW21823   1.796   6.376   6.738
 6975SOL    HW121824   1.750   6.328   6.663
 6975SOL    HW221825   1.756   6.467   6.748
 6976SOL     OW21826   5.802   5.167   5.150
 6976SOL    HW121827   5.820   5.207   5.240
 6976SOL    HW221828   5.739   5.225   5.099
 6977SOL     OW21829   3.833   2.818   1.709
 6977SOL    HW121830   3.773   2.738   1.711
 6977SOL    HW221831   3.845   2.853   1.802
 6978SOL     OW21832   6.099   1.683   1.926
 6978SOL    HW121833   6.039   1.751   1.968
 6978SOL    HW221834   6.053   1.643   1.847
 6979SOL     OW21835   0.894   4.291   1.679
 6979SOL    HW121836   0.950   4.374   1.676
 6979SOL    HW221837   0.949   4.212   1.654
 6980SOL     OW21838   2.155   0.784   3.925
 6980SOL    HW121839   2.168   0.786   3.825
 6980SOL    HW221840   2.127   0.875   3.955
 6981SOL     OW21841   3.998   2.670   6.090
 6981SOL    HW121842   3.934   2.745   6.073
 6981SOL    HW221843   3.968   2.588   6.041
 6982SOL     OW21844   1.587   1.015   4.888
 6982SOL    HW121845   1.613   1.076   4.963
 6982SOL    HW221846   1.497   0.976   4.906
 6983SOL     OW21847   3.414   1.997   3.512
 6983SOL    HW121848   3.443   2.026   3.603
 6983SOL    HW221849   3.456   2.057   3.443
 6984SOL     OW21850   1.557   1.529   3.613
 6984SOL    HW121851   1.598   1.451   3.659
 6984SOL    HW221852   1.502   1.497   3.536
 6985SOL     OW21853   5.957   5.167   1.265
 6985SOL    HW121854   5.881   5.162   1.201
 6985SOL    HW221855   6.040   5.132   1.221
 6986SOL     OW21856   2.557   0.393   6.146
 6986SOL    HW121857   2.640   0.382   6.091
 6986SOL    HW221858   2.478   0.359   6.096
 6987SOL     OW21859   5.898   1.346   6.068
 6987SOL    HW121860   5.820   1.341   6.130
 6987SOL    HW221861   5.946   1.433   6.081
 6988SOL     OW21862   0.497   6.616   6.139
 6988SOL    HW121863   0.561   6.626   6.064
 6988SOL    HW221864   0.547   6.617   6.226
 6989SOL     OW21865   0.849   3.701   2.974
 6989SOL    HW121866   0.906   3.720   3.054
 6989SOL    HW221867   0.756   3.732   2.991
 6990SOL     OW21868   5.225   2.481   1.173
 6990SOL    HW121869   5.261   2.388   1.162
 6990SOL    HW221870   5.193   2.493   1.267
 6991SOL     OW21871   4.356   4.714   3.291
 6991SOL    HW121872   4.430   4.647   3.291
 6991SOL    HW221873   4.287   4.688   3.359
 6992SOL     OW21874   5.332   6.971   6.485
 6992SOL    HW121875   5.400   6.897   6.486
 6992SOL    HW221876   5.243   6.934   6.459
 6993SOL     OW21877   5.936   0.584   3.084
 6993SOL    HW121878   5.991   0.632   3.152
 6993SOL    HW221879   5.988   0.505   3.049
 6994SOL     OW21880   0.040   2.455   4.299
 6994SOL    HW121881   0.094   2.537   4.318
 6994SOL    HW221882   6.991   2.441   4.372
 6995SOL     OW21883   0.120   5.033   6.191
 6995SOL    HW121884   0.107   4.979   6.274
 6995SOL    HW221885   0.193   4.993   6.136
 6996SOL     OW21886   1.694   0.115   6.565
 6996SOL    HW121887   1.608   0.158   6.592
 6996SOL    HW221888   1.680   0.060   6.483
 6997SOL     OW21889   6.840   5.691   5.350
 6997SOL    HW121890   6.828   5.788   5.370
 6997SOL    HW221891   6.878   5.645   5.431
 6998SOL     OW21892   2.327   0.337   1.377
 6998SOL    HW121893   2.312   0.348   1.278
 6998SOL    HW221894   2.424   0.355   1.398
 6999SOL     OW21895   2.041   2.078   6.975
 6999SOL    HW121896   2.091   2.110   0.038
 6999SOL    HW221897   2.074   2.126   6.894
 7000SOL     OW21898   4.969   0.051   1.383
 7000SOL    HW121899   5.022   6.985   1.374
 7000SOL    HW221900   5.001   0.102   1.463
 7001SOL     OW21901   1.926   3.117   6.209
 7001SOL    HW121902   1.899   3.150   6.119
 7001SOL    HW221903   1.908   3.019   6.215
 7002SOL     OW21904   1.574   5.390   3.894
 7002SOL    HW121905   1.538   5.416   3.804
 7002SOL    HW221906   1.594   5.473   3.946
 7003SOL     OW21907   4.333   5.586   0.651
 7003SOL    HW121908   4.310   5.491   0.672
 7003SOL    HW221909   4.293   5.611   0.563
 7004SOL     OW21910   0.874   5.423   2.183
 7004SOL    HW121911   0.810   5.465   2.248
 7004SOL    HW221912   0.858   5.461   2.092
 7005SOL     OW21913   0.853   6.874   0.701
 7005SOL    HW121914   0.918   6.866   0.777
 7005SOL    HW221915   0.902   6.864   0.614
 7006SOL     OW21916   5.089   5.010   3.895
 7006SOL    HW121917   5.056   5.104   3.891
 7006SOL    HW221918   5.141   4.996   3.979
 7007SOL     OW21919   4.484   0.526   4.106
 7007SOL    HW121920   4.556   0.586   4.071
 7007SOL    HW221921   4.421   0.504   4.031
 7008SOL     OW21922   6.852   4.292   4.435
 7008SOL    HW121923   6.845   4.205   4.387
 7008SOL    HW221924   6.872   4.274   4.532
 7009SOL     OW21925   5.151   6.259   2.422
 7009SOL    HW121926   5.234   6.236   2.474
 7009SOL    HW221927   5.091   6.180   2.419
 7010SOL     OW21928   5.431   3.886   3.878
 7010SOL    HW121929   5.357   3.904   3.944
 7010SOL    HW221930   5.392   3.882   3.786
 7011SOL     OW21931   2.786   6.351   6.956
 7011SOL    HW121932   2.864   6.383   7.009
 7011SOL    HW221933   2.765   6.256   6.980
 7012SOL     OW21934   0.287   1.800   1.600
 7012SOL    HW121935   0.340   1.859   1.540
 7012SOL    HW221936   0.194   1.835   1.609
 7013SOL     OW21937   0.889   0.084   0.150
 7013SOL    HW121938   0.956   0.132   0.206
 7013SOL    HW221939   0.877   0.133   0.063
 7014SOL     OW21940   4.352   3.478   0.763
 7014SOL    HW121941   4.380   3.417   0.688
 7014SOL    HW221942   4.433   3.510   0.813
 7015SOL     OW21943   6.441   4.376   1.315
 7015SOL    HW121944   6.461   4.471   1.338
 7015SOL    HW221945   6.343   4.367   1.293
 7016SOL     OW21946   3.311   4.820   1.339
 7016SOL    HW121947   3.324   4.778   1.249
 7016SOL    HW221948   3.220   4.798   1.373
 7017SOL     OW21949   2.681   5.019   3.331
 7017SOL    HW121950   2.773   4.998   3.364
 7017SOL    HW221951   2.680   5.113   3.297
 7018SOL     OW21952   5.479   3.337   4.256
 7018SOL    HW121953   5.487   3.341   4.356
 7018SOL    HW221954   5.500   3.426   4.217
 7019SOL     OW21955   3.992   4.369   0.465
 7019SOL    HW121956   3.996   4.307   0.386
 7019SOL    HW221957   4.044   4.452   0.444
 7020SOL     OW21958   6.531   4.413   5.820
 7020SOL    HW121959   6.598   4.436   5.891
 7020SOL    HW221960   6.562   4.333   5.769
 7021SOL     OW21961   1.582   2.061   5.638
 7021SOL    HW121962   1.678   2.034   5.629
 7021SOL    HW221963   1.531   2.033   5.557
 7022SOL     OW21964   4.549   6.627   5.838
 7022SOL    HW121965   4.544   6.601   5.935
 7022SOL    HW221966   4.556   6.545   5.782
 7023SOL     OW21967   0.883   2.603   3.502
 7023SOL    HW121968   0.924   2.594   3.592
 7023SOL    HW221969   0.839   2.517   3.477
 7024SOL     OW21970   2.916   3.623   5.336
 7024SOL    HW121971   2.872   3.557   5.275
 7024SOL    HW221972   2.947   3.702   5.283
 7025SOL     OW21973   3.446   0.749   0.642
 7025SOL    HW121974   3.414   0.663   0.681
 7025SOL    HW221975   3.368   0.802   0.609
 7026SOL     OW21976   3.219   2.002   2.101
 7026SOL    HW121977   3.193   1.919   2.151
 7026SOL    HW221978   3.318   2.007   2.093
 7027SOL     OW21979   2.119   4.959   4.087
 7027SOL    HW121980   2.028   5.001   4.092
 7027SOL    HW221981   2.119   4.874   4.138
 7028SOL     OW21982   3.455   1.728   3.435
 7028SOL    HW121983   3.411   1.724   3.345
 7028SOL    HW221984   3.467   1.824   3.461
 7029SOL     OW21985   4.755   4.749   4.760
 7029SOL    HW121986   4.750   4.660   4.715
 7029SOL    HW221987   4.807   4.813   4.704
 7030SOL     OW21988   1.244   0.719   5.189
 7030SOL    HW121989   1.212   0.640   5.242
 7030SOL    HW221990   1.173   0.789   5.188
 7031SOL     OW21991   4.032   5.773   6.044
 7031SOL    HW121992   4.081   5.704   6.098
 7031SOL    HW221993   3.952   5.804   6.095
 7032SOL     OW21994   4.278   1.359   3.930
 7032SOL    HW121995   4.328   1.374   3.845
 7032SOL    HW221996   4.342   1.346   4.006
 7033SOL     OW21997   1.670   2.447   3.257
 7033SOL    HW121998   1.631   2.501   3.332
 7033SOL    HW221999   1.619   2.362   3.247
 7034SOL     OW22000   0.091   0.761   3.418
 7034SOL    HW122001   0.005   0.757   3.469
 7034SOL    HW222002   0.129   0.669   3.408
 7035SOL     OW22003   1.630   0.004   0.978
 7035SOL    HW122004   1.670   0.044   1.061
 7035SOL    HW222005   1.544   6.977   1.002
 7036SOL     OW22006   0.235   0.202   3.073
 7036SOL    HW122007   0.245   0.296   3.040
 7036SOL    HW222008   0.211   0.204   3.170
 7037SOL     OW22009   1.674   1.028   6.691
 7037SOL    HW122010   1.747   0.965   6.665
 7037SOL    HW222011   1.637   1.001   6.781
 7038SOL     OW22012   2.195   3.641   5.157
 7038SOL    HW122013   2.160   3.735   5.152
 7038SOL    HW222014   2.209   3.606   5.065
 7039SOL     OW22015   1.815   5.494   2.486
 7039SOL    HW122016   1.898   5.458   2.527
 7039SOL    HW222017   1.788   5.437   2.409
 7040SOL     OW22018   5.431   2.439   5.815
 7040SOL    HW122019   5.513   2.421   5.870
 7040SOL    HW222020   5.410   2.359   5.759
 7041SOL     OW22021   6.775   1.578   1.932
 7041SOL    HW122022   6.804   1.497   1.983
 7041SOL    HW222023   6.676   1.582   1.931
 7042SOL     OW22024   4.421   5.657   5.179
 7042SOL    HW122025   4.477   5.585   5.220
 7042SOL    HW222026   4.460   5.684   5.091
 7043SOL     OW22027   2.292   5.067   2.821
 7043SOL    HW122028   2.346   5.122   2.884
 7043SOL    HW222029   2.205   5.041   2.864
 7044SOL     OW22030   5.688   4.931   4.385
 7044SOL    HW122031   5.663   4.864   4.455
 7044SOL    HW222032   5.723   5.014   4.429
 7045SOL     OW22033   4.839   5.285   2.730
 7045SOL    HW122034   4.750   5.242   2.740
 7045SOL    HW222035   4.898   5.227   2.672
 7046SOL     OW22036   2.814   1.192   3.567
 7046SOL    HW122037   2.743   1.263   3.562
 7046SOL    HW222038   2.856   1.182   3.477
 7047SOL     OW22039   6.413   0.895   2.387
 7047SOL    HW122040   6.500   0.909   2.436
 7047SOL    HW222041   6.340   0.945   2.433
 7048SOL     OW22042   5.431   0.013   3.753
 7048SOL    HW122043   5.373   0.094   3.761
 7048SOL    HW222044   5.406   6.964   3.823
 7049SOL     OW22045   3.415   1.844   0.613
 7049SOL    HW122046   3.495   1.872   0.666
 7049SOL    HW222047   3.417   1.889   0.524
 7050SOL     OW22048   4.141   3.866   1.829
 7050SOL    HW122049   4.130   3.783   1.774
 7050SOL    HW222050   4.076   3.864   1.905
 7051SOL     OW22051   6.705   6.589   1.112
 7051SOL    HW122052   6.763   6.623   1.037
 7051SOL    HW222053   6.758   6.586   1.196
 7052SOL     OW22054   6.027   1.809   3.486
 7052SOL    HW122055   6.095   1.877   3.459
 7052SOL    HW222056   6.004   1.751   3.408
 7053SOL     OW22057   1.928   2.974   4.889
 7053SOL    HW122058   2.026   2.973   4.868
 7053SOL    HW222059   1.915   2.984   4.987
 7054SOL     OW22060   6.816   7.015   0.491
 7054SOL    HW122061   6.781   6.923   0.473
 7054SOL    HW222062   6.903   0.010   0.443
 7055SOL     OW22063   2.823   6.785   6.269
 7055SOL    HW122064   2.749   6.736   6.315
 7055SOL    HW222065   2.792   6.813   6.178
 7056SOL     OW22066   6.850   5.250   1.788
 7056SOL    HW122067   6.783   5.288   1.851
 7056SOL    HW222068   6.935   5.302   1.795
 7057SOL     OW22069   2.804   4.819   3.756
 7057SOL    HW122070   2.747   4.897   3.730
 7057SOL    HW222071   2.762   4.734   3.724
 7058SOL     OW22072   5.495   3.756   5.222
 7058SOL    HW122073   5.419   3.694   5.239
 7058SOL    HW222074   5.470   3.849   5.247
 7059SOL     OW22075   0.690   1.861   3.942
 7059SOL    HW122076   0.770   1.920   3.928
 7059SOL    HW222077   0.684   1.794   3.868
 7060SOL     OW22078   3.368   6.968   1.930
 7060SOL    HW122079   3.449   6.917   1.959
 7060SOL    HW222080   3.369   6.979   1.830
 7061SOL     OW22081   0.075   3.087   4.090
 7061SOL    HW122082   0.142   3.105   4.018
 7061SOL    HW222083   0.035   2.996   4.077
 7062SOL     OW22084   3.293   2.352   5.440
 7062SOL    HW122085   3.237   2.273   5.461
 7062SOL    HW222086   3.290   2.370   5.341
 7063SOL     OW22087   1.731   6.405   1.966
 7063SOL    HW122088   1.824   6.395   1.931
 7063SOL    HW222089   1.670   6.342   1.918
 7064SOL     OW22090   3.815   1.955   6.722
 7064SOL    HW122091   3.868   2.026   6.768
 7064SOL    HW222092   3.875   1.878   6.698
 7065SOL     OW22093   4.649   3.887   6.104
 7065SOL    HW122094   4.622   3.794   6.131
 7065SOL    HW222095   4.721   3.882   6.035
 7066SOL     OW22096   3.979   7.017   6.254
 7066SOL    HW122097   3.925   0.052   6.320
 7066SOL    HW222098   4.056   6.974   6.301
 7067SOL     OW22099   1.357   3.193   5.253
 7067SOL    HW122100   1.393   3.235   5.336
 7067SOL    HW222101   1.417   3.214   5.176
 7068SOL     OW22102   6.206   4.249   4.764
 7068SOL    HW122103   6.123   4.202   4.795
 7068SOL    HW222104   6.189   4.293   4.676
 7069SOL     OW22105   5.055   2.335   4.527
 7069SOL    HW122106   5.026   2.316   4.620
 7069SOL    HW222107   4.993   2.401   4.485
 7070SOL     OW22108   0.345   6.882   4.461
 7070SOL    HW122109   0.380   6.866   4.368
 7070SOL    HW222110   0.245   6.879   4.460
 7071SOL     OW22111   3.892   6.294   5.855
 7071SOL    HW122112   3.799   6.331   5.851
 7071SOL    HW222113   3.958   6.369   5.853
 7072SOL     OW22114   1.634   5.919   0.081
 7072SOL    HW122115   1.727   5.887   0.098
 7072SOL    HW222116   1.622   5.939   7.002
 7073SOL     OW22117   5.610   0.188   3.909
 7073SOL    HW122118   5.627   0.105   3.856
 7073SOL    HW222119   5.585   0.163   4.003
 7074SOL     OW22120   6.188   2.593   1.760
 7074SOL    HW122121   6.250   2.566   1.834
 7074SOL    HW222122   6.216   2.550   1.675
 7075SOL     OW22123   1.649   4.507   4.934
 7075SOL    HW122124   1.577   4.574   4.914
 7075SOL    HW222125   1.712   4.502   4.856
 7076SOL     OW22126   5.461   2.876   0.207
 7076SOL    HW122127   5.403   2.957   0.222
 7076SOL    HW222128   5.509   2.885   0.120
 7077SOL     OW22129   2.119   4.557   3.793
 7077SOL    HW122130   2.140   4.466   3.756
 7077SOL    HW222131   2.171   4.571   3.877
 7078SOL     OW22132   6.829   6.215   2.172
 7078SOL    HW122133   6.846   6.130   2.221
 7078SOL    HW222134   6.905   6.279   2.188
 7079SOL     OW22135   0.827   0.258   4.411
 7079SOL    HW122136   0.805   0.196   4.486
 7079SOL    HW222137   0.863   0.344   4.448
 7080SOL     OW22138   3.549   1.421   5.039
 7080SOL    HW122139   3.486   1.498   5.026
 7080SOL    HW222140   3.505   1.336   5.010
 7081SOL     OW22141   2.142   6.018   0.098
 7081SOL    HW122142   2.044   6.026   0.078
 7081SOL    HW222143   2.177   6.107   0.129
 7082SOL     OW22144   6.530   4.649   6.831
 7082SOL    HW122145   6.531   4.679   6.927
 7082SOL    HW222146   6.595   4.702   6.778
 7083SOL     OW22147   1.574   0.796   1.873
 7083SOL    HW122148   1.659   0.788   1.821
 7083SOL    HW222149   1.588   0.854   1.953
 7084SOL     OW22150   0.584   5.334   5.141
 7084SOL    HW122151   0.502   5.378   5.104
 7084SOL    HW222152   0.649   5.405   5.171
 7085SOL     OW22153   0.123   1.684   2.354
 7085SOL    HW122154   0.118   1.632   2.269
 7085SOL    HW222155   0.114   1.782   2.335
 7086SOL     OW22156   5.963   0.522   5.839
 7086SOL    HW122157   5.938   0.567   5.925
 7086SOL    HW222158   5.962   0.423   5.852
 7087SOL     OW22159   5.905   3.952   3.249
 7087SOL    HW122160   5.853   3.899   3.316
 7087SOL    HW222161   5.872   3.931   3.157
 7088SOL     OW22162   4.971   2.477   3.948
 7088SOL    HW122163   4.916   2.430   3.880
 7088SOL    HW222164   4.930   2.467   4.039
 7089SOL     OW22165   2.596   2.231   4.672
 7089SOL    HW122166   2.646   2.189   4.748
 7089SOL    HW222167   2.575   2.327   4.694
 7090SOL     OW22168   1.793   0.898   0.624
 7090SOL    HW122169   1.825   0.926   0.534
 7090SOL    HW222170   1.808   0.800   0.636
 7091SOL     OW22171   0.062   1.653   0.861
 7091SOL    HW122172   0.155   1.684   0.843
 7091SOL    HW222173   0.038   1.671   0.956
 7092SOL     OW22174   4.297   2.846   5.465
 7092SOL    HW122175   4.292   2.767   5.404
 7092SOL    HW222176   4.384   2.894   5.452
 7093SOL     OW22177   3.275   3.960   2.166
 7093SOL    HW122178   3.237   3.870   2.142
 7093SOL    HW222179   3.242   3.986   2.257
 7094SOL     OW22180   0.198   6.036   5.885
 7094SOL    HW122181   0.224   5.987   5.968
 7094SOL    HW222182   0.248   6.123   5.881
 7095SOL     OW22183   3.214   4.653   5.922
 7095SOL    HW122184   3.156   4.732   5.901
 7095SOL    HW222185   3.229   4.648   6.021
 7096SOL     OW22186   6.738   0.718   2.336
 7096SOL    HW122187   6.810   0.758   2.394
 7096SOL    HW222188   6.674   0.667   2.394
 7097SOL     OW22189   4.867   0.637   1.552
 7097SOL    HW122190   4.888   0.734   1.551
 7097SOL    HW222191   4.806   0.615   1.475
 7098SOL     OW22192   2.414   5.762   5.553
 7098SOL    HW122193   2.390   5.684   5.612
 7098SOL    HW222194   2.373   5.751   5.463
 7099SOL     OW22195   3.681   1.554   5.242
 7099SOL    HW122196   3.769   1.579   5.201
 7099SOL    HW222197   3.639   1.481   5.188
 7100SOL     OW22198   6.749   3.668   6.899
 7100SOL    HW122199   6.719   3.733   6.969
 7100SOL    HW222200   6.695   3.681   6.816
 7101SOL     OW22201   2.529   1.707   5.698
 7101SOL    HW122202   2.473   1.769   5.753
 7101SOL    HW222203   2.492   1.702   5.605
 7102SOL     OW22204   5.217   0.335   1.022
 7102SOL    HW122205   5.234   0.255   1.080
 7102SOL    HW222206   5.130   0.376   1.046
 7103SOL     OW22207   6.083   5.516   1.915
 7103SOL    HW122208   6.157   5.572   1.878
 7103SOL    HW222209   6.031   5.569   1.982
 7104SOL     OW22210   6.559   3.844   2.800
 7104SOL    HW122211   6.538   3.927   2.850
 7104SOL    HW222212   6.492   3.773   2.822
 7105SOL     OW22213   2.773   3.428   5.218
 7105SOL    HW122214   2.774   3.392   5.125
 7105SOL    HW222215   2.701   3.382   5.271
 7106SOL     OW22216   3.462   3.205   2.206
 7106SOL    HW122217   3.416   3.283   2.248
 7106SOL    HW222218   3.545   3.183   2.257
 7107SOL     OW22219   4.762   0.405   0.697
 7107SOL    HW122220   4.693   0.336   0.676
 7107SOL    HW222221   4.766   0.472   0.624
 7108SOL     OW22222   3.278   6.026   2.740
 7108SOL    HW122223   3.231   6.081   2.670
 7108SOL    HW222224   3.376   6.044   2.736
 7109SOL     OW22225   1.877   6.980   5.604
 7109SOL    HW122226   1.964   6.941   5.573
 7109SOL    HW222227   1.816   6.908   5.633
 7110SOL     OW22228   2.762   5.539   4.488
 7110SOL    HW122229   2.852   5.543   4.530
 7110SOL    HW222230   2.699   5.490   4.548
 7111SOL     OW22231   0.995   2.454   5.234
 7111SOL    HW122232   0.945   2.441   5.149
 7111SOL    HW222233   1.060   2.380   5.246
 7112SOL     OW22234   1.560   5.335   4.338
 7112SOL    HW122235   1.633   5.401   4.358
 7112SOL    HW222236   1.483   5.382   4.295
 7113SOL     OW22237   3.335   3.943   4.796
 7113SOL    HW122238   3.351   3.865   4.857
 7113SOL    HW222239   3.256   3.995   4.828
 7114SOL     OW22240   5.168   5.537   0.832
 7114SOL    HW122241   5.249   5.544   0.891
 7114SOL    HW222242   5.111   5.618   0.845
 7115SOL     OW22243   4.483   2.767   0.050
 7115SOL    HW122244   4.579   2.776   0.074
 7115SOL    HW222245   4.436   2.711   0.119
 7116SOL     OW22246   5.526   4.368   3.036
 7116SOL    HW122247   5.616   4.401   3.065
 7116SOL    HW222248   5.537   4.308   2.957
 7117SOL     OW22249   0.604   6.224   5.265
 7117SOL    HW122250   0.592   6.169   5.347
 7117SOL    HW222251   0.522   6.217   5.208
 7118SOL     OW22252   3.556   4.680   6.496
 7118SOL    HW122253   3.574   4.582   6.498
 7118SOL    HW222254   3.536   4.709   6.402
 7119SOL     OW22255   5.368   0.876   4.075
 7119SOL    HW122256   5.441   0.942   4.057
 7119SOL    HW222257   5.321   0.901   4.159
 7120SOL     OW22258   3.485   2.048   2.061
 7120SOL    HW122259   3.466   2.025   1.966
 7120SOL    HW222260   3.564   2.109   2.066
 7121SOL     OW22261   0.698   6.649   3.794
 7121SOL    HW122262   0.708   6.551   3.776
 7121SOL    HW222263   0.662   6.694   3.712
 7122SOL     OW22264   1.236   0.749   5.908
 7122SOL    HW122265   1.256   0.791   5.997
 7122SOL    HW222266   1.315   0.761   5.847
 7123SOL     OW22267   1.373   4.972   3.836
 7123SOL    HW122268   1.343   5.065   3.814
 7123SOL    HW222269   1.312   4.906   3.793
 7124SOL     OW22270   0.164   2.713   1.790
 7124SOL    HW122271   0.177   2.680   1.696
 7124SOL    HW222272   0.185   2.811   1.793
 7125SOL     OW22273   0.720   0.278   0.459
 7125SOL    HW122274   0.665   0.251   0.381
 7125SOL    HW222275   0.702   0.217   0.536
 7126SOL     OW22276   3.441   5.083   0.858
 7126SOL    HW122277   3.351   5.126   0.861
 7126SOL    HW222278   3.482   5.096   0.768
 7127SOL     OW22279   2.421   6.155   6.790
 7127SOL    HW122280   2.463   6.141   6.700
 7127SOL    HW222281   2.349   6.088   6.804
 7128SOL     OW22282   3.347   4.076   6.500
 7128SOL    HW122283   3.287   4.081   6.580
 7128SOL    HW222284   3.351   4.165   6.455
 7129SOL     OW22285   2.258   1.135   0.429
 7129SOL    HW122286   2.335   1.194   0.453
 7129SOL    HW222287   2.276   1.091   0.341
 7130SOL     OW22288   3.140   5.852   3.793
 7130SOL    HW122289   3.111   5.768   3.840
 7130SOL    HW222290   3.227   5.836   3.747
 7131SOL     OW22291   2.792   0.859   1.567
 7131SOL    HW122292   2.781   0.777   1.511
 7131SOL    HW222293   2.887   0.868   1.595
 7132SOL     OW22294   3.926   4.168   0.283
 7132SOL    HW122295   3.970   4.079   0.290
 7132SOL    HW222296   3.838   4.165   0.330
 7133SOL     OW22297   4.081   4.796   5.260
 7133SOL    HW122298   4.011   4.856   5.222
 7133SOL    HW222299   4.038   4.714   5.299
 7134SOL     OW22300   4.645   6.715   1.785
 7134SOL    HW122301   4.692   6.644   1.839
 7134SOL    HW222302   4.573   6.756   1.841
 7135SOL     OW22303   1.872   2.336   3.423
 7135SOL    HW122304   1.948   2.315   3.361
 7135SOL    HW222305   1.795   2.373   3.371
 7136SOL     OW22306   2.808   1.685   0.344
 7136SOL    HW122307   2.819   1.785   0.350
 7136SOL    HW222308   2.884   1.640   0.390
 7137SOL     OW22309   2.550   1.598   0.397
 7137SOL    HW122310   2.638   1.618   0.355
 7137SOL    HW222311   2.557   1.609   0.496
 7138SOL     OW22312   1.958   2.150   0.741
 7138SOL    HW122313   1.990   2.189   0.828
 7138SOL    HW222314   2.038   2.127   0.685
 7139SOL     OW22315   5.211   5.129   1.793
 7139SOL    HW122316   5.283   5.185   1.834
 7139SOL    HW222317   5.159   5.184   1.728
 7140SOL     OW22318   6.118   4.219   1.127
 7140SOL    HW122319   6.085   4.187   1.039
 7140SOL    HW222320   6.121   4.319   1.127
 7141SOL     OW22321   3.414   6.378   0.856
 7141SOL    HW122322   3.384   6.365   0.950
 7141SOL    HW222323   3.387   6.469   0.825
 7142SOL     OW22324   4.282   6.637   3.531
 7142SOL    HW122325   4.344   6.590   3.594
 7142SOL    HW222326   4.334   6.705   3.479
 7143SOL     OW22327   2.167   3.571   0.156
 7143SOL    HW122328   2.223   3.557   0.238
 7143SOL    HW222329   2.166   3.486   0.103
 7144SOL     OW22330   1.568   1.627   3.091
 7144SOL    HW122331   1.567   1.584   3.000
 7144SOL    HW222332   1.485   1.602   3.141
 7145SOL     OW22333   3.636   0.943   6.563
 7145SOL    HW122334   3.559   0.918   6.504
 7145SOL    HW222335   3.696   1.007   6.515
 7146SOL     OW22336   1.537   0.429   6.445
 7146SOL    HW122337   1.439   0.439   6.460
 7146SOL    HW222338   1.586   0.449   6.530
 7147SOL     OW22339   0.145   6.187   3.206
 7147SOL    HW122340   0.106   6.236   3.284
 7147SOL    HW222341   0.123   6.090   3.212
 7148SOL     OW22342   6.709   6.092   1.652
 7148SOL    HW122343   6.690   6.045   1.567
 7148SOL    HW222344   6.749   6.182   1.633
 7149SOL     OW22345   0.450   6.002   4.303
 7149SOL    HW122346   0.444   6.102   4.304
 7149SOL    HW222347   0.510   5.973   4.228
 7150SOL     OW22348   3.586   2.826   0.689
 7150SOL    HW122349   3.514   2.757   0.690
 7150SOL    HW222350   3.555   2.906   0.638
 7151SOL     OW22351   3.414   6.622   1.180
 7151SOL    HW122352   3.332   6.620   1.123
 7151SOL    HW222353   3.428   6.715   1.215
 7152SOL     OW22354   6.877   0.660   5.527
 7152SOL    HW122355   6.864   0.574   5.477
 7152SOL    HW222356   6.787   0.698   5.550
 7153SOL     OW22357   4.128   5.157   1.602
 7153SOL    HW122358   4.126   5.194   1.695
 7153SOL    HW222359   4.194   5.207   1.547
 7154SOL     OW22360   5.156   6.101   2.945
 7154SOL    HW122361   5.057   6.114   2.944
 7154SOL    HW222362   5.201   6.189   2.930
 7155SOL     OW22363   2.928   3.376   1.330
 7155SOL    HW122364   2.903   3.294   1.382
 7155SOL    HW222365   2.969   3.349   1.243
 7156SOL     OW22366   6.527   3.810   2.522
 7156SOL    HW122367   6.447   3.751   2.508
 7156SOL    HW222368   6.564   3.795   2.613
 7157SOL     OW22369   0.272   4.651   1.624
 7157SOL    HW122370   0.279   4.750   1.611
 7157SOL    HW222371   0.189   4.617   1.580
 7158SOL     OW22372   0.749   0.196   3.853
 7158SOL    HW122373   0.781   0.205   3.947
 7158SOL    HW222374   0.798   0.262   3.795
 7159SOL     OW22375   0.819   4.881   3.815
 7159SOL    HW122376   0.836   4.876   3.717
 7159SOL    HW222377   0.830   4.791   3.856
 7160SOL     OW22378   6.312   0.147   2.940
 7160SOL    HW122379   6.393   0.107   2.983
 7160SOL    HW222380   6.337   0.233   2.895
 7161SOL     OW22381   3.216   3.843   2.945
 7161SOL    HW122382   3.261   3.757   2.970
 7161SOL    HW222383   3.194   3.842   2.848
 7162SOL     OW22384   1.540   5.139   6.090
 7162SOL    HW122385   1.487   5.093   6.162
 7162SOL    HW222386   1.482   5.206   6.044
 7163SOL     OW22387   2.785   0.411   2.611
 7163SOL    HW122388   2.865   0.406   2.550
 7163SOL    HW222389   2.718   0.475   2.573
 7164SOL     OW22390   3.290   0.806   4.911
 7164SOL    HW122391   3.222   0.872   4.943
 7164SOL    HW222392   3.316   0.827   4.818
 7165SOL     OW22393   5.891   6.457   1.646
 7165SOL    HW122394   5.808   6.408   1.671
 7165SOL    HW222395   5.882   6.554   1.668
 7166SOL     OW22396   5.039   1.891   0.410
 7166SOL    HW122397   4.951   1.898   0.458
 7166SOL    HW222398   5.031   1.933   0.320
 7167SOL     OW22399   5.179   3.421   4.553
 7167SOL    HW122400   5.203   3.418   4.651
 7167SOL    HW222401   5.104   3.485   4.540
 7168SOL     OW22402   2.145   2.056   3.623
 7168SOL    HW122403   2.209   1.979   3.626
 7168SOL    HW222404   2.187   2.136   3.666
 7169SOL     OW22405   6.651   4.125   5.730
 7169SOL    HW122406   6.642   4.048   5.666
 7169SOL    HW222407   6.560   4.159   5.754
 7170SOL     OW22408   4.508   0.130   2.588
 7170SOL    HW122409   4.604   0.151   2.600
 7170SOL    HW222410   4.464   0.122   2.678
 7171SOL     OW22411   6.050   4.266   0.602
 7171SOL    HW122412   6.122   4.321   0.561
 7171SOL    HW222413   6.029   4.188   0.542
 7172SOL     OW22414   1.589   0.321   4.464
 7172SOL    HW122415   1.681   0.287   4.447
 7172SOL    HW222416   1.522   0.251   4.437
 7173SOL     OW22417   6.381   4.325   0.321
 7173SOL    HW122418   6.330   4.398   0.276
 7173SOL    HW222419   6.382   4.244   0.262
 7174SOL     OW22420   0.613   4.140   0.916
 7174SOL    HW122421   0.684   4.126   0.848
 7174SOL    HW222422   0.581   4.052   0.950
 7175SOL     OW22423   6.099   3.000   5.224
 7175SOL    HW122424   6.144   2.925   5.176
 7175SOL    HW222425   6.043   2.962   5.298
 7176SOL     OW22426   0.071   1.483   3.225
 7176SOL    HW122427   0.108   1.487   3.132
 7176SOL    HW222428   0.034   1.391   3.241
 7177SOL     OW22429   1.311   4.868   5.164
 7177SOL    HW122430   1.368   4.856   5.082
 7177SOL    HW222431   1.216   4.851   5.141
 7178SOL     OW22432   6.913   2.058   5.831
 7178SOL    HW122433   7.011   2.042   5.818
 7178SOL    HW222434   6.890   2.151   5.805
 7179SOL     OW22435   1.741   3.664   4.566
 7179SOL    HW122436   1.766   3.661   4.469
 7179SOL    HW222437   1.823   3.660   4.623
 7180SOL     OW22438   2.284   4.135   0.454
 7180SOL    HW122439   2.282   4.224   0.409
 7180SOL    HW222440   2.196   4.089   0.440
 7181SOL     OW22441   2.593   0.441   0.265
 7181SOL    HW122442   2.634   0.497   0.337
 7181SOL    HW222443   2.494   0.436   0.280
 7182SOL     OW22444   0.348   3.883   4.150
 7182SOL    HW122445   0.380   3.977   4.137
 7182SOL    HW222446   0.328   3.842   4.062
 7183SOL     OW22447   1.872   5.703   1.568
 7183SOL    HW122448   1.832   5.642   1.500
 7183SOL    HW222449   1.924   5.649   1.635
 7184SOL     OW22450   6.969   1.414   4.196
 7184SOL    HW122451   0.013   1.418   4.118
 7184SOL    HW222452   0.003   1.392   4.279
 7185SOL     OW22453   5.238   1.175   5.862
 7185SOL    HW122454   5.315   1.237   5.849
 7185SOL    HW222455   5.271   1.089   5.903
 7186SOL     OW22456   6.555   1.946   1.731
 7186SOL    HW122457   6.627   1.950   1.800
 7186SOL    HW222458   6.502   1.863   1.741
 7187SOL     OW22459   2.881   4.020   5.361
 7187SOL    HW122460   2.896   3.967   5.277
 7187SOL    HW222461   2.798   4.075   5.352
 7188SOL     OW22462   4.630   6.463   6.835
 7188SOL    HW122463   4.563   6.463   6.910
 7188SOL    HW222464   4.582   6.458   6.748
 7189SOL     OW22465   6.769   1.516   5.629
 7189SOL    HW122466   6.725   1.493   5.716
 7189SOL    HW222467   6.863   1.483   5.630
 7190SOL     OW22468   6.544   5.292   1.520
 7190SOL    HW122469   6.449   5.262   1.518
 7190SOL    HW222470   6.601   5.219   1.559
 7191SOL     OW22471   1.460   4.869   2.731
 7191SOL    HW122472   1.519   4.788   2.730
 7191SOL    HW222473   1.481   4.925   2.651
 7192SOL     OW22474   1.633   4.325   5.682
 7192SOL    HW122475   1.660   4.395   5.747
 7192SOL    HW222476   1.683   4.240   5.702
 7193SOL     OW22477   1.567   2.406   2.054
 7193SOL    HW122478   1.535   2.312   2.048
 7193SOL    HW222479   1.663   2.411   2.027
 7194SOL     OW22480   1.862   2.722   6.970
 7194SOL    HW122481   1.861   2.637   0.005
 7194SOL    HW222482   1.768   2.746   6.944
 7195SOL     OW22483   6.967   4.128   0.507
 7195SOL    HW122484   6.946   4.099   0.601
 7195SOL    HW222485   0.040   4.170   0.505
 7196SOL     OW22486   2.477   3.686   1.718
 7196SOL    HW122487   2.419   3.760   1.753
 7196SOL    HW222488   2.443   3.598   1.752
 7197SOL     OW22489   0.799   3.108   5.561
 7197SOL    HW122490   0.787   3.206   5.576
 7197SOL    HW222491   0.783   3.060   5.648
 7198SOL     OW22492   0.008   1.354   0.449
 7198SOL    HW122493   6.967   1.315   0.379
 7198SOL    HW222494   0.103   1.329   0.430
 7199SOL     OW22495   0.723   0.235   2.488
 7199SOL    HW122496   0.661   0.247   2.566
 7199SOL    HW222497   0.670   0.215   2.406
 7200SOL     OW22498   2.106   2.707   6.596
 7200SOL    HW122499   2.202   2.711   6.622
 7200SOL    HW222500   2.088   2.775   6.525
 7201SOL     OW22501   0.969   5.985   3.891
 7201SOL    HW122502   0.938   5.899   3.931
 7201SOL    HW222503   0.946   6.061   3.953
 7202SOL     OW22504   4.246   6.938   6.777
 7202SOL    HW122505   4.161   6.924   6.828
 7202SOL    HW222506   4.258   0.018   6.759
 7203SOL     OW22507   6.828   0.912   1.462
 7203SOL    HW122508   6.851   0.815   1.458
 7203SOL    HW222509   6.750   0.931   1.402
 7204SOL     OW22510   0.235   1.239   5.810
 7204SOL    HW122511   0.238   1.283   5.899
 7204SOL    HW222512   0.142   1.247   5.772
 7205SOL     OW22513   1.275   4.068   5.163
 7205SOL    HW122514   1.324   4.074   5.076
 7205SOL    HW222515   1.338   4.090   5.238
 7206SOL     OW22516   1.272   0.385   2.240
 7206SOL    HW122517   1.207   0.461   2.228
 7206SOL    HW222518   1.272   0.355   2.335
 7207SOL     OW22519   3.805   0.285   3.912
 7207SOL    HW122520   3.896   0.275   3.952
 7207SOL    HW222521   3.802   0.369   3.858
 7208SOL     OW22522   4.493   6.969   3.938
 7208SOL    HW122523   4.546   0.036   3.936
 7208SOL    HW222524   4.493   6.928   3.847
 7209SOL     OW22525   2.655   2.951   1.724
 7209SOL    HW122526   2.754   2.937   1.715
 7209SOL    HW222527   2.620   2.993   1.640
 7210SOL     OW22528   3.776   1.374   2.698
 7210SOL    HW122529   3.741   1.339   2.786
 7210SOL    HW222530   3.814   1.465   2.712
 7211SOL     OW22531   1.843   6.005   4.979
 7211SOL    HW122532   1.763   6.039   4.929
 7211SOL    HW222533   1.919   5.991   4.914
 7212SOL     OW22534   0.551   6.695   5.006
 7212SOL    HW122535   0.533   6.685   4.908
 7212SOL    HW222536   0.499   6.626   5.057
 7213SOL     OW22537   3.854   6.673   6.863
 7213SOL    HW122538   3.845   6.591   6.920
 7213SOL    HW222539   3.923   6.734   6.902
 7214SOL     OW22540   6.940   0.095   4.667
 7214SOL    HW122541   6.857   0.138   4.632
 7214SOL    HW222542   6.963   0.133   4.756
 7215SOL     OW22543   6.426   3.093   3.914
 7215SOL    HW122544   6.524   3.079   3.926
 7215SOL    HW222545   6.379   3.076   4.001
 7216SOL     OW22546   3.157   6.940   1.093
 7216SOL    HW122547   3.109   6.996   1.025
 7216SOL    HW222548   3.254   6.963   1.092
 7217SOL     OW22549   1.897   3.960   3.461
 7217SOL    HW122550   1.952   3.965   3.378
 7217SOL    HW222551   1.929   4.028   3.527
 7218SOL     OW22552   6.169   2.563   3.999
 7218SOL    HW122553   6.250   2.567   4.057
 7218SOL    HW222554   6.182   2.494   3.928
 7219SOL     OW22555   3.636   0.400   3.184
 7219SOL    HW122556   3.635   0.353   3.096
 7219SOL    HW222557   3.614   0.334   3.257
 7220SOL     OW22558   6.811   4.085   4.667
 7220SOL    HW122559   6.785   4.060   4.760
 7220SOL    HW222560   6.876   4.018   4.631
 7221SOL     OW22561   3.515   5.762   4.861
 7221SOL    HW122562   3.445   5.710   4.910
 7221SOL    HW222563   3.503   5.860   4.878
 7222SOL     OW22564   6.361   6.445   3.430
 7222SOL    HW122565   6.327   6.539   3.429
 7222SOL    HW222566   6.372   6.412   3.336
 7223SOL     OW22567   3.402   1.655   1.335
 7223SOL    HW122568   3.481   1.597   1.318
 7223SOL    HW222569   3.390   1.720   1.259
 7224SOL     OW22570   5.310   1.982   3.963
 7224SOL    HW122571   5.248   1.966   4.041
 7224SOL    HW222572   5.274   2.056   3.907
 7225SOL     OW22573   1.356   6.232   0.475
 7225SOL    HW122574   1.280   6.183   0.517
 7225SOL    HW222575   1.437   6.175   0.475
 7226SOL     OW22576   6.045   0.127   1.986
 7226SOL    HW122577   6.130   0.175   1.963
 7226SOL    HW222578   6.054   0.030   1.963
 7227SOL     OW22579   2.759   2.106   1.460
 7227SOL    HW122580   2.666   2.069   1.469
 7227SOL    HW222581   2.809   2.055   1.390
 7228SOL     OW22582   1.149   1.866   2.874
 7228SOL    HW122583   1.219   1.798   2.896
 7228SOL    HW222584   1.111   1.847   2.783
 7229SOL     OW22585   1.192   5.813   5.856
 7229SOL    HW122586   1.247   5.897   5.865
 7229SOL    HW222587   1.253   5.734   5.857
 7230SOL     OW22588   3.578   5.407   5.036
 7230SOL    HW122589   3.501   5.370   4.985
 7230SOL    HW222590   3.663   5.365   5.004
 7231SOL     OW22591   4.015   0.323   6.252
 7231SOL    HW122592   3.924   0.313   6.211
 7231SOL    HW222593   4.080   0.268   6.200
 7232SOL     OW22594   4.841   6.162   2.042
 7232SOL    HW122595   4.862   6.192   1.949
 7232SOL    HW222596   4.874   6.230   2.107
 7233SOL     OW22597   1.717   1.552   4.267
 7233SOL    HW122598   1.690   1.630   4.324
 7233SOL    HW222599   1.684   1.567   4.173
 7234SOL     OW22600   5.917   2.691   2.971
 7234SOL    HW122601   5.828   2.653   2.997
 7234SOL    HW222602   5.924   2.694   2.871
 7235SOL     OW22603   6.875   4.520   2.759
 7235SOL    HW122604   6.887   4.549   2.854
 7235SOL    HW222605   6.868   4.600   2.700
 7236SOL     OW22606   2.629   1.820   2.117
 7236SOL    HW122607   2.665   1.868   2.197
 7236SOL    HW222608   2.697   1.755   2.085
 7237SOL     OW22609   4.186   0.663   4.707
 7237SOL    HW122610   4.265   0.720   4.685
 7237SOL    HW222611   4.197   0.623   4.797
 7238SOL     OW22612   4.365   1.776   6.506
 7238SOL    HW122613   4.317   1.730   6.581
 7238SOL    HW222614   4.299   1.823   6.448
 7239SOL     OW22615   0.928   1.935   1.850
 7239SOL    HW122616   0.837   1.937   1.809
 7239SOL    HW222617   0.990   1.881   1.793
 7240SOL     OW22618   0.991   1.169   5.971
 7240SOL    HW122619   1.014   1.169   6.069
 7240SOL    HW222620   1.000   1.261   5.935
 7241SOL     OW22621   2.340   0.462   1.072
 7241SOL    HW122622   2.402   0.384   1.080
 7241SOL    HW222623   2.385   0.536   1.021
 7242SOL     OW22624   6.585   5.534   6.745
 7242SOL    HW122625   6.533   5.461   6.699
 7242SOL    HW222626   6.682   5.509   6.748
 7243SOL     OW22627   6.584   3.909   6.739
 7243SOL    HW122628   6.491   3.905   6.703
 7243SOL    HW222629   6.645   3.945   6.670
 7244SOL     OW22630   6.795   0.733   1.808
 7244SOL    HW122631   6.771   0.659   1.745
 7244SOL    HW222632   6.717   0.752   1.867
 7245SOL     OW22633   1.799   3.070   5.108
 7245SOL    HW122634   1.873   3.064   5.175
 7245SOL    HW222635   1.742   3.149   5.128
 7246SOL     OW22636   0.553   0.485   3.684
 7246SOL    HW122637   0.591   0.576   3.671
 7246SOL    HW222638   0.525   0.473   3.779
 7247SOL     OW22639   2.323   1.632   4.464
 7247SOL    HW122640   2.329   1.546   4.414
 7247SOL    HW222641   2.234   1.639   4.509
 7248SOL     OW22642   2.764   1.305   3.166
 7248SOL    HW122643   2.672   1.268   3.151
 7248SOL    HW222644   2.821   1.287   3.086
 7249SOL     OW22645   5.924   4.926   2.349
 7249SOL    HW122646   5.888   5.007   2.302
 7249SOL    HW222647   6.008   4.951   2.398
 7250SOL     OW22648   5.743   6.423   5.894
 7250SOL    HW122649   5.735   6.433   5.795
 7250SOL    HW222650   5.710   6.506   5.939
 7251SOL     OW22651   0.506   6.478   5.284
 7251SOL    HW122652   0.570   6.555   5.285
 7251SOL    HW222653   0.552   6.397   5.250
 7252SOL     OW22654   3.912   2.980   2.253
 7252SOL    HW122655   3.885   2.921   2.329
 7252SOL    HW222656   3.990   3.036   2.280
 7253SOL     OW22657   1.656   6.240   0.221
 7253SOL    HW122658   1.724   6.297   0.174
 7253SOL    HW222659   1.630   6.164   0.162
 7254SOL     OW22660   4.727   5.071   4.754
 7254SOL    HW122661   4.689   5.002   4.692
 7254SOL    HW222662   4.745   5.030   4.843
 7255SOL     OW22663   3.819   3.436   0.314
 7255SOL    HW122664   3.745   3.383   0.356
 7255SOL    HW222665   3.850   3.506   0.378
 7256SOL     OW22666   2.814   5.815   4.807
 7256SOL    HW122667   2.729   5.821   4.755
 7256SOL    HW222668   2.877   5.887   4.777
 7257SOL     OW22669   6.374   1.520   3.305
 7257SOL    HW122670   6.308   1.502   3.378
 7257SOL    HW222671   6.333   1.580   3.237
 7258SOL     OW22672   5.008   1.502   2.898
 7258SOL    HW122673   4.956   1.456   2.970
 7258SOL    HW222674   5.092   1.540   2.936
 7259SOL     OW22675   2.421   3.836   1.239
 7259SOL    HW122676   2.332   3.858   1.278
 7259SOL    HW222677   2.434   3.888   1.154
 7260SOL     OW22678   4.669   1.462   1.381
 7260SOL    HW122679   4.624   1.387   1.333
 7260SOL    HW222680   4.602   1.531   1.405
 7261SOL     OW22681   1.565   3.495   1.829
 7261SOL    HW122682   1.597   3.487   1.735
 7261SOL    HW222683   1.637   3.464   1.891
 7262SOL     OW22684   5.681   2.745   6.402
 7262SOL    HW122685   5.582   2.738   6.412
 7262SOL    HW222686   5.724   2.722   6.489
 7263SOL     OW22687   1.142   6.474   6.896
 7263SOL    HW122688   1.052   6.429   6.903
 7263SOL    HW222689   1.213   6.404   6.884
 7264SOL     OW22690   4.927   1.971   6.531
 7264SOL    HW122691   4.912   2.026   6.613
 7264SOL    HW222692   4.921   2.029   6.450
 7265SOL     OW22693   5.807   5.209   5.649
 7265SOL    HW122694   5.874   5.258   5.705
 7265SOL    HW222695   5.807   5.113   5.674
 7266SOL     OW22696   5.345   6.921   2.228
 7266SOL    HW122697   5.293   6.962   2.153
 7266SOL    HW222698   5.392   6.992   2.279
 7267SOL     OW22699   6.340   6.556   5.277
 7267SOL    HW122700   6.370   6.482   5.337
 7267SOL    HW222701   6.414   6.622   5.266
 7268SOL     OW22702   6.287   5.041   3.783
 7268SOL    HW122703   6.369   5.011   3.735
 7268SOL    HW222704   6.311   5.071   3.875
 7269SOL     OW22705   0.206   5.767   6.420
 7269SOL    HW122706   0.286   5.806   6.464
 7269SOL    HW222707   0.233   5.691   6.362
 7270SOL     OW22708   1.087   3.256   5.279
 7270SOL    HW122709   1.068   3.294   5.370
 7270SOL    HW222710   1.183   3.229   5.274
 7271SOL     OW22711   0.487   5.702   4.000
 7271SOL    HW122712   0.399   5.712   4.046
 7271SOL    HW222713   0.520   5.792   3.969
 7272SOL     OW22714   6.176   5.363   2.381
 7272SOL    HW122715   6.188   5.327   2.474
 7272SOL    HW222716   6.197   5.291   2.315
 7273SOL     OW22717   6.117   4.704   1.445
 7273SOL    HW122718   6.062   4.750   1.515
 7273SOL    HW222719   6.210   4.693   1.478
 7274SOL     OW22720   0.079   5.266   6.062
 7274SOL    HW122721   0.021   5.326   6.117
 7274SOL    HW222722   0.087   5.177   6.108
 7275SOL     OW22723   0.267   6.121   2.543
 7275SOL    HW122724   0.179   6.165   2.561
 7275SOL    HW222725   0.328   6.185   2.497
 7276SOL     OW22726   4.266   1.044   3.184
 7276SOL    HW122727   4.267   1.143   3.169
 7276SOL    HW222728   4.172   1.010   3.178
 7277SOL     OW22729   4.625   0.750   4.012
 7277SOL    HW122730   4.679   0.830   4.037
 7277SOL    HW222731   4.531   0.778   3.990
 7278SOL     OW22732   3.591   2.444   1.415
 7278SOL    HW122733   3.566   2.424   1.510
 7278SOL    HW222734   3.514   2.422   1.355
 7279SOL     OW22735   4.742   4.489   5.894
 7279SOL    HW122736   4.725   4.580   5.854
 7279SOL    HW222737   4.691   4.420   5.843
 7280SOL     OW22738   0.584   1.745   3.581
 7280SOL    HW122739   0.659   1.690   3.616
 7280SOL    HW222740   0.502   1.728   3.636
 7281SOL     OW22741   1.940   1.121   0.689
 7281SOL    HW122742   1.884   1.040   0.673
 7281SOL    HW222743   1.881   1.200   0.704
 7282SOL     OW22744   5.805   5.194   2.347
 7282SOL    HW122745   5.847   5.285   2.337
 7282SOL    HW222746   5.790   5.174   2.443
 7283SOL     OW22747   4.781   0.186   2.558
 7283SOL    HW122748   4.776   0.183   2.658
 7283SOL    HW222749   4.857   0.128   2.526
 7284SOL     OW22750   0.492   2.598   5.744
 7284SOL    HW122751   0.501   2.670   5.676
 7284SOL    HW222752   0.402   2.554   5.735
 7285SOL     OW22753   5.491   3.015   2.426
 7285SOL    HW122754   5.507   3.099   2.374
 7285SOL    HW222755   5.479   3.038   2.522
 7286SOL     OW22756   2.226   0.948   1.019
 7286SOL    HW122757   2.316   0.954   1.063
 7286SOL    HW222758   2.236   0.965   0.921
 7287SOL     OW22759   0.996   2.533   5.779
 7287SOL    HW122760   1.014   2.572   5.689
 7287SOL    HW222761   0.968   2.438   5.769
 7288SOL     OW22762   1.951   1.037   2.034
 7288SOL    HW122763   2.000   1.086   2.106
 7288SOL    HW222764   1.918   0.950   2.070
 7289SOL     OW22765   5.683   1.703   3.995
 7289SOL    HW122766   5.629   1.752   3.926
 7289SOL    HW222767   5.701   1.609   3.963
 7290SOL     OW22768   3.795   1.438   5.457
 7290SOL    HW122769   3.742   1.492   5.522
 7290SOL    HW222770   3.774   1.467   5.364
 7291SOL     OW22771   1.062   6.916   7.017
 7291SOL    HW122772   1.010   6.994   0.032
 7291SOL    HW222773   1.158   6.926   0.026
 7292SOL     OW22774   3.339   0.853   3.478
 7292SOL    HW122775   3.297   0.919   3.540
 7292SOL    HW222776   3.414   0.897   3.429
 7293SOL     OW22777   1.347   2.312   4.736
 7293SOL    HW122778   1.292   2.297   4.654
 7293SOL    HW222779   1.367   2.225   4.780
 7294SOL     OW22780   2.533   4.686   6.622
 7294SOL    HW122781   2.501   4.781   6.620
 7294SOL    HW222782   2.509   4.644   6.709
 7295SOL     OW22783   5.552   3.393   1.494
 7295SOL    HW122784   5.559   3.350   1.403
 7295SOL    HW222785   5.573   3.325   1.564
 7296SOL     OW22786   3.418   6.259   2.292
 7296SOL    HW122787   3.458   6.196   2.358
 7296SOL    HW222788   3.483   6.332   2.272
 7297SOL     OW22789   4.357   0.267   1.497
 7297SOL    HW122790   4.383   0.361   1.520
 7297SOL    HW222791   4.273   0.268   1.443
 7298SOL     OW22792   4.943   5.465   6.194
 7298SOL    HW122793   5.027   5.454   6.247
 7298SOL    HW222794   4.960   5.527   6.117
 7299SOL     OW22795   0.834   2.577   1.230
 7299SOL    HW122796   0.836   2.486   1.189
 7299SOL    HW222797   0.770   2.577   1.307
 7300SOL     OW22798   0.526   6.767   2.315
 7300SOL    HW122799   0.429   6.742   2.318
 7300SOL    HW222800   0.578   6.707   2.375
 7301SOL     OW22801   5.851   1.488   4.254
 7301SOL    HW122802   5.809   1.498   4.344
 7301SOL    HW222803   5.950   1.500   4.261
 7302SOL     OW22804   1.155   2.151   5.519
 7302SOL    HW122805   1.111   2.062   5.506
 7302SOL    HW222806   1.149   2.203   5.434
 7303SOL     OW22807   3.893   1.096   6.950
 7303SOL    HW122808   3.831   1.105   6.873
 7303SOL    HW222809   3.963   1.027   6.929
 7304SOL     OW22810   3.065   5.887   1.925
 7304SOL    HW122811   3.068   5.800   1.876
 7304SOL    HW222812   2.992   5.883   1.994
 7305SOL     OW22813   5.203   0.759   0.249
 7305SOL    HW122814   5.205   0.659   0.247
 7305SOL    HW222815   5.230   0.791   0.339
 7306SOL     OW22816   4.510   1.743   1.062
 7306SOL    HW122817   4.419   1.702   1.057
 7306SOL    HW222818   4.513   1.823   1.002
 7307SOL     OW22819   2.829   6.465   2.663
 7307SOL    HW122820   2.757   6.496   2.602
 7307SOL    HW222821   2.864   6.542   2.716
 7308SOL     OW22822   6.759   2.814   5.131
 7308SOL    HW122823   6.757   2.886   5.201
 7308SOL    HW222824   6.798   2.851   5.047
 7309SOL     OW22825   4.223   5.028   0.606
 7309SOL    HW122826   4.276   4.945   0.626
 7309SOL    HW222827   4.174   5.016   0.519
 7310SOL     OW22828   2.567   4.125   0.440
 7310SOL    HW122829   2.469   4.129   0.417
 7310SOL    HW222830   2.586   4.040   0.489
 7311SOL     OW22831   1.637   2.230   1.415
 7311SOL    HW122832   1.662   2.259   1.322
 7311SOL    HW222833   1.590   2.142   1.410
 7312SOL     OW22834   1.222   3.488   5.137
 7312SOL    HW122835   1.262   3.486   5.046
 7312SOL    HW222836   1.166   3.406   5.151
 7313SOL     OW22837   2.020   0.795   0.999
 7313SOL    HW122838   2.079   0.870   1.028
 7313SOL    HW222839   1.931   0.830   0.972
 7314SOL     OW22840   6.772   5.264   6.201
 7314SOL    HW122841   6.764   5.362   6.224
 7314SOL    HW222842   6.835   5.221   6.265
 7315SOL     OW22843   6.307   6.081   1.985
 7315SOL    HW122844   6.382   6.109   1.924
 7315SOL    HW222845   6.265   5.998   1.949
 7316SOL     OW22846   3.711   3.548   6.238
 7316SOL    HW122847   3.657   3.574   6.319
 7316SOL    HW222848   3.795   3.603   6.235
 7317SOL     OW22849   4.850   1.574   2.235
 7317SOL    HW122850   4.941   1.574   2.278
 7317SOL    HW222851   4.809   1.483   2.242
 7318SOL     OW22852   3.071   0.335   2.167
 7318SOL    HW122853   3.071   0.430   2.196
 7318SOL    HW222854   3.162   0.295   2.183
 7319SOL     OW22855   6.750   3.320   6.766
 7319SOL    HW122856   6.776   3.376   6.687
 7319SOL    HW222857   6.832   3.299   6.820
 7320SOL     OW22858   0.798   3.746   2.279
 7320SOL    HW122859   0.837   3.708   2.362
 7320SOL    HW222860   0.727   3.685   2.244
 7321SOL     OW22861   1.641   0.002   6.303
 7321SOL    HW122862   1.714   0.049   6.253
 7321SOL    HW222863   1.562   7.008   6.242
 7322SOL     OW22864   0.054   2.868   2.923
 7322SOL    HW122865   0.066   2.894   2.827
 7322SOL    HW222866   0.135   2.894   2.975
 7323SOL     OW22867   2.014   2.789   1.364
 7323SOL    HW122868   2.035   2.795   1.267
 7323SOL    HW222869   2.026   2.880   1.406
 7324SOL     OW22870   5.443   5.767   1.757
 7324SOL    HW122871   5.356   5.719   1.742
 7324SOL    HW222872   5.466   5.765   1.854
 7325SOL     OW22873   2.661   0.805   6.619
 7325SOL    HW122874   2.590   0.804   6.689
 7325SOL    HW222875   2.629   0.856   6.539
 7326SOL     OW22876   2.583   6.356   6.422
 7326SOL    HW122877   2.504   6.367   6.362
 7326SOL    HW222878   2.664   6.392   6.376
 7327SOL     OW22879   6.165   1.781   5.897
 7327SOL    HW122880   6.117   1.862   5.931
 7327SOL    HW222881   6.247   1.810   5.846
 7328SOL     OW22882   3.721   0.457   5.863
 7328SOL    HW122883   3.722   0.556   5.879
 7328SOL    HW222884   3.640   0.433   5.810
 7329SOL     OW22885   0.772   3.815   0.988
 7329SOL    HW122886   0.829   3.828   0.907
 7329SOL    HW222887   0.677   3.800   0.961
 7330SOL     OW22888   1.957   2.522   6.707
 7330SOL    HW122889   2.008   2.596   6.663
 7330SOL    HW222890   1.986   2.514   6.803
 7331SOL     OW22891   5.331   5.962   1.373
 7331SOL    HW122892   5.250   6.013   1.402
 7331SOL    HW222893   5.413   6.002   1.413
 7332SOL     OW22894   3.348   6.070   6.795
 7332SOL    HW122895   3.442   6.038   6.808
 7332SOL    HW222896   3.328   6.143   6.860
 7333SOL     OW22897   6.930   3.494   2.334
 7333SOL    HW122898   7.011   3.498   2.393
 7333SOL    HW222899   6.850   3.527   2.385
 7334SOL     OW22900   2.290   5.938   6.447
 7334SOL    HW122901   2.277   5.861   6.384
 7334SOL    HW222902   2.324   5.903   6.534
 7335SOL     OW22903   0.971   2.844   3.431
 7335SOL    HW122904   0.944   2.753   3.464
 7335SOL    HW222905   1.066   2.840   3.398
 7336SOL     OW22906   1.677   6.621   2.742
 7336SOL    HW122907   1.642   6.696   2.686
 7336SOL    HW222908   1.752   6.655   2.799
 7337SOL     OW22909   1.010   3.391   1.140
 7337SOL    HW122910   0.959   3.432   1.215
 7337SOL    HW222911   1.093   3.348   1.176
 7338SOL     OW22912   5.150   1.445   2.275
 7338SOL    HW122913   5.130   1.491   2.188
 7338SOL    HW222914   5.215   1.371   2.259
 7339SOL     OW22915   6.353   0.554   4.294
 7339SOL    HW122916   6.340   0.634   4.235
 7339SOL    HW222917   6.419   0.576   4.365
 7340SOL     OW22918   3.087   1.243   0.427
 7340SOL    HW122919   3.138   1.166   0.465
 7340SOL    HW222920   3.123   1.264   0.336
 7341SOL     OW22921   0.617   4.495   5.612
 7341SOL    HW122922   0.622   4.522   5.516
 7341SOL    HW222923   0.708   4.471   5.645
 7342SOL     OW22924   6.920   1.372   6.967
 7342SOL    HW122925   6.924   1.451   6.906
 7342SOL    HW222926   6.940   1.289   6.916
 7343SOL     OW22927   5.944   4.336   1.671
 7343SOL    HW122928   5.854   4.315   1.708
 7343SOL    HW222929   5.935   4.366   1.577
 7344SOL     OW22930   0.713   1.070   5.950
 7344SOL    HW122931   0.635   1.083   5.889
 7344SOL    HW222932   0.784   1.136   5.928
 7345SOL     OW22933   4.704   5.079   5.514
 7345SOL    HW122934   4.773   5.070   5.442
 7345SOL    HW222935   4.618   5.109   5.473
 7346SOL     OW22936   4.295   5.054   1.947
 7346SOL    HW122937   4.223   5.123   1.944
 7346SOL    HW222938   4.324   5.031   1.854
 7347SOL     OW22939   6.958   2.455   0.683
 7347SOL    HW122940   6.963   2.555   0.674
 7347SOL    HW222941   6.948   2.414   0.593
 7348SOL     OW22942   1.652   4.217   4.633
 7348SOL    HW122943   1.729   4.231   4.695
 7348SOL    HW222944   1.686   4.188   4.544
 7349SOL     OW22945   5.277   1.355   1.302
 7349SOL    HW122946   5.290   1.334   1.205
 7349SOL    HW222947   5.234   1.445   1.310
 7350SOL     OW22948   1.951   2.836   5.612
 7350SOL    HW122949   2.024   2.860   5.676
 7350SOL    HW222950   1.863   2.838   5.659
 7351SOL     OW22951   5.240   6.603   5.175
 7351SOL    HW122952   5.169   6.637   5.113
 7351SOL    HW222953   5.243   6.503   5.172
 7352SOL     OW22954   1.996   1.555   3.173
 7352SOL    HW122955   1.918   1.566   3.234
 7352SOL    HW222956   2.074   1.519   3.225
 7353SOL     OW22957   0.998   0.610   6.802
 7353SOL    HW122958   1.042   0.693   6.767
 7353SOL    HW222959   1.069   0.543   6.826
 7354SOL     OW22960   0.731   1.996   5.521
 7354SOL    HW122961   0.765   2.000   5.427
 7354SOL    HW222962   0.633   1.976   5.520
 7355SOL     OW22963   1.979   0.551   0.889
 7355SOL    HW122964   1.909   0.511   0.948
 7355SOL    HW222965   1.989   0.648   0.908
 7356SOL     OW22966   4.087   4.241   5.672
 7356SOL    HW122967   4.005   4.204   5.627
 7356SOL    HW222968   4.167   4.188   5.644
 7357SOL     OW22969   3.986   6.685   1.751
 7357SOL    HW122970   4.068   6.647   1.793
 7357SOL    HW222971   3.961   6.631   1.671
 7358SOL     OW22972   6.258   3.209   3.056
 7358SOL    HW122973   6.352   3.232   3.030
 7358SOL    HW222974   6.206   3.185   2.974
 7359SOL     OW22975   3.097   1.620   6.405
 7359SOL    HW122976   3.009   1.594   6.365
 7359SOL    HW222977   3.116   1.716   6.383
 7360SOL     OW22978   2.966   3.762   5.738
 7360SOL    HW122979   3.015   3.811   5.666
 7360SOL    HW222980   2.921   3.682   5.699
 7361SOL     OW22981   4.379   0.038   2.163
 7361SOL    HW122982   4.438   7.015   2.233
 7361SOL    HW222983   4.431   0.053   2.079
 7362SOL     OW22984   1.827   4.502   4.713
 7362SOL    HW122985   1.868   4.448   4.640
 7362SOL    HW222986   1.773   4.576   4.673
 7363SOL     OW22987   4.363   1.907   1.607
 7363SOL    HW122988   4.408   1.818   1.608
 7363SOL    HW222989   4.286   1.906   1.672
 7364SOL     OW22990   4.585   0.790   1.375
 7364SOL    HW122991   4.635   0.839   1.446
 7364SOL    HW222992   4.626   0.700   1.361
 7365SOL     OW22993   0.686   5.652   1.800
 7365SOL    HW122994   0.706   5.694   1.712
 7365SOL    HW222995   0.761   5.670   1.863
 7366SOL     OW22996   2.502   6.148   0.016
 7366SOL    HW122997   2.527   6.056   7.004
 7366SOL    HW222998   2.470   6.201   6.955
 7367SOL     OW22999   4.478   2.622   1.012
 7367SOL    HW123000   4.480   2.552   0.940
 7367SOL    HW223001   4.389   2.620   1.057
 7368SOL     OW23002   3.820   2.907   2.757
 7368SOL    HW123003   3.726   2.874   2.744
 7368SOL    HW223004   3.836   2.927   2.853
 7369SOL     OW23005   3.768   2.941   0.302
 7369SOL    HW123006   3.766   2.988   0.214
 7369SOL    HW223007   3.833   2.864   0.298
 7370SOL     OW23008   2.557   0.419   4.154
 7370SOL    HW123009   2.638   0.384   4.201
 7370SOL    HW223010   2.561   0.519   4.149
 7371SOL     OW23011   1.864   6.792   3.315
 7371SOL    HW123012   1.810   6.874   3.294
 7371SOL    HW223013   1.816   6.738   3.384
 7372SOL     OW23014   4.173   1.130   4.500
 7372SOL    HW123015   4.239   1.155   4.571
 7372SOL    HW223016   4.222   1.101   4.417
 7373SOL     OW23017   5.928   1.456   3.823
 7373SOL    HW123018   5.980   1.423   3.901
 7373SOL    HW223019   5.962   1.547   3.797
 7374SOL     OW23020   2.282   1.817   5.139
 7374SOL    HW123021   2.276   1.717   5.149
 7374SOL    HW223022   2.265   1.860   5.228
 7375SOL     OW23023   2.202   2.480   2.950
 7375SOL    HW123024   2.183   2.531   2.866
 7375SOL    HW223025   2.116   2.452   2.993
 7376SOL     OW23026   2.595   1.553   0.699
 7376SOL    HW123027   2.556   1.533   0.788
 7376SOL    HW223028   2.656   1.632   0.706
 7377SOL     OW23029   5.548   4.341   0.537
 7377SOL    HW123030   5.634   4.392   0.546
 7377SOL    HW223031   5.477   4.402   0.503
 7378SOL     OW23032   0.587   0.836   6.058
 7378SOL    HW123033   0.634   0.924   6.067
 7378SOL    HW223034   0.504   0.837   6.114
 7379SOL     OW23035   2.787   1.570   3.257
 7379SOL    HW123036   2.758   1.624   3.179
 7379SOL    HW223037   2.780   1.472   3.236
 7380SOL     OW23038   6.567   4.377   4.511
 7380SOL    HW123039   6.640   4.387   4.578
 7380SOL    HW223040   6.566   4.284   4.476
 7381SOL     OW23041   4.253   3.472   1.127
 7381SOL    HW123042   4.228   3.431   1.214
 7381SOL    HW223043   4.194   3.551   1.109
 7382SOL     OW23044   0.377   6.314   5.584
 7382SOL    HW123045   0.416   6.223   5.583
 7382SOL    HW223046   0.336   6.333   5.494
 7383SOL     OW23047   1.777   0.288   0.873
 7383SOL    HW123048   1.771   0.271   0.971
 7383SOL    HW223049   1.698   0.342   0.843
 7384SOL     OW23050   6.509   6.716   2.336
 7384SOL    HW123051   6.511   6.620   2.363
 7384SOL    HW223052   6.575   6.767   2.391
 7385SOL     OW23053   3.757   6.099   2.085
 7385SOL    HW123054   3.670   6.053   2.069
 7385SOL    HW223055   3.783   6.088   2.181
 7386SOL     OW23056   0.079   2.074   6.498
 7386SOL    HW123057   0.041   2.150   6.444
 7386SOL    HW223058   0.071   2.096   6.595
 7387SOL     OW23059   5.978   6.699   4.758
 7387SOL    HW123060   6.075   6.697   4.735
 7387SOL    HW223061   5.923   6.701   4.675
 7388SOL     OW23062   1.050   5.301   2.355
 7388SOL    HW123063   1.003   5.320   2.269
 7388SOL    HW223064   1.116   5.373   2.373
 7389SOL     OW23065   6.306   3.851   6.674
 7389SOL    HW123066   6.291   3.766   6.622
 7389SOL    HW223067   6.233   3.862   6.741
 7390SOL     OW23068   0.927   1.937   0.631
 7390SOL    HW123069   0.857   1.908   0.698
 7390SOL    HW223070   0.993   1.863   0.620
 7391SOL     OW23071   3.939   3.936   3.874
 7391SOL    HW123072   3.952   3.969   3.968
 7391SOL    HW223073   4.014   3.874   3.850
 7392SOL     OW23074   2.817   6.668   6.606
 7392SOL    HW123075   2.740   6.731   6.616
 7392SOL    HW223076   2.879   6.703   6.536
 7393SOL     OW23077   5.782   4.113   2.800
 7393SOL    HW123078   5.726   4.069   2.730
 7393SOL    HW223079   5.803   4.047   2.872
 7394SOL     OW23080   2.243   2.551   5.935
 7394SOL    HW123081   2.224   2.641   5.897
 7394SOL    HW223082   2.336   2.548   5.971
 7395SOL     OW23083   1.201   3.181   1.249
 7395SOL    HW123084   1.133   3.120   1.208
 7395SOL    HW223085   1.240   3.240   1.178
 7396SOL     OW23086   1.513   6.616   1.064
 7396SOL    HW123087   1.547   6.573   0.980
 7396SOL    HW223088   1.584   6.677   1.100
 7397SOL     OW23089   3.958   5.230   4.657
 7397SOL    HW123090   3.904   5.147   4.639
 7397SOL    HW223091   3.896   5.305   4.681
 7398SOL     OW23092   2.419   4.559   4.655
 7398SOL    HW123093   2.471   4.636   4.692
 7398SOL    HW223094   2.337   4.594   4.610
 7399SOL     OW23095   0.983   2.972   4.926
 7399SOL    HW123096   1.068   2.933   4.961
 7399SOL    HW223097   0.954   3.047   4.986
 7400SOL     OW23098   4.134   2.320   5.843
 7400SOL    HW123099   4.049   2.349   5.798
 7400SOL    HW223100   4.112   2.283   5.934
 7401SOL     OW23101   1.572   2.004   4.512
 7401SOL    HW123102   1.547   1.952   4.594
 7401SOL    HW223103   1.669   2.026   4.515
 7402SOL     OW23104   3.063   5.879   6.275
 7402SOL    HW123105   3.035   5.871   6.180
 7402SOL    HW223106   3.064   5.789   6.318
 7403SOL     OW23107   1.591   3.594   2.458
 7403SOL    HW123108   1.544   3.506   2.454
 7403SOL    HW223109   1.685   3.581   2.490
 7404SOL     OW23110   2.684   5.231   1.820
 7404SOL    HW123111   2.689   5.132   1.807
 7404SOL    HW223112   2.742   5.258   1.897
 7405SOL     OW23113   3.376   5.041   4.797
 7405SOL    HW123114   3.388   4.976   4.722
 7405SOL    HW223115   3.294   5.019   4.848
 7406SOL     OW23116   0.326   2.502   3.598
 7406SOL    HW123117   0.271   2.467   3.674
 7406SOL    HW223118   0.406   2.443   3.585
 7407SOL     OW23119   0.750   7.006   5.184
 7407SOL    HW123120   0.753   0.024   5.277
 7407SOL    HW223121   0.809   0.044   5.125
 7408SOL     OW23122   3.142   3.830   6.980
 7408SOL    HW123123   3.046   3.851   6.998
 7408SOL    HW223124   3.148   3.741   6.934
 7409SOL     OW23125   5.238   2.651   0.330
 7409SOL    HW123126   5.332   2.682   0.342
 7409SOL    HW223127   5.237   2.560   0.290
 7410SOL     OW23128   0.394   6.966   0.367
 7410SOL    HW123129   0.493   6.956   0.354
 7410SOL    HW223130   0.377   7.017   0.452
 7411SOL     OW23131   2.122   0.174   5.917
 7411SOL    HW123132   2.138   0.215   6.006
 7411SOL    HW223133   2.083   0.242   5.855
 7412SOL     OW23134   5.233   0.408   2.322
 7412SOL    HW123135   5.241   0.359   2.409
 7412SOL    HW223136   5.183   0.352   2.256
 7413SOL     OW23137   4.823   5.306   4.096
 7413SOL    HW123138   4.741   5.251   4.109
 7413SOL    HW223139   4.798   5.394   4.055
 7414SOL     OW23140   0.665   0.780   3.640
 7414SOL    HW123141   0.593   0.844   3.612
 7414SOL    HW223142   0.748   0.799   3.587
 7415SOL     OW23143   1.208   4.905   4.151
 7415SOL    HW123144   1.206   5.003   4.170
 7415SOL    HW223145   1.194   4.891   4.053
 7416SOL     OW23146   1.994   1.184   2.461
 7416SOL    HW123147   2.001   1.192   2.560
 7416SOL    HW223148   1.906   1.220   2.431
 7417SOL     OW23149   1.800   1.931   0.752
 7417SOL    HW123150   1.730   1.973   0.810
 7417SOL    HW223151   1.865   2.001   0.722
 7418SOL     OW23152   2.584   5.813   0.823
 7418SOL    HW123153   2.504   5.864   0.854
 7418SOL    HW223154   2.659   5.825   0.889
 7419SOL     OW23155   6.422   2.649   4.371
 7419SOL    HW123156   6.510   2.623   4.331
 7419SOL    HW223157   6.396   2.740   4.339
 7420SOL     OW23158   0.471   6.943   1.413
 7420SOL    HW123159   0.490   0.015   1.453
 7420SOL    HW223160   0.465   6.875   1.486
 7421SOL     OW23161   4.045   4.629   0.916
 7421SOL    HW123162   4.044   4.647   0.818
 7421SOL    HW223163   3.983   4.692   0.963
 7422SOL     OW23164   0.385   4.160   2.554
 7422SOL    HW123165   0.408   4.154   2.457
 7422SOL    HW223166   0.372   4.068   2.591
 7423SOL     OW23167   6.219   2.316   5.285
 7423SOL    HW123168   6.299   2.375   5.299
 7423SOL    HW223169   6.243   2.242   5.222
 7424SOL     OW23170   6.851   7.001   5.619
 7424SOL    HW123171   6.813   0.015   5.532
 7424SOL    HW223172   6.895   6.912   5.606
 7425SOL     OW23173   3.974   6.438   6.958
 7425SOL    HW123174   4.018   6.350   6.977
 7425SOL    HW223175   4.036   6.496   6.905
 7426SOL     OW23176   2.799   1.713   5.779
 7426SOL    HW123177   2.700   1.712   5.765
 7426SOL    HW223178   2.838   1.626   5.750
 7427SOL     OW23179   4.433   0.866   3.525
 7427SOL    HW123180   4.431   0.845   3.427
 7427SOL    HW223181   4.528   0.883   3.554
 7428SOL     OW23182   4.842   1.892   5.357
 7428SOL    HW123183   4.775   1.966   5.365
 7428SOL    HW223184   4.883   1.875   5.447
 7429SOL     OW23185   0.325   6.559   4.181
 7429SOL    HW123186   0.230   6.530   4.168
 7429SOL    HW223187   0.384   6.479   4.188
 7430SOL     OW23188   1.413   3.658   0.441
 7430SOL    HW123189   1.323   3.615   0.447
 7430SOL    HW223190   1.484   3.588   0.456
 7431SOL     OW23191   1.530   3.041   3.458
 7431SOL    HW123192   1.626   3.049   3.484
 7431SOL    HW223193   1.496   3.131   3.428
 7432SOL     OW23194   0.898   0.993   2.985
 7432SOL    HW123195   0.932   0.916   2.930
 7432SOL    HW223196   0.971   1.025   3.045
 7433SOL     OW23197   4.506   5.964   6.097
 7433SOL    HW123198   4.530   5.940   6.003
 7433SOL    HW223199   4.429   5.908   6.127
 7434SOL     OW23200   4.871   5.927   5.144
 7434SOL    HW123201   4.937   5.885   5.205
 7434SOL    HW223202   4.854   5.866   5.066
 7435SOL     OW23203   3.410   5.651   0.920
 7435SOL    HW123204   3.471   5.576   0.894
 7435SOL    HW223205   3.341   5.618   0.984
 7436SOL     OW23206   4.472   3.942   6.329
 7436SOL    HW123207   4.474   3.939   6.229
 7436SOL    HW223208   4.377   3.941   6.360
 7437SOL     OW23209   1.909   5.875   0.159
 7437SOL    HW123210   1.954   5.785   0.153
 7437SOL    HW223211   1.902   5.902   0.255
 7438SOL     OW23212   1.266   5.993   0.276
 7438SOL    HW123213   1.361   5.976   0.303
 7438SOL    HW223214   1.252   6.091   0.264
 7439SOL     OW23215   2.055   6.475   5.417
 7439SOL    HW123216   2.061   6.393   5.360
 7439SOL    HW223217   2.091   6.553   5.366
 7440SOL     OW23218   0.088   2.616   4.559
 7440SOL    HW123219   0.184   2.626   4.583
 7440SOL    HW223220   0.031   2.649   4.635
 7441SOL     OW23221   4.929   6.463   4.417
 7441SOL    HW123222   4.978   6.534   4.468
 7441SOL    HW223223   4.976   6.444   4.331
 7442SOL     OW23224   6.425   1.097   5.956
 7442SOL    HW123225   6.474   1.149   5.886
 7442SOL    HW223226   6.365   1.159   6.007
 7443SOL     OW23227   6.903   6.320   1.678
 7443SOL    HW123228   6.949   6.249   1.731
 7443SOL    HW223229   6.821   6.350   1.727
 7444SOL     OW23230   5.600   2.184   5.920
 7444SOL    HW123231   5.640   2.215   5.833
 7444SOL    HW223232   5.592   2.261   5.982
 7445SOL     OW23233   3.989   0.620   0.968
 7445SOL    HW123234   3.916   0.581   1.024
 7445SOL    HW223235   3.995   0.570   0.882
 7446SOL     OW23236   6.043   3.013   0.900
 7446SOL    HW123237   6.021   2.945   0.971
 7446SOL    HW223238   6.006   2.982   0.813
 7447SOL     OW23239   6.264   2.929   6.889
 7447SOL    HW123240   6.304   2.955   6.800
 7447SOL    HW223241   6.337   2.924   6.957
 7448SOL     OW23242   6.173   6.790   5.406
 7448SOL    HW123243   6.236   6.734   5.353
 7448SOL    HW223244   6.214   6.813   5.494
 7449SOL     OW23245   0.584   4.182   2.258
 7449SOL    HW123246   0.601   4.098   2.206
 7449SOL    HW223247   0.664   4.241   2.252
 7450SOL     OW23248   5.441   2.592   5.283
 7450SOL    HW123249   5.384   2.675   5.290
 7450SOL    HW223250   5.508   2.592   5.357
 7451SOL     OW23251   6.443   6.015   2.991
 7451SOL    HW123252   6.475   5.920   2.992
 7451SOL    HW223253   6.358   6.021   2.938
 7452SOL     OW23254   5.906   6.597   4.205
 7452SOL    HW123255   5.883   6.672   4.267
 7452SOL    HW223256   5.834   6.589   4.135
 7453SOL     OW23257   4.996   6.016   5.680
 7453SOL    HW123258   5.004   5.998   5.778
 7453SOL    HW223259   4.904   5.992   5.649
 7454SOL     OW23260   1.099   2.128   1.947
 7454SOL    HW123261   1.023   2.064   1.957
 7454SOL    HW223262   1.171   2.087   1.891
 7455SOL     OW23263   6.808   2.882   1.897
 7455SOL    HW123264   6.732   2.909   1.838
 7455SOL    HW223265   6.842   2.792   1.869
 7456SOL     OW23266   1.515   1.034   3.930
 7456SOL    HW123267   1.457   1.003   4.006
 7456SOL    HW223268   1.457   1.053   3.851
 7457SOL     OW23269   3.470   0.759   5.601
 7457SOL    HW123270   3.470   0.785   5.697
 7457SOL    HW223271   3.560   0.724   5.575
 7458SOL     OW23272   1.732   6.562   5.415
 7458SOL    HW123273   1.693   6.478   5.453
 7458SOL    HW223274   1.694   6.641   5.464
 7459SOL     OW23275   5.114   0.275   2.112
 7459SOL    HW123276   5.140   0.310   2.022
 7459SOL    HW223277   5.020   0.242   2.109
 7460SOL     OW23278   0.993   4.987   0.410
 7460SOL    HW123279   0.992   5.070   0.355
 7460SOL    HW223280   0.924   4.993   0.482
 7461SOL     OW23281   6.369   0.408   6.664
 7461SOL    HW123282   6.439   0.389   6.596
 7461SOL    HW223283   6.290   0.349   6.649
 7462SOL     OW23284   1.733   4.079   2.511
 7462SOL    HW123285   1.728   4.051   2.607
 7462SOL    HW223286   1.703   4.004   2.452
 7463SOL     OW23287   3.195   4.806   0.669
 7463SOL    HW123288   3.175   4.903   0.682
 7463SOL    HW223289   3.238   4.792   0.580
 7464SOL     OW23290   5.291   6.821   6.144
 7464SOL    HW123291   5.373   6.765   6.159
 7464SOL    HW223292   5.231   6.775   6.078
 7465SOL     OW23293   2.273   5.637   6.805
 7465SOL    HW123294   2.274   5.714   6.869
 7465SOL    HW223295   2.215   5.659   6.727
 7466SOL     OW23296   0.218   0.507   4.515
 7466SOL    HW123297   0.277   0.587   4.520
 7466SOL    HW223298   0.125   0.536   4.494
 7467SOL     OW23299   0.498   1.694   0.917
 7467SOL    HW123300   0.413   1.673   0.868
 7467SOL    HW223301   0.541   1.609   0.948
 7468SOL     OW23302   5.764   2.721   3.732
 7468SOL    HW123303   5.745   2.815   3.762
 7468SOL    HW223304   5.811   2.673   3.806
 7469SOL     OW23305   6.470   0.445   0.569
 7469SOL    HW123306   6.434   0.471   0.479
 7469SOL    HW223307   6.518   0.358   0.562
 7470SOL     OW23308   6.156   4.015   3.139
 7470SOL    HW123309   6.078   3.997   3.198
 7470SOL    HW223310   6.238   3.971   3.178
 7471SOL     OW23311   5.396   6.803   5.751
 7471SOL    HW123312   5.402   6.899   5.723
 7471SOL    HW223313   5.467   6.784   5.819
 7472SOL     OW23314   6.375   0.348   5.722
 7472SOL    HW123315   6.321   0.345   5.638
 7472SOL    HW223316   6.379   0.442   5.756
 7473SOL     OW23317   6.071   5.733   3.870
 7473SOL    HW123318   5.988   5.686   3.901
 7473SOL    HW223319   6.092   5.704   3.776
 7474SOL     OW23320   0.730   1.390   6.108
 7474SOL    HW123321   0.714   1.394   6.009
 7474SOL    HW223322   0.650   1.428   6.156
 7475SOL     OW23323   4.553   2.577   2.585
 7475SOL    HW123324   4.510   2.662   2.614
 7475SOL    HW223325   4.536   2.506   2.654
 7476SOL     OW23326   3.341   0.727   4.030
 7476SOL    HW123327   3.299   0.815   4.010
 7476SOL    HW223328   3.427   0.719   3.980
 7477SOL     OW23329   0.341   1.656   5.936
 7477SOL    HW123330   0.333   1.600   5.853
 7477SOL    HW223331   0.286   1.615   6.009
 7478SOL     OW23332   5.681   3.802   5.544
 7478SOL    HW123333   5.696   3.873   5.476
 7478SOL    HW223334   5.583   3.787   5.557
 7479SOL     OW23335   4.316   2.290   2.331
 7479SOL    HW123336   4.267   2.283   2.244
 7479SOL    HW223337   4.403   2.239   2.324
 7480SOL     OW23338   1.520   4.387   2.685
 7480SOL    HW123339   1.551   4.355   2.775
 7480SOL    HW223340   1.528   4.312   2.619
 7481SOL     OW23341   5.924   5.757   0.732
 7481SOL    HW123342   5.838   5.720   0.766
 7481SOL    HW223343   5.982   5.683   0.698
 7482SOL     OW23344   4.664   2.646   3.132
 7482SOL    HW123345   4.718   2.643   3.047
 7482SOL    HW223346   4.685   2.729   3.182
 7483SOL     OW23347   4.904   3.574   4.516
 7483SOL    HW123348   4.840   3.501   4.538
 7483SOL    HW223349   4.906   3.590   4.418
 7484SOL     OW23350   1.323   6.817   4.828
 7484SOL    HW123351   1.367   6.769   4.752
 7484SOL    HW223352   1.280   6.750   4.889
 7485SOL     OW23353   3.675   6.905   4.640
 7485SOL    HW123354   3.661   7.004   4.631
 7485SOL    HW223355   3.587   6.858   4.628
 7486SOL     OW23356   2.090   6.219   0.323
 7486SOL    HW123357   2.119   6.281   0.251
 7486SOL    HW223358   2.132   6.247   0.410
 7487SOL     OW23359   1.951   0.140   3.061
 7487SOL    HW123360   1.874   0.180   3.110
 7487SOL    HW223361   2.031   0.140   3.121
 7488SOL     OW23362   2.479   6.046   4.183
 7488SOL    HW123363   2.528   6.084   4.105
 7488SOL    HW223364   2.454   6.120   4.246
 7489SOL     OW23365   5.880   2.575   5.758
 7489SOL    HW123366   5.921   2.534   5.839
 7489SOL    HW223367   5.813   2.644   5.786
 7490SOL     OW23368   1.125   0.089   3.203
 7490SOL    HW123369   1.194   0.111   3.135
 7490SOL    HW223370   1.166   0.097   3.295
 7491SOL     OW23371   4.738   2.597   6.626
 7491SOL    HW123372   4.763   2.669   6.561
 7491SOL    HW223373   4.759   2.627   6.719
 7492SOL     OW23374   1.339   0.389   2.951
 7492SOL    HW123375   1.287   0.307   2.928
 7492SOL    HW223376   1.332   0.408   3.049
 7493SOL     OW23377   0.577   3.380   6.660
 7493SOL    HW123378   0.502   3.315   6.645
 7493SOL    HW223379   0.574   3.452   6.591
 7494SOL     OW23380   5.699   1.846   2.596
 7494SOL    HW123381   5.603   1.858   2.568
 7494SOL    HW223382   5.743   1.936   2.602
 7495SOL     OW23383   1.429   2.038   6.661
 7495SOL    HW123384   1.488   2.108   6.621
 7495SOL    HW223385   1.336   2.075   6.670
 7496SOL     OW23386   6.664   3.123   4.256
 7496SOL    HW123387   6.618   3.208   4.230
 7496SOL    HW223388   6.746   3.145   4.310
 7497SOL     OW23389   2.767   4.538   0.093
 7497SOL    HW123390   2.787   4.448   0.130
 7497SOL    HW223391   2.678   4.537   0.047
 7498SOL     OW23392   3.375   0.549   5.307
 7498SOL    HW123393   3.364   0.461   5.354
 7498SOL    HW223394   3.362   0.537   5.209
 7499SOL     OW23395   4.251   1.316   3.161
 7499SOL    HW123396   4.176   1.366   3.204
 7499SOL    HW223397   4.262   1.348   3.067
 7500SOL     OW23398   3.182   5.663   3.149
 7500SOL    HW123399   3.157   5.755   3.118
 7500SOL    HW223400   3.110   5.599   3.124
 7501SOL     OW23401   5.075   3.906   4.800
 7501SOL    HW123402   5.029   3.825   4.763
 7501SOL    HW223403   5.106   3.887   4.893
 7502SOL     OW23404   3.464   0.662   4.548
 7502SOL    HW123405   3.488   0.658   4.451
 7502SOL    HW223406   3.381   0.717   4.559
 7503SOL     OW23407   1.713   0.115   1.217
 7503SOL    HW123408   1.774   0.194   1.219
 7503SOL    HW223409   1.715   0.068   1.306
 7504SOL     OW23410   0.762   6.163   3.632
 7504SOL    HW123411   0.855   6.128   3.636
 7504SOL    HW223412   0.735   6.179   3.537
 7505SOL     OW23413   2.010   3.033   5.948
 7505SOL    HW123414   1.920   2.992   5.934
 7505SOL    HW223415   2.046   3.065   5.860
 7506SOL     OW23416   5.542   1.477   3.116
 7506SOL    HW123417   5.497   1.397   3.157
 7506SOL    HW223418   5.637   1.454   3.094
 7507SOL     OW23419   0.110   1.821   2.794
 7507SOL    HW123420   0.092   1.827   2.892
 7507SOL    HW223421   0.118   1.725   2.767
 7508SOL     OW23422   1.400   6.710   1.652
 7508SOL    HW123423   1.416   6.801   1.691
 7508SOL    HW223424   1.459   6.697   1.573
 7509SOL     OW23425   5.910   3.522   0.489
 7509SOL    HW123426   5.974   3.539   0.413
 7509SOL    HW223427   5.918   3.596   0.556
 7510SOL     OW23428   3.631   3.546   4.679
 7510SOL    HW123429   3.566   3.585   4.614
 7510SOL    HW223430   3.583   3.520   4.763
 7511SOL     OW23431   2.739   5.735   4.032
 7511SOL    HW123432   2.649   5.692   4.040
 7511SOL    HW223433   2.732   5.831   4.058
 7512SOL     OW23434   2.581   6.674   6.317
 7512SOL    HW123435   2.556   6.651   6.411
 7512SOL    HW223436   2.538   6.610   6.254
 7513SOL     OW23437   1.653   1.085   1.476
 7513SOL    HW123438   1.668   1.082   1.575
 7513SOL    HW223439   1.560   1.119   1.457
 7514SOL     OW23440   2.572   5.439   2.121
 7514SOL    HW123441   2.647   5.403   2.065
 7514SOL    HW223442   2.603   5.522   2.168
 7515SOL     OW23443   6.884   5.453   4.506
 7515SOL    HW123444   6.970   5.441   4.554
 7515SOL    HW223445   6.848   5.545   4.524
 7516SOL     OW23446   6.459   5.697   5.934
 7516SOL    HW123447   6.413   5.743   6.010
 7516SOL    HW223448   6.505   5.615   5.968
 7517SOL     OW23449   6.875   2.312   0.463
 7517SOL    HW123450   6.849   2.221   0.495
 7517SOL    HW223451   6.882   2.311   0.363
 7518SOL     OW23452   4.576   4.433   4.237
 7518SOL    HW123453   4.523   4.425   4.321
 7518SOL    HW223454   4.591   4.530   4.216
 7519SOL     OW23455   0.341   6.610   3.896
 7519SOL    HW123456   0.390   6.554   3.829
 7519SOL    HW223457   0.363   6.577   3.988
 7520SOL     OW23458   2.468   0.148   2.112
 7520SOL    HW123459   2.500   0.053   2.110
 7520SOL    HW223460   2.448   0.179   2.019
 7521SOL     OW23461   4.597   2.720   5.856
 7521SOL    HW123462   4.693   2.698   5.872
 7521SOL    HW223463   4.572   2.693   5.763
 7522SOL     OW23464   1.825   1.638   6.110
 7522SOL    HW123465   1.855   1.590   6.193
 7522SOL    HW223466   1.787   1.727   6.136
 7523SOL     OW23467   5.671   0.381   6.346
 7523SOL    HW123468   5.610   0.305   6.366
 7523SOL    HW223469   5.764   0.358   6.377
 7524SOL     OW23470   1.072   2.778   5.254
 7524SOL    HW123471   1.104   2.698   5.204
 7524SOL    HW223472   1.151   2.833   5.282
 7525SOL     OW23473   3.411   0.701   6.505
 7525SOL    HW123474   3.476   0.640   6.552
 7525SOL    HW223475   3.334   0.647   6.470
 7526SOL     OW23476   3.352   3.501   1.294
 7526SOL    HW123477   3.284   3.455   1.351
 7526SOL    HW223478   3.420   3.547   1.352
 7527SOL     OW23479   2.844   5.720   3.355
 7527SOL    HW123480   2.801   5.769   3.279
 7527SOL    HW223481   2.885   5.785   3.418
 7528SOL     OW23482   6.121   2.519   0.564
 7528SOL    HW123483   6.129   2.420   0.554
 7528SOL    HW223484   6.093   2.541   0.657
 7529SOL     OW23485   5.640   1.612   4.418
 7529SOL    HW123486   5.648   1.678   4.343
 7529SOL    HW223487   5.546   1.577   4.423
 7530SOL     OW23488   0.074   3.031   2.287
 7530SOL    HW123489   0.124   3.057   2.370
 7530SOL    HW223490   0.006   2.962   2.310
 7531SOL     OW23491   5.773   2.875   4.576
 7531SOL    HW123492   5.801   2.783   4.604
 7531SOL    HW223493   5.676   2.887   4.594
 7532SOL     OW23494   4.382   6.234   0.022
 7532SOL    HW123495   4.393   6.195   6.948
 7532SOL    HW223496   4.285   6.254   0.038
 7533SOL     OW23497   3.556   1.339   1.460
 7533SOL    HW123498   3.600   1.283   1.530
 7533SOL    HW223499   3.475   1.292   1.426
 7534SOL     OW23500   4.251   6.238   5.208
 7534SOL    HW123501   4.173   6.293   5.239
 7534SOL    HW223502   4.223   6.180   5.132
 7535SOL     OW23503   2.046   0.315   4.654
 7535SOL    HW123504   2.081   0.369   4.731
 7535SOL    HW223505   1.983   0.245   4.689
 7536SOL     OW23506   5.248   4.359   4.337
 7536SOL    HW123507   5.258   4.287   4.406
 7536SOL    HW223508   5.151   4.379   4.324
 7537SOL     OW23509   2.577   5.653   1.775
 7537SOL    HW123510   2.482   5.629   1.757
 7537SOL    HW223511   2.582   5.749   1.804
 7538SOL     OW23512   2.111   1.966   1.225
 7538SOL    HW123513   2.025   1.976   1.174
 7538SOL    HW223514   2.115   2.036   1.297
 7539SOL     OW23515   1.640   3.439   4.134
 7539SOL    HW123516   1.630   3.400   4.042
 7539SOL    HW223517   1.640   3.365   4.201
 7540SOL     OW23518   4.389   0.862   4.721
 7540SOL    HW123519   4.392   0.912   4.635
 7540SOL    HW223520   4.463   0.894   4.781
 7541SOL     OW23521   0.044   4.490   5.037
 7541SOL    HW123522   0.109   4.444   5.098
 7541SOL    HW223523   0.025   4.582   5.072
 7542SOL     OW23524   0.898   5.390   0.024
 7542SOL    HW123525   0.871   5.410   6.947
 7542SOL    HW223526   0.991   5.425   0.040
 7543SOL     OW23527   4.005   1.167   5.487
 7543SOL    HW123528   4.073   1.219   5.539
 7543SOL    HW223529   3.913   1.200   5.510
 7544SOL     OW23530   6.693   2.308   3.235
 7544SOL    HW123531   6.788   2.331   3.212
 7544SOL    HW223532   6.639   2.392   3.242
 7545SOL     OW23533   0.654   5.632   6.869
 7545SOL    HW123534   0.718   5.557   6.847
 7545SOL    HW223535   0.561   5.602   6.850
 7546SOL     OW23536   4.024   1.769   1.213
 7546SOL    HW123537   4.013   1.866   1.237
 7546SOL    HW223538   3.938   1.721   1.226
 7547SOL     OW23539   5.272   1.775   0.292
 7547SOL    HW123540   5.187   1.823   0.314
 7547SOL    HW223541   5.267   1.740   0.199
 7548SOL     OW23542   4.146   2.252   0.215
 7548SOL    HW123543   4.084   2.209   0.281
 7548SOL    HW223544   4.240   2.231   0.240
 7549SOL     OW23545   3.098   2.685   6.941
 7549SOL    HW123546   3.054   2.758   6.888
 7549SOL    HW223547   3.055   2.598   6.919
 7550SOL     OW23548   1.985   5.019   3.786
 7550SOL    HW123549   1.992   5.052   3.692
 7550SOL    HW223550   2.069   4.969   3.810
 7551SOL     OW23551   5.598   3.027   5.262
 7551SOL    HW123552   5.596   2.941   5.313
 7551SOL    HW223553   5.556   3.013   5.172
 7552SOL     OW23554   1.129   6.284   2.789
 7552SOL    HW123555   1.164   6.260   2.698
 7552SOL    HW223556   1.150   6.211   2.854
 7553SOL     OW23557   3.967   6.551   5.546
 7553SOL    HW123558   3.946   6.468   5.494
 7553SOL    HW223559   4.057   6.541   5.589
 7554SOL     OW23560   5.162   0.667   6.654
 7554SOL    HW123561   5.161   0.668   6.754
 7554SOL    HW223562   5.111   0.746   6.619
 7555SOL     OW23563   2.698   5.047   6.495
 7555SOL    HW123564   2.720   5.047   6.593
 7555SOL    HW223565   2.711   5.139   6.459
 7556SOL     OW23566   2.433   2.828   0.914
 7556SOL    HW123567   2.377   2.773   0.852
 7556SOL    HW223568   2.530   2.813   0.895
 7557SOL     OW23569   5.627   0.560   6.164
 7557SOL    HW123570   5.653   0.486   6.226
 7557SOL    HW223571   5.586   0.522   6.082
 7558SOL     OW23572   1.955   2.632   4.873
 7558SOL    HW123573   1.963   2.535   4.850
 7558SOL    HW223574   1.995   2.649   4.963
 7559SOL     OW23575   4.334   3.612   0.355
 7559SOL    HW123576   4.417   3.558   0.340
 7559SOL    HW223577   4.298   3.592   0.446
 7560SOL     OW23578   4.699   6.600   1.035
 7560SOL    HW123579   4.669   6.690   1.002
 7560SOL    HW223580   4.657   6.529   0.978
 7561SOL     OW23581   0.824   3.162   6.407
 7561SOL    HW123582   0.881   3.148   6.487
 7561SOL    HW223583   0.798   3.258   6.401
 7562SOL     OW23584   0.728   5.734   5.353
 7562SOL    HW123585   0.631   5.711   5.356
 7562SOL    HW223586   0.762   5.725   5.259
 7563SOL     OW23587   3.192   6.999   1.379
 7563SOL    HW123588   3.199   6.899   1.387
 7563SOL    HW223589   3.137   0.004   1.298
 7564SOL     OW23590   4.105   0.257   3.964
 7564SOL    HW123591   4.199   0.232   3.986
 7564SOL    HW223592   4.064   0.303   4.043
 7565SOL     OW23593   5.428   3.086   6.465
 7565SOL    HW123594   5.526   3.093   6.450
 7565SOL    HW223595   5.409   3.009   6.526
 7566SOL     OW23596   6.541   4.591   2.701
 7566SOL    HW123597   6.574   4.660   2.637
 7566SOL    HW223598   6.488   4.522   2.651
 7567SOL     OW23599   1.769   1.528   5.268
 7567SOL    HW123600   1.861   1.565   5.260
 7567SOL    HW223601   1.773   1.432   5.295
 7568SOL     OW23602   5.249   5.237   2.657
 7568SOL    HW123603   5.173   5.222   2.593
 7568SOL    HW223604   5.284   5.330   2.645
 7569SOL     OW23605   3.654   4.757   5.872
 7569SOL    HW123606   3.750   4.773   5.894
 7569SOL    HW223607   3.641   4.761   5.773
 7570SOL     OW23608   5.039   4.271   5.046
 7570SOL    HW123609   5.135   4.254   5.024
 7570SOL    HW223610   5.024   4.370   5.054
 7571SOL     OW23611   4.522   4.475   3.287
 7571SOL    HW123612   4.497   4.397   3.229
 7571SOL    HW223613   4.619   4.494   3.276
 7572SOL     OW23614   4.554   1.117   1.930
 7572SOL    HW123615   4.482   1.071   1.878
 7572SOL    HW223616   4.607   1.049   1.980
 7573SOL     OW23617   0.292   6.848   5.278
 7573SOL    HW123618   0.371   6.896   5.240
 7573SOL    HW223619   0.240   6.910   5.337
 7574SOL     OW23620   5.142   0.568   5.504
 7574SOL    HW123621   5.176   0.621   5.426
 7574SOL    HW223622   5.213   0.505   5.535
 7575SOL     OW23623   5.595   0.451   6.779
 7575SOL    HW123624   5.684   0.452   6.735
 7575SOL    HW223625   5.540   0.377   6.741
 7576SOL     OW23626   5.266   3.312   0.414
 7576SOL    HW123627   5.188   3.312   0.475
 7576SOL    HW223628   5.351   3.315   0.468
 7577SOL     OW23629   0.673   6.676   6.625
 7577SOL    HW123630   0.727   6.593   6.638
 7577SOL    HW223631   0.619   6.693   6.708
 7578SOL     OW23632   3.433   5.165   2.256
 7578SOL    HW123633   3.362   5.235   2.267
 7578SOL    HW223634   3.392   5.081   2.221
 7579SOL     OW23635   0.253   0.836   2.396
 7579SOL    HW123636   0.295   0.917   2.355
 7579SOL    HW223637   0.319   0.790   2.455
 7580SOL     OW23638   0.684   4.092   4.123
 7580SOL    HW123639   0.682   4.077   4.221
 7580SOL    HW223640   0.729   4.015   4.078
 7581SOL     OW23641   0.239   2.083   1.734
 7581SOL    HW123642   0.226   2.106   1.831
 7581SOL    HW223643   0.335   2.064   1.717
 7582SOL     OW23644   3.643   0.833   2.621
 7582SOL    HW123645   3.633   0.930   2.599
 7582SOL    HW223646   3.739   0.809   2.627
 7583SOL     OW23647   5.178   2.656   2.266
 7583SOL    HW123648   5.218   2.575   2.309
 7583SOL    HW223649   5.091   2.632   2.223
 7584SOL     OW23650   3.303   0.680   3.036
 7584SOL    HW123651   3.355   0.686   2.952
 7584SOL    HW223652   3.217   0.631   3.019
 7585SOL     OW23653   1.732   2.692   6.541
 7585SOL    HW123654   1.790   2.701   6.460
 7585SOL    HW223655   1.750   2.604   6.585
 7586SOL     OW23656   2.414   6.892   3.923
 7586SOL    HW123657   2.441   6.853   4.011
 7586SOL    HW223658   2.369   6.823   3.867
 7587SOL     OW23659   2.003   1.851   6.776
 7587SOL    HW123660   1.937   1.887   6.841
 7587SOL    HW223661   2.069   1.922   6.753
 7588SOL     OW23662   1.888   2.367   4.023
 7588SOL    HW123663   1.951   2.387   3.947
 7588SOL    HW223664   1.807   2.320   3.988
 7589SOL     OW23665   0.360   0.198   2.189
 7589SOL    HW123666   0.453   0.200   2.226
 7589SOL    HW223667   0.302   0.259   2.243
 7590SOL     OW23668   4.068   2.259   6.553
 7590SOL    HW123669   4.008   2.318   6.606
 7590SOL    HW223670   4.117   2.313   6.484
 7591SOL     OW23671   5.847   4.448   0.608
 7591SOL    HW123672   5.839   4.368   0.668
 7591SOL    HW223673   5.919   4.432   0.540
 7592SOL     OW23674   6.200   6.002   5.076
 7592SOL    HW123675   6.171   5.907   5.087
 7592SOL    HW223676   6.120   6.061   5.081
 7593SOL     OW23677   6.751   2.859   0.242
 7593SOL    HW123678   6.836   2.903   0.271
 7593SOL    HW223679   6.746   2.767   0.281
 7594SOL     OW23680   1.839   4.562   2.248
 7594SOL    HW123681   1.925   4.538   2.292
 7594SOL    HW223682   1.790   4.478   2.224
 7595SOL     OW23683   6.216   2.948   6.013
 7595SOL    HW123684   6.146   3.005   5.970
 7595SOL    HW223685   6.246   2.990   6.098
 7596SOL     OW23686   3.623   6.189   3.904
 7596SOL    HW123687   3.582   6.136   3.979
 7596SOL    HW223688   3.683   6.129   3.850
 7597SOL     OW23689   1.192   6.552   3.159
 7597SOL    HW123690   1.254   6.549   3.238
 7597SOL    HW223691   1.105   6.510   3.184
 7598SOL     OW23692   6.129   0.861   2.944
 7598SOL    HW123693   6.056   0.923   2.971
 7598SOL    HW223694   6.191   0.847   3.021
 7599SOL     OW23695   5.059   2.183   2.422
 7599SOL    HW123696   5.130   2.135   2.371
 7599SOL    HW223697   5.062   2.280   2.398
 7600SOL     OW23698   1.231   1.639   3.411
 7600SOL    HW123699   1.190   1.722   3.372
 7600SOL    HW223700   1.163   1.590   3.465
 7601SOL     OW23701   2.378   4.875   2.254
 7601SOL    HW123702   2.472   4.903   2.234
 7601SOL    HW223703   2.314   4.924   2.195
 7602SOL     OW23704   2.247   3.768   7.015
 7602SOL    HW123705   2.183   3.843   6.996
 7602SOL    HW223706   2.200   3.695   0.047
 7603SOL     OW23707   1.880   5.763   6.446
 7603SOL    HW123708   1.821   5.737   6.522
 7603SOL    HW223709   1.941   5.837   6.475
 7604SOL     OW23710   1.950   3.170   4.039
 7604SOL    HW123711   1.963   3.254   3.987
 7604SOL    HW223712   2.039   3.126   4.054
 7605SOL     OW23713   0.630   1.005   0.869
 7605SOL    HW123714   0.618   0.908   0.892
 7605SOL    HW223715   0.586   1.024   0.782
 7606SOL     OW23716   6.028   3.236   4.797
 7606SOL    HW123717   6.033   3.137   4.790
 7606SOL    HW223718   5.949   3.270   4.746
 7607SOL     OW23719   3.580   4.879   0.510
 7607SOL    HW123720   3.589   4.843   0.603
 7607SOL    HW223721   3.579   4.802   0.445
 7608SOL     OW23722   4.162   3.728   1.294
 7608SOL    HW123723   4.160   3.633   1.324
 7608SOL    HW223724   4.204   3.785   1.365
 7609SOL     OW23725   1.704   2.979   4.516
 7609SOL    HW123726   1.760   3.020   4.444
 7609SOL    HW223727   1.760   2.913   4.568
 7610SOL     OW23728   4.277   4.328   6.515
 7610SOL    HW123729   4.184   4.338   6.479
 7610SOL    HW223730   4.342   4.364   6.449
 7611SOL     OW23731   5.302   3.962   1.953
 7611SOL    HW123732   5.333   3.896   1.885
 7611SOL    HW223733   5.347   3.942   2.041
 7612SOL     OW23734   4.929   3.128   2.458
 7612SOL    HW123735   4.876   3.080   2.528
 7612SOL    HW223736   4.946   3.066   2.381
 7613SOL     OW23737   0.243   2.196   0.793
 7613SOL    HW123738   0.179   2.206   0.717
 7613SOL    HW223739   0.334   2.171   0.758
 7614SOL     OW23740   5.469   3.173   1.030
 7614SOL    HW123741   5.424   3.084   1.025
 7614SOL    HW223742   5.436   3.231   0.956
 7615SOL     OW23743   4.133   4.586   6.896
 7615SOL    HW123744   4.220   4.629   6.917
 7615SOL    HW223745   4.148   4.493   6.863
 7616SOL     OW23746   6.298   6.512   4.645
 7616SOL    HW123747   6.248   6.449   4.704
 7616SOL    HW223748   6.289   6.605   4.681
 7617SOL     OW23749   3.374   6.323   3.511
 7617SOL    HW123750   3.325   6.238   3.528
 7617SOL    HW223751   3.434   6.343   3.588
 7618SOL     OW23752   0.031   2.494   6.027
 7618SOL    HW123753   7.003   2.497   5.938
 7618SOL    HW223754   0.116   2.441   6.020
 7619SOL     OW23755   6.390   3.036   4.566
 7619SOL    HW123756   6.388   3.129   4.530
 7619SOL    HW223757   6.479   3.018   4.607
 7620SOL     OW23758   4.076   5.627   1.870
 7620SOL    HW123759   3.979   5.609   1.852
 7620SOL    HW223760   4.085   5.674   1.957
 7621SOL     OW23761   6.709   0.972   0.711
 7621SOL    HW123762   6.805   0.967   0.686
 7621SOL    HW223763   6.652   0.962   0.629
 7622SOL     OW23764   4.062   5.024   6.739
 7622SOL    HW123765   4.071   5.123   6.738
 7622SOL    HW223766   4.135   4.983   6.683
 7623SOL     OW23767   4.907   3.989   6.841
 7623SOL    HW123768   4.936   3.973   6.747
 7623SOL    HW223769   4.811   3.960   6.851
 7624SOL     OW23770   6.383   3.887   5.007
 7624SOL    HW123771   6.465   3.829   4.999
 7624SOL    HW223772   6.305   3.839   4.969
 7625SOL     OW23773   5.158   0.692   6.921
 7625SOL    HW123774   5.175   0.788   6.943
 7625SOL    HW223775   5.064   0.668   6.948
 7626SOL     OW23776   6.669   0.019   5.165
 7626SOL    HW123777   6.653   0.018   5.067
 7626SOL    HW223778   6.706   6.948   5.194
 7627SOL     OW23779   4.169   3.359   0.391
 7627SOL    HW123780   4.222   3.275   0.379
 7627SOL    HW223781   4.161   3.407   0.304
 7628SOL     OW23782   3.302   2.801   1.783
 7628SOL    HW123783   3.392   2.780   1.823
 7628SOL    HW223784   3.235   2.814   1.856
 7629SOL     OW23785   0.054   4.815   3.624
 7629SOL    HW123786   0.152   4.835   3.624
 7629SOL    HW223787   0.017   4.830   3.532
 7630SOL     OW23788   0.845   0.373   0.942
 7630SOL    HW123789   0.872   0.365   0.846
 7630SOL    HW223790   0.794   0.459   0.955
 7631SOL     OW23791   1.012   1.952   6.204
 7631SOL    HW123792   1.063   1.998   6.131
 7631SOL    HW223793   1.076   1.909   6.267
 7632SOL     OW23794   5.127   4.159   1.000
 7632SOL    HW123795   5.155   4.203   1.085
 7632SOL    HW223796   5.098   4.229   0.934
 7633SOL     OW23797   5.505   0.425   2.216
 7633SOL    HW123798   5.418   0.390   2.251
 7633SOL    HW223799   5.490   0.511   2.168
 7634SOL     OW23800   1.932   1.444   2.209
 7634SOL    HW123801   1.928   1.509   2.285
 7634SOL    HW223802   1.896   1.487   2.126
 7635SOL     OW23803   3.179   4.884   4.925
 7635SOL    HW123804   3.187   4.800   4.871
 7635SOL    HW223805   3.196   4.863   5.021
 7636SOL     OW23806   1.881   2.839   4.163
 7636SOL    HW123807   1.927   2.926   4.180
 7636SOL    HW223808   1.874   2.787   4.249
 7637SOL     OW23809   2.849   6.090   2.399
 7637SOL    HW123810   2.814   6.180   2.373
 7637SOL    HW223811   2.846   6.080   2.499
 7638SOL     OW23812   2.232   5.761   1.224
 7638SOL    HW123813   2.150   5.705   1.233
 7638SOL    HW223814   2.207   5.858   1.219
 7639SOL     OW23815   0.082   1.335   0.961
 7639SOL    HW123816   0.018   1.375   1.027
 7639SOL    HW223817   0.046   1.345   0.869
 7640SOL     OW23818   2.953   1.207   5.910
 7640SOL    HW123819   2.996   1.184   5.823
 7640SOL    HW223820   2.934   1.123   5.961
 7641SOL     OW23821   1.205   3.465   2.548
 7641SOL    HW123822   1.291   3.421   2.524
 7641SOL    HW223823   1.152   3.404   2.608
 7642SOL     OW23824   3.183   1.690   2.847
 7642SOL    HW123825   3.282   1.684   2.849
 7642SOL    HW223826   3.155   1.786   2.848
 7643SOL     OW23827   4.921   2.357   3.065
 7643SOL    HW123828   4.841   2.387   3.116
 7643SOL    HW223829   4.947   2.265   3.093
 7644SOL     OW23830   4.705   2.376   2.031
 7644SOL    HW123831   4.672   2.339   2.118
 7644SOL    HW223832   4.677   2.472   2.023
 7645SOL     OW23833   5.193   4.032   5.486
 7645SOL    HW123834   5.189   3.947   5.434
 7645SOL    HW223835   5.152   4.018   5.576
 7646SOL     OW23836   1.631   2.526   4.394
 7646SOL    HW123837   1.614   2.525   4.492
 7646SOL    HW223838   1.640   2.620   4.362
 7647SOL     OW23839   0.161   2.479   3.815
 7647SOL    HW123840   0.229   2.474   3.888
 7647SOL    HW223841   0.125   2.572   3.809
 7648SOL     OW23842   2.388   1.566   2.687
 7648SOL    HW123843   2.488   1.557   2.692
 7648SOL    HW223844   2.364   1.663   2.679
 7649SOL     OW23845   1.195   0.824   3.620
 7649SOL    HW123846   1.215   0.910   3.667
 7649SOL    HW223847   1.279   0.771   3.611
 7650SOL     OW23848   5.617   0.755   0.445
 7650SOL    HW123849   5.671   0.766   0.528
 7650SOL    HW223850   5.650   0.819   0.375
 7651SOL     OW23851   2.020   0.648   4.316
 7651SOL    HW123852   1.937   0.613   4.360
 7651SOL    HW223853   2.070   0.573   4.274
 7652SOL     OW23854   5.618   2.664   4.311
 7652SOL    HW123855   5.592   2.672   4.408
 7652SOL    HW223856   5.571   2.586   4.271
 7653SOL     OW23857   0.463   1.861   0.117
 7653SOL    HW123858   0.444   1.858   0.019
 7653SOL    HW223859   0.412   1.789   0.164
 7654SOL     OW23860   4.878   3.187   4.622
 7654SOL    HW123861   4.864   3.210   4.718
 7654SOL    HW223862   4.964   3.227   4.591
 7655SOL     OW23863   4.360   6.298   3.210
 7655SOL    HW123864   4.366   6.396   3.194
 7655SOL    HW223865   4.305   6.255   3.139
 7656SOL     OW23866   3.836   3.898   6.985
 7656SOL    HW123867   3.799   3.822   6.932
 7656SOL    HW223868   3.762   3.959   7.011
 7657SOL     OW23869   1.341   2.105   3.638
 7657SOL    HW123870   1.400   2.055   3.575
 7657SOL    HW223871   1.386   2.190   3.665
 7658SOL     OW23872   3.027   0.343   6.930
 7658SOL    HW123873   2.967   0.415   6.964
 7658SOL    HW223874   2.998   0.316   6.838
 7659SOL     OW23875   5.733   4.789   6.481
 7659SOL    HW123876   5.689   4.848   6.548
 7659SOL    HW223877   5.701   4.813   6.389
 7660SOL     OW23878   6.942   5.511   3.425
 7660SOL    HW123879   6.879   5.444   3.464
 7660SOL    HW223880   0.008   5.465   3.394
 7661SOL     OW23881   5.430   2.067   5.365
 7661SOL    HW123882   5.525   2.037   5.367
 7661SOL    HW223883   5.369   1.991   5.389
 7662SOL     OW23884   1.626   3.200   4.666
 7662SOL    HW123885   1.648   3.119   4.612
 7662SOL    HW223886   1.575   3.264   4.609
 7663SOL     OW23887   6.174   4.652   6.552
 7663SOL    HW123888   6.236   4.574   6.548
 7663SOL    HW223889   6.085   4.623   6.584
 7664SOL     OW23890   4.364   0.996   1.766
 7664SOL    HW123891   4.346   0.898   1.773
 7664SOL    HW223892   4.334   1.029   1.676
 7665SOL     OW23893   6.123   0.644   4.913
 7665SOL    HW123894   6.078   0.573   4.858
 7665SOL    HW223895   6.222   0.638   4.899
 7666SOL     OW23896   0.749   5.140   2.364
 7666SOL    HW123897   0.838   5.185   2.352
 7666SOL    HW223898   0.742   5.064   2.299
 7667SOL     OW23899   4.158   0.219   2.721
 7667SOL    HW123900   4.151   0.284   2.646
 7667SOL    HW223901   4.067   0.197   2.756
 7668SOL     OW23902   3.129   5.088   0.680
 7668SOL    HW123903   3.126   5.108   0.582
 7668SOL    HW223904   3.170   5.165   0.729
 7669SOL     OW23905   4.595   1.214   5.376
 7669SOL    HW123906   4.601   1.161   5.291
 7669SOL    HW223907   4.661   1.290   5.372
 7670SOL     OW23908   0.323   4.858   0.728
 7670SOL    HW123909   0.411   4.867   0.775
 7670SOL    HW223910   0.269   4.787   0.772
 7671SOL     OW23911   3.854   1.213   2.480
 7671SOL    HW123912   3.881   1.284   2.545
 7671SOL    HW223913   3.773   1.166   2.514
 7672SOL     OW23914   6.850   5.888   3.077
 7672SOL    HW123915   6.841   5.801   3.028
 7672SOL    HW223916   6.858   5.962   3.011
 7673SOL     OW23917   1.835   6.292   1.396
 7673SOL    HW123918   1.880   6.364   1.342
 7673SOL    HW223919   1.878   6.204   1.376
 7674SOL     OW23920   5.055   1.205   3.880
 7674SOL    HW123921   5.122   1.152   3.828
 7674SOL    HW223922   5.064   1.302   3.857
 7675SOL     OW23923   6.386   6.706   2.822
 7675SOL    HW123924   6.418   6.697   2.917
 7675SOL    HW223925   6.346   6.797   2.809
 7676SOL     OW23926   2.095   1.949   0.497
 7676SOL    HW123927   2.060   1.856   0.507
 7676SOL    HW223928   2.194   1.946   0.479
 7677SOL     OW23929   0.704   4.260   1.972
 7677SOL    HW123930   0.771   4.239   1.901
 7677SOL    HW223931   0.612   4.247   1.935
 7678SOL     OW23932   2.476   2.776   5.291
 7678SOL    HW123933   2.380   2.791   5.311
 7678SOL    HW223934   2.515   2.859   5.251
 7679SOL     OW23935   3.074   6.977   6.004
 7679SOL    HW123936   3.142   6.939   6.067
 7679SOL    HW223937   3.011   6.904   5.975
 7680SOL     OW23938   1.384   0.585   1.011
 7680SOL    HW123939   1.328   0.562   0.931
 7680SOL    HW223940   1.453   0.514   1.025
 7681SOL     OW23941   3.050   0.319   0.808
 7681SOL    HW123942   3.030   0.263   0.889
 7681SOL    HW223943   2.992   0.401   0.810
 7682SOL     OW23944   3.963   6.993   2.425
 7682SOL    HW123945   4.062   7.001   2.438
 7682SOL    HW223946   3.930   0.054   2.372
 7683SOL     OW23947   0.043   1.958   5.269
 7683SOL    HW123948   0.118   2.023   5.256
 7683SOL    HW223949   6.975   1.999   5.240
 7684SOL     OW23950   4.249   1.670   1.058
 7684SOL    HW123951   4.231   1.582   1.102
 7684SOL    HW223952   4.180   1.736   1.087
 7685SOL     OW23953   2.827   1.280   5.589
 7685SOL    HW123954   2.735   1.308   5.562
 7685SOL    HW223955   2.828   1.181   5.602
 7686SOL     OW23956   6.914   6.629   3.491
 7686SOL    HW123957   6.975   6.549   3.485
 7686SOL    HW223958   6.956   6.706   3.441
 7687SOL     OW23959   6.226   5.724   4.687
 7687SOL    HW123960   6.260   5.798   4.628
 7687SOL    HW223961   6.291   5.648   4.685
 7688SOL     OW23962   0.605   6.002   5.849
 7688SOL    HW123963   0.584   6.016   5.946
 7688SOL    HW223964   0.590   5.907   5.825
 7689SOL     OW23965   6.067   6.614   2.473
 7689SOL    HW123966   6.129   6.613   2.394
 7689SOL    HW223967   5.996   6.544   2.461
 7690SOL     OW23968   5.855   5.185   0.002
 7690SOL    HW123969   5.893   5.240   0.077
 7690SOL    HW223970   5.759   5.166   0.021
 7691SOL     OW23971   5.115   4.102   3.124
 7691SOL    HW123972   5.148   4.093   3.030
 7691SOL    HW223973   5.099   4.010   3.162
 7692SOL     OW23974   0.855   6.417   1.916
 7692SOL    HW123975   0.829   6.321   1.929
 7692SOL    HW223976   0.824   6.448   1.826
 7693SOL     OW23977   3.357   0.440   1.873
 7693SOL    HW123978   3.347   0.514   1.939
 7693SOL    HW223979   3.411   0.366   1.914
 7694SOL     OW23980   5.293   3.812   3.650
 7694SOL    HW123981   5.250   3.877   3.587
 7694SOL    HW223982   5.280   3.719   3.616
 7695SOL     OW23983   4.627   0.260   1.393
 7695SOL    HW123984   4.702   0.194   1.401
 7695SOL    HW223985   4.540   0.213   1.402
 7696SOL     OW23986   0.497   1.511   6.210
 7696SOL    HW123987   0.421   1.473   6.262
 7696SOL    HW223988   0.488   1.611   6.208
 7697SOL     OW23989   3.139   6.810   3.714
 7697SOL    HW123990   3.041   6.812   3.693
 7697SOL    HW223991   3.160   6.880   3.781
 7698SOL     OW23992   5.433   1.618   3.744
 7698SOL    HW123993   5.489   1.539   3.770
 7698SOL    HW223994   5.472   1.660   3.662
 7699SOL     OW23995   3.005   6.556   5.797
 7699SOL    HW123996   2.986   6.458   5.786
 7699SOL    HW223997   3.065   6.586   5.723
 7700SOL     OW23998   4.424   5.868   3.181
 7700SOL    HW123999   4.341   5.860   3.125
 7700SOL    HW224000   4.421   5.800   3.254
 7701SOL     OW24001   6.541   2.322   6.531
 7701SOL    HW124002   6.489   2.325   6.616
 7701SOL    HW224003   6.487   2.363   6.458
 7702SOL     OW24004   4.293   6.073   4.999
 7702SOL    HW124005   4.218   6.046   4.939
 7702SOL    HW224006   4.368   6.110   4.944
 7703SOL     OW24007   5.646   6.293   6.220
 7703SOL    HW124008   5.564   6.240   6.200
 7703SOL    HW224009   5.727   6.242   6.190
 7704SOL     OW24010   5.679   0.602   3.651
 7704SOL    HW124011   5.709   0.679   3.708
 7704SOL    HW224012   5.589   0.621   3.613
 7705SOL     OW24013   2.400   6.197   0.711
 7705SOL    HW124014   2.403   6.099   0.696
 7705SOL    HW224015   2.490   6.231   0.737
 7706SOL     OW24016   3.288   3.303   4.473
 7706SOL    HW124017   3.310   3.377   4.410
 7706SOL    HW224018   3.238   3.339   4.552
 7707SOL     OW24019   0.231   3.847   5.947
 7707SOL    HW124020   0.303   3.915   5.930
 7707SOL    HW224021   0.250   3.799   6.032
 7708SOL     OW24022   0.962   6.396   5.499
 7708SOL    HW124023   0.885   6.339   5.527
 7708SOL    HW224024   0.929   6.476   5.450
 7709SOL     OW24025   6.795   4.743   1.975
 7709SOL    HW124026   6.733   4.683   2.024
 7709SOL    HW224027   6.888   4.707   1.981
 7710SOL     OW24028   2.903   2.126   0.201
 7710SOL    HW124029   2.974   2.181   0.157
 7710SOL    HW224030   2.813   2.164   0.181
 7711SOL     OW24031   5.837   5.961   5.904
 7711SOL    HW124032   5.773   6.031   5.935
 7711SOL    HW224033   5.931   5.996   5.910
 7712SOL     OW24034   6.208   5.081   1.190
 7712SOL    HW124035   6.220   5.025   1.272
 7712SOL    HW224036   6.196   5.021   1.110
 7713SOL     OW24037   1.706   4.536   0.589
 7713SOL    HW124038   1.793   4.579   0.613
 7713SOL    HW224039   1.700   4.528   0.489
 7714SOL     OW24040   0.093   4.471   5.878
 7714SOL    HW124041   0.067   4.568   5.879
 7714SOL    HW224042   0.183   4.461   5.837
 7715SOL     OW24043   2.582   2.475   0.120
 7715SOL    HW124044   2.627   2.537   0.184
 7715SOL    HW224045   2.627   2.386   0.123
 7716SOL     OW24046   6.766   4.414   0.946
 7716SOL    HW124047   6.852   4.382   0.985
 7716SOL    HW224048   6.752   4.370   0.857
 7717SOL     OW24049   1.106   0.971   5.735
 7717SOL    HW124050   1.074   1.042   5.797
 7717SOL    HW224051   1.199   0.943   5.761
 7718SOL     OW24052   6.754   4.022   3.483
 7718SOL    HW124053   6.828   4.004   3.547
 7718SOL    HW224054   6.687   4.084   3.524
 7719SOL     OW24055   6.962   4.263   4.898
 7719SOL    HW124056   6.995   4.345   4.945
 7719SOL    HW224057   0.016   4.229   4.837
 7720SOL     OW24058   5.954   2.922   6.716
 7720SOL    HW124059   5.927   2.831   6.686
 7720SOL    HW224060   6.019   2.914   6.793
 7721SOL     OW24061   0.499   5.250   2.319
 7721SOL    HW124062   0.590   5.213   2.336
 7721SOL    HW224063   0.432   5.176   2.323
 7722SOL     OW24064   1.048   4.339   3.631
 7722SOL    HW124065   1.119   4.372   3.569
 7722SOL    HW224066   0.971   4.305   3.578
 7723SOL     OW24067   4.236   3.138   6.758
 7723SOL    HW124068   4.247   3.061   6.822
 7723SOL    HW224069   4.295   3.124   6.679
 7724SOL     OW24070   2.708   3.990   1.051
 7724SOL    HW124071   2.641   4.058   1.084
 7724SOL    HW224072   2.693   3.975   0.954
 7725SOL     OW24073   6.015   1.166   2.714
 7725SOL    HW124074   5.971   1.255   2.727
 7725SOL    HW224075   6.037   1.155   2.617
 7726SOL     OW24076   2.013   5.201   6.002
 7726SOL    HW124077   2.008   5.298   5.982
 7726SOL    HW224078   2.056   5.152   5.926
 7727SOL     OW24079   6.618   2.856   2.297
 7727SOL    HW124080   6.628   2.873   2.395
 7727SOL    HW224081   6.522   2.867   2.271
 7728SOL     OW24082   2.229   2.899   5.244
 7728SOL    HW124083   2.163   2.830   5.214
 7728SOL    HW224084   2.293   2.917   5.169
 7729SOL     OW24085   6.066   1.868   1.223
 7729SOL    HW124086   6.147   1.826   1.265
 7729SOL    HW224087   6.042   1.951   1.273
 7730SOL     OW24088   6.155   4.899   6.404
 7730SOL    HW124089   6.167   4.815   6.457
 7730SOL    HW224090   6.216   4.969   6.440
 7731SOL     OW24091   5.861   0.551   0.593
 7731SOL    HW124092   5.886   0.604   0.512
 7731SOL    HW224093   5.846   0.612   0.670
 7732SOL     OW24094   4.172   0.019   0.319
 7732SOL    HW124095   4.176   6.972   0.243
 7732SOL    HW224096   4.244   7.015   0.385
 7733SOL     OW24097   5.514   6.039   2.074
 7733SOL    HW124098   5.422   6.039   2.114
 7733SOL    HW224099   5.536   6.130   2.039
 7734SOL     OW24100   1.558   4.868   4.301
 7734SOL    HW124101   1.482   4.915   4.256
 7734SOL    HW224102   1.640   4.874   4.244
 7735SOL     OW24103   4.672   6.182   6.492
 7735SOL    HW124104   4.652   6.169   6.395
 7735SOL    HW224105   4.761   6.226   6.502
 7736SOL     OW24106   2.177   3.056   6.830
 7736SOL    HW124107   2.098   2.995   6.818
 7736SOL    HW224108   2.180   3.121   6.755
 7737SOL     OW24109   3.408   0.196   2.720
 7737SOL    HW124110   3.440   0.253   2.795
 7737SOL    HW224111   3.486   0.148   2.679
 7738SOL     OW24112   3.574   5.240   0.646
 7738SOL    HW124113   3.632   5.178   0.593
 7738SOL    HW224114   3.496   5.267   0.590
 7739SOL     OW24115   0.632   2.741   1.934
 7739SOL    HW124116   0.651   2.832   1.971
 7739SOL    HW224117   0.580   2.688   2.002
 7740SOL     OW24118   3.189   1.111   2.884
 7740SOL    HW124119   3.189   1.035   2.820
 7740SOL    HW224120   3.192   1.077   2.977
 7741SOL     OW24121   6.932   4.837   5.618
 7741SOL    HW124122   6.837   4.817   5.592
 7741SOL    HW224123   6.932   4.898   5.697
 7742SOL     OW24124   4.115   2.255   3.007
 7742SOL    HW124125   4.058   2.335   2.990
 7742SOL    HW224126   4.097   2.221   3.099
 7743SOL     OW24127   4.370   2.099   6.857
 7743SOL    HW124128   4.434   2.099   6.780
 7743SOL    HW224129   4.399   2.030   6.924
 7744SOL     OW24130   0.959   0.932   4.461
 7744SOL    HW124131   1.019   0.953   4.384
 7744SOL    HW224132   0.935   0.835   4.458
 7745SOL     OW24133   3.612   1.132   0.064
 7745SOL    HW124134   3.551   1.104   7.007
 7745SOL    HW224135   3.703   1.093   0.050
 7746SOL     OW24136   0.833   0.713   0.626
 7746SOL    HW124137   0.759   0.659   0.586
 7746SOL    HW224138   0.910   0.653   0.649
 7747SOL     OW24139   5.864   6.563   1.258
 7747SOL    HW124140   5.821   6.496   1.197
 7747SOL    HW224141   5.850   6.655   1.222
 7748SOL     OW24142   2.919   3.678   4.177
 7748SOL    HW124143   2.937   3.763   4.128
 7748SOL    HW224144   2.903   3.604   4.112
 7749SOL     OW24145   3.424   3.382   5.239
 7749SOL    HW124146   3.375   3.329   5.308
 7749SOL    HW224147   3.359   3.439   5.189
 7750SOL     OW24148   6.804   5.897   0.343
 7750SOL    HW124149   6.757   5.880   0.257
 7750SOL    HW224150   6.873   5.969   0.329
 7751SOL     OW24151   1.389   2.805   2.616
 7751SOL    HW124152   1.330   2.881   2.643
 7751SOL    HW224153   1.460   2.838   2.554
 7752SOL     OW24154   5.559   6.882   5.968
 7752SOL    HW124155   5.530   6.919   6.056
 7752SOL    HW224156   5.609   6.952   5.917
 7753SOL     OW24157   2.365   0.252   4.104
 7753SOL    HW124158   2.426   0.327   4.131
 7753SOL    HW224159   2.401   0.207   4.022
 7754SOL     OW24160   4.766   6.938   1.999
 7754SOL    HW124161   4.684   6.885   2.019
 7754SOL    HW224162   4.844   6.876   1.989
 7755SOL     OW24163   1.325   2.325   5.997
 7755SOL    HW124164   1.257   2.260   5.964
 7755SOL    HW224165   1.386   2.350   5.921
 7756SOL     OW24166   3.686   5.207   2.142
 7756SOL    HW124167   3.612   5.236   2.204
 7756SOL    HW224168   3.683   5.108   2.132
 7757SOL     OW24169   5.664   5.331   5.014
 7757SOL    HW124170   5.708   5.421   5.015
 7757SOL    HW224171   5.595   5.328   4.942
 7758SOL     OW24172   1.182   1.738   6.977
 7758SOL    HW124173   1.208   1.832   6.999
 7758SOL    HW224174   1.087   1.723   7.006
 7759SOL     OW24175   1.138   1.875   5.439
 7759SOL    HW124176   1.081   1.819   5.499
 7759SOL    HW224177   1.165   1.821   5.359
 7760SOL     OW24178   5.512   3.356   2.917
 7760SOL    HW124179   5.414   3.337   2.915
 7760SOL    HW224180   5.563   3.270   2.917
 7761SOL     OW24181   1.109   6.871   6.161
 7761SOL    HW124182   1.196   6.854   6.207
 7761SOL    HW224183   1.120   6.853   6.063
 7762SOL     OW24184   4.646   0.792   4.310
 7762SOL    HW124185   4.681   0.712   4.261
 7762SOL    HW224186   4.662   0.874   4.256
 7763SOL     OW24187   1.418   1.449   0.358
 7763SOL    HW124188   1.325   1.479   0.335
 7763SOL    HW224189   1.431   1.458   0.457
 7764SOL     OW24190   3.646   2.913   3.207
 7764SOL    HW124191   3.707   2.897   3.284
 7764SOL    HW224192   3.553   2.883   3.231
 7765SOL     OW24193   6.099   2.238   4.067
 7765SOL    HW124194   6.055   2.246   4.156
 7765SOL    HW224195   6.051   2.170   4.012
 7766SOL     OW24196   5.907   2.559   0.163
 7766SOL    HW124197   5.900   2.540   0.065
 7766SOL    HW224198   5.991   2.518   0.199
 7767SOL     OW24199   4.302   5.780   3.690
 7767SOL    HW124200   4.335   5.868   3.657
 7767SOL    HW224201   4.349   5.755   3.774
 7768SOL     OW24202   4.261   4.608   2.487
 7768SOL    HW124203   4.225   4.517   2.470
 7768SOL    HW224204   4.194   4.677   2.460
 7769SOL     OW24205   4.956   2.814   2.883
 7769SOL    HW124206   4.913   2.736   2.838
 7769SOL    HW224207   4.942   2.807   2.982
 7770SOL     OW24208   1.591   4.173   2.088
 7770SOL    HW124209   1.541   4.259   2.079
 7770SOL    HW224210   1.526   4.098   2.099
 7771SOL     OW24211   3.355   2.098   5.209
 7771SOL    HW124212   3.302   2.172   5.167
 7771SOL    HW224213   3.322   2.082   5.302
 7772SOL     OW24214   5.271   0.604   2.766
 7772SOL    HW124215   5.329   0.615   2.847
 7772SOL    HW224216   5.199   0.674   2.767
 7773SOL     OW24217   2.362   5.790   4.529
 7773SOL    HW124218   2.403   5.777   4.439
 7773SOL    HW224219   2.312   5.707   4.555
 7774SOL     OW24220   5.466   1.817   6.172
 7774SOL    HW124221   5.449   1.720   6.157
 7774SOL    HW224222   5.385   1.860   6.212
 7775SOL     OW24223   4.554   6.489   1.974
 7775SOL    HW124224   4.536   6.399   1.935
 7775SOL    HW224225   4.468   6.533   1.999
 7776SOL     OW24226   1.692   5.023   0.224
 7776SOL    HW124227   1.761   5.037   0.153
 7776SOL    HW224228   1.613   4.976   0.185
 7777SOL     OW24229   1.084   0.371   4.571
 7777SOL    HW124230   1.179   0.393   4.592
 7777SOL    HW224231   1.055   0.292   4.625
 7778SOL     OW24232   5.080   4.204   0.692
 7778SOL    HW124233   5.041   4.247   0.611
 7778SOL    HW224234   5.174   4.237   0.704
 7779SOL     OW24235   3.045   2.496   1.166
 7779SOL    HW124236   2.946   2.490   1.151
 7779SOL    HW224237   3.066   2.466   1.259
 7780SOL     OW24238   1.061   4.815   5.356
 7780SOL    HW124239   1.116   4.745   5.402
 7780SOL    HW224240   1.068   4.901   5.405
 7781SOL     OW24241   1.174   4.792   0.309
 7781SOL    HW124242   1.256   4.849   0.308
 7781SOL    HW224243   1.100   4.841   0.355
 7782SOL     OW24244   6.556   4.665   4.561
 7782SOL    HW124245   6.648   4.694   4.537
 7782SOL    HW224246   6.547   4.566   4.545
 7783SOL     OW24247   0.601   5.855   4.516
 7783SOL    HW124248   0.682   5.888   4.565
 7783SOL    HW224249   0.555   5.932   4.472
 7784SOL     OW24250   3.026   2.702   1.452
 7784SOL    HW124251   3.022   2.687   1.551
 7784SOL    HW224252   3.121   2.717   1.425
 7785SOL     OW24253   1.349   6.065   4.093
 7785SOL    HW124254   1.264   6.013   4.098
 7785SOL    HW224255   1.406   6.028   4.020
 7786SOL     OW24256   2.783   6.400   6.671
 7786SOL    HW124257   2.795   6.499   6.657
 7786SOL    HW224258   2.800   6.378   6.767
 7787SOL     OW24259   2.298   2.465   6.413
 7787SOL    HW124260   2.202   2.434   6.414
 7787SOL    HW224261   2.303   2.554   6.368
 7788SOL     OW24262   2.510   5.311   1.421
 7788SOL    HW124263   2.587   5.344   1.475
 7788SOL    HW224264   2.425   5.350   1.455
 7789SOL     OW24265   1.995   6.439   6.212
 7789SOL    HW124266   1.981   6.511   6.280
 7789SOL    HW224267   2.062   6.373   6.247
 7790SOL     OW24268   5.403   5.452   3.383
 7790SOL    HW124269   5.477   5.411   3.437
 7790SOL    HW224270   5.340   5.500   3.443
 7791SOL     OW24271   2.403   5.955   3.751
 7791SOL    HW124272   2.485   5.903   3.725
 7791SOL    HW224273   2.322   5.897   3.741
 7792SOL     OW24274   1.529   5.223   4.966
 7792SOL    HW124275   1.527   5.162   5.045
 7792SOL    HW224276   1.491   5.176   4.887
 7793SOL     OW24277   3.388   1.085   6.942
 7793SOL    HW124278   3.293   1.069   6.970
 7793SOL    HW224279   3.394   1.173   6.895
 7794SOL     OW24280   6.098   4.662   2.965
 7794SOL    HW124281   6.049   4.650   2.879
 7794SOL    HW224282   6.098   4.575   3.015
 7795SOL     OW24283   2.019   4.040   5.669
 7795SOL    HW124284   1.981   4.011   5.581
 7795SOL    HW224285   2.118   4.042   5.663
 7796SOL     OW24286   4.027   3.896   3.316
 7796SOL    HW124287   4.071   3.986   3.314
 7796SOL    HW224288   3.966   3.892   3.395
 7797SOL     OW24289   1.187   6.805   3.024
 7797SOL    HW124290   1.140   6.856   3.096
 7797SOL    HW224291   1.210   6.714   3.058
 7798SOL     OW24292   2.605   3.973   5.573
 7798SOL    HW124293   2.603   3.896   5.509
 7798SOL    HW224294   2.624   4.057   5.523
 7799SOL     OW24295   0.911   6.012   2.609
 7799SOL    HW124296   0.916   5.912   2.611
 7799SOL    HW224297   0.966   6.047   2.532
 7800SOL     OW24298   1.128   5.523   1.128
 7800SOL    HW124299   1.151   5.619   1.145
 7800SOL    HW224300   1.091   5.513   1.036
 7801SOL     OW24301   2.082   1.537   1.717
 7801SOL    HW124302   2.177   1.564   1.730
 7801SOL    HW224303   2.071   1.440   1.737
 7802SOL     OW24304   5.899   2.619   0.723
 7802SOL    HW124305   5.824   2.657   0.777
 7802SOL    HW224306   5.878   2.628   0.626
 7803SOL     OW24307   4.766   1.786   6.219
 7803SOL    HW124308   4.689   1.847   6.235
 7803SOL    HW224309   4.762   1.708   6.281
 7804SOL     OW24310   4.780   2.018   3.958
 7804SOL    HW124311   4.682   2.028   3.974
 7804SOL    HW224312   4.830   2.046   4.040
 7805SOL     OW24313   5.387   2.270   1.221
 7805SOL    HW124314   5.335   2.260   1.306
 7805SOL    HW224315   5.430   2.183   1.197
 7806SOL     OW24316   5.976   1.771   6.602
 7806SOL    HW124317   5.902   1.800   6.542
 7806SOL    HW224318   5.960   1.806   6.694
 7807SOL     OW24319   1.137   4.334   5.239
 7807SOL    HW124320   1.215   4.287   5.198
 7807SOL    HW224321   1.129   4.425   5.200
 7808SOL     OW24322   6.288   3.002   4.145
 7808SOL    HW124323   6.364   2.957   4.193
 7808SOL    HW224324   6.204   2.951   4.162
 7809SOL     OW24325   2.137   5.306   3.923
 7809SOL    HW124326   2.081   5.225   3.906
 7809SOL    HW224327   2.231   5.278   3.945
 7810SOL     OW24328   3.866   0.248   4.737
 7810SOL    HW124329   3.777   0.259   4.780
 7810SOL    HW224330   3.891   0.151   4.734
 7811SOL     OW24331   1.583   5.265   2.263
 7811SOL    HW124332   1.577   5.172   2.225
 7811SOL    HW224333   1.657   5.314   2.218
 7812SOL     OW24334   0.769   1.557   4.083
 7812SOL    HW124335   0.694   1.621   4.099
 7812SOL    HW224336   0.852   1.608   4.059
 7813SOL     OW24337   5.168   3.124   6.987
 7813SOL    HW124338   5.234   3.156   0.037
 7813SOL    HW224339   5.201   3.145   6.895
 7814SOL     OW24340   0.288   2.917   3.086
 7814SOL    HW124341   0.275   3.005   3.131
 7814SOL    HW224342   0.345   2.858   3.145
 7815SOL     OW24343   5.501   0.336   5.478
 7815SOL    HW124344   5.471   0.428   5.504
 7815SOL    HW224345   5.565   0.301   5.547
 7816SOL     OW24346   1.625   2.239   6.273
 7816SOL    HW124347   1.704   2.199   6.319
 7816SOL    HW224348   1.571   2.166   6.231
 7817SOL     OW24349   5.521   5.070   2.919
 7817SOL    HW124350   5.605   5.103   2.963
 7817SOL    HW224351   5.533   4.974   2.893
 7818SOL     OW24352   4.327   0.631   2.355
 7818SOL    HW124353   4.380   0.556   2.317
 7818SOL    HW224354   4.378   0.673   2.430
 7819SOL     OW24355   0.057   4.068   1.743
 7819SOL    HW124356   0.146   4.022   1.749
 7819SOL    HW224357   0.037   4.112   1.830
 7820SOL     OW24358   1.744   2.277   5.846
 7820SOL    HW124359   1.648   2.273   5.818
 7820SOL    HW224360   1.801   2.234   5.777
 7821SOL     OW24361   5.403   6.372   6.971
 7821SOL    HW124362   5.354   6.288   6.996
 7821SOL    HW224363   5.416   6.374   6.872
 7822SOL     OW24364   1.724   1.618   6.447
 7822SOL    HW124365   1.694   1.534   6.402
 7822SOL    HW224366   1.737   1.602   6.545
 7823SOL     OW24367   2.517   3.776   5.363
 7823SOL    HW124368   2.552   3.694   5.319
 7823SOL    HW224369   2.496   3.845   5.293
 7824SOL     OW24370   6.802   0.612   3.836
 7824SOL    HW124371   6.750   0.579   3.914
 7824SOL    HW224372   6.881   0.665   3.868
 7825SOL     OW24373   1.790   2.630   1.358
 7825SOL    HW124374   1.808   2.547   1.411
 7825SOL    HW224375   1.867   2.693   1.368
 7826SOL     OW24376   6.653   1.678   1.130
 7826SOL    HW124377   6.598   1.598   1.108
 7826SOL    HW224378   6.594   1.753   1.159
 7827SOL     OW24379   2.487   5.492   0.909
 7827SOL    HW124380   2.563   5.428   0.906
 7827SOL    HW224381   2.469   5.527   0.817
 7828SOL     OW24382   0.967   4.132   6.443
 7828SOL    HW124383   0.930   4.042   6.469
 7828SOL    HW224384   1.050   4.150   6.495
 7829SOL     OW24385   3.035   4.020   1.407
 7829SOL    HW124386   2.955   3.962   1.421
 7829SOL    HW224387   3.093   3.982   1.335
 7830SOL     OW24388   2.448   4.898   5.430
 7830SOL    HW124389   2.439   4.819   5.370
 7830SOL    HW224390   2.492   4.870   5.516
 7831SOL     OW24391   1.718   6.770   1.153
 7831SOL    HW124392   1.766   6.753   1.067
 7831SOL    HW224393   1.768   6.840   1.205
 7832SOL     OW24394   5.311   0.709   3.278
 7832SOL    HW124395   5.249   0.757   3.215
 7832SOL    HW224396   5.405   0.719   3.245
 7833SOL     OW24397   0.736   0.873   6.403
 7833SOL    HW124398   0.705   0.961   6.368
 7833SOL    HW224399   0.688   0.853   6.489
 7834SOL     OW24400   6.953   1.580   3.678
 7834SOL    HW124401   0.015   1.601   3.621
 7834SOL    HW224402   6.870   1.609   3.630
 7835SOL     OW24403   3.625   2.127   5.901
 7835SOL    HW124404   3.693   2.178   5.849
 7835SOL    HW224405   3.648   2.131   5.998
 7836SOL     OW24406   3.559   2.852   4.941
 7836SOL    HW124407   3.524   2.890   5.026
 7836SOL    HW224408   3.547   2.753   4.941
 7837SOL     OW24409   6.052   5.262   0.350
 7837SOL    HW124410   5.956   5.282   0.330
 7837SOL    HW224411   6.108   5.343   0.330
 7838SOL     OW24412   3.762   6.780   0.583
 7838SOL    HW124413   3.832   6.791   0.513
 7838SOL    HW224414   3.675   6.755   0.541
 7839SOL     OW24415   5.975   4.098   4.859
 7839SOL    HW124416   5.955   4.006   4.893
 7839SOL    HW224417   5.956   4.165   4.931
 7840SOL     OW24418   6.539   2.630   3.909
 7840SOL    HW124419   6.448   2.664   3.887
 7840SOL    HW224420   6.542   2.531   3.897
 7841SOL     OW24421   3.415   1.850   6.541
 7841SOL    HW124422   3.466   1.912   6.601
 7841SOL    HW224423   3.327   1.828   6.584
 7842SOL     OW24424   2.438   2.010   3.037
 7842SOL    HW124425   2.382   1.947   3.091
 7842SOL    HW224426   2.380   2.082   2.999
 7843SOL     OW24427   0.084   5.873   3.212
 7843SOL    HW124428   0.015   5.869   3.140
 7843SOL    HW224429   0.162   5.815   3.187
 7844SOL     OW24430   4.085   6.977   2.990
 7844SOL    HW124431   4.138   6.945   2.911
 7844SOL    HW224432   4.010   0.018   2.958
 7845SOL     OW24433   6.075   1.886   3.035
 7845SOL    HW124434   6.028   1.816   2.982
 7845SOL    HW224435   6.022   1.909   3.116
 7846SOL     OW24436   0.932   1.510   2.291
 7846SOL    HW124437   0.859   1.510   2.359
 7846SOL    HW224438   0.943   1.602   2.253
 7847SOL     OW24439   0.141   1.666   3.421
 7847SOL    HW124440   0.240   1.651   3.419
 7847SOL    HW224441   0.097   1.600   3.359
 7848SOL     OW24442   3.561   3.655   0.660
 7848SOL    HW124443   3.520   3.564   0.671
 7848SOL    HW224444   3.504   3.722   0.708
 7849SOL     OW24445   5.831   4.178   4.079
 7849SOL    HW124446   5.889   4.104   4.047
 7849SOL    HW224447   5.778   4.216   4.003
 7850SOL     OW24448   0.707   1.892   4.715
 7850SOL    HW124449   0.718   1.892   4.814
 7850SOL    HW224450   0.623   1.941   4.691
 7851SOL     OW24451   6.530   1.336   1.653
 7851SOL    HW124452   6.618   1.340   1.605
 7851SOL    HW224453   6.484   1.424   1.644
 7852SOL     OW24454   2.692   1.274   6.158
 7852SOL    HW124455   2.640   1.351   6.197
 7852SOL    HW224456   2.724   1.299   6.066
 7853SOL     OW24457   5.001   2.058   1.585
 7853SOL    HW124458   4.980   2.051   1.683
 7853SOL    HW224459   4.922   2.026   1.533
 7854SOL     OW24460   3.492   3.605   0.041
 7854SOL    HW124461   3.585   3.570   0.032
 7854SOL    HW224462   3.462   3.644   6.972
 7855SOL     OW24463   4.640   6.457   4.453
 7855SOL    HW124464   4.617   6.523   4.524
 7855SOL    HW224465   4.738   6.463   4.433
 7856SOL     OW24466   6.501   4.861   5.309
 7856SOL    HW124467   6.547   4.857   5.220
 7856SOL    HW224468   6.445   4.779   5.321
 7857SOL     OW24469   5.274   2.154   6.309
 7857SOL    HW124470   5.236   2.164   6.217
 7857SOL    HW224471   5.271   2.057   6.336
 7858SOL     OW24472   5.924   6.487   3.825
 7858SOL    HW124473   5.875   6.506   3.740
 7858SOL    HW224474   6.012   6.534   3.825
 7859SOL     OW24475   4.393   2.764   6.417
 7859SOL    HW124476   4.446   2.707   6.480
 7859SOL    HW224477   4.442   2.774   6.331
 7860SOL     OW24478   3.550   0.695   3.487
 7860SOL    HW124479   3.463   0.736   3.514
 7860SOL    HW224480   3.617   0.767   3.466
 7861SOL     OW24481   3.831   4.740   1.650
 7861SOL    HW124482   3.756   4.735   1.716
 7861SOL    HW224483   3.907   4.682   1.681
 7862SOL     OW24484   1.996   4.197   1.841
 7862SOL    HW124485   1.925   4.152   1.896
 7862SOL    HW224486   1.980   4.295   1.839
 7863SOL     OW24487   0.675   4.673   4.119
 7863SOL    HW124488   0.631   4.670   4.030
 7863SOL    HW224489   0.741   4.747   4.121
 7864SOL     OW24490   0.249   5.483   5.311
 7864SOL    HW124491   0.161   5.521   5.281
 7864SOL    HW224492   0.242   5.456   5.407
 7865SOL     OW24493   6.244   6.670   3.719
 7865SOL    HW124494   6.180   6.605   3.678
 7865SOL    HW224495   6.225   6.678   3.817
 7866SOL     OW24496   1.423   1.250   5.921
 7866SOL    HW124497   1.460   1.165   5.883
 7866SOL    HW224498   1.425   1.245   6.021
 7867SOL     OW24499   6.248   6.237   4.048
 7867SOL    HW124500   6.231   6.145   4.014
 7867SOL    HW224501   6.319   6.281   3.992
 7868SOL     OW24502   4.938   5.988   1.423
 7868SOL    HW124503   4.905   6.019   1.334
 7868SOL    HW224504   4.861   5.961   1.480
 7869SOL     OW24505   5.694   3.393   0.314
 7869SOL    HW124506   5.709   3.383   0.216
 7869SOL    HW224507   5.778   3.427   0.357
 7870SOL     OW24508   4.587   5.037   4.274
 7870SOL    HW124509   4.661   5.072   4.332
 7870SOL    HW224510   4.512   5.006   4.332
 7871SOL     OW24511   4.574   2.511   2.314
 7871SOL    HW124512   4.561   2.548   2.407
 7871SOL    HW224513   4.487   2.478   2.279
 7872SOL     OW24514   1.823   3.693   3.485
 7872SOL    HW124515   1.912   3.647   3.491
 7872SOL    HW224516   1.838   3.790   3.466
 7873SOL     OW24517   5.585   6.877   6.273
 7873SOL    HW124518   5.551   6.792   6.313
 7873SOL    HW224519   5.646   6.923   6.338
 7874SOL     OW24520   5.206   2.000   6.899
 7874SOL    HW124521   5.253   2.074   6.945
 7874SOL    HW224522   5.213   1.917   6.954
 7875SOL     OW24523   4.367   3.065   6.540
 7875SOL    HW124524   4.298   3.051   6.469
 7875SOL    HW224525   4.435   2.991   6.536
 7876SOL     OW24526   1.040   0.175   4.735
 7876SOL    HW124527   1.117   0.151   4.794
 7876SOL    HW224528   0.980   0.095   4.725
 7877SOL     OW24529   1.060   2.169   2.912
 7877SOL    HW124530   0.975   2.172   2.859
 7877SOL    HW224531   1.077   2.076   2.944
 7878SOL     OW24532   5.369   4.541   4.912
 7878SOL    HW124533   5.389   4.532   5.010
 7878SOL    HW224534   5.273   4.566   4.900
 7879SOL     OW24535   4.199   5.438   3.531
 7879SOL    HW124536   4.295   5.421   3.552
 7879SOL    HW224537   4.153   5.472   3.613
 7880SOL     OW24538   2.025   5.550   0.694
 7880SOL    HW124539   1.951   5.505   0.643
 7880SOL    HW224540   2.113   5.517   0.661
 7881SOL     OW24541   6.263   4.733   4.298
 7881SOL    HW124542   6.331   4.754   4.368
 7881SOL    HW224543   6.288   4.649   4.250
 7882SOL     OW24544   1.370   3.059   1.878
 7882SOL    HW124545   1.316   3.037   1.960
 7882SOL    HW224546   1.386   3.158   1.874
 7883SOL     OW24547   1.162   0.504   0.827
 7883SOL    HW124548   1.134   0.584   0.881
 7883SOL    HW224549   1.140   0.519   0.731
 7884SOL     OW24550   1.963   3.895   4.859
 7884SOL    HW124551   2.025   3.949   4.802
 7884SOL    HW224552   1.988   3.798   4.853
 7885SOL     OW24553   6.251   5.278   1.448
 7885SOL    HW124554   6.233   5.331   1.365
 7885SOL    HW224555   6.193   5.311   1.522
 7886SOL     OW24556   3.545   4.828   6.725
 7886SOL    HW124557   3.624   4.864   6.774
 7886SOL    HW224558   3.575   4.759   6.659
 7887SOL     OW24559   3.564   2.526   5.426
 7887SOL    HW124560   3.617   2.450   5.389
 7887SOL    HW224561   3.467   2.508   5.414
 7888SOL     OW24562   6.620   6.874   5.382
 7888SOL    HW124563   6.661   6.800   5.436
 7888SOL    HW224564   6.575   6.835   5.302
 7889SOL     OW24565   1.696   5.063   0.646
 7889SOL    HW124566   1.709   5.036   0.742
 7889SOL    HW224567   1.598   5.078   0.629
 7890SOL     OW24568   1.731   2.513   2.822
 7890SOL    HW124569   1.806   2.572   2.851
 7890SOL    HW224570   1.666   2.565   2.767
 7891SOL     OW24571   1.815   3.858   3.986
 7891SOL    HW124572   1.780   3.766   4.003
 7891SOL    HW224573   1.740   3.924   3.986
 7892SOL     OW24574   1.923   0.338   3.873
 7892SOL    HW124575   1.959   0.422   3.911
 7892SOL    HW224576   1.990   0.264   3.883
 7893SOL     OW24577   6.901   6.081   2.858
 7893SOL    HW124578   6.834   6.053   2.788
 7893SOL    HW224579   6.906   6.180   2.861
 7894SOL     OW24580   3.369   6.853   0.752
 7894SOL    HW124581   3.448   6.797   0.728
 7894SOL    HW224582   3.369   6.870   0.850
 7895SOL     OW24583   5.619   0.578   5.254
 7895SOL    HW124584   5.707   0.594   5.210
 7895SOL    HW224585   5.591   0.661   5.303
 7896SOL     OW24586   5.045   3.663   0.507
 7896SOL    HW124587   5.102   3.636   0.429
 7896SOL    HW224588   5.048   3.763   0.517
 7897SOL     OW24589   2.564   4.152   6.931
 7897SOL    HW124590   2.531   4.151   6.837
 7897SOL    HW224591   2.508   4.091   6.987
 7898SOL     OW24592   4.146   2.143   3.634
 7898SOL    HW124593   4.226   2.083   3.640
 7898SOL    HW224594   4.114   2.165   3.727
 7899SOL     OW24595   5.810   1.052   1.487
 7899SOL    HW124596   5.818   1.098   1.575
 7899SOL    HW224597   5.898   1.008   1.465
 7900SOL     OW24598   1.722   5.089   1.682
 7900SOL    HW124599   1.653   5.142   1.633
 7900SOL    HW224600   1.716   4.993   1.656
 7901SOL     OW24601   5.350   1.504   6.383
 7901SOL    HW124602   5.254   1.531   6.371
 7901SOL    HW224603   5.354   1.426   6.445
 7902SOL     OW24604   5.054   6.791   1.379
 7902SOL    HW124605   5.153   6.783   1.369
 7902SOL    HW224606   5.024   6.739   1.458
 7903SOL     OW24607   5.651   1.689   0.692
 7903SOL    HW124608   5.620   1.608   0.642
 7903SOL    HW224609   5.572   1.747   0.712
 7904SOL     OW24610   5.551   0.003   3.509
 7904SOL    HW124611   5.586   0.092   3.480
 7904SOL    HW224612   5.518   0.009   3.603
 7905SOL     OW24613   4.673   2.360   6.753
 7905SOL    HW124614   4.690   2.433   6.686
 7905SOL    HW224615   4.591   2.309   6.727
 7906SOL     OW24616   0.018   5.744   0.441
 7906SOL    HW124617   0.102   5.773   0.395
 7906SOL    HW224618   6.958   5.796   0.405
 7907SOL     OW24619   5.470   2.761   3.109
 7907SOL    HW124620   5.413   2.777   3.029
 7907SOL    HW224621   5.484   2.847   3.158
 7908SOL     OW24622   0.622   1.422   5.576
 7908SOL    HW124623   0.530   1.444   5.611
 7908SOL    HW224624   0.614   1.358   5.500
 7909SOL     OW24625   5.275   4.137   4.504
 7909SOL    HW124626   5.190   4.088   4.520
 7909SOL    HW224627   5.329   4.140   4.589
 7910SOL     OW24628   2.476   3.429   5.899
 7910SOL    HW124629   2.532   3.386   5.828
 7910SOL    HW224630   2.496   3.388   5.988
 7911SOL     OW24631   1.625   3.393   0.263
 7911SOL    HW124632   1.636   3.453   0.183
 7911SOL    HW224633   1.529   3.369   0.273
 7912SOL     OW24634   6.729   5.213   0.293
 7912SOL    HW124635   6.728   5.113   0.295
 7912SOL    HW224636   6.782   5.248   0.370
 7913SOL     OW24637   1.693   4.799   1.035
 7913SOL    HW124638   1.762   4.767   1.100
 7913SOL    HW224639   1.714   4.893   1.007
 7914SOL     OW24640   0.222   4.304   0.351
 7914SOL    HW124641   0.313   4.300   0.393
 7914SOL    HW224642   0.182   4.394   0.367
 7915SOL     OW24643   5.024   3.016   2.152
 7915SOL    HW124644   5.084   2.977   2.081
 7915SOL    HW224645   4.932   3.024   2.116
 7916SOL     OW24646   0.465   3.970   5.249
 7916SOL    HW124647   0.425   4.033   5.182
 7916SOL    HW224648   0.391   3.922   5.296
 7917SOL     OW24649   3.578   4.165   4.419
 7917SOL    HW124650   3.480   4.150   4.405
 7917SOL    HW224651   3.594   4.198   4.512
 7918SOL     OW24652   6.849   1.519   6.731
 7918SOL    HW124653   6.894   1.555   6.649
 7918SOL    HW224654   6.763   1.475   6.704
 7919SOL     OW24655   2.057   4.429   2.417
 7919SOL    HW124656   2.113   4.359   2.373
 7919SOL    HW224657   1.982   4.385   2.466
 7920SOL     OW24658   0.314   5.493   0.837
 7920SOL    HW124659   0.239   5.434   0.865
 7920SOL    HW224660   0.278   5.566   0.777
 7921SOL     OW24661   5.348   6.656   0.409
 7921SOL    HW124662   5.328   6.674   0.312
 7921SOL    HW224663   5.325   6.560   0.430
 7922SOL     OW24664   6.885   6.532   6.900
 7922SOL    HW124665   6.879   6.455   6.836
 7922SOL    HW224666   6.978   6.568   6.900
 7923SOL     OW24667   3.291   0.158   2.191
 7923SOL    HW124668   3.338   0.107   2.263
 7923SOL    HW224669   3.286   0.101   2.109
 7924SOL     OW24670   4.163   6.982   2.032
 7924SOL    HW124671   4.234   6.998   2.100
 7924SOL    HW224672   4.196   6.918   1.963
 7925SOL     OW24673   0.742   1.625   6.426
 7925SOL    HW124674   0.798   1.581   6.356
 7925SOL    HW224675   0.791   1.703   6.464
 7926SOL     OW24676   4.795   1.631   5.236
 7926SOL    HW124677   4.831   1.719   5.265
 7926SOL    HW224678   4.724   1.645   5.166
 7927SOL     OW24679   4.303   5.129   3.229
 7927SOL    HW124680   4.353   5.162   3.309
 7927SOL    HW224681   4.364   5.124   3.151
 7928SOL     OW24682   0.920   2.319   4.424
 7928SOL    HW124683   0.906   2.220   4.436
 7928SOL    HW224684   0.874   2.348   4.340
 7929SOL     OW24685   4.112   4.539   5.679
 7929SOL    HW124686   4.194   4.582   5.718
 7929SOL    HW224687   4.139   4.456   5.631
 7930SOL     OW24688   4.558   5.362   4.431
 7930SOL    HW124689   4.566   5.445   4.375
 7930SOL    HW224690   4.642   5.349   4.483
 7931SOL     OW24691   1.595   1.871   6.374
 7931SOL    HW124692   1.515   1.865   6.433
 7931SOL    HW224693   1.639   1.782   6.368
 7932SOL     OW24694   1.901   6.088   6.630
 7932SOL    HW124695   1.991   6.115   6.597
 7932SOL    HW224696   1.836   6.088   6.555
 7933SOL     OW24697   0.170   5.688   6.675
 7933SOL    HW124698   0.089   5.736   6.709
 7933SOL    HW224699   0.174   5.696   6.576
 7934SOL     OW24700   2.644   4.824   0.254
 7934SOL    HW124701   2.568   4.791   0.199
 7934SOL    HW224702   2.648   4.924   0.248
 7935SOL     OW24703   5.835   6.158   6.825
 7935SOL    HW124704   5.737   6.148   6.842
 7935SOL    HW224705   5.869   6.079   6.775
 7936SOL     OW24706   3.933   6.273   2.430
 7936SOL    HW124707   3.847   6.306   2.468
 7936SOL    HW224708   3.914   6.209   2.355
 7937SOL     OW24709   6.695   6.595   3.722
 7937SOL    HW124710   6.696   6.524   3.652
 7937SOL    HW224711   6.650   6.677   3.687
 7938SOL     OW24712   6.166   5.738   5.087
 7938SOL    HW124713   6.260   5.708   5.103
 7938SOL    HW224714   6.130   5.690   5.007
 7939SOL     OW24715   1.639   2.468   5.593
 7939SOL    HW124716   1.684   2.552   5.623
 7939SOL    HW224717   1.708   2.399   5.569
 7940SOL     OW24718   1.875   3.780   2.026
 7940SOL    HW124719   1.947   3.712   2.039
 7940SOL    HW224720   1.896   3.837   1.946
 7941SOL     OW24721   6.157   0.444   0.611
 7941SOL    HW124722   6.241   0.459   0.559
 7941SOL    HW224723   6.106   0.530   0.617
 7942SOL     OW24724   6.548   5.532   2.528
 7942SOL    HW124725   6.456   5.565   2.551
 7942SOL    HW224726   6.607   5.610   2.505
 7943SOL     OW24727   6.095   3.092   0.600
 7943SOL    HW124728   6.020   3.029   0.618
 7943SOL    HW224729   6.074   3.182   0.639
 7944SOL     OW24730   0.625   2.796   1.650
 7944SOL    HW124731   0.624   2.771   1.746
 7944SOL    HW224732   0.586   2.887   1.638
 7945SOL     OW24733   5.849   5.858   1.886
 7945SOL    HW124734   5.885   5.882   1.976
 7945SOL    HW224735   5.916   5.803   1.836
 7946SOL     OW24736   2.493   1.682   5.425
 7946SOL    HW124737   2.564   1.736   5.378
 7946SOL    HW224738   2.436   1.636   5.357
 7947SOL     OW24739   3.379   2.351   6.296
 7947SOL    HW124740   3.381   2.283   6.222
 7947SOL    HW224741   3.419   2.312   6.378
 7948SOL     OW24742   0.945   6.422   0.792
 7948SOL    HW124743   0.877   6.438   0.863
 7948SOL    HW224744   1.036   6.417   0.834
 7949SOL     OW24745   4.567   4.688   4.494
 7949SOL    HW124746   4.576   4.613   4.559
 7949SOL    HW224747   4.470   4.708   4.479
 7950SOL     OW24748   6.235   5.110   4.942
 7950SOL    HW124749   6.138   5.131   4.931
 7950SOL    HW224750   6.255   5.093   5.039
 7951SOL     OW24751   2.278   4.212   1.899
 7951SOL    HW124752   2.343   4.213   1.823
 7951SOL    HW224753   2.186   4.197   1.863
 7952SOL     OW24754   0.831   3.153   6.706
 7952SOL    HW124755   0.741   3.186   6.678
 7952SOL    HW224756   0.846   3.061   6.669
 7953SOL     OW24757   2.170   2.603   4.335
 7953SOL    HW124758   2.090   2.543   4.333
 7953SOL    HW224759   2.231   2.574   4.409
 7954SOL     OW24760   4.551   4.169   5.447
 7954SOL    HW124761   4.492   4.094   5.416
 7954SOL    HW224762   4.624   4.131   5.504
 7955SOL     OW24763   1.212   6.200   6.876
 7955SOL    HW124764   1.153   6.187   6.796
 7955SOL    HW224765   1.289   6.136   6.870
 7956SOL     OW24766   3.822   6.110   2.654
 7956SOL    HW124767   3.869   6.027   2.624
 7956SOL    HW224768   3.865   6.145   2.737
 7957SOL     OW24769   0.988   0.880   1.885
 7957SOL    HW124770   0.920   0.946   1.916
 7957SOL    HW224771   0.942   0.796   1.855
 7958SOL     OW24772   3.685   5.283   4.286
 7958SOL    HW124773   3.690   5.183   4.275
 7958SOL    HW224774   3.674   5.305   4.383
 7959SOL     OW24775   4.183   5.704   0.873
 7959SOL    HW124776   4.247   5.761   0.925
 7959SOL    HW224777   4.220   5.686   0.782
 7960SOL     OW24778   3.141   1.423   0.772
 7960SOL    HW124779   3.170   1.328   0.789
 7960SOL    HW224780   3.177   1.482   0.844
 7961SOL     OW24781   0.278   6.862   1.251
 7961SOL    HW124782   0.358   6.897   1.300
 7961SOL    HW224783   0.253   6.773   1.290
 7962SOL     OW24784   1.923   0.308   0.064
 7962SOL    HW124785   1.988   0.268   0.000
 7962SOL    HW224786   1.877   0.235   0.115
 7963SOL     OW24787   0.028   0.998   3.682
 7963SOL    HW124788   0.002   0.923   3.622
 7963SOL    HW224789   0.087   1.062   3.632
 7964SOL     OW24790   0.431   4.934   3.848
 7964SOL    HW124791   0.502   4.994   3.813
 7964SOL    HW224792   0.440   4.924   3.947
 7965SOL     OW24793   3.597   2.889   6.418
 7965SOL    HW124794   3.669   2.958   6.426
 7965SOL    HW224795   3.523   2.924   6.361
 7966SOL     OW24796   0.716   2.995   5.327
 7966SOL    HW124797   0.713   3.050   5.410
 7966SOL    HW224798   0.779   2.918   5.340
 7967SOL     OW24799   2.783   6.003   4.046
 7967SOL    HW124800   2.743   6.094   4.049
 7967SOL    HW224801   2.865   6.004   3.989
 7968SOL     OW24802   2.564   2.446   3.019
 7968SOL    HW124803   2.528   2.539   3.007
 7968SOL    HW224804   2.595   2.434   3.114
 7969SOL     OW24805   4.405   6.067   0.637
 7969SOL    HW124806   4.427   5.996   0.703
 7969SOL    HW224807   4.356   6.141   0.683
 7970SOL     OW24808   0.294   2.676   2.779
 7970SOL    HW124809   0.244   2.661   2.694
 7970SOL    HW224810   0.230   2.695   2.853
 7971SOL     OW24811   4.410   1.374   0.992
 7971SOL    HW124812   4.311   1.382   0.986
 7971SOL    HW224813   4.434   1.311   1.066
 7972SOL     OW24814   1.774   3.475   1.148
 7972SOL    HW124815   1.674   3.481   1.153
 7972SOL    HW224816   1.813   3.508   1.234
 7973SOL     OW24817   5.054   4.257   3.577
 7973SOL    HW124818   5.145   4.263   3.537
 7973SOL    HW224819   5.061   4.224   3.671
 7974SOL     OW24820   5.858   1.179   5.557
 7974SOL    HW124821   5.891   1.201   5.649
 7974SOL    HW224822   5.900   1.093   5.527
 7975SOL     OW24823   5.430   0.596   3.000
 7975SOL    HW124824   5.481   0.539   3.063
 7975SOL    HW224825   5.336   0.606   3.032
 7976SOL     OW24826   0.746   0.621   6.721
 7976SOL    HW124827   0.726   0.719   6.717
 7976SOL    HW224828   0.836   0.607   6.762
 7977SOL     OW24829   5.180   5.607   1.648
 7977SOL    HW124830   5.189   5.586   1.551
 7977SOL    HW224831   5.127   5.691   1.660
 7978SOL     OW24832   6.110   3.877   5.867
 7978SOL    HW124833   6.142   3.851   5.958
 7978SOL    HW224834   6.094   3.976   5.865
 7979SOL     OW24835   2.902   6.787   5.295
 7979SOL    HW124836   2.980   6.825   5.246
 7979SOL    HW224837   2.920   6.691   5.317
 7980SOL     OW24838   2.433   5.773   0.071
 7980SOL    HW124839   2.462   5.805   6.999
 7980SOL    HW224840   2.361   5.833   0.106
 7981SOL     OW24841   0.524   5.453   1.725
 7981SOL    HW124842   0.498   5.492   1.637
 7981SOL    HW224843   0.562   5.525   1.783
 7982SOL     OW24844   0.283   2.122   0.248
 7982SOL    HW124845   0.224   2.089   0.322
 7982SOL    HW224846   0.343   2.048   0.218
 7983SOL     OW24847   5.328   1.771   2.272
 7983SOL    HW124848   5.351   1.750   2.177
 7983SOL    HW224849   5.354   1.693   2.330
 7984SOL     OW24850   1.501   1.790   1.132
 7984SOL    HW124851   1.520   1.697   1.163
 7984SOL    HW224852   1.440   1.787   1.053
 7985SOL     OW24853   2.724   6.899   3.607
 7985SOL    HW124854   2.763   6.851   3.685
 7985SOL    HW224855   2.627   6.874   3.598
 7986SOL     OW24856   3.297   0.872   6.683
 7986SOL    HW124857   3.361   0.832   6.618
 7986SOL    HW224858   3.294   0.971   6.671
 7987SOL     OW24859   1.622   3.643   0.120
 7987SOL    HW124860   1.715   3.679   0.128
 7987SOL    HW224861   1.562   3.691   0.183
 7988SOL     OW24862   1.513   2.322   3.652
 7988SOL    HW124863   1.590   2.260   3.633
 7988SOL    HW224864   1.522   2.404   3.596
 7989SOL     OW24865   3.684   2.769   5.446
 7989SOL    HW124866   3.648   2.676   5.437
 7989SOL    HW224867   3.742   2.790   5.367
 7990SOL     OW24868   6.579   3.220   3.203
 7990SOL    HW124869   6.537   3.161   3.272
 7990SOL    HW224870   6.622   3.298   3.247
 7991SOL     OW24871   6.751   0.515   3.436
 7991SOL    HW124872   6.785   0.558   3.352
 7991SOL    HW224873   6.655   0.491   3.425
 7992SOL     OW24874   1.135   6.893   1.506
 7992SOL    HW124875   1.079   6.871   1.586
 7992SOL    HW224876   1.207   6.957   1.533
 7993SOL     OW24877   1.132   6.128   6.592
 7993SOL    HW124878   1.198   6.054   6.608
 7993SOL    HW224879   1.181   6.209   6.558
 7994SOL     OW24880   4.614   6.990   3.259
 7994SOL    HW124881   4.660   6.933   3.191
 7994SOL    HW224882   4.548   0.032   3.214
 7995SOL     OW24883   4.666   4.982   3.174
 7995SOL    HW124884   4.648   5.064   3.120
 7995SOL    HW224885   4.719   4.917   3.120
 7996SOL     OW24886   2.667   0.455   4.591
 7996SOL    HW124887   2.762   0.432   4.615
 7996SOL    HW224888   2.663   0.549   4.557
 7997SOL     OW24889   0.616   1.285   1.430
 7997SOL    HW124890   0.571   1.207   1.474
 7997SOL    HW224891   0.547   1.339   1.382
 7998SOL     OW24892   3.885   4.995   0.717
 7998SOL    HW124893   3.964   5.054   0.731
 7998SOL    HW224894   3.819   5.008   0.791
 7999SOL     OW24895   1.048   6.350   6.154
 7999SOL    HW124896   1.138   6.392   6.142
 7999SOL    HW224897   1.058   6.261   6.198
 8000SOL     OW24898   5.413   6.916   0.066
 8000SOL    HW124899   5.443   6.907   0.161
 8000SOL    HW224900   5.422   6.828   0.020
 8001SOL     OW24901   3.519   5.818   0.659
 8001SOL    HW124902   3.533   5.761   0.740
 8001SOL    HW224903   3.457   5.894   0.681
 8002SOL     OW24904   0.752   2.462   5.428
 8002SOL    HW124905   0.665   2.470   5.381
 8002SOL    HW224906   0.824   2.441   5.362
 8003SOL     OW24907   2.874   4.971   2.741
 8003SOL    HW124908   2.817   4.976   2.823
 8003SOL    HW224909   2.826   4.920   2.669
 8004SOL     OW24910   1.943   3.863   3.754
 8004SOL    HW124911   1.886   3.871   3.836
 8004SOL    HW224912   1.889   3.887   3.673
 8005SOL     OW24913   3.573   0.643   2.434
 8005SOL    HW124914   3.514   0.709   2.387
 8005SOL    HW224915   3.618   0.687   2.512
 8006SOL     OW24916   2.007   6.962   6.537
 8006SOL    HW124917   2.096   6.941   6.498
 8006SOL    HW224918   1.996   0.043   6.545
 8007SOL     OW24919   0.323   1.161   4.766
 8007SOL    HW124920   0.275   1.099   4.828
 8007SOL    HW224921   0.257   1.209   4.709
 8008SOL     OW24922   4.422   6.056   5.795
 8008SOL    HW124923   4.404   6.103   5.708
 8008SOL    HW224924   4.349   5.990   5.812
 8009SOL     OW24925   5.804   0.900   2.653
 8009SOL    HW124926   5.880   0.927   2.594
 8009SOL    HW224927   5.832   0.825   2.713
 8010SOL     OW24928   1.091   1.320   0.658
 8010SOL    HW124929   1.179   1.281   0.682
 8010SOL    HW224930   1.026   1.247   0.637
 8011SOL     OW24931   3.242   2.744   0.877
 8011SOL    HW124932   3.257   2.659   0.927
 8011SOL    HW224933   3.261   2.729   0.780
 8012SOL     OW24934   2.048   4.703   1.846
 8012SOL    HW124935   2.117   4.736   1.782
 8012SOL    HW224936   1.959   4.744   1.824
 8013SOL     OW24937   1.512   4.810   3.355
 8013SOL    HW124938   1.417   4.798   3.325
 8013SOL    HW224939   1.526   4.763   3.442
 8014SOL     OW24940   0.872   6.293   5.193
 8014SOL    HW124941   0.857   6.389   5.170
 8014SOL    HW224942   0.801   6.261   5.255
 8015SOL     OW24943   2.867   0.916   0.653
 8015SOL    HW124944   2.938   0.954   0.594
 8015SOL    HW224945   2.867   0.816   0.645
 8016SOL     OW24946   4.643   0.024   6.667
 8016SOL    HW124947   4.672   0.005   6.761
 8016SOL    HW224948   4.630   0.122   6.655
 8017SOL     OW24949   6.734   6.699   0.432
 8017SOL    HW124950   6.778   6.663   0.350
 8017SOL    HW224951   6.777   6.660   0.513
 8018SOL     OW24952   3.271   2.519   6.003
 8018SOL    HW124953   3.182   2.525   5.957
 8018SOL    HW224954   3.284   2.599   6.061
 8019SOL     OW24955   2.198   4.043   5.910
 8019SOL    HW124956   2.152   3.985   5.977
 8019SOL    HW224957   2.263   3.988   5.857
 8020SOL     OW24958   6.063   6.278   1.010
 8020SOL    HW124959   6.163   6.285   1.002
 8020SOL    HW224960   6.027   6.228   0.931
 8021SOL     OW24961   1.107   1.904   1.363
 8021SOL    HW124962   1.062   1.993   1.376
 8021SOL    HW224963   1.192   1.901   1.417
 8022SOL     OW24964   4.525   6.881   2.831
 8022SOL    HW124965   4.477   6.820   2.768
 8022SOL    HW224966   4.490   6.974   2.820
 8023SOL     OW24967   6.184   5.170   3.503
 8023SOL    HW124968   6.187   5.182   3.602
 8023SOL    HW224969   6.117   5.099   3.481
 8024SOL     OW24970   3.243   5.237   0.081
 8024SOL    HW124971   3.312   5.190   0.137
 8024SOL    HW224972   3.273   5.238   7.003
 8025SOL     OW24973   2.245   6.337   6.304
 8025SOL    HW124974   2.287   6.254   6.267
 8025SOL    HW224975   2.239   6.330   6.404
 8026SOL     OW24976   1.194   4.187   6.561
 8026SOL    HW124977   1.190   4.217   6.656
 8026SOL    HW224978   1.232   4.261   6.504
 8027SOL     OW24979   4.515   1.788   5.479
 8027SOL    HW124980   4.557   1.728   5.547
 8027SOL    HW224981   4.544   1.760   5.387
 8028SOL     OW24982   3.164   4.859   4.504
 8028SOL    HW124983   3.128   4.828   4.416
 8028SOL    HW224984   3.095   4.845   4.575
 8029SOL     OW24985   4.838   2.914   1.050
 8029SOL    HW124986   4.864   3.010   1.065
 8029SOL    HW224987   4.899   2.854   1.102
 8030SOL     OW24988   4.269   4.383   6.800
 8030SOL    HW124989   4.366   4.381   6.824
 8030SOL    HW224990   4.258   4.353   6.705
 8031SOL     OW24991   5.582   6.788   3.023
 8031SOL    HW124992   5.600   6.754   2.931
 8031SOL    HW224993   5.565   6.710   3.084
 8032SOL     OW24994   5.509   4.103   6.228
 8032SOL    HW124995   5.484   4.016   6.270
 8032SOL    HW224996   5.503   4.095   6.128
 8033SOL     OW24997   4.902   3.093   6.455
 8033SOL    HW124998   4.991   3.131   6.433
 8033SOL    HW224999   4.833   3.133   6.394
 8034SOL     OW25000   6.374   0.657   4.801
 8034SOL    HW125001   6.387   0.583   4.735
 8034SOL    HW225002   6.462   0.700   4.820
 8035SOL     OW25003   5.145   1.638   4.669
 8035SOL    HW125004   5.196   1.712   4.712
 8035SOL    HW225005   5.092   1.589   4.739
 8036SOL     OW25006   0.960   4.690   3.042
 8036SOL    HW125007   1.015   4.607   3.027
 8036SOL    HW225008   0.913   4.682   3.130
 8037SOL     OW25009   1.537   3.070   1.659
 8037SOL    HW125010   1.485   3.095   1.577
 8037SOL    HW225011   1.474   3.055   1.735
 8038SOL     OW25012   4.418   0.821   3.250
 8038SOL    HW125013   4.381   0.729   3.238
 8038SOL    HW225014   4.359   0.887   3.204
 8039SOL     OW25015   0.601   1.208   4.366
 8039SOL    HW125016   0.507   1.230   4.395
 8039SOL    HW225017   0.599   1.163   4.277
 8040SOL     OW25018   1.593   6.103   0.444
 8040SOL    HW125019   1.622   6.170   0.376
 8040SOL    HW225020   1.672   6.072   0.496
 8041SOL     OW25021   2.825   1.668   1.955
 8041SOL    HW125022   2.881   1.688   2.036
 8041SOL    HW225023   2.854   1.728   1.880
 8042SOL     OW25024   3.736   3.026   3.870
 8042SOL    HW125025   3.767   3.038   3.776
 8042SOL    HW225026   3.811   3.050   3.932
 8043SOL     OW25027   3.917   6.839   2.665
 8043SOL    HW125028   3.871   6.758   2.628
 8043SOL    HW225029   3.931   6.905   2.592
 8044SOL     OW25030   3.643   2.810   1.065
 8044SOL    HW125031   3.547   2.814   1.092
 8044SOL    HW225032   3.670   2.714   1.052
 8045SOL     OW25033   5.543   1.048   1.331
 8045SOL    HW125034   5.488   1.120   1.372
 8045SOL    HW225035   5.631   1.041   1.378
 8046SOL     OW25036   6.894   5.284   0.649
 8046SOL    HW125037   6.912   5.347   0.574
 8046SOL    HW225038   6.963   5.212   0.650
 8047SOL     OW25039   3.514   5.446   4.169
 8047SOL    HW125040   3.603   5.408   4.191
 8047SOL    HW225041   3.455   5.443   4.250
 8048SOL     OW25042   5.642   0.824   6.032
 8048SOL    HW125043   5.629   0.859   5.939
 8048SOL    HW225044   5.600   0.734   6.040
 8049SOL     OW25045   1.015   0.296   0.365
 8049SOL    HW125046   1.010   0.345   0.278
 8049SOL    HW225047   0.923   0.284   0.402
 8050SOL     OW25048   1.405   3.643   2.689
 8050SOL    HW125049   1.498   3.607   2.690
 8050SOL    HW225050   1.370   3.641   2.595
 8051SOL     OW25051   4.820   5.931   2.973
 8051SOL    HW125052   4.882   5.854   2.989
 8051SOL    HW225053   4.873   6.014   2.959
 8052SOL     OW25054   4.957   1.318   2.012
 8052SOL    HW125055   4.995   1.227   2.029
 8052SOL    HW225056   5.018   1.387   2.051
 8053SOL     OW25057   3.153   3.877   3.615
 8053SOL    HW125058   3.204   3.962   3.625
 8053SOL    HW225059   3.184   3.829   3.533
 8054SOL     OW25060   4.724   0.239   4.615
 8054SOL    HW125061   4.631   0.266   4.589
 8054SOL    HW225062   4.783   0.240   4.535
 8055SOL     OW25063   0.243   0.268   5.569
 8055SOL    HW125064   0.187   0.237   5.646
 8055SOL    HW225065   0.184   0.313   5.501
 8056SOL     OW25066   4.279   1.906   4.115
 8056SOL    HW125067   4.242   1.822   4.074
 8056SOL    HW225068   4.318   1.885   4.204
 8057SOL     OW25069   3.360   2.153   2.991
 8057SOL    HW125070   3.323   2.175   2.901
 8057SOL    HW225071   3.289   2.167   3.060
 8058SOL     OW25072   4.504   0.708   2.530
 8058SOL    HW125073   4.559   0.790   2.514
 8058SOL    HW225074   4.564   0.628   2.531
 8059SOL     OW25075   4.467   2.476   4.646
 8059SOL    HW125076   4.530   2.553   4.643
 8059SOL    HW225077   4.464   2.439   4.739
 8060SOL     OW25078   0.802   2.851   4.022
 8060SOL    HW125079   0.727   2.895   3.972
 8060SOL    HW225080   0.889   2.878   3.982
 8061SOL     OW25081   6.811   0.592   2.081
 8061SOL    HW125082   6.892   0.650   2.076
 8061SOL    HW225083   6.769   0.601   2.171
 8062SOL     OW25084   3.329   5.203   4.514
 8062SOL    HW125085   3.347   5.119   4.565
 8062SOL    HW225086   3.240   5.240   4.540
 8063SOL     OW25087   0.763   3.005   0.537
 8063SOL    HW125088   0.780   2.920   0.587
 8063SOL    HW225089   0.832   3.015   0.465
 8064SOL     OW25090   0.383   4.911   1.058
 8064SOL    HW125091   0.371   5.004   1.024
 8064SOL    HW225092   0.455   4.865   1.005
 8065SOL     OW25093   3.239   6.053   4.468
 8065SOL    HW125094   3.152   6.004   4.462
 8065SOL    HW225095   3.222   6.148   4.494
 8066SOL     OW25096   0.621   2.130   5.986
 8066SOL    HW125097   0.704   2.160   5.939
 8066SOL    HW225098   0.634   2.036   6.020
 8067SOL     OW25099   5.034   2.697   1.667
 8067SOL    HW125100   4.970   2.761   1.710
 8067SOL    HW225101   4.988   2.611   1.649
 8068SOL     OW25102   6.014   4.425   0.280
 8068SOL    HW125103   6.105   4.429   0.239
 8068SOL    HW225104   5.985   4.329   0.289
 8069SOL     OW25105   1.747   6.365   1.016
 8069SOL    HW125106   1.698   6.280   1.037
 8069SOL    HW225107   1.781   6.406   1.100
 8070SOL     OW25108   2.968   3.017   0.576
 8070SOL    HW125109   2.932   2.936   0.530
 8070SOL    HW225110   2.921   3.098   0.542
 8071SOL     OW25111   3.039   6.678   4.722
 8071SOL    HW125112   3.137   6.684   4.735
 8071SOL    HW225113   3.012   6.581   4.719
 8072SOL     OW25114   3.216   0.751   6.913
 8072SOL    HW125115   3.167   0.677   6.867
 8072SOL    HW225116   3.237   0.823   6.848
 8073SOL     OW25117   4.383   6.080   5.452
 8073SOL    HW125118   4.391   6.082   5.352
 8073SOL    HW225119   4.288   6.060   5.477
 8074SOL     OW25120   3.343   2.671   0.648
 8074SOL    HW125121   3.303   2.698   0.560
 8074SOL    HW225122   3.350   2.571   0.651
 8075SOL     OW25123   6.408   1.295   0.685
 8075SOL    HW125124   6.329   1.248   0.725
 8075SOL    HW225125   6.433   1.250   0.599
 8076SOL     OW25126   4.927   2.413   5.676
 8076SOL    HW125127   4.929   2.409   5.576
 8076SOL    HW225128   4.914   2.508   5.705
 8077SOL     OW25129   1.826   5.696   1.922
 8077SOL    HW125130   1.834   5.789   1.887
 8077SOL    HW225131   1.739   5.657   1.892
 8078SOL     OW25132   5.693   1.264   0.641
 8078SOL    HW125133   5.656   1.194   0.580
 8078SOL    HW225134   5.618   1.316   0.681
 8079SOL     OW25135   4.939   1.279   3.368
 8079SOL    HW125136   4.962   1.185   3.343
 8079SOL    HW225137   4.882   1.279   3.450
 8080SOL     OW25138   0.495   3.318   0.135
 8080SOL    HW125139   0.560   3.379   0.181
 8080SOL    HW225140   0.464   3.360   0.050
 8081SOL     OW25141   5.126   6.573   4.557
 8081SOL    HW125142   5.184   6.499   4.590
 8081SOL    HW225143   5.142   6.655   4.612
 8082SOL     OW25144   5.757   0.310   2.208
 8082SOL    HW125145   5.744   0.214   2.184
 8082SOL    HW225146   5.667   0.353   2.224
 8083SOL     OW25147   5.334   3.554   2.252
 8083SOL    HW125148   5.424   3.543   2.295
 8083SOL    HW225149   5.282   3.470   2.262
 8084SOL     OW25150   4.934   6.929   0.134
 8084SOL    HW125151   4.988   6.947   0.051
 8084SOL    HW225152   4.971   6.983   0.209
 8085SOL     OW25153   5.920   0.344   2.771
 8085SOL    HW125154   5.967   0.376   2.853
 8085SOL    HW225155   5.976   0.364   2.691
 8086SOL     OW25156   4.757   0.969   4.101
 8086SOL    HW125157   4.844   0.969   4.149
 8086SOL    HW225158   4.756   1.041   4.032
 8087SOL     OW25159   2.873   1.405   0.794
 8087SOL    HW125160   2.856   1.337   0.723
 8087SOL    HW225161   2.966   1.442   0.784
 8088SOL     OW25162   5.390   2.271   1.500
 8088SOL    HW125163   5.327   2.343   1.530
 8088SOL    HW225164   5.480   2.310   1.484
 8089SOL     OW25165   4.788   2.608   0.019
 8089SOL    HW125166   4.745   2.568   0.101
 8089SOL    HW225167   4.884   2.583   0.016
 8090SOL     OW25168   3.878   2.462   6.607
 8090SOL    HW125169   3.789   2.471   6.653
 8090SOL    HW225170   3.894   2.542   6.549
 8091SOL     OW25171   2.505   3.940   6.260
 8091SOL    HW125172   2.566   3.952   6.338
 8091SOL    HW225173   2.498   3.843   6.237
 8092SOL     OW25174   0.402   2.696   5.188
 8092SOL    HW125175   0.315   2.722   5.149
 8092SOL    HW225176   0.447   2.776   5.228
 8093SOL     OW25177   4.692   5.877   2.560
 8093SOL    HW125178   4.780   5.841   2.590
 8093SOL    HW225179   4.637   5.803   2.522
 8094SOL     OW25180   1.396   3.773   4.984
 8094SOL    HW125181   1.425   3.867   4.969
 8094SOL    HW225182   1.416   3.746   5.078
 8095SOL     OW25183   6.075   3.624   4.585
 8095SOL    HW125184   6.154   3.683   4.601
 8095SOL    HW225185   6.090   3.570   4.502
 8096SOL     OW25186   2.962   5.453   3.800
 8096SOL    HW125187   3.060   5.440   3.818
 8096SOL    HW225188   2.912   5.370   3.826
 8097SOL     OW25189   5.144   6.522   3.419
 8097SOL    HW125190   5.084   6.495   3.494
 8097SOL    HW225191   5.114   6.611   3.383
 8098SOL     OW25192   2.173   6.166   4.003
 8098SOL    HW125193   2.188   6.220   4.086
 8098SOL    HW225194   2.124   6.082   4.027
 8099SOL     OW25195   4.516   6.863   4.179
 8099SOL    HW125196   4.598   6.806   4.175
 8099SOL    HW225197   4.511   6.920   4.097
 8100SOL     OW25198   6.735   0.162   0.097
 8100SOL    HW125199   6.641   0.197   0.092
 8100SOL    HW225200   6.798   0.230   0.059
 8101SOL     OW25201   2.112   0.154   3.931
 8101SOL    HW125202   2.106   0.168   4.030
 8101SOL    HW225203   2.209   0.150   3.905
 8102SOL     OW25204   0.450   4.485   4.891
 8102SOL    HW125205   0.421   4.554   4.957
 8102SOL    HW225206   0.372   4.454   4.838
 8103SOL     OW25207   4.723   0.697   0.875
 8103SOL    HW125208   4.717   0.794   0.896
 8103SOL    HW225209   4.813   0.676   0.838
 8104SOL     OW25210   2.575   0.058   5.779
 8104SOL    HW125211   2.583   6.996   5.718
 8104SOL    HW225212   2.664   0.102   5.788
 8105SOL     OW25213   1.287   2.638   3.354
 8105SOL    HW125214   1.336   2.554   3.331
 8105SOL    HW225215   1.207   2.647   3.294
 8106SOL     OW25216   2.820   6.006   3.154
 8106SOL    HW125217   2.729   5.964   3.157
 8106SOL    HW225218   2.841   6.036   3.061
 8107SOL     OW25219   0.415   5.467   4.990
 8107SOL    HW125220   0.445   5.423   4.905
 8107SOL    HW225221   0.327   5.513   4.975
 8108SOL     OW25222   6.213   3.447   4.875
 8108SOL    HW125223   6.294   3.403   4.837
 8108SOL    HW225224   6.132   3.390   4.859
 8109SOL     OW25225   1.273   3.607   4.542
 8109SOL    HW125226   1.366   3.642   4.529
 8109SOL    HW225227   1.211   3.684   4.557
 8110SOL     OW25228   3.005   6.301   0.936
 8110SOL    HW125229   2.988   6.344   0.847
 8110SOL    HW225230   2.968   6.208   0.935
 8111SOL     OW25231   4.606   0.977   5.209
 8111SOL    HW125232   4.688   1.005   5.158
 8111SOL    HW225233   4.629   0.905   5.274
 8112SOL     OW25234   2.070   1.671   4.577
 8112SOL    HW125235   2.021   1.705   4.497
 8112SOL    HW225236   2.060   1.736   4.652
 8113SOL     OW25237   3.256   3.285   0.882
 8113SOL    HW125238   3.340   3.308   0.931
 8113SOL    HW225239   3.230   3.361   0.822
 8114SOL     OW25240   2.577   3.717   1.416
 8114SOL    HW125241   2.522   3.660   1.477
 8114SOL    HW225242   2.517   3.764   1.351
 8115SOL     OW25243   4.164   0.666   1.193
 8115SOL    HW125244   4.126   0.633   1.106
 8115SOL    HW225245   4.185   0.764   1.185
 8116SOL     OW25246   4.917   6.807   4.756
 8116SOL    HW125247   4.904   6.746   4.677
 8116SOL    HW225248   4.847   6.878   4.754
 8117SOL     OW25249   2.237   0.773   3.663
 8117SOL    HW125250   2.298   0.694   3.670
 8117SOL    HW225251   2.291   0.857   3.654
 8118SOL     OW25252   6.367   2.845   5.548
 8118SOL    HW125253   6.336   2.764   5.499
 8118SOL    HW225254   6.458   2.870   5.516
 8119SOL     OW25255   6.415   5.971   5.263
 8119SOL    HW125256   6.362   6.022   5.331
 8119SOL    HW225257   6.359   5.958   5.181
 8120SOL     OW25258   3.350   4.492   0.259
 8120SOL    HW125259   3.257   4.520   0.236
 8120SOL    HW225260   3.378   4.417   0.198
 8121SOL     OW25261   6.906   5.844   2.051
 8121SOL    HW125262   7.004   5.858   2.040
 8121SOL    HW225263   6.857   5.927   2.027
 8122SOL     OW25264   1.694   5.733   2.418
 8122SOL    HW125265   1.743   5.650   2.444
 8122SOL    HW225266   1.624   5.753   2.486
 8123SOL     OW25267   0.248   0.435   6.740
 8123SOL    HW125268   0.168   0.395   6.695
 8123SOL    HW225269   0.247   0.412   6.837
 8124SOL     OW25270   0.051   6.499   0.426
 8124SOL    HW125271   0.084   6.585   0.387
 8124SOL    HW225272   0.128   6.449   0.465
 8125SOL     OW25273   0.940   0.266   3.095
 8125SOL    HW125274   0.851   0.247   3.136
 8125SOL    HW225275   1.011   0.219   3.147
 8126SOL     OW25276   5.860   4.217   2.188
 8126SOL    HW125277   5.922   4.287   2.155
 8126SOL    HW225278   5.828   4.241   2.280
 8127SOL     OW25279   2.884   5.608   0.543
 8127SOL    HW125280   2.848   5.535   0.601
 8127SOL    HW225281   2.829   5.690   0.554
 8128SOL     OW25282   3.057   3.325   1.083
 8128SOL    HW125283   3.146   3.302   1.122
 8128SOL    HW225284   3.051   3.287   0.990
 8129SOL     OW25285   4.203   0.848   5.873
 8129SOL    HW125286   4.226   0.751   5.864
 8129SOL    HW225287   4.235   0.881   5.962
 8130SOL     OW25288   0.082   4.823   6.382
 8130SOL    HW125289   7.010   4.781   6.368
 8130SOL    HW225290   0.125   4.785   6.464
 8131SOL     OW25291   3.381   1.022   0.961
 8131SOL    HW125292   3.459   0.960   0.960
 8131SOL    HW225293   3.299   0.973   0.931
 8132SOL     OW25294   5.272   5.926   6.545
 8132SOL    HW125295   5.304   6.020   6.535
 8132SOL    HW225296   5.328   5.865   6.489
 8133SOL     OW25297   3.483   4.914   1.756
 8133SOL    HW125298   3.554   4.858   1.801
 8133SOL    HW225299   3.423   4.854   1.703
 8134SOL     OW25300   0.783   2.068   4.468
 8134SOL    HW125301   0.806   2.032   4.378
 8134SOL    HW225302   0.738   1.997   4.522
 8135SOL     OW25303   1.845   6.066   1.027
 8135SOL    HW125304   1.885   6.158   1.027
 8135SOL    HW225305   1.855   6.026   1.119
 8136SOL     OW25306   4.937   4.372   2.822
 8136SOL    HW125307   4.884   4.425   2.755
 8136SOL    HW225308   5.019   4.422   2.847
 8137SOL     OW25309   2.737   1.427   4.530
 8137SOL    HW125310   2.806   1.498   4.539
 8137SOL    HW225311   2.666   1.456   4.466
 8138SOL     OW25312   5.882   2.176   0.455
 8138SOL    HW125313   5.784   2.194   0.464
 8138SOL    HW225314   5.896   2.098   0.394
 8139SOL     OW25315   1.735   2.169   3.918
 8139SOL    HW125316   1.648   2.123   3.936
 8139SOL    HW225317   1.794   2.108   3.864
 8140SOL     OW25318   4.057   6.770   0.196
 8140SOL    HW125319   3.990   6.834   0.157
 8140SOL    HW225320   4.111   6.731   0.122
 8141SOL     OW25321   4.126   6.902   5.568
 8141SOL    HW125322   4.089   6.844   5.641
 8141SOL    HW225323   4.197   6.961   5.605
 8142SOL     OW25324   2.001   5.309   0.275
 8142SOL    HW125325   1.956   5.248   0.340
 8142SOL    HW225326   2.101   5.298   0.284
 8143SOL     OW25327   5.662   5.272   0.437
 8143SOL    HW125328   5.718   5.191   0.454
 8143SOL    HW225329   5.566   5.245   0.432
 8144SOL     OW25330   0.866   6.119   5.836
 8144SOL    HW125331   0.768   6.116   5.857
 8144SOL    HW225332   0.897   6.029   5.808
 8145SOL     OW25333   5.670   5.675   0.767
 8145SOL    HW125334   5.633   5.719   0.685
 8145SOL    HW225335   5.605   5.686   0.842
 8146SOL     OW25336   5.131   0.147   5.169
 8146SOL    HW125337   5.159   0.175   5.078
 8146SOL    HW225338   5.078   0.062   5.164
 8147SOL     OW25339   6.245   0.830   1.132
 8147SOL    HW125340   6.323   0.770   1.153
 8147SOL    HW225341   6.279   0.917   1.097
 8148SOL     OW25342   5.180   5.138   0.218
 8148SOL    HW125343   5.153   5.042   0.224
 8148SOL    HW225344   5.100   5.195   0.202
 8149SOL     OW25345   1.479   6.703   3.295
 8149SOL    HW125346   1.565   6.668   3.332
 8149SOL    HW225347   1.403   6.648   3.329
 8150SOL     OW25348   1.693   4.393   0.846
 8150SOL    HW125349   1.702   4.436   0.756
 8150SOL    HW225350   1.599   4.403   0.878
 8151SOL     OW25351   5.913   5.243   3.201
 8151SOL    HW125352   6.010   5.246   3.223
 8151SOL    HW225353   5.884   5.330   3.161
 8152SOL     OW25354   6.096   3.083   3.274
 8152SOL    HW125355   6.147   3.107   3.192
 8152SOL    HW225356   6.036   3.006   3.255
 8153SOL     OW25357   1.277   1.449   3.849
 8153SOL    HW125358   1.247   1.454   3.754
 8153SOL    HW225359   1.241   1.528   3.899
 8154SOL     OW25360   3.845   6.170   2.918
 8154SOL    HW125361   3.810   6.257   2.884
 8154SOL    HW225362   3.936   6.184   2.958
 8155SOL     OW25363   1.630   3.778   2.133
 8155SOL    HW125364   1.727   3.775   2.108
 8155SOL    HW225365   1.622   3.795   2.232
 8156SOL     OW25366   4.265   6.250   0.394
 8156SOL    HW125367   4.359   6.232   0.364
 8156SOL    HW225368   4.265   6.270   0.492
 8157SOL     OW25369   6.235   4.394   6.723
 8157SOL    HW125370   6.234   4.475   6.782
 8157SOL    HW225371   6.204   4.315   6.775
 8158SOL     OW25372   5.040   4.063   0.248
 8158SOL    HW125373   5.100   4.011   0.309
 8158SOL    HW225374   5.074   4.057   0.154
 8159SOL     OW25375   2.554   5.750   3.629
 8159SOL    HW125376   2.462   5.724   3.656
 8159SOL    HW225377   2.621   5.697   3.682
 8160SOL     OW25378   5.198   0.143   3.973
 8160SOL    HW125379   5.221   0.050   3.945
 8160SOL    HW225380   5.222   0.206   3.899
 8161SOL     OW25381   5.885   3.018   6.190
 8161SOL    HW125382   5.909   3.071   6.108
 8161SOL    HW225383   5.920   2.925   6.182
 8162SOL     OW25384   6.432   6.305   0.094
 8162SOL    HW125385   6.335   6.303   0.069
 8162SOL    HW225386   6.453   6.392   0.138
 8163SOL     OW25387   2.357   4.689   5.265
 8163SOL    HW125388   2.429   4.633   5.225
 8163SOL    HW225389   2.271   4.671   5.218
 8164SOL     OW25390   4.696   1.451   1.001
 8164SOL    HW125391   4.598   1.435   0.994
 8164SOL    HW225392   4.735   1.455   0.909
 8165SOL     OW25393   0.146   3.975   5.710
 8165SOL    HW125394   0.169   3.930   5.796
 8165SOL    HW225395   0.051   3.956   5.686
 8166SOL     OW25396   1.147   0.430   3.408
 8166SOL    HW125397   1.162   0.335   3.383
 8166SOL    HW225398   1.166   0.442   3.506
 8167SOL     OW25399   0.159   1.196   3.537
 8167SOL    HW125400   0.181   1.243   3.622
 8167SOL    HW225401   0.243   1.180   3.485
 8168SOL     OW25402   2.745   0.567   1.644
 8168SOL    HW125403   2.831   0.541   1.601
 8168SOL    HW225404   2.763   0.599   1.737
 8169SOL     OW25405   4.667   2.550   0.480
 8169SOL    HW125406   4.697   2.595   0.396
 8169SOL    HW225407   4.724   2.470   0.497
 8170SOL     OW25408   1.299   5.443   1.763
 8170SOL    HW125409   1.237   5.510   1.722
 8170SOL    HW225410   1.291   5.356   1.715
 8171SOL     OW25411   1.480   1.654   6.915
 8171SOL    HW125412   1.489   1.629   6.818
 8171SOL    HW225413   1.388   1.687   6.933
 8172SOL     OW25414   6.925   2.127   2.222
 8172SOL    HW125415   6.878   2.058   2.277
 8172SOL    HW225416   6.863   2.205   2.206
 8173SOL     OW25417   5.622   2.190   2.155
 8173SOL    HW125418   5.591   2.276   2.113
 8173SOL    HW225419   5.582   2.181   2.246
 8174SOL     OW25420   6.979   0.174   2.404
 8174SOL    HW125421   6.967   0.234   2.324
 8174SOL    HW225422   6.945   0.083   2.382
 8175SOL     OW25423   6.932   3.505   5.118
 8175SOL    HW125424   6.956   3.603   5.122
 8175SOL    HW225425   6.887   3.486   5.030
 8176SOL     OW25426   2.644   4.627   1.393
 8176SOL    HW125427   2.710   4.573   1.444
 8176SOL    HW225428   2.692   4.692   1.334
 8177SOL     OW25429   4.538   0.418   3.702
 8177SOL    HW125430   4.587   0.450   3.621
 8177SOL    HW225431   4.480   0.492   3.737
 8178SOL     OW25432   2.954   6.884   0.405
 8178SOL    HW125433   2.909   6.884   0.494
 8178SOL    HW225434   2.955   6.978   0.369
 8179SOL     OW25435   5.234   1.294   5.014
 8179SOL    HW125436   5.248   1.327   5.108
 8179SOL    HW225437   5.292   1.347   4.952
 8180SOL     OW25438   6.267   0.904   5.844
 8180SOL    HW125439   6.309   0.926   5.755
 8180SOL    HW225440   6.315   0.954   5.916
 8181SOL     OW25441   1.305   1.966   0.670
 8181SOL    HW125442   1.247   2.012   0.737
 8181SOL    HW225443   1.380   2.026   0.643
 8182SOL     OW25444   3.279   3.169   5.815
 8182SOL    HW125445   3.321   3.078   5.815
 8182SOL    HW225446   3.211   3.174   5.742
 8183SOL     OW25447   6.778   2.341   4.929
 8183SOL    HW125448   6.721   2.415   4.965
 8183SOL    HW225449   6.871   2.350   4.966
 8184SOL     OW25450   0.076   0.072   0.538
 8184SOL    HW125451   0.096   0.156   0.488
 8184SOL    HW225452   0.104   0.082   0.633
 8185SOL     OW25453   1.850   0.457   6.812
 8185SOL    HW125454   1.928   0.419   6.762
 8185SOL    HW225455   1.833   0.402   6.894
 8186SOL     OW25456   3.135   4.716   5.555
 8186SOL    HW125457   3.079   4.696   5.475
 8186SOL    HW225458   3.143   4.815   5.566
 8187SOL     OW25459   2.050   1.259   5.085
 8187SOL    HW125460   1.990   1.316   5.028
 8187SOL    HW225461   2.034   1.163   5.064
 8188SOL     OW25462   4.865   3.244   3.895
 8188SOL    HW125463   4.819   3.213   3.813
 8188SOL    HW225464   4.894   3.340   3.883
 8189SOL     OW25465   5.172   5.466   2.913
 8189SOL    HW125466   5.120   5.546   2.945
 8189SOL    HW225467   5.172   5.396   2.985
 8190SOL     OW25468   4.785   4.169   4.244
 8190SOL    HW125469   4.699   4.209   4.213
 8190SOL    HW225470   4.813   4.097   4.181
 8191SOL     OW25471   3.627   5.782   1.794
 8191SOL    HW125472   3.640   5.835   1.878
 8191SOL    HW225473   3.570   5.835   1.730
 8192SOL     OW25474   2.944   5.458   1.528
 8192SOL    HW125475   3.041   5.471   1.512
 8192SOL    HW225476   2.906   5.397   1.458
 8193SOL     OW25477   5.782   5.710   5.829
 8193SOL    HW125478   5.808   5.802   5.856
 8193SOL    HW225479   5.705   5.714   5.765
 8194SOL     OW25480   4.851   1.469   0.771
 8194SOL    HW125481   4.859   1.510   0.681
 8194SOL    HW225482   4.928   1.408   0.787
 8195SOL     OW25483   0.651   6.577   3.245
 8195SOL    HW125484   0.666   6.676   3.247
 8195SOL    HW225485   0.614   6.547   3.333
 8196SOL     OW25486   3.989   6.050   6.818
 8196SOL    HW125487   3.902   6.076   6.776
 8196SOL    HW225488   4.000   5.951   6.814
 8197SOL     OW25489   3.899   1.623   0.451
 8197SOL    HW125490   3.839   1.665   0.519
 8197SOL    HW225491   3.879   1.660   0.361
 8198SOL     OW25492   3.482   6.399   2.814
 8198SOL    HW125493   3.472   6.316   2.868
 8198SOL    HW225494   3.579   6.422   2.806
 8199SOL     OW25495   5.794   2.507   6.230
 8199SOL    HW125496   5.712   2.532   6.282
 8199SOL    HW225497   5.831   2.421   6.265
 8200SOL     OW25498   5.773   4.786   1.946
 8200SOL    HW125499   5.752   4.688   1.936
 8200SOL    HW225500   5.858   4.807   1.899
 8201SOL     OW25501   5.628   0.725   4.584
 8201SOL    HW125502   5.597   0.820   4.597
 8201SOL    HW225503   5.703   0.706   4.646
 8202SOL     OW25504   0.037   5.545   4.069
 8202SOL    HW125505   0.115   5.596   4.105
 8202SOL    HW225506   0.017   5.576   3.976
 8203SOL     OW25507   3.081   2.251   0.067
 8203SOL    HW125508   3.168   2.297   0.051
 8203SOL    HW225509   3.071   2.174   0.004
 8204SOL     OW25510   3.651   4.822   7.011
 8204SOL    HW125511   3.724   4.878   6.974
 8204SOL    HW225512   3.655   4.731   6.971
 8205SOL     OW25513   0.143   4.805   0.531
 8205SOL    HW125514   0.218   4.831   0.591
 8205SOL    HW225515   0.057   4.838   0.569
 8206SOL     OW25516   5.187   1.946   6.614
 8206SOL    HW125517   5.197   1.941   6.714
 8206SOL    HW225518   5.092   1.926   6.589
 8207SOL     OW25519   2.955   3.336   4.471
 8207SOL    HW125520   2.891   3.295   4.406
 8207SOL    HW225521   3.001   3.264   4.523
 8208SOL     OW25522   1.346   0.070   1.557
 8208SOL    HW125523   1.279   0.143   1.566
 8208SOL    HW225524   1.428   0.093   1.608
 8209SOL     OW25525   0.842   1.235   4.714
 8209SOL    HW125526   0.867   1.141   4.736
 8209SOL    HW225527   0.856   1.252   4.617
 8210SOL     OW25528   2.149   1.107   1.259
 8210SOL    HW125529   2.168   1.055   1.175
 8210SOL    HW225530   2.051   1.105   1.278
 8211SOL     OW25531   3.931   4.193   1.719
 8211SOL    HW125532   3.911   4.123   1.788
 8211SOL    HW225533   3.863   4.265   1.723
 8212SOL     OW25534   2.184   2.387   1.878
 8212SOL    HW125535   2.206   2.439   1.795
 8212SOL    HW225536   2.269   2.356   1.921
 8213SOL     OW25537   6.651   4.244   1.783
 8213SOL    HW125538   6.682   4.264   1.690
 8213SOL    HW225539   6.728   4.247   1.846
 8214SOL     OW25540   5.868   6.015   4.031
 8214SOL    HW125541   5.929   5.990   4.107
 8214SOL    HW225542   5.913   6.082   3.972
 8215SOL     OW25543   2.705   5.324   6.053
 8215SOL    HW125544   2.608   5.320   6.080
 8215SOL    HW225545   2.757   5.260   6.110
 8216SOL     OW25546   5.494   5.124   3.658
 8216SOL    HW125547   5.404   5.144   3.619
 8216SOL    HW225548   5.505   5.025   3.668
 8217SOL     OW25549   1.879   4.043   0.199
 8217SOL    HW125550   1.847   4.120   0.255
 8217SOL    HW225551   1.824   4.037   0.116
 8218SOL     OW25552   0.407   6.805   5.812
 8218SOL    HW125553   0.425   6.793   5.714
 8218SOL    HW225554   0.325   6.861   5.824
 8219SOL     OW25555   4.279   2.501   0.607
 8219SOL    HW125556   4.321   2.590   0.621
 8219SOL    HW225557   4.226   2.477   0.689
 8220SOL     OW25558   3.478   2.854   3.488
 8220SOL    HW125559   3.495   2.852   3.587
 8220SOL    HW225560   3.380   2.869   3.471
 8221SOL     OW25561   6.065   6.547   3.564
 8221SOL    HW125562   6.027   6.460   3.532
 8221SOL    HW225563   6.097   6.600   3.486
 8222SOL     OW25564   5.810   1.762   1.255
 8222SOL    HW125565   5.783   1.711   1.173
 8222SOL    HW225566   5.907   1.788   1.247
 8223SOL     OW25567   0.473   4.574   5.333
 8223SOL    HW125568   0.442   4.596   5.241
 8223SOL    HW225569   0.568   4.543   5.331
 8224SOL     OW25570   5.754   1.107   2.356
 8224SOL    HW125571   5.786   1.028   2.303
 8224SOL    HW225572   5.702   1.074   2.435
 8225SOL     OW25573   3.254   1.395   1.192
 8225SOL    HW125574   3.162   1.359   1.178
 8225SOL    HW225575   3.265   1.479   1.139
 8226SOL     OW25576   4.052   0.213   0.507
 8226SOL    HW125577   4.082   0.308   0.494
 8226SOL    HW225578   4.086   0.157   0.432
 8227SOL     OW25579   6.755   1.329   2.601
 8227SOL    HW125580   6.724   1.259   2.666
 8227SOL    HW225581   6.791   1.407   2.652
 8228SOL     OW25582   6.682   1.772   5.655
 8228SOL    HW125583   6.723   1.683   5.676
 8228SOL    HW225584   6.730   1.813   5.578
 8229SOL     OW25585   4.664   2.834   0.574
 8229SOL    HW125586   4.651   2.736   0.562
 8229SOL    HW225587   4.700   2.852   0.666
 8230SOL     OW25588   3.662   0.083   5.363
 8230SOL    HW125589   3.679   0.168   5.314
 8230SOL    HW225590   3.748   0.048   5.401
 8231SOL     OW25591   3.030   4.080   0.995
 8231SOL    HW125592   3.034   4.180   0.983
 8231SOL    HW225593   2.935   4.050   0.992
 8232SOL     OW25594   4.995   1.550   1.467
 8232SOL    HW125595   4.989   1.485   1.543
 8232SOL    HW225596   4.904   1.566   1.430
 8233SOL     OW25597   1.438   6.031   6.352
 8233SOL    HW125598   1.504   5.970   6.309
 8233SOL    HW225599   1.370   6.060   6.285
 8234SOL     OW25600   2.779   4.073   6.704
 8234SOL    HW125601   2.721   4.008   6.753
 8234SOL    HW225602   2.792   4.041   6.610
 8235SOL     OW25603   0.182   3.045   6.978
 8235SOL    HW125604   0.143   2.958   7.008
 8235SOL    HW225605   0.281   3.035   6.966
 8236SOL     OW25606   0.508   5.011   0.518
 8236SOL    HW125607   0.450   4.940   0.558
 8236SOL    HW225608   0.455   5.095   0.506
 8237SOL     OW25609   4.137   6.378   4.410
 8237SOL    HW125610   4.094   6.367   4.500
 8237SOL    HW225611   4.067   6.368   4.339
 8238SOL     OW25612   0.516   5.462   5.999
 8238SOL    HW125613   0.460   5.383   5.974
 8238SOL    HW225614   0.580   5.482   5.925
 8239SOL     OW25615   0.008   0.904   5.770
 8239SOL    HW125616   0.032   0.949   5.856
 8239SOL    HW225617   6.936   0.934   5.740
 8240SOL     OW25618   3.214   4.043   2.430
 8240SOL    HW125619   3.138   4.030   2.495
 8240SOL    HW225620   3.298   4.059   2.481
 8241SOL     OW25621   4.085   6.727   5.827
 8241SOL    HW125622   4.103   6.759   5.921
 8241SOL    HW225623   4.008   6.663   5.828
 8242SOL     OW25624   0.610   4.744   6.325
 8242SOL    HW125625   0.646   4.670   6.269
 8242SOL    HW225626   0.578   4.818   6.266
 8243SOL     OW25627   0.145   2.823   0.141
 8243SOL    HW125628   0.140   2.726   0.119
 8243SOL    HW225629   0.234   2.843   0.181
 8244SOL     OW25630   0.199   0.617   4.201
 8244SOL    HW125631   0.289   0.577   4.216
 8244SOL    HW225632   0.209   0.716   4.189
 8245SOL     OW25633   3.895   1.814   2.329
 8245SOL    HW125634   3.990   1.792   2.310
 8245SOL    HW225635   3.852   1.850   2.246
 8246SOL     OW25636   1.255   3.275   5.899
 8246SOL    HW125637   1.196   3.235   5.968
 8246SOL    HW225638   1.241   3.228   5.812
 8247SOL     OW25639   1.908   0.332   2.443
 8247SOL    HW125640   1.893   0.427   2.472
 8247SOL    HW225641   1.828   0.277   2.468
 8248SOL     OW25642   6.471   5.574   4.672
 8248SOL    HW125643   6.549   5.603   4.617
 8248SOL    HW225644   6.467   5.474   4.674
 8249SOL     OW25645   1.817   2.540   5.823
 8249SOL    HW125646   1.758   2.600   5.877
 8249SOL    HW225647   1.785   2.446   5.829
 8250SOL     OW25648   3.045   3.596   1.494
 8250SOL    HW125649   2.995   3.525   1.445
 8250SOL    HW225650   3.092   3.555   1.572
 8251SOL     OW25651   4.932   3.533   4.226
 8251SOL    HW125652   4.893   3.455   4.274
 8251SOL    HW225653   5.024   3.510   4.193
 8252SOL     OW25654   3.008   1.852   5.296
 8252SOL    HW125655   2.985   1.894   5.384
 8252SOL    HW225656   3.104   1.825   5.296
 8253SOL     OW25657   3.999   4.777   5.611
 8253SOL    HW125658   4.040   4.686   5.607
 8253SOL    HW225659   3.954   4.790   5.700
 8254SOL     OW25660   4.524   4.332   5.249
 8254SOL    HW125661   4.543   4.273   5.327
 8254SOL    HW225662   4.426   4.346   5.240
 8255SOL     OW25663   1.899   0.279   5.243
 8255SOL    HW125664   1.899   0.352   5.175
 8255SOL    HW225665   1.983   0.225   5.234
 8256SOL     OW25666   6.653   6.446   1.746
 8256SOL    HW125667   6.674   6.542   1.731
 8256SOL    HW225668   6.558   6.427   1.719
 8257SOL     OW25669   5.168   4.540   2.968
 8257SOL    HW125670   5.217   4.527   3.054
 8257SOL    HW225671   5.227   4.513   2.892
 8258SOL     OW25672   5.669   2.025   0.799
 8258SOL    HW125673   5.762   1.995   0.776
 8258SOL    HW225674   5.666   2.125   0.800
 8259SOL     OW25675   3.757   1.585   4.289
 8259SOL    HW125676   3.769   1.633   4.376
 8259SOL    HW225677   3.846   1.550   4.259
 8260SOL     OW25678   2.206   6.872   1.110
 8260SOL    HW125679   2.110   6.869   1.083
 8260SOL    HW225680   2.232   6.786   1.153
 8261SOL     OW25681   6.352   6.614   1.874
 8261SOL    HW125682   6.363   6.649   1.967
 8261SOL    HW225683   6.332   6.689   1.812
 8262SOL     OW25684   1.131   3.183   0.513
 8262SOL    HW125685   1.148   3.203   0.609
 8262SOL    HW225686   1.062   3.246   0.477
 8263SOL     OW25687   0.481   2.688   6.028
 8263SOL    HW125688   0.567   2.724   6.064
 8263SOL    HW225689   0.493   2.667   5.931
 8264SOL     OW25690   2.136   6.338   2.211
 8264SOL    HW125691   2.043   6.373   2.222
 8264SOL    HW225692   2.201   6.398   2.258
 8265SOL     OW25693   6.653   0.886   0.987
 8265SOL    HW125694   6.655   0.786   0.988
 8265SOL    HW225695   6.670   0.918   0.894
 8266SOL     OW25696   2.311   1.284   3.702
 8266SOL    HW125697   2.289   1.339   3.621
 8266SOL    HW225698   2.293   1.338   3.785
 8267SOL     OW25699   1.842   3.702   0.997
 8267SOL    HW125700   1.841   3.615   1.047
 8267SOL    HW225701   1.908   3.763   1.039
 8268SOL     OW25702   1.714   6.743   5.630
 8268SOL    HW125703   1.797   6.691   5.615
 8268SOL    HW225704   1.668   6.710   5.713
 8269SOL     OW25705   4.692   0.960   2.100
 8269SOL    HW125706   4.627   0.918   2.163
 8269SOL    HW225707   4.760   1.013   2.151
 8270SOL     OW25708   2.775   6.493   5.046
 8270SOL    HW125709   2.732   6.570   5.092
 8270SOL    HW225710   2.754   6.495   4.948
 8271SOL     OW25711   0.454   0.328   3.477
 8271SOL    HW125712   0.475   0.388   3.555
 8271SOL    HW225713   0.355   0.319   3.467
 8272SOL     OW25714   6.163   2.153   2.656
 8272SOL    HW125715   6.100   2.227   2.630
 8272SOL    HW225716   6.175   2.154   2.755
 8273SOL     OW25717   2.478   1.073   0.668
 8273SOL    HW125718   2.546   1.127   0.619
 8273SOL    HW225719   2.416   1.134   0.718
 8274SOL     OW25720   4.898   4.422   4.092
 8274SOL    HW125721   4.904   4.519   4.069
 8274SOL    HW225722   4.802   4.393   4.088
 8275SOL     OW25723   6.301   0.851   5.172
 8275SOL    HW125724   6.232   0.827   5.104
 8275SOL    HW225725   6.379   0.893   5.126
 8276SOL     OW25726   0.683   2.606   4.013
 8276SOL    HW125727   0.731   2.688   4.044
 8276SOL    HW225728   0.596   2.632   3.972
 8277SOL     OW25729   0.300   6.060   6.599
 8277SOL    HW125730   0.352   5.986   6.557
 8277SOL    HW225731   0.268   6.032   6.689
 8278SOL     OW25732   3.342   1.559   6.325
 8278SOL    HW125733   3.346   1.497   6.246
 8278SOL    HW225734   3.247   1.585   6.342
 8279SOL     OW25735   1.252   6.074   4.750
 8279SOL    HW125736   1.330   6.115   4.702
 8279SOL    HW225737   1.268   6.079   4.849
 8280SOL     OW25738   2.150   3.101   0.114
 8280SOL    HW125739   2.064   3.061   0.143
 8280SOL    HW225740   2.163   3.085   0.016
 8281SOL     OW25741   3.072   4.109   1.882
 8281SOL    HW125742   3.025   4.100   1.970
 8281SOL    HW225743   3.034   4.188   1.833
 8282SOL     OW25744   4.716   3.559   0.093
 8282SOL    HW125745   4.710   3.596   0.186
 8282SOL    HW225746   4.775   3.617   0.037
 8283SOL     OW25747   1.904   5.485   5.570
 8283SOL    HW125748   1.861   5.406   5.527
 8283SOL    HW225749   1.863   5.569   5.534
 8284SOL     OW25750   0.950   3.735   1.593
 8284SOL    HW125751   0.977   3.668   1.662
 8284SOL    HW225752   1.027   3.795   1.572
 8285SOL     OW25753   3.098   3.912   5.489
 8285SOL    HW125754   3.005   3.934   5.461
 8285SOL    HW225755   3.160   3.918   5.411
 8286SOL     OW25756   5.572   1.666   5.543
 8286SOL    HW125757   5.656   1.707   5.509
 8286SOL    HW225758   5.521   1.734   5.597
 8287SOL     OW25759   1.197   5.176   4.309
 8287SOL    HW125760   1.149   5.218   4.386
 8287SOL    HW225761   1.236   5.248   4.252
 8288SOL     OW25762   3.086   2.109   1.904
 8288SOL    HW125763   3.132   2.056   1.975
 8288SOL    HW225764   3.021   2.172   1.946
 8289SOL     OW25765   0.607   6.231   0.386
 8289SOL    HW125766   0.618   6.285   0.470
 8289SOL    HW225767   0.680   6.164   0.378
 8290SOL     OW25768   5.106   1.512   1.023
 8290SOL    HW125769   5.200   1.545   1.029
 8290SOL    HW225770   5.093   1.464   0.936
 8291SOL     OW25771   4.408   6.157   4.460
 8291SOL    HW125772   4.488   6.179   4.516
 8291SOL    HW225773   4.326   6.198   4.500
 8292SOL     OW25774   3.217   6.801   6.755
 8292SOL    HW125775   3.246   6.710   6.728
 8292SOL    HW225776   3.193   6.801   6.852
 8293SOL     OW25777   2.543   5.407   0.305
 8293SOL    HW125778   2.545   5.473   0.380
 8293SOL    HW225779   2.580   5.450   0.222
 8294SOL     OW25780   5.371   3.316   5.330
 8294SOL    HW125781   5.318   3.249   5.381
 8294SOL    HW225782   5.467   3.311   5.358
 8295SOL     OW25783   5.026   5.283   1.668
 8295SOL    HW125784   4.954   5.216   1.687
 8295SOL    HW225785   4.990   5.375   1.678
 8296SOL     OW25786   2.099   4.455   6.280
 8296SOL    HW125787   2.136   4.380   6.224
 8296SOL    HW225788   2.174   4.496   6.332
 8297SOL     OW25789   0.141   3.300   2.638
 8297SOL    HW125790   0.155   3.387   2.591
 8297SOL    HW225791   0.044   3.287   2.657
 8298SOL     OW25792   6.167   1.210   1.242
 8298SOL    HW125793   6.219   1.286   1.201
 8298SOL    HW225794   6.107   1.170   1.174
 8299SOL     OW25795   0.351   2.331   2.328
 8299SOL    HW125796   0.323   2.239   2.300
 8299SOL    HW225797   0.271   2.392   2.326
 8300SOL     OW25798   0.242   5.415   4.366
 8300SOL    HW125799   0.234   5.506   4.405
 8300SOL    HW225800   0.266   5.422   4.269
 8301SOL     OW25801   3.628   1.508   0.984
 8301SOL    HW125802   3.677   1.473   0.905
 8301SOL    HW225803   3.529   1.503   0.967
 8302SOL     OW25804   5.519   6.772   6.543
 8302SOL    HW125805   5.610   6.779   6.585
 8302SOL    HW225806   5.449   6.766   6.614
 8303SOL     OW25807   6.062   0.678   3.517
 8303SOL    HW125808   6.144   0.624   3.535
 8303SOL    HW225809   6.052   0.748   3.588
 8304SOL     OW25810   6.212   3.209   1.324
 8304SOL    HW125811   6.150   3.132   1.314
 8304SOL    HW225812   6.232   3.247   1.234
 8305SOL     OW25813   4.917   4.856   4.033
 8305SOL    HW125814   4.821   4.880   4.029
 8305SOL    HW225815   4.971   4.921   3.979
 8306SOL     OW25816   5.508   1.415   5.460
 8306SOL    HW125817   5.487   1.357   5.539
 8306SOL    HW225818   5.537   1.506   5.492
 8307SOL     OW25819   3.663   5.335   1.475
 8307SOL    HW125820   3.591   5.352   1.541
 8307SOL    HW225821   3.677   5.237   1.464
 8308SOL     OW25822   3.225   5.260   1.302
 8308SOL    HW125823   3.146   5.201   1.324
 8308SOL    HW225824   3.309   5.210   1.321
 8309SOL     OW25825   6.768   5.561   4.020
 8309SOL    HW125826   6.778   5.510   4.106
 8309SOL    HW225827   6.846   5.623   4.009
 8310SOL     OW25828   0.268   5.499   1.165
 8310SOL    HW125829   0.348   5.557   1.157
 8310SOL    HW225830   0.229   5.483   1.074
 8311SOL     OW25831   0.972   2.141   5.039
 8311SOL    HW125832   0.937   2.223   4.993
 8311SOL    HW225833   0.982   2.068   4.971
 8312SOL     OW25834   5.207   0.262   0.149
 8312SOL    HW125835   5.184   0.188   0.085
 8312SOL    HW225836   5.287   0.312   0.115
 8313SOL     OW25837   5.192   6.920   0.455
 8313SOL    HW125838   5.174   6.836   0.405
 8313SOL    HW225839   5.127   6.991   0.428
 8314SOL     OW25840   4.961   0.396   6.962
 8314SOL    HW125841   4.932   0.301   6.973
 8314SOL    HW225842   4.924   0.451   0.019
 8315SOL     OW25843   4.382   3.053   1.016
 8315SOL    HW125844   4.336   2.986   0.959
 8315SOL    HW225845   4.334   3.141   1.010
 8316SOL     OW25846   1.312   1.985   1.797
 8316SOL    HW125847   1.309   1.898   1.847
 8316SOL    HW225848   1.319   1.967   1.699
 8317SOL     OW25849   1.605   2.900   2.452
 8317SOL    HW125850   1.617   2.993   2.485
 8317SOL    HW225851   1.581   2.901   2.355
 8318SOL     OW25852   4.317   1.762   5.872
 8318SOL    HW125853   4.410   1.726   5.869
 8318SOL    HW225854   4.288   1.771   5.967
 8319SOL     OW25855   1.609   2.000   0.947
 8319SOL    HW125856   1.549   2.078   0.929
 8319SOL    HW225857   1.561   1.935   1.006
 8320SOL     OW25858   3.101   3.360   2.465
 8320SOL    HW125859   3.073   3.433   2.527
 8320SOL    HW225860   3.193   3.378   2.432
 8321SOL     OW25861   0.144   6.943   6.387
 8321SOL    HW125862   0.226   6.900   6.351
 8321SOL    HW225863   0.089   6.978   6.311
 8322SOL     OW25864   6.540   0.189   1.312
 8322SOL    HW125865   6.449   0.220   1.341
 8322SOL    HW225866   6.536   0.093   1.286
 8323SOL     OW25867   5.442   5.771   2.035
 8323SOL    HW125868   5.464   5.864   2.063
 8323SOL    HW225869   5.375   5.732   2.099
 8324SOL     OW25870   5.663   6.491   1.480
 8324SOL    HW125871   5.680   6.402   1.437
 8324SOL    HW225872   5.733   6.556   1.450
 8325SOL     OW25873   1.957   3.894   5.403
 8325SOL    HW125874   1.930   3.853   5.316
 8325SOL    HW225875   2.050   3.930   5.395
 8326SOL     OW25876   4.960   3.216   5.437
 8326SOL    HW125877   4.891   3.284   5.411
 8326SOL    HW225878   4.936   3.178   5.526
 8327SOL     OW25879   6.336   0.623   5.848
 8327SOL    HW125880   6.295   0.714   5.844
 8327SOL    HW225881   6.426   0.628   5.892
 8328SOL     OW25882   3.018   6.444   6.054
 8328SOL    HW125883   3.063   6.473   5.970
 8328SOL    HW225884   2.922   6.475   6.052
 8329SOL     OW25885   1.595   3.010   5.981
 8329SOL    HW125886   1.624   3.103   6.004
 8329SOL    HW225887   1.563   2.964   6.064
 8330SOL     OW25888   2.404   1.681   6.758
 8330SOL    HW125889   2.450   1.637   6.835
 8330SOL    HW225890   2.460   1.758   6.726
 8331SOL     OW25891   3.174   0.858   0.896
 8331SOL    HW125892   3.124   0.850   0.810
 8331SOL    HW225893   3.113   0.838   0.972
 8332SOL     OW25894   5.064   5.389   2.256
 8332SOL    HW125895   5.037   5.439   2.338
 8332SOL    HW225896   5.047   5.446   2.175
 8333SOL     OW25897   0.259   5.950   6.123
 8333SOL    HW125898   0.306   5.861   6.130
 8333SOL    HW225899   0.163   5.938   6.147
 8334SOL     OW25900   4.014   0.886   4.435
 8334SOL    HW125901   4.024   0.887   4.335
 8334SOL    HW225902   4.049   0.971   4.473
 8335SOL     OW25903   5.054   0.113   0.343
 8335SOL    HW125904   4.991   0.174   0.391
 8335SOL    HW225905   5.104   0.164   0.274
 8336SOL     OW25906   0.413   4.654   3.005
 8336SOL    HW125907   0.398   4.707   2.922
 8336SOL    HW225908   0.325   4.619   3.038
 8337SOL     OW25909   2.203   6.614   3.169
 8337SOL    HW125910   2.263   6.667   3.109
 8337SOL    HW225911   2.256   6.574   3.244
 8338SOL     OW25912   3.656   5.263   1.860
 8338SOL    HW125913   3.569   5.215   1.846
 8338SOL    HW225914   3.696   5.234   1.947
 8339SOL     OW25915   6.300   0.235   1.871
 8339SOL    HW125916   6.304   0.199   1.778
 8339SOL    HW225917   6.377   0.297   1.886
 8340SOL     OW25918   4.599   3.092   0.450
 8340SOL    HW125919   4.698   3.079   0.462
 8340SOL    HW225920   4.552   3.006   0.465
 8341SOL     OW25921   2.923   6.697   0.174
 8341SOL    HW125922   2.833   6.728   0.142
 8341SOL    HW225923   2.953   6.754   0.250
 8342SOL     OW25924   4.236   6.489   0.920
 8342SOL    HW125925   4.150   6.522   0.881
 8342SOL    HW225926   4.261   6.546   0.998
 8343SOL     OW25927   1.543   5.448   5.127
 8343SOL    HW125928   1.587   5.519   5.072
 8343SOL    HW225929   1.531   5.365   5.071
 8344SOL     OW25930   4.789   5.738   4.955
 8344SOL    HW125931   4.818   5.727   4.860
 8344SOL    HW225932   4.690   5.732   4.961
 8345SOL     OW25933   4.505   1.097   2.438
 8345SOL    HW125934   4.490   1.137   2.347
 8345SOL    HW225935   4.469   1.159   2.508
 8346SOL     OW25936   3.818   5.328   0.332
 8346SOL    HW125937   3.821   5.245   0.388
 8346SOL    HW225938   3.911   5.362   0.319
 8347SOL     OW25939   3.787   5.575   3.885
 8347SOL    HW125940   3.794   5.513   3.964
 8347SOL    HW225941   3.760   5.523   3.804
 8348SOL     OW25942   2.700   0.150   1.920
 8348SOL    HW125943   2.675   0.197   2.005
 8348SOL    HW225944   2.696   0.215   1.844
 8349SOL     OW25945   5.879   6.131   1.589
 8349SOL    HW125946   5.920   6.217   1.562
 8349SOL    HW225947   5.865   6.130   1.688
 8350SOL     OW25948   3.268   6.989   6.198
 8350SOL    HW125949   3.276   6.929   6.277
 8350SOL    HW225950   3.226   0.058   6.225
 8351SOL     OW25951   5.606   5.255   3.867
 8351SOL    HW125952   5.706   5.260   3.872
 8351SOL    HW225953   5.580   5.183   3.803
 8352SOL     OW25954   0.613   0.114   3.439
 8352SOL    HW125955   0.593   0.064   3.523
 8352SOL    HW225956   0.550   0.191   3.430
 8353SOL     OW25957   6.783   3.523   1.605
 8353SOL    HW125958   6.767   3.575   1.520
 8353SOL    HW225959   6.879   3.532   1.631
 8354SOL     OW25960   4.333   6.619   5.381
 8354SOL    HW125961   4.330   6.620   5.481
 8354SOL    HW225962   4.243   6.594   5.345
 8355SOL     OW25963   2.415   0.923   5.816
 8355SOL    HW125964   2.403   0.824   5.823
 8355SOL    HW225965   2.467   0.956   5.894
 8356SOL     OW25966   1.013   6.905   0.939
 8356SOL    HW125967   1.103   6.906   0.894
 8356SOL    HW225968   1.006   6.982   1.002
 8357SOL     OW25969   3.834   6.797   4.839
 8357SOL    HW125970   3.835   6.889   4.878
 8357SOL    HW225971   3.773   6.796   4.759
 8358SOL     OW25972   1.429   4.370   5.019
 8358SOL    HW125973   1.501   4.434   4.991
 8358SOL    HW225974   1.466   4.308   5.089
 8359SOL     OW25975   3.107   0.622   5.058
 8359SOL    HW125976   3.123   0.568   4.976
 8359SOL    HW225977   3.029   0.584   5.109
 8360SOL     OW25978   3.723   6.495   0.931
 8360SOL    HW125979   3.743   6.397   0.923
 8360SOL    HW225980   3.712   6.519   1.028
 8361SOL     OW25981   3.153   0.273   2.662
 8361SOL    HW125982   3.250   0.257   2.682
 8361SOL    HW225983   3.130   0.368   2.684
 8362SOL     OW25984   4.085   2.257   0.662
 8362SOL    HW125985   4.063   2.161   0.643
 8362SOL    HW225986   4.017   2.316   0.619
 8363SOL     OW25987   6.622   2.757   6.491
 8363SOL    HW125988   6.592   2.710   6.575
 8363SOL    HW225989   6.690   2.701   6.444
 8364SOL     OW25990   1.166   2.697   3.648
 8364SOL    HW125991   1.191   2.690   3.551
 8364SOL    HW225992   1.189   2.611   3.695
 8365SOL     OW25993   1.929   3.485   1.660
 8365SOL    HW125994   1.873   3.403   1.674
 8365SOL    HW225995   1.870   3.566   1.658
 8366SOL     OW25996   1.824   5.968   2.118
 8366SOL    HW125997   1.904   6.006   2.165
 8366SOL    HW225998   1.838   5.974   2.019
 8367SOL     OW25999   4.093   5.885   4.315
 8367SOL    HW126000   4.011   5.852   4.268
 8367SOL    HW226001   4.167   5.896   4.250
 8368SOL     OW26002   2.107   5.467   6.445
 8368SOL    HW126003   2.063   5.404   6.381
 8368SOL    HW226004   2.037   5.523   6.489
 8369SOL     OW26005   1.327   6.812   6.324
 8369SOL    HW126006   1.391   6.776   6.392
 8369SOL    HW226007   1.377   6.864   6.255
 8370SOL     OW26008   2.875   1.593   6.150
 8370SOL    HW126009   2.916   1.669   6.099
 8370SOL    HW226010   2.812   1.629   6.218
 8371SOL     OW26011   2.093   4.658   1.140
 8371SOL    HW126012   2.167   4.651   1.073
 8371SOL    HW226013   2.129   4.689   1.227
 8372SOL     OW26014   1.920   4.972   1.908
 8372SOL    HW126015   1.830   5.008   1.884
 8372SOL    HW226016   1.913   4.923   1.995
 8373SOL     OW26017   1.545   0.228   4.154
 8373SOL    HW126018   1.619   0.281   4.196
 8373SOL    HW226019   1.555   0.229   4.055
 8374SOL     OW26020   0.029   0.680   5.162
 8374SOL    HW126021   0.007   0.605   5.224
 8374SOL    HW226022   0.126   0.701   5.169
 8375SOL     OW26023   3.257   6.444   5.021
 8375SOL    HW126024   3.168   6.399   5.029
 8375SOL    HW226025   3.280   6.487   5.108
 8376SOL     OW26026   1.462   1.040   4.428
 8376SOL    HW126027   1.392   0.991   4.480
 8376SOL    HW226028   1.521   1.090   4.492
 8377SOL     OW26029   5.226   6.545   0.751
 8377SOL    HW126030   5.322   6.555   0.779
 8377SOL    HW226031   5.223   6.523   0.653
 8378SOL     OW26032   4.586   5.604   2.540
 8378SOL    HW126033   4.562   5.604   2.637
 8378SOL    HW226034   4.545   5.525   2.495
 8379SOL     OW26035   5.584   2.410   1.339
 8379SOL    HW126036   5.676   2.380   1.315
 8379SOL    HW226037   5.517   2.362   1.282
 8380SOL     OW26038   0.095   0.460   2.647
 8380SOL    HW126039   0.076   0.475   2.550
 8380SOL    HW226040   0.042   0.525   2.701
 8381SOL     OW26041   0.144   2.962   4.867
 8381SOL    HW126042   0.103   3.050   4.889
 8381SOL    HW226043   0.244   2.968   4.878
 8382SOL     OW26044   3.023   0.588   3.000
 8382SOL    HW126045   3.047   0.586   3.097
 8382SOL    HW226046   2.929   0.555   2.988
 8383SOL     OW26047   2.743   0.322   5.945
 8383SOL    HW126048   2.771   0.296   5.853
 8383SOL    HW226049   2.824   0.343   6.000
 8384SOL     OW26050   6.407   0.616   1.174
 8384SOL    HW126051   6.386   0.545   1.241
 8384SOL    HW226052   6.505   0.635   1.174
 8385SOL     OW26053   5.970   2.402   0.855
 8385SOL    HW126054   5.942   2.491   0.819
 8385SOL    HW226055   5.942   2.330   0.791
 8386SOL     OW26056   2.227   5.920   2.232
 8386SOL    HW126057   2.164   5.974   2.288
 8386SOL    HW226058   2.200   5.823   2.237
 8387SOL     OW26059   1.555   1.199   1.926
 8387SOL    HW126060   1.466   1.180   1.884
 8387SOL    HW226061   1.540   1.244   2.014
 8388SOL     OW26062   2.267   6.548   0.149
 8388SOL    HW126063   2.248   6.598   0.233
 8388SOL    HW226064   2.365   6.548   0.131
 8389SOL     OW26065   0.314   3.774   2.681
 8389SOL    HW126066   0.301   3.803   2.776
 8389SOL    HW226067   0.394   3.821   2.643
 8390SOL     OW26068   4.597   1.182   6.993
 8390SOL    HW126069   4.580   1.084   6.980
 8390SOL    HW226070   4.516   1.225   0.015
 8391SOL     OW26071   6.527   5.091   1.121
 8391SOL    HW126072   6.478   5.173   1.150
 8391SOL    HW226073   6.542   5.031   1.200
 8392SOL     OW26074   6.241   3.846   4.577
 8392SOL    HW126075   6.316   3.912   4.571
 8392SOL    HW226076   6.154   3.894   4.572
 8393SOL     OW26077   0.415   6.331   2.881
 8393SOL    HW126078   0.494   6.359   2.935
 8393SOL    HW226079   0.433   6.241   2.840
 8394SOL     OW26080   6.355   2.508   1.550
 8394SOL    HW126081   6.325   2.445   1.479
 8394SOL    HW226082   6.347   2.602   1.517
 8395SOL     OW26083   2.348   6.902   5.133
 8395SOL    HW126084   2.258   6.929   5.099
 8395SOL    HW226085   2.402   6.864   5.058
 8396SOL     OW26086   4.899   5.249   2.081
 8396SOL    HW126087   4.996   5.249   2.105
 8396SOL    HW226088   4.870   5.341   2.057
 8397SOL     OW26089   1.896   0.267   2.734
 8397SOL    HW126090   1.921   0.172   2.752
 8397SOL    HW226091   1.891   0.282   2.635
 8398SOL     OW26092   4.002   1.758   6.732
 8398SOL    HW126093   4.000   1.808   6.819
 8398SOL    HW226094   4.086   1.705   6.727
 8399SOL     OW26095   5.983   6.679   6.764
 8399SOL    HW126096   6.027   6.641   6.845
 8399SOL    HW226097   6.046   6.677   6.687
 8400SOL     OW26098   1.963   1.017   4.441
 8400SOL    HW126099   1.949   1.114   4.422
 8400SOL    HW226100   1.890   0.984   4.502
 8401SOL     OW26101   2.020   1.619   5.472
 8401SOL    HW126102   2.042   1.634   5.375
 8401SOL    HW226103   2.048   1.698   5.525
 8402SOL     OW26104   4.619   1.737   5.976
 8402SOL    HW126105   4.596   1.834   5.972
 8402SOL    HW226106   4.677   1.713   5.898
 8403SOL     OW26107   0.892   2.905   4.685
 8403SOL    HW126108   0.927   2.907   4.779
 8403SOL    HW226109   0.842   2.990   4.667
 8404SOL     OW26110   4.006   0.066   5.843
 8404SOL    HW126111   4.086   0.024   5.799
 8404SOL    HW226112   4.002   0.163   5.820
 8405SOL     OW26113   1.502   1.046   5.490
 8405SOL    HW126114   1.405   1.030   5.510
 8405SOL    HW226115   1.530   1.133   5.532
 8406SOL     OW26116   4.525   0.626   0.426
 8406SOL    HW126117   4.501   0.723   0.436
 8406SOL    HW226118   4.481   0.574   0.499
 8407SOL     OW26119   3.600   6.703   3.604
 8407SOL    HW126120   3.642   6.688   3.693
 8407SOL    HW226121   3.501   6.698   3.612
 8408SOL     OW26122   6.063   4.143   1.466
 8408SOL    HW126123   6.127   4.096   1.405
 8408SOL    HW226124   6.062   4.241   1.443
 8409SOL     OW26125   5.720   2.052   3.184
 8409SOL    HW126126   5.729   2.015   3.091
 8409SOL    HW226127   5.665   2.135   3.181
 8410SOL     OW26128   5.388   0.633   2.038
 8410SOL    HW126129   5.317   0.607   1.972
 8410SOL    HW226130   5.345   0.680   2.116
 8411SOL     OW26131   0.892   4.848   0.149
 8411SOL    HW126132   0.878   4.750   0.136
 8411SOL    HW226133   0.963   4.863   0.218
 8412SOL     OW26134   3.572   1.832   1.528
 8412SOL    HW126135   3.597   1.882   1.611
 8412SOL    HW226136   3.515   1.890   1.470
 8413SOL     OW26137   3.730   5.681   6.906
 8413SOL    HW126138   3.644   5.651   6.948
 8413SOL    HW226139   3.784   5.731   6.973
 8414SOL     OW26140   3.910   6.022   3.798
 8414SOL    HW126141   3.893   5.971   3.713
 8414SOL    HW226142   3.979   6.092   3.781
 8415SOL     OW26143   6.985   6.147   4.069
 8415SOL    HW126144   0.054   6.192   4.091
 8415SOL    HW226145   6.911   6.192   4.119
 8416SOL     OW26146   5.702   3.322   2.697
 8416SOL    HW126147   5.652   3.361   2.775
 8416SOL    HW226148   5.777   3.383   2.672
 8417SOL     OW26149   1.244   4.239   5.719
 8417SOL    HW126150   1.262   4.295   5.639
 8417SOL    HW226151   1.259   4.142   5.696
 8418SOL     OW26152   5.441   5.141   1.241
 8418SOL    HW126153   5.368   5.098   1.188
 8418SOL    HW226154   5.428   5.122   1.338
 8419SOL     OW26155   5.647   6.961   1.976
 8419SOL    HW126156   5.706   6.960   2.057
 8419SOL    HW226157   5.649   0.035   1.936
 8420SOL     OW26158   4.571   0.297   6.602
 8420SOL    HW126159   4.484   0.344   6.585
 8420SOL    HW226160   4.631   0.357   6.654
 8421SOL     OW26161   2.619   5.302   6.741
 8421SOL    HW126162   2.590   5.318   6.647
 8421SOL    HW226163   2.603   5.384   6.796
 8422SOL     OW26164   4.119   1.190   1.766
 8422SOL    HW126165   4.066   1.123   1.818
 8422SOL    HW226166   4.097   1.282   1.798
 8423SOL     OW26167   3.134   4.999   5.600
 8423SOL    HW126168   3.133   5.010   5.699
 8423SOL    HW226169   3.046   5.027   5.562
 8424SOL     OW26170   1.981   2.119   2.398
 8424SOL    HW126171   1.946   2.063   2.474
 8424SOL    HW226172   2.054   2.178   2.432
 8425SOL     OW26173   5.015   4.871   5.952
 8425SOL    HW126174   5.017   4.961   5.996
 8425SOL    HW226175   5.077   4.871   5.874
 8426SOL     OW26176   3.570   3.220   3.271
 8426SOL    HW126177   3.573   3.141   3.210
 8426SOL    HW226178   3.550   3.190   3.364
 8427SOL     OW26179   3.642   4.138   4.968
 8427SOL    HW126180   3.627   4.091   5.055
 8427SOL    HW226181   3.738   4.163   4.961
 8428SOL     OW26182   0.892   5.893   1.430
 8428SOL    HW126183   0.836   5.823   1.473
 8428SOL    HW226184   0.973   5.910   1.486
 8429SOL     OW26185   0.888   5.894   4.285
 8429SOL    HW126186   0.830   5.839   4.345
 8429SOL    HW226187   0.947   5.953   4.341
 8430SOL     OW26188   3.484   5.287   3.130
 8430SOL    HW126189   3.569   5.264   3.178
 8430SOL    HW226190   3.418   5.323   3.194
 8431SOL     OW26191   3.480   4.389   0.893
 8431SOL    HW126192   3.454   4.450   0.819
 8431SOL    HW226193   3.407   4.387   0.962
 8432SOL     OW26194   5.740   6.494   5.644
 8432SOL    HW126195   5.672   6.425   5.616
 8432SOL    HW226196   5.785   6.531   5.563
 8433SOL     OW26197   4.988   2.712   0.439
 8433SOL    HW126198   5.061   2.679   0.380
 8433SOL    HW226199   4.997   2.671   0.530
 8434SOL     OW26200   2.751   0.207   4.747
 8434SOL    HW126201   2.783   0.269   4.818
 8434SOL    HW226202   2.829   0.163   4.702
 8435SOL     OW26203   6.023   0.668   1.616
 8435SOL    HW126204   6.083   0.682   1.537
 8435SOL    HW226205   6.080   0.649   1.697
 8436SOL     OW26206   3.415   6.424   3.259
 8436SOL    HW126207   3.471   6.505   3.274
 8436SOL    HW226208   3.390   6.384   3.348
 8437SOL     OW26209   2.301   1.407   4.302
 8437SOL    HW126210   2.295   1.329   4.363
 8437SOL    HW226211   2.263   1.383   4.212
 8438SOL     OW26212   2.160   5.149   2.607
 8438SOL    HW126213   2.229   5.135   2.677
 8438SOL    HW226214   2.205   5.163   2.518
 8439SOL     OW26215   5.966   4.674   2.489
 8439SOL    HW126216   5.943   4.770   2.474
 8439SOL    HW226217   6.023   4.642   2.413
 8440SOL     OW26218   1.618   1.991   3.535
 8440SOL    HW126219   1.676   2.066   3.565
 8440SOL    HW226220   1.591   1.935   3.613
 8441SOL     OW26221   6.017   6.844   0.320
 8441SOL    HW126222   5.921   6.870   0.310
 8441SOL    HW226223   6.064   6.857   0.233
 8442SOL     OW26224   3.454   1.878   5.122
 8442SOL    HW126225   3.512   1.887   5.042
 8442SOL    HW226226   3.412   1.967   5.143
 8443SOL     OW26227   2.205   4.673   3.398
 8443SOL    HW126228   2.277   4.716   3.453
 8443SOL    HW226229   2.122   4.728   3.404
 8444SOL     OW26230   3.111   6.343   3.830
 8444SOL    HW126231   3.040   6.385   3.772
 8444SOL    HW226232   3.192   6.400   3.830
 8445SOL     OW26233   3.507   6.856   1.284
 8445SOL    HW126234   3.474   6.946   1.310
 8445SOL    HW226235   3.566   6.819   1.356
 8446SOL     OW26236   4.643   5.225   6.720
 8446SOL    HW126237   4.621   5.246   6.815
 8446SOL    HW226238   4.732   5.264   6.696
 8447SOL     OW26239   5.053   1.755   2.399
 8447SOL    HW126240   5.129   1.784   2.341
 8447SOL    HW226241   4.968   1.797   2.365
 8448SOL     OW26242   4.298   5.610   4.143
 8448SOL    HW126243   4.239   5.536   4.111
 8448SOL    HW226244   4.385   5.572   4.172
 8449SOL     OW26245   0.200   2.949   3.704
 8449SOL    HW126246   0.189   2.988   3.612
 8449SOL    HW226247   0.271   2.880   3.702
 8450SOL     OW26248   0.452   6.802   1.001
 8450SOL    HW126249   0.404   6.749   0.931
 8450SOL    HW226250   0.390   6.817   1.079
 8451SOL     OW26251   3.636   1.733   0.312
 8451SOL    HW126252   3.618   1.691   0.222
 8451SOL    HW226253   3.579   1.688   0.381
 8452SOL     OW26254   6.010   1.438   2.795
 8452SOL    HW126255   6.098   1.393   2.778
 8452SOL    HW226256   6.025   1.536   2.806
 8453SOL     OW26257   0.311   4.521   6.735
 8453SOL    HW126258   0.398   4.483   6.704
 8453SOL    HW226259   0.251   4.446   6.765
 8454SOL     OW26260   6.645   6.687   1.626
 8454SOL    HW126261   6.570   6.679   1.561
 8454SOL    HW226262   6.713   6.752   1.591
 8455SOL     OW26263   6.762   2.223   1.930
 8455SOL    HW126264   6.785   2.127   1.912
 8455SOL    HW226265   6.755   2.237   2.029
 8456SOL     OW26266   4.070   5.717   3.237
 8456SOL    HW126267   4.036   5.625   3.254
 8456SOL    HW226268   4.095   5.760   3.324
 8457SOL     OW26269   6.704   6.753   4.942
 8457SOL    HW126270   6.722   6.655   4.945
 8457SOL    HW226271   6.782   6.800   4.900
 8458SOL     OW26272   3.216   0.873   0.176
 8458SOL    HW126273   3.155   0.928   0.119
 8458SOL    HW226274   3.285   0.829   0.119
 8459SOL     OW26275   2.616   5.919   1.841
 8459SOL    HW126276   2.526   5.924   1.885
 8459SOL    HW226277   2.665   6.005   1.854
 8460SOL     OW26278   4.190   4.221   5.284
 8460SOL    HW126279   4.210   4.301   5.227
 8460SOL    HW226280   4.092   4.212   5.295
 8461SOL     OW26281   1.026   3.996   4.760
 8461SOL    HW126282   0.930   3.999   4.734
 8461SOL    HW226283   1.050   4.080   4.810
 8462SOL     OW26284   2.391   2.720   6.671
 8462SOL    HW126285   2.395   2.733   6.770
 8462SOL    HW226286   2.396   2.622   6.650
 8463SOL     OW26287   6.963   6.820   1.184
 8463SOL    HW126288   0.025   6.761   1.195
 8463SOL    HW226289   6.920   6.801   1.096
 8464SOL     OW26290   5.772   3.843   3.945
 8464SOL    HW126291   5.712   3.791   3.885
 8464SOL    HW226292   5.717   3.890   4.014
 8465SOL     OW26293   0.985   3.391   0.678
 8465SOL    HW126294   0.914   3.322   0.669
 8465SOL    HW226295   0.964   3.452   0.754
 8466SOL     OW26296   0.876   6.450   3.913
 8466SOL    HW126297   0.787   6.420   3.879
 8466SOL    HW226298   0.933   6.477   3.836
 8467SOL     OW26299   3.701   6.971   6.670
 8467SOL    HW126300   3.741   7.015   6.589
 8467SOL    HW226301   3.703   6.872   6.658
 8468SOL     OW26302   3.779   2.157   6.499
 8468SOL    HW126303   3.741   2.104   6.575
 8468SOL    HW226304   3.879   2.151   6.501
 8469SOL     OW26305   2.948   1.869   6.815
 8469SOL    HW126306   2.960   1.936   6.889
 8469SOL    HW226307   2.908   1.785   6.852
 8470SOL     OW26308   1.157   4.337   0.168
 8470SOL    HW126309   1.222   4.303   0.100
 8470SOL    HW226310   1.110   4.260   0.211
 8471SOL     OW26311   3.527   1.106   3.258
 8471SOL    HW126312   3.429   1.104   3.235
 8471SOL    HW226313   3.554   1.200   3.278
 8472SOL     OW26314   6.950   0.942   4.659
 8472SOL    HW126315   0.011   0.931   4.720
 8472SOL    HW226316   6.973   0.908   4.568
 8473SOL     OW26317   6.334   5.978   6.591
 8473SOL    HW126318   6.268   6.041   6.632
 8473SOL    HW226319   6.420   5.983   6.642
 8474SOL     OW26320   3.147   3.271   2.008
 8474SOL    HW126321   3.074   3.212   2.041
 8474SOL    HW226322   3.228   3.215   1.987
 8475SOL     OW26323   0.773   2.334   3.380
 8475SOL    HW126324   0.852   2.300   3.432
 8475SOL    HW226325   0.777   2.297   3.287
 8476SOL     OW26326   6.853   1.930   1.010
 8476SOL    HW126327   6.776   1.939   0.947
 8476SOL    HW226328   6.923   1.999   0.988
 8477SOL     OW26329   4.829   6.826   1.615
 8477SOL    HW126330   4.765   6.788   1.682
 8477SOL    HW226331   4.920   6.789   1.631
 8478SOL     OW26332   1.163   0.072   6.002
 8478SOL    HW126333   1.139   0.013   6.079
 8478SOL    HW226334   1.080   0.111   5.962
 8479SOL     OW26335   6.861   3.155   1.252
 8479SOL    HW126336   6.889   3.223   1.320
 8479SOL    HW226337   6.840   3.201   1.166
 8480SOL     OW26338   4.587   1.628   0.249
 8480SOL    HW126339   4.504   1.573   0.244
 8480SOL    HW226340   4.630   1.633   0.159
 8481SOL     OW26341   4.768   1.844   3.384
 8481SOL    HW126342   4.809   1.797   3.462
 8481SOL    HW226343   4.819   1.820   3.301
 8482SOL     OW26344   4.638   5.821   2.079
 8482SOL    HW126345   4.634   5.920   2.070
 8482SOL    HW226346   4.547   5.782   2.069
 8483SOL     OW26347   4.134   6.241   2.095
 8483SOL    HW126348   4.142   6.150   2.135
 8483SOL    HW226349   4.040   6.257   2.065
 8484SOL     OW26350   0.571   5.493   3.014
 8484SOL    HW126351   0.574   5.421   3.083
 8484SOL    HW226352   0.511   5.566   3.045
 8485SOL     OW26353   3.217   3.025   0.661
 8485SOL    HW126354   3.118   3.015   0.648
 8485SOL    HW226355   3.266   2.973   0.592
 8486SOL     OW26356   4.218   0.996   2.869
 8486SOL    HW126357   4.223   1.012   2.967
 8486SOL    HW226358   4.281   0.922   2.844
 8487SOL     OW26359   5.256   1.878   6.339
 8487SOL    HW126360   5.181   1.839   6.285
 8487SOL    HW226361   5.230   1.880   6.435
 8488SOL     OW26362   5.680   5.277   6.140
 8488SOL    HW126363   5.755   5.223   6.102
 8488SOL    HW226364   5.593   5.233   6.117
 8489SOL     OW26365   6.558   1.391   1.264
 8489SOL    HW126366   6.482   1.453   1.281
 8489SOL    HW226367   6.524   1.311   1.213
 8490SOL     OW26368   3.768   6.603   4.545
 8490SOL    HW126369   3.702   6.641   4.611
 8490SOL    HW226370   3.780   6.506   4.564
 8491SOL     OW26371   1.863   6.733   0.814
 8491SOL    HW126372   1.963   6.737   0.821
 8491SOL    HW226373   1.834   6.776   0.728
 8492SOL     OW26374   4.573   4.177   6.496
 8492SOL    HW126375   4.597   4.262   6.450
 8492SOL    HW226376   4.527   4.116   6.432
 8493SOL     OW26377   2.690   2.345   6.453
 8493SOL    HW126378   2.683   2.386   6.362
 8493SOL    HW226379   2.751   2.266   6.449
 8494SOL     OW26380   3.342   4.357   1.121
 8494SOL    HW126381   3.366   4.331   1.214
 8494SOL    HW226382   3.247   4.332   1.103
 8495SOL     OW26383   6.330   4.649   1.212
 8495SOL    HW126384   6.260   4.711   1.249
 8495SOL    HW226385   6.414   4.659   1.265
 8496SOL     OW26386   0.896   1.794   2.281
 8496SOL    HW126387   0.851   1.784   2.192
 8496SOL    HW226388   0.920   1.890   2.296
 8497SOL     OW26389   6.397   1.160   3.655
 8497SOL    HW126390   6.442   1.074   3.629
 8497SOL    HW226391   6.300   1.154   3.633
 8498SOL     OW26392   0.590   5.961   2.940
 8498SOL    HW126393   0.533   6.003   2.869
 8498SOL    HW226394   0.683   5.999   2.934
 8499SOL     OW26395   2.733   4.901   6.207
 8499SOL    HW126396   2.806   4.836   6.229
 8499SOL    HW226397   2.688   4.931   6.291
 8500SOL     OW26398   2.302   6.601   4.856
 8500SOL    HW126399   2.313   6.578   4.759
 8500SOL    HW226400   2.387   6.641   4.890
 8501SOL     OW26401   0.746   1.638   6.982
 8501SOL    HW126402   0.749   1.575   6.905
 8501SOL    HW226403   0.722   1.587   0.048
 8502SOL     OW26404   1.981   5.004   1.106
 8502SOL    HW126405   2.079   5.008   1.121
 8502SOL    HW226406   1.934   5.058   1.176
 8503SOL     OW26407   1.195   0.023   4.042
 8503SOL    HW126408   1.114   7.018   3.987
 8503SOL    HW226409   1.260   6.965   4.038
 8504SOL     OW26410   2.786   5.297   2.975
 8504SOL    HW126411   2.757   5.374   2.917
 8504SOL    HW226412   2.879   5.269   2.949
 8505SOL     OW26413   4.864   3.917   3.417
 8505SOL    HW126414   4.896   3.837   3.469
 8505SOL    HW226415   4.844   3.991   3.480
 8506SOL     OW26416   6.194   1.376   0.097
 8506SOL    HW126417   6.156   1.348   0.009
 8506SOL    HW226418   6.287   1.341   0.106
 8507SOL     OW26419   3.359   1.088   5.587
 8507SOL    HW126420   3.411   1.133   5.515
 8507SOL    HW226421   3.422   1.056   5.658
 8508SOL     OW26422   6.209   1.698   4.842
 8508SOL    HW126423   6.151   1.617   4.843
 8508SOL    HW226424   6.282   1.686   4.775
 8509SOL     OW26425   4.516   1.838   3.445
 8509SOL    HW126426   4.614   1.828   3.427
 8509SOL    HW226427   4.471   1.748   3.438
 8510SOL     OW26428   5.791   4.731   2.958
 8510SOL    HW126429   5.816   4.684   2.872
 8510SOL    HW226430   5.871   4.781   2.992
 8511SOL     OW26431   6.634   4.061   1.491
 8511SOL    HW126432   6.644   4.119   1.571
 8511SOL    HW226433   6.540   4.027   1.484
 8512SOL     OW26434   3.422   2.010   1.272
 8512SOL    HW126435   3.338   2.030   1.323
 8512SOL    HW226436   3.499   2.054   1.318
 8513SOL     OW26437   4.800   4.158   1.903
 8513SOL    HW126438   4.848   4.103   1.971
 8513SOL    HW226439   4.714   4.192   1.941
 8514SOL     OW26440   2.686   2.464   3.759
 8514SOL    HW126441   2.625   2.541   3.774
 8514SOL    HW226442   2.779   2.490   3.784
 8515SOL     OW26443   5.489   1.266   0.238
 8515SOL    HW126444   5.398   1.293   0.204
 8515SOL    HW226445   5.487   1.170   0.264
 8516SOL     OW26446   6.682   1.622   1.486
 8516SOL    HW126447   6.599   1.616   1.541
 8516SOL    HW226448   6.663   1.673   1.402
 8517SOL     OW26449   1.549   3.482   6.931
 8517SOL    HW126450   1.578   3.551   6.998
 8517SOL    HW226451   1.598   3.496   6.845
 8518SOL     OW26452   5.106   4.387   6.960
 8518SOL    HW126453   5.015   4.427   6.964
 8518SOL    HW226454   5.159   4.417   0.022
 8519SOL     OW26455   0.925   4.244   1.150
 8519SOL    HW126456   0.882   4.153   1.151
 8519SOL    HW226457   0.858   4.312   1.122
 8520SOL     OW26458   3.103   3.314   0.343
 8520SOL    HW126459   3.135   3.220   0.359
 8520SOL    HW226460   3.182   3.374   0.327
 8521SOL     OW26461   2.172   5.143   5.789
 8521SOL    HW126462   2.155   5.217   5.724
 8521SOL    HW226463   2.195   5.060   5.740
 8522SOL     OW26464   1.188   6.182   1.313
 8522SOL    HW126465   1.108   6.190   1.373
 8522SOL    HW226466   1.259   6.245   1.344
 8523SOL     OW26467   1.850   6.719   6.842
 8523SOL    HW126468   1.939   6.757   6.816
 8523SOL    HW226469   1.849   6.703   6.941
 8524SOL     OW26470   0.214   2.885   5.576
 8524SOL    HW126471   0.240   2.951   5.506
 8524SOL    HW226472   0.224   2.792   5.540
 8525SOL     OW26473   6.133   4.248   2.097
 8525SOL    HW126474   6.110   4.171   2.156
 8525SOL    HW226475   6.113   4.224   2.002
 8526SOL     OW26476   4.029   6.414   6.506
 8526SOL    HW126477   4.117   6.394   6.464
 8526SOL    HW226478   4.017   6.513   6.514
 8527SOL     OW26479   2.641   1.107   6.372
 8527SOL    HW126480   2.671   1.170   6.301
 8527SOL    HW226481   2.554   1.066   6.346
 8528SOL     OW26482   3.296   1.314   6.812
 8528SOL    HW126483   3.266   1.402   6.775
 8528SOL    HW226484   3.276   1.242   6.745
 8529SOL     OW26485   1.272   0.276   0.947
 8529SOL    HW126486   1.226   0.358   0.913
 8529SOL    HW226487   1.370   0.282   0.929
 8530SOL     OW26488   3.910   4.033   5.576
 8530SOL    HW126489   3.869   3.943   5.568
 8530SOL    HW226490   3.933   4.068   5.485
 8531SOL     OW26491   6.593   5.088   2.637
 8531SOL    HW126492   6.687   5.091   2.605
 8531SOL    HW226493   6.589   5.044   2.727
 8532SOL     OW26494   4.215   4.994   4.949
 8532SOL    HW126495   4.217   5.055   4.870
 8532SOL    HW226496   4.121   4.982   4.979
 8533SOL     OW26497   1.029   0.210   6.731
 8533SOL    HW126498   1.094   0.144   6.692
 8533SOL    HW226499   1.001   0.275   6.660
 8534SOL     OW26500   6.676   3.026   3.594
 8534SOL    HW126501   6.723   2.994   3.677
 8534SOL    HW226502   6.719   3.112   3.563
 8535SOL     OW26503   6.124   1.513   4.234
 8535SOL    HW126504   6.127   1.443   4.163
 8535SOL    HW226505   6.117   1.603   4.191
 8536SOL     OW26506   0.266   2.463   4.912
 8536SOL    HW126507   0.297   2.397   4.843
 8536SOL    HW226508   0.324   2.545   4.906
 8537SOL     OW26509   4.906   0.858   2.440
 8537SOL    HW126510   4.957   0.832   2.521
 8537SOL    HW226511   4.915   0.787   2.370
 8538SOL     OW26512   0.658   0.800   6.963
 8538SOL    HW126513   0.654   0.851   6.877
 8538SOL    HW226514   0.630   0.705   6.946
 8539SOL     OW26515   4.957   0.691   2.740
 8539SOL    HW126516   4.933   0.653   2.829
 8539SOL    HW226517   4.978   0.788   2.749
 8540SOL     OW26518   4.832   0.130   6.327
 8540SOL    HW126519   4.735   0.151   6.334
 8540SOL    HW226520   4.844   0.030   6.319
 8541SOL     OW26521   2.558   1.523   4.280
 8541SOL    HW126522   2.561   1.620   4.252
 8541SOL    HW226523   2.472   1.482   4.247
 8542SOL     OW26524   3.905   4.656   0.018
 8542SOL    HW126525   3.823   4.620   6.992
 8542SOL    HW226526   3.978   4.663   6.968
 8543SOL     OW26527   2.826   0.935   0.920
 8543SOL    HW126528   2.881   1.018   0.917
 8543SOL    HW226529   2.835   0.885   0.834
 8544SOL     OW26530   5.444   3.018   4.633
 8544SOL    HW126531   5.355   2.980   4.609
 8544SOL    HW226532   5.480   3.071   4.557
 8545SOL     OW26533   4.398   0.002   5.296
 8545SOL    HW126534   4.382   0.098   5.321
 8545SOL    HW226535   4.441   6.973   5.373
 8546SOL     OW26536   6.524   1.611   3.799
 8546SOL    HW126537   6.524   1.569   3.890
 8546SOL    HW226538   6.509   1.540   3.730
 8547SOL     OW26539   1.944   6.737   6.023
 8547SOL    HW126540   1.931   6.823   5.973
 8547SOL    HW226541   1.950   6.661   5.957
 8548SOL     OW26542   5.700   1.989   5.417
 8548SOL    HW126543   5.700   2.018   5.321
 8548SOL    HW226544   5.752   1.904   5.427
 8549SOL     OW26545   1.539   2.949   3.982
 8549SOL    HW126546   1.474   2.954   3.906
 8549SOL    HW226547   1.630   2.927   3.946
 8550SOL     OW26548   1.523   4.679   0.152
 8550SOL    HW126549   1.570   4.613   0.094
 8550SOL    HW226550   1.478   4.748   0.096
 8551SOL     OW26551   3.573   3.624   6.490
 8551SOL    HW126552   3.524   3.709   6.470
 8551SOL    HW226553   3.511   3.560   6.535
 8552SOL     OW26554   2.143   0.406   4.170
 8552SOL    HW126555   2.120   0.468   4.095
 8552SOL    HW226556   2.239   0.381   4.164
 8553SOL     OW26557   4.198   4.514   0.175
 8553SOL    HW126558   4.182   4.463   0.090
 8553SOL    HW226559   4.280   4.571   0.164
 8554SOL     OW26560   0.966   4.670   0.637
 8554SOL    HW126561   0.985   4.759   0.680
 8554SOL    HW226562   0.971   4.598   0.705
 8555SOL     OW26563   2.066   1.322   2.989
 8555SOL    HW126564   2.165   1.303   2.987
 8555SOL    HW226565   2.049   1.409   2.944
 8556SOL     OW26566   1.542   6.068   5.262
 8556SOL    HW126567   1.560   6.144   5.199
 8556SOL    HW226568   1.453   6.080   5.305
 8557SOL     OW26569   5.978   0.056   3.070
 8557SOL    HW126570   5.955   0.008   2.985
 8557SOL    HW226571   5.970   7.011   3.147
 8558SOL     OW26572   3.539   4.921   3.354
 8558SOL    HW126573   3.456   4.913   3.410
 8558SOL    HW226574   3.516   4.900   3.259
 8559SOL     OW26575   0.431   0.505   2.412
 8559SOL    HW126576   0.489   0.549   2.344
 8559SOL    HW226577   0.470   0.416   2.436
 8560SOL     OW26578   6.646   6.336   1.991
 8560SOL    HW126579   6.649   6.374   1.898
 8560SOL    HW226580   6.734   6.293   2.012
 8561SOL     OW26581   3.135   0.807   2.492
 8561SOL    HW126582   3.204   0.825   2.423
 8561SOL    HW226583   3.044   0.826   2.454
 8562SOL     OW26584   3.781   5.341   5.593
 8562SOL    HW126585   3.741   5.335   5.502
 8562SOL    HW226586   3.838   5.261   5.610
 8563SOL     OW26587   2.078   4.415   6.691
 8563SOL    HW126588   2.098   4.452   6.600
 8563SOL    HW226589   1.979   4.403   6.700
 8564SOL     OW26590   3.335   0.871   4.641
 8564SOL    HW126591   3.396   0.949   4.625
 8564SOL    HW226592   3.246   0.888   4.597
 8565SOL     OW26593   4.056   5.529   1.059
 8565SOL    HW126594   4.084   5.567   1.147
 8565SOL    HW226595   4.088   5.588   0.985
 8566SOL     OW26596   1.691   0.747   1.614
 8566SOL    HW126597   1.637   0.673   1.573
 8566SOL    HW226598   1.654   0.835   1.586
 8567SOL     OW26599   0.568   2.181   2.570
 8567SOL    HW126600   0.489   2.237   2.593
 8567SOL    HW226601   0.537   2.090   2.543
 8568SOL     OW26602   5.450   1.134   6.211
 8568SOL    HW126603   5.384   1.106   6.142
 8568SOL    HW226604   5.498   1.053   6.246
 8569SOL     OW26605   5.339   0.926   6.029
 8569SOL    HW126606   5.321   0.874   5.945
 8569SOL    HW226607   5.339   0.863   6.107
 8570SOL     OW26608   1.398   2.345   5.109
 8570SOL    HW126609   1.383   2.417   5.041
 8570SOL    HW226610   1.483   2.297   5.088
 8571SOL     OW26611   1.144   5.580   5.447
 8571SOL    HW126612   1.233   5.586   5.494
 8571SOL    HW226613   1.144   5.642   5.369
 8572SOL     OW26614   3.017   5.147   6.846
 8572SOL    HW126615   3.082   5.223   6.845
 8572SOL    HW226616   3.031   5.092   6.928
 8573SOL     OW26617   3.612   6.431   5.895
 8573SOL    HW126618   3.527   6.429   5.948
 8573SOL    HW226619   3.671   6.504   5.929
 8574SOL     OW26620   6.591   5.299   5.359
 8574SOL    HW126621   6.598   5.330   5.264
 8574SOL    HW226622   6.584   5.378   5.420
 8575SOL     OW26623   2.717   2.364   5.037
 8575SOL    HW126624   2.756   2.433   5.098
 8575SOL    HW226625   2.789   2.307   5.000
 8576SOL     OW26626   1.594   4.955   6.490
 8576SOL    HW126627   1.592   4.925   6.586
 8576SOL    HW226628   1.662   5.028   6.479
 8577SOL     OW26629   6.732   6.356   4.187
 8577SOL    HW126630   6.680   6.309   4.259
 8577SOL    HW226631   6.706   6.319   4.098
 8578SOL     OW26632   5.673   1.253   4.531
 8578SOL    HW126633   5.652   1.255   4.433
 8578SOL    HW226634   5.768   1.227   4.544
 8579SOL     OW26635   1.605   0.031   2.710
 8579SOL    HW126636   1.547   6.968   2.699
 8579SOL    HW226637   1.651   0.028   2.798
 8580SOL     OW26638   2.675   6.309   2.375
 8580SOL    HW126639   2.601   6.245   2.394
 8580SOL    HW226640   2.657   6.396   2.421
 8581SOL     OW26641   3.177   3.717   2.100
 8581SOL    HW126642   3.217   3.628   2.078
 8581SOL    HW226643   3.086   3.704   2.139
 8582SOL     OW26644   4.684   4.673   2.993
 8582SOL    HW126645   4.710   4.686   2.897
 8582SOL    HW226646   4.634   4.587   3.003
 8583SOL     OW26647   5.306   0.479   4.575
 8583SOL    HW126648   5.373   0.470   4.649
 8583SOL    HW226649   5.295   0.576   4.553
 8584SOL     OW26650   0.987   4.334   5.829
 8584SOL    HW126651   1.074   4.288   5.810
 8584SOL    HW226652   0.925   4.271   5.875
 8585SOL     OW26653   0.440   5.861   6.494
 8585SOL    HW126654   0.476   5.878   6.403
 8585SOL    HW226655   0.515   5.841   6.557
 8586SOL     OW26656   2.856   0.272   2.835
 8586SOL    HW126657   2.835   0.325   2.753
 8586SOL    HW226658   2.954   0.277   2.854
 8587SOL     OW26659   1.735   6.721   3.696
 8587SOL    HW126660   1.682   6.736   3.613
 8587SOL    HW226661   1.678   6.741   3.776
 8588SOL     OW26662   2.795   0.747   0.176
 8588SOL    HW126663   2.745   0.677   0.225
 8588SOL    HW226664   2.794   0.832   0.229
 8589SOL     OW26665   5.067   2.706   4.969
 8589SOL    HW126666   5.108   2.635   4.912
 8589SOL    HW226667   4.990   2.747   4.920
 8590SOL     OW26668   0.178   6.306   4.155
 8590SOL    HW126669   0.276   6.291   4.166
 8590SOL    HW226670   0.138   6.331   4.244
 8591SOL     OW26671   0.037   4.326   0.122
 8591SOL    HW126672   0.012   4.423   0.126
 8591SOL    HW226673   0.105   4.306   0.192
 8592SOL     OW26674   0.024   2.782   6.665
 8592SOL    HW126675   0.066   2.742   6.584
 8592SOL    HW226676   6.984   2.714   6.710
 8593SOL     OW26677   2.877   0.007   0.803
 8593SOL    HW126678   2.977   0.003   0.815
 8593SOL    HW226679   2.855   0.079   0.737
 8594SOL     OW26680   4.031   2.519   5.597
 8594SOL    HW126681   4.000   2.527   5.503
 8594SOL    HW226682   4.011   2.427   5.631
 8595SOL     OW26683   1.324   2.910   3.308
 8595SOL    HW126684   1.309   2.811   3.309
 8595SOL    HW226685   1.389   2.935   3.380
 8596SOL     OW26686   6.877   5.213   3.314
 8596SOL    HW126687   6.825   5.247   3.392
 8596SOL    HW226688   6.817   5.161   3.253
 8597SOL     OW26689   4.389   0.947   0.762
 8597SOL    HW126690   4.422   0.897   0.842
 8597SOL    HW226691   4.414   1.044   0.771
 8598SOL     OW26692   6.008   6.561   0.904
 8598SOL    HW126693   6.037   6.615   0.983
 8598SOL    HW226694   5.999   6.465   0.930
 8599SOL     OW26695   0.934   2.730   4.484
 8599SOL    HW126696   0.920   2.798   4.557
 8599SOL    HW226697   0.912   2.772   4.396
 8600SOL     OW26698   5.022   5.606   5.964
 8600SOL    HW126699   5.004   5.527   5.906
 8600SOL    HW226700   5.068   5.677   5.911
 8601SOL     OW26701   0.888   0.866   4.960
 8601SOL    HW126702   0.951   0.896   4.889
 8601SOL    HW226703   0.807   0.926   4.961
 8602SOL     OW26704   3.065   5.239   2.937
 8602SOL    HW126705   3.108   5.216   3.024
 8602SOL    HW226706   3.125   5.212   2.862
 8603SOL     OW26707   3.976   5.563   0.290
 8603SOL    HW126708   4.038   5.534   0.217
 8603SOL    HW226709   3.886   5.583   0.250
 8604SOL     OW26710   0.574   2.905   3.871
 8604SOL    HW126711   0.537   2.915   3.778
 8604SOL    HW226712   0.522   2.835   3.919
 8605SOL     OW26713   2.973   5.582   4.652
 8605SOL    HW126714   3.068   5.594   4.623
 8605SOL    HW226715   2.932   5.671   4.670
 8606SOL     OW26716   1.500   3.392   5.959
 8606SOL    HW126717   1.522   3.456   5.885
 8606SOL    HW226718   1.422   3.336   5.933
 8607SOL     OW26719   3.711   5.900   0.936
 8607SOL    HW126720   3.804   5.900   0.901
 8607SOL    HW226721   3.693   5.814   0.984
 8608SOL     OW26722   4.483   5.642   2.789
 8608SOL    HW126723   4.403   5.636   2.848
 8608SOL    HW226724   4.531   5.728   2.806
 8609SOL     OW26725   5.920   1.148   3.414
 8609SOL    HW126726   5.985   1.167   3.487
 8609SOL    HW226727   5.930   1.052   3.386
 8610SOL     OW26728   1.859   2.197   2.820
 8610SOL    HW126729   1.904   2.251   2.891
 8610SOL    HW226730   1.762   2.187   2.841
 8611SOL     OW26731   3.009   1.731   4.224
 8611SOL    HW126732   3.011   1.827   4.196
 8611SOL    HW226733   2.915   1.701   4.234
 8612SOL     OW26734   3.604   3.129   1.090
 8612SOL    HW126735   3.579   3.054   1.153
 8612SOL    HW226736   3.549   3.210   1.112
 8613SOL     OW26737   2.334   1.900   1.080
 8613SOL    HW126738   2.381   1.836   1.141
 8613SOL    HW226739   2.266   1.952   1.132
 8614SOL     OW26740   1.276   3.491   2.216
 8614SOL    HW126741   1.228   3.417   2.263
 8614SOL    HW226742   1.211   3.562   2.190
 8615SOL     OW26743   4.657   1.599   5.007
 8615SOL    HW126744   4.560   1.590   5.026
 8615SOL    HW226745   4.670   1.653   4.923
 8616SOL     OW26746   3.152   4.674   1.758
 8616SOL    HW126747   3.113   4.583   1.744
 8616SOL    HW226748   3.106   4.719   1.835
 8617SOL     OW26749   6.811   1.037   6.585
 8617SOL    HW126750   6.787   0.948   6.547
 8617SOL    HW226751   6.865   1.089   6.519
 8618SOL     OW26752   6.110   6.094   0.729
 8618SOL    HW126753   6.192   6.129   0.774
 8618SOL    HW226754   6.114   5.994   0.727
 8619SOL     OW26755   3.796   4.832   2.301
 8619SOL    HW126756   3.817   4.915   2.353
 8619SOL    HW226757   3.732   4.854   2.228
 8620SOL     OW26758   0.853   0.220   4.138
 8620SOL    HW126759   0.920   0.294   4.130
 8620SOL    HW226760   0.816   0.219   4.231
 8621SOL     OW26761   5.572   1.380   2.828
 8621SOL    HW126762   5.629   1.410   2.752
 8621SOL    HW226763   5.583   1.443   2.906
 8622SOL     OW26764   4.715   2.939   0.145
 8622SOL    HW126765   4.661   2.992   0.210
 8622SOL    HW226766   4.790   2.995   0.110
 8623SOL     OW26767   0.873   3.435   3.640
 8623SOL    HW126768   0.800   3.440   3.709
 8623SOL    HW226769   0.962   3.434   3.686
 8624SOL     OW26770   0.873   3.457   4.838
 8624SOL    HW126771   0.941   3.523   4.870
 8624SOL    HW226772   0.798   3.453   4.904
 8625SOL     OW26773   4.297   0.017   5.748
 8625SOL    HW126774   4.381   6.980   5.750
 8625SOL    HW226775   4.309   0.098   5.805
 8626SOL     OW26776   3.911   2.954   5.551
 8626SOL    HW126777   3.854   2.904   5.486
 8626SOL    HW226778   3.943   2.892   5.622
 8627SOL     OW26779   0.354   1.323   3.241
 8627SOL    HW126780   0.400   1.353   3.157
 8627SOL    HW226781   0.289   1.393   3.271
 8628SOL     OW26782   6.360   6.203   0.826
 8628SOL    HW126783   6.433   6.267   0.802
 8628SOL    HW226784   6.367   6.179   0.923
 8629SOL     OW26785   1.095   4.641   5.140
 8629SOL    HW126786   1.030   4.658   5.067
 8629SOL    HW226787   1.059   4.677   5.226
 8630SOL     OW26788   5.523   4.380   3.387
 8630SOL    HW126789   5.530   4.389   3.486
 8630SOL    HW226790   5.593   4.315   3.355
 8631SOL     OW26791   2.696   5.867   6.087
 8631SOL    HW126792   2.718   5.802   6.159
 8631SOL    HW226793   2.640   5.822   6.018
 8632SOL     OW26794   3.586   6.358   3.674
 8632SOL    HW126795   3.614   6.324   3.765
 8632SOL    HW226796   3.660   6.412   3.635
 8633SOL     OW26797   5.057   1.944   5.177
 8633SOL    HW126798   5.091   1.850   5.187
 8633SOL    HW226799   4.983   1.960   5.242
 8634SOL     OW26800   5.584   3.171   0.134
 8634SOL    HW126801   5.566   3.218   0.047
 8634SOL    HW226802   5.603   3.239   0.205
 8635SOL     OW26803   5.486   4.135   6.614
 8635SOL    HW126804   5.450   4.202   6.548
 8635SOL    HW226805   5.420   4.062   6.627
 8636SOL     OW26806   5.181   5.846   0.580
 8636SOL    HW126807   5.111   5.781   0.610
 8636SOL    HW226808   5.206   5.825   0.485
 8637SOL     OW26809   2.295   1.031   0.190
 8637SOL    HW126810   2.224   0.977   0.145
 8637SOL    HW226811   2.385   0.994   0.167
 8638SOL     OW26812   2.843   3.256   6.725
 8638SOL    HW126813   2.763   3.302   6.685
 8638SOL    HW226814   2.861   3.171   6.676
 8639SOL     OW26815   5.264   2.166   1.877
 8639SOL    HW126816   5.229   2.137   1.788
 8639SOL    HW226817   5.321   2.094   1.916
 8640SOL     OW26818   4.624   4.034   0.593
 8640SOL    HW126819   4.541   3.987   0.563
 8640SOL    HW226820   4.676   3.975   0.654
 8641SOL     OW26821   5.844   5.132   4.492
 8641SOL    HW126822   5.933   5.104   4.528
 8641SOL    HW226823   5.857   5.208   4.428
 8642SOL     OW26824   2.678   6.973   3.197
 8642SOL    HW126825   2.702   6.896   3.255
 8642SOL    HW226826   2.761   7.011   3.156
 8643SOL     OW26827   2.902   0.270   6.437
 8643SOL    HW126828   2.947   0.193   6.392
 8643SOL    HW226829   2.859   0.329   6.369
 8644SOL     OW26830   4.654   2.356   5.642
 8644SOL    HW126831   4.649   2.261   5.673
 8644SOL    HW226832   4.744   2.394   5.663
 8645SOL     OW26833   4.250   4.636   1.259
 8645SOL    HW126834   4.222   4.729   1.236
 8645SOL    HW226835   4.175   4.572   1.243
 8646SOL     OW26836   6.373   1.090   1.579
 8646SOL    HW126837   6.438   1.016   1.597
 8646SOL    HW226838   6.415   1.178   1.600
 8647SOL     OW26839   2.602   5.716   5.882
 8647SOL    HW126840   2.685   5.668   5.910
 8647SOL    HW226841   2.533   5.650   5.854
 8648SOL     OW26842   6.353   0.883   3.459
 8648SOL    HW126843   6.355   0.816   3.533
 8648SOL    HW226844   6.262   0.885   3.418
 8649SOL     OW26845   5.626   4.793   5.794
 8649SOL    HW126846   5.644   4.696   5.774
 8649SOL    HW226847   5.528   4.805   5.810
 8650SOL     OW26848   2.045   4.931   5.328
 8650SOL    HW126849   2.124   4.991   5.319
 8650SOL    HW226850   1.961   4.984   5.315
 8651SOL     OW26851   3.493   0.335   0.696
 8651SOL    HW126852   3.524   0.382   0.613
 8651SOL    HW226853   3.471   0.240   0.673
 8652SOL     OW26854   2.020   4.322   4.132
 8652SOL    HW126855   1.999   4.373   4.048
 8652SOL    HW226856   1.970   4.361   4.209
 8653SOL     OW26857   6.144   0.801   6.102
 8653SOL    HW126858   6.140   0.859   6.020
 8653SOL    HW226859   6.068   0.737   6.101
 8654SOL     OW26860   0.982   4.958   1.167
 8654SOL    HW126861   1.034   5.030   1.123
 8654SOL    HW226862   0.910   4.998   1.223
 8655SOL     OW26863   6.424   1.414   3.623
 8655SOL    HW126864   6.419   1.318   3.595
 8655SOL    HW226865   6.331   1.452   3.626
 8656SOL     OW26866   6.628   0.959   1.269
 8656SOL    HW126867   6.539   0.959   1.315
 8656SOL    HW226868   6.618   0.923   1.176
 8657SOL     OW26869   4.985   4.298   0.436
 8657SOL    HW126870   5.017   4.364   0.367
 8657SOL    HW226871   4.976   4.208   0.394
 8658SOL     OW26872   4.380   6.652   0.260
 8658SOL    HW126873   4.407   6.695   0.346
 8658SOL    HW226874   4.284   6.672   0.241
 8659SOL     OW26875   4.572   1.628   2.923
 8659SOL    HW126876   4.490   1.583   2.889
 8659SOL    HW226877   4.548   1.686   3.002
 8660SOL     OW26878   5.728   4.211   0.782
 8660SOL    HW126879   5.718   4.125   0.833
 8660SOL    HW226880   5.805   4.263   0.820
 8661SOL     OW26881   5.619   4.094   1.304
 8661SOL    HW126882   5.704   4.049   1.331
 8661SOL    HW226883   5.570   4.036   1.239
 8662SOL     OW26884   4.825   6.181   0.837
 8662SOL    HW126885   4.887   6.123   0.785
 8662SOL    HW226886   4.809   6.141   0.928
 8663SOL     OW26887   3.006   6.090   1.740
 8663SOL    HW126888   3.018   6.183   1.774
 8663SOL    HW226889   3.038   6.025   1.808
 8664SOL     OW26890   2.327   6.312   0.933
 8664SOL    HW126891   2.353   6.270   0.846
 8664SOL    HW226892   2.405   6.312   0.995
 8665SOL     OW26893   5.303   6.399   4.968
 8665SOL    HW126894   5.397   6.434   4.970
 8665SOL    HW226895   5.273   6.388   4.874
 8666SOL     OW26896   5.380   1.560   4.457
 8666SOL    HW126897   5.372   1.554   4.357
 8666SOL    HW226898   5.297   1.601   4.494
 8667SOL     OW26899   5.021   2.095   3.084
 8667SOL    HW126900   4.997   2.066   3.177
 8667SOL    HW226901   4.993   2.025   3.019
 8668SOL     OW26902   5.428   3.907   3.222
 8668SOL    HW126903   5.374   3.914   3.306
 8668SOL    HW226904   5.426   3.812   3.190
 8669SOL     OW26905   2.184   6.305   0.064
 8669SOL    HW126906   2.235   6.390   0.077
 8669SOL    HW226907   2.143   6.305   6.991
 8670SOL     OW26908   3.946   4.082   5.315
 8670SOL    HW126909   3.897   4.154   5.266
 8670SOL    HW226910   3.981   4.015   5.250
 8671SOL     OW26911   5.085   1.453   3.754
 8671SOL    HW126912   5.092   1.548   3.785
 8671SOL    HW226913   5.099   1.448   3.655
 8672SOL     OW26914   1.565   4.928   3.982
 8672SOL    HW126915   1.480   4.932   3.929
 8672SOL    HW226916   1.585   5.019   4.020
 8673SOL     OW26917   5.926   2.712   0.488
 8673SOL    HW126918   5.936   2.772   0.408
 8673SOL    HW226919   6.011   2.660   0.501
 8674SOL     OW26920   5.816   6.013   3.598
 8674SOL    HW126921   5.737   6.073   3.610
 8674SOL    HW226922   5.786   5.918   3.600
 8675SOL     OW26923   2.964   1.983   4.135
 8675SOL    HW126924   3.035   2.032   4.085
 8675SOL    HW226925   2.880   2.037   4.137
 8676SOL     OW26926   4.358   0.497   2.767
 8676SOL    HW126927   4.453   0.528   2.779
 8676SOL    HW226928   4.351   0.445   2.682
 8677SOL     OW26929   2.592   5.944   5.018
 8677SOL    HW126930   2.658   5.942   5.093
 8677SOL    HW226931   2.632   5.992   4.940
 8678SOL     OW26932   6.663   0.436   1.179
 8678SOL    HW126933   6.638   0.341   1.192
 8678SOL    HW226934   6.752   0.454   1.222
 8679SOL     OW26935   0.087   2.452   2.922
 8679SOL    HW126936   0.174   2.457   2.875
 8679SOL    HW226937   0.067   2.357   2.945
 8680SOL     OW26938   1.273   3.958   1.045
 8680SOL    HW126939   1.252   3.860   1.045
 8680SOL    HW226940   1.344   3.976   0.976
 8681SOL     OW26941   4.809   5.268   0.389
 8681SOL    HW126942   4.795   5.252   0.487
 8681SOL    HW226943   4.861   5.353   0.377
 8682SOL     OW26944   5.423   0.355   1.894
 8682SOL    HW126945   5.466   0.364   1.984
 8682SOL    HW226946   5.432   0.261   1.862
 8683SOL     OW26947   1.965   2.339   3.036
 8683SOL    HW126948   2.004   2.314   3.125
 8683SOL    HW226949   1.911   2.423   3.047
 8684SOL     OW26950   0.673   2.841   5.056
 8684SOL    HW126951   0.634   2.933   5.057
 8684SOL    HW226952   0.717   2.823   5.144
 8685SOL     OW26953   0.706   1.882   6.103
 8685SOL    HW126954   0.681   1.816   6.032
 8685SOL    HW226955   0.798   1.862   6.136
 8686SOL     OW26956   0.524   1.646   1.599
 8686SOL    HW126957   0.564   1.643   1.507
 8686SOL    HW226958   0.435   1.692   1.596
 8687SOL     OW26959   4.409   5.648   2.000
 8687SOL    HW126960   4.363   5.663   1.912
 8687SOL    HW226961   4.398   5.553   2.028
 8688SOL     OW26962   2.707   6.182   0.374
 8688SOL    HW126963   2.771   6.136   0.313
 8688SOL    HW226964   2.614   6.170   0.340
 8689SOL     OW26965   4.083   4.038   1.371
 8689SOL    HW126966   4.026   4.054   1.289
 8689SOL    HW226967   4.044   3.964   1.424
 8690SOL     OW26968   1.600   2.899   3.027
 8690SOL    HW126969   1.536   2.943   3.091
 8690SOL    HW226970   1.551   2.831   2.972
 8691SOL     OW26971   3.200   1.935   6.141
 8691SOL    HW126972   3.204   1.845   6.098
 8691SOL    HW226973   3.291   1.961   6.173
 8692SOL     OW26974   2.005   1.514   4.159
 8692SOL    HW126975   1.917   1.524   4.206
 8692SOL    HW226976   2.073   1.571   4.204
 8693SOL     OW26977   6.131   0.990   0.126
 8693SOL    HW126978   6.202   0.994   0.197
 8693SOL    HW226979   6.129   0.898   0.086
 8694SOL     OW26980   4.888   0.993   4.599
 8694SOL    HW126981   4.902   0.945   4.513
 8694SOL    HW226982   4.796   1.032   4.602
 8695SOL     OW26983   3.808   2.436   6.057
 8695SOL    HW126984   3.794   2.372   6.132
 8695SOL    HW226985   3.739   2.508   6.060
 8696SOL     OW26986   2.396   5.098   6.820
 8696SOL    HW126987   2.427   5.050   6.903
 8696SOL    HW226988   2.438   5.188   6.817
 8697SOL     OW26989   6.907   2.612   6.878
 8697SOL    HW126990   6.969   2.571   6.945
 8697SOL    HW226991   6.848   2.541   6.839
 8698SOL     OW26992   5.602   6.085   4.738
 8698SOL    HW126993   5.701   6.100   4.741
 8698SOL    HW226994   5.563   6.143   4.666
 8699SOL     OW26995   2.933   2.282   5.803
 8699SOL    HW126996   2.861   2.313   5.741
 8699SOL    HW226997   2.976   2.200   5.765
 8700SOL     OW26998   0.468   0.889   4.844
 8700SOL    HW126999   0.419   0.938   4.772
 8700SOL    HW227000   0.411   0.815   4.879
 8701SOL     OW27001   0.271   1.340   0.505
 8701SOL    HW127002   0.252   1.373   0.598
 8701SOL    HW227003   0.355   1.286   0.506
 8702SOL     OW27004   5.020   4.879   1.588
 8702SOL    HW127005   5.045   4.942   1.514
 8702SOL    HW227006   5.063   4.791   1.573
 8703SOL     OW27007   3.076   4.530   0.214
 8703SOL    HW127008   2.990   4.537   0.165
 8703SOL    HW227009   3.058   4.526   0.313
 8704SOL     OW27010   6.886   3.620   3.093
 8704SOL    HW127011   6.875   3.549   3.164
 8704SOL    HW227012   6.812   3.613   3.027
 8705SOL     OW27013   4.952   1.304   6.261
 8705SOL    HW127014   5.026   1.251   6.220
 8705SOL    HW227015   4.932   1.268   6.352
 8706SOL     OW27016   4.704   1.947   6.875
 8706SOL    HW127017   4.796   1.977   6.851
 8706SOL    HW227018   4.653   1.924   6.792
 8707SOL     OW27019   0.359   2.318   6.657
 8707SOL    HW127020   0.404   2.406   6.644
 8707SOL    HW227021   0.260   2.332   6.659
 8708SOL     OW27022   4.822   2.722   2.485
 8708SOL    HW127023   4.891   2.652   2.465
 8708SOL    HW227024   4.732   2.679   2.491
 8709SOL     OW27025   6.847   6.009   6.882
 8709SOL    HW127026   6.797   5.963   6.956
 8709SOL    HW227027   6.905   6.081   6.921
 8710SOL     OW27028   2.134   3.385   4.221
 8710SOL    HW127029   2.229   3.405   4.198
 8710SOL    HW227030   2.127   3.289   4.248
 8711SOL     OW27031   0.915   6.524   3.178
 8711SOL    HW127032   0.829   6.543   3.225
 8711SOL    HW227033   0.942   6.604   3.124
 8712SOL     OW27034   4.156   2.294   4.749
 8712SOL    HW127035   4.185   2.343   4.831
 8712SOL    HW227036   4.190   2.342   4.668
 8713SOL     OW27037   0.296   2.913   4.149
 8713SOL    HW127038   0.246   2.862   4.219
 8713SOL    HW227039   0.238   2.988   4.114
 8714SOL     OW27040   1.158   1.141   6.415
 8714SOL    HW127041   1.085   1.077   6.436
 8714SOL    HW227042   1.198   1.175   6.501
 8715SOL     OW27043   4.914   0.341   1.198
 8715SOL    HW127044   4.889   0.435   1.175
 8715SOL    HW227045   4.884   0.280   1.125
 8716SOL     OW27046   6.905   0.114   1.179
 8716SOL    HW127047   6.972   0.045   1.205
 8716SOL    HW227048   6.932   0.203   1.217
 8717SOL     OW27049   3.797   3.481   4.013
 8717SOL    HW127050   3.735   3.440   4.080
 8717SOL    HW227051   3.874   3.523   4.060
 8718SOL     OW27052   0.945   3.697   5.129
 8718SOL    HW127053   1.029   3.718   5.080
 8718SOL    HW227054   0.931   3.598   5.130
 8719SOL     OW27055   3.413   0.629   6.033
 8719SOL    HW127056   3.497   0.643   5.981
 8719SOL    HW227057   3.421   0.546   6.088
 8720SOL     OW27058   6.043   4.868   6.139
 8720SOL    HW127059   6.103   4.876   6.219
 8720SOL    HW227060   5.974   4.798   6.157
 8721SOL     OW27061   6.947   2.846   2.409
 8721SOL    HW127062   6.922   2.798   2.325
 8721SOL    HW227063   6.865   2.867   2.462
 8722SOL     OW27064   4.410   1.742   6.925
 8722SOL    HW127065   4.492   1.716   6.975
 8722SOL    HW227066   4.343   1.782   6.988
 8723SOL     OW27067   5.040   5.770   0.941
 8723SOL    HW127068   4.986   5.753   0.858
 8723SOL    HW227069   5.057   5.868   0.950
 8724SOL     OW27070   4.538   0.018   5.548
 8724SOL    HW127071   4.519   6.970   5.621
 8724SOL    HW227072   4.630   0.004   5.513
 8725SOL     OW27073   1.641   6.591   5.868
 8725SOL    HW127074   1.650   6.622   5.963
 8725SOL    HW227075   1.550   6.612   5.835
 8726SOL     OW27076   0.344   1.008   2.176
 8726SOL    HW127077   0.382   1.006   2.084
 8726SOL    HW227078   0.258   1.060   2.176
 8727SOL     OW27079   6.908   5.600   2.610
 8727SOL    HW127080   6.866   5.569   2.525
 8727SOL    HW227081   6.992   5.650   2.589
 8728SOL     OW27082   5.702   0.252   3.433
 8728SOL    HW127083   5.715   0.256   3.333
 8728SOL    HW227084   5.777   0.302   3.478
 8729SOL     OW27085   4.528   5.674   4.927
 8729SOL    HW127086   4.434   5.697   4.904
 8729SOL    HW227087   4.557   5.594   4.873
 8730SOL     OW27088   6.388   3.890   2.279
 8730SOL    HW127089   6.447   3.881   2.359
 8730SOL    HW227090   6.293   3.886   2.308
 8731SOL     OW27091   2.199   2.271   2.565
 8731SOL    HW127092   2.133   2.342   2.590
 8731SOL    HW227093   2.288   2.313   2.549
 8732SOL     OW27094   5.720   5.106   1.880
 8732SOL    HW127095   5.797   5.044   1.894
 8732SOL    HW227096   5.683   5.135   1.969
 8733SOL     OW27097   1.422   5.136   0.664
 8733SOL    HW127098   1.427   5.215   0.725
 8733SOL    HW227099   1.364   5.065   0.705
 8734SOL     OW27100   1.925   4.460   1.940
 8734SOL    HW127101   1.937   4.553   1.906
 8734SOL    HW227102   1.966   4.452   2.031
 8735SOL     OW27103   0.995   2.598   0.549
 8735SOL    HW127104   1.076   2.646   0.516
 8735SOL    HW227105   0.922   2.663   0.567
 8736SOL     OW27106   0.901   5.615   6.390
 8736SOL    HW127107   0.948   5.688   6.440
 8736SOL    HW227108   0.863   5.652   6.305
 8737SOL     OW27109   2.200   6.948   5.946
 8737SOL    HW127110   2.166   0.022   5.926
 8737SOL    HW227111   2.148   6.909   6.023
 8738SOL     OW27112   2.151   5.566   4.493
 8738SOL    HW127113   2.084   5.548   4.566
 8738SOL    HW227114   2.191   5.480   4.462
 8739SOL     OW27115   5.362   5.394   6.455
 8739SOL    HW127116   5.328   5.378   6.547
 8739SOL    HW227117   5.407   5.312   6.420
 8740SOL     OW27118   4.982   1.023   4.845
 8740SOL    HW127119   5.002   0.948   4.909
 8740SOL    HW227120   4.968   0.986   4.753
 8741SOL     OW27121   2.784   1.386   1.896
 8741SOL    HW127122   2.811   1.355   1.805
 8741SOL    HW227123   2.806   1.483   1.905
 8742SOL     OW27124   5.762   6.356   1.085
 8742SOL    HW127125   5.671   6.336   1.049
 8742SOL    HW227126   5.831   6.309   1.030
 8743SOL     OW27127   1.228   0.254   2.484
 8743SOL    HW127128   1.185   0.170   2.452
 8743SOL    HW227129   1.297   0.232   2.553
 8744SOL     OW27130   3.288   2.854   6.383
 8744SOL    HW127131   3.299   2.758   6.407
 8744SOL    HW227132   3.208   2.892   6.431
 8745SOL     OW27133   5.627   2.833   6.143
 8745SOL    HW127134   5.669   2.792   6.224
 8745SOL    HW227135   5.612   2.930   6.158
 8746SOL     OW27136   5.344   4.247   5.037
 8746SOL    HW127137   5.441   4.226   5.055
 8746SOL    HW227138   5.335   4.281   4.943
 8747SOL     OW27139   0.836   2.867   3.158
 8747SOL    HW127140   0.798   2.778   3.131
 8747SOL    HW227141   0.862   2.864   3.254
 8748SOL     OW27142   6.937   1.761   4.962
 8748SOL    HW127143   0.005   1.756   5.012
 8748SOL    HW227144   6.948   1.820   4.881
 8749SOL     OW27145   2.621   0.820   6.148
 8749SOL    HW127146   2.564   0.892   6.109
 8749SOL    HW227147   2.699   0.804   6.088
 8750SOL     OW27148   3.475   3.777   5.455
 8750SOL    HW127149   3.384   3.744   5.478
 8750SOL    HW227150   3.541   3.702   5.463
 8751SOL     OW27151   6.266   1.544   2.131
 8751SOL    HW127152   6.273   1.445   2.119
 8751SOL    HW227153   6.179   1.576   2.095
 8752SOL     OW27154   2.905   3.824   0.488
 8752SOL    HW127155   2.923   3.914   0.447
 8752SOL    HW227156   2.991   3.775   0.498
 8753SOL     OW27157   4.237   1.771   5.585
 8753SOL    HW127158   4.248   1.766   5.684
 8753SOL    HW227159   4.325   1.759   5.540
 8754SOL     OW27160   1.218   3.149   5.657
 8754SOL    HW127161   1.231   3.212   5.581
 8754SOL    HW227162   1.156   3.076   5.629
 8755SOL     OW27163   2.221   0.141   1.128
 8755SOL    HW127164   2.232   0.047   1.095
 8755SOL    HW227165   2.144   0.184   1.081
 8756SOL     OW27166   1.734   2.727   3.464
 8756SOL    HW127167   1.676   2.757   3.540
 8756SOL    HW227168   1.822   2.774   3.468
 8757SOL     OW27169   4.154   6.422   5.859
 8757SOL    HW127170   4.150   6.403   5.761
 8757SOL    HW227171   4.227   6.367   5.901
 8758SOL     OW27172   4.647   6.126   2.712
 8758SOL    HW127173   4.595   6.140   2.796
 8758SOL    HW227174   4.641   6.030   2.684
 8759SOL     OW27175   3.938   2.430   0.166
 8759SOL    HW127176   4.031   2.394   0.157
 8759SOL    HW227177   3.882   2.365   0.218
 8760SOL     OW27178   1.791   1.139   5.154
 8760SOL    HW127179   1.771   1.200   5.077
 8760SOL    HW227180   1.818   1.194   5.233
 8761SOL     OW27181   5.858   2.398   2.354
 8761SOL    HW127182   5.799   2.472   2.384
 8761SOL    HW227183   5.853   2.389   2.255
 8762SOL     OW27184   1.550   3.959   2.952
 8762SOL    HW127185   1.453   3.976   2.932
 8762SOL    HW227186   1.558   3.921   3.044
 8763SOL     OW27187   6.745   6.933   5.885
 8763SOL    HW127188   6.753   7.013   5.945
 8763SOL    HW227189   6.746   6.964   5.789
 8764SOL     OW27190   5.006   0.820   5.170
 8764SOL    HW127191   4.958   0.907   5.184
 8764SOL    HW227192   4.939   0.746   5.164
 8765SOL     OW27193   5.472   6.748   4.432
 8765SOL    HW127194   5.558   6.726   4.479
 8765SOL    HW227195   5.475   6.711   4.340
 8766SOL     OW27196   4.644   4.297   3.594
 8766SOL    HW127197   4.718   4.345   3.547
 8766SOL    HW227198   4.662   4.199   3.593
 8767SOL     OW27199   4.838   6.375   2.759
 8767SOL    HW127200   4.759   6.437   2.761
 8767SOL    HW227201   4.880   6.378   2.669
 8768SOL     OW27202   1.116   2.866   0.452
 8768SOL    HW127203   1.104   2.838   0.357
 8768SOL    HW227204   1.120   2.966   0.458
 8769SOL     OW27205   0.679   0.691   3.959
 8769SOL    HW127206   0.707   0.727   3.870
 8769SOL    HW227207   0.733   0.735   4.031
 8770SOL     OW27208   5.074   4.480   2.532
 8770SOL    HW127209   5.139   4.491   2.607
 8770SOL    HW227210   5.043   4.385   2.529
 8771SOL     OW27211   0.889   0.381   6.528
 8771SOL    HW127212   0.826   0.455   6.551
 8771SOL    HW227213   0.963   0.416   6.471
 8772SOL     OW27214   5.041   6.755   6.655
 8772SOL    HW127215   4.962   6.695   6.666
 8772SOL    HW227216   5.048   6.784   6.560
 8773SOL     OW27217   4.461   2.482   3.460
 8773SOL    HW127218   4.502   2.564   3.499
 8773SOL    HW227219   4.531   2.410   3.455
 8774SOL     OW27220   1.185   1.175   6.720
 8774SOL    HW127221   1.169   1.255   6.779
 8774SOL    HW227222   1.139   1.095   6.758
 8775SOL     OW27223   6.302   6.871   5.619
 8775SOL    HW127224   6.346   6.960   5.623
 8775SOL    HW227225   6.362   6.803   5.662
 8776SOL     OW27226   3.798   3.062   6.427
 8776SOL    HW127227   3.877   3.053   6.488
 8776SOL    HW227228   3.814   3.136   6.362
 8777SOL     OW27229   6.948   3.702   1.377
 8777SOL    HW127230   6.912   3.733   1.290
 8777SOL    HW227231   6.969   3.605   1.372
 8778SOL     OW27232   6.319   2.569   4.918
 8778SOL    HW127233   6.253   2.548   4.846
 8778SOL    HW227234   6.408   2.591   4.876
 8779SOL     OW27235   2.821   5.334   2.037
 8779SOL    HW127236   2.880   5.267   2.082
 8779SOL    HW227237   2.867   5.423   2.035
 8780SOL     OW27238   0.857   5.757   2.581
 8780SOL    HW127239   0.932   5.716   2.530
 8780SOL    HW227240   0.811   5.687   2.635
 8781SOL     OW27241   5.654   1.235   3.246
 8781SOL    HW127242   5.742   1.246   3.292
 8781SOL    HW227243   5.596   1.174   3.299
 8782SOL     OW27244   5.188   6.401   1.661
 8782SOL    HW127245   5.283   6.386   1.634
 8782SOL    HW227246   5.170   6.353   1.747
 8783SOL     OW27247   6.388   3.867   3.161
 8783SOL    HW127248   6.474   3.913   3.141
 8783SOL    HW227249   6.403   3.797   3.231
 8784SOL     OW27250   5.752   4.237   6.563
 8784SOL    HW127251   5.734   4.315   6.504
 8784SOL    HW227252   5.668   4.183   6.574
 8785SOL     OW27253   6.101   3.150   6.956
 8785SOL    HW127254   6.132   3.054   6.957
 8785SOL    HW227255   6.047   3.167   6.874
 8786SOL     OW27256   1.792   0.115   0.270
 8786SOL    HW127257   1.872   0.071   0.229
 8786SOL    HW227258   1.807   0.127   0.368
 8787SOL     OW27259   2.719   2.614   1.552
 8787SOL    HW127260   2.637   2.558   1.539
 8787SOL    HW227261   2.737   2.667   1.469
 8788SOL     OW27262   0.223   2.103   6.164
 8788SOL    HW127263   0.203   2.007   6.146
 8788SOL    HW227264   0.199   2.125   6.258
 8789SOL     OW27265   6.072   6.911   5.803
 8789SOL    HW127266   6.137   6.879   5.734
 8789SOL    HW227267   6.025   6.832   5.843
 8790SOL     OW27268   0.865   0.226   6.944
 8790SOL    HW127269   0.798   0.300   6.945
 8790SOL    HW227270   0.923   0.234   6.863
 8791SOL     OW27271   5.416   0.152   4.936
 8791SOL    HW127272   5.425   0.061   4.976
 8791SOL    HW227273   5.455   0.221   4.997
 8792SOL     OW27274   3.293   6.759   3.291
 8792SOL    HW127275   3.250   6.678   3.250
 8792SOL    HW227276   3.329   6.735   3.381
 8793SOL     OW27277   1.840   4.568   3.277
 8793SOL    HW127278   1.767   4.595   3.214
 8793SOL    HW227279   1.915   4.526   3.226
 8794SOL     OW27280   4.155   6.314   1.822
 8794SOL    HW127281   4.200   6.403   1.814
 8794SOL    HW227282   4.124   6.300   1.916
 8795SOL     OW27283   1.387   5.621   5.551
 8795SOL    HW127284   1.447   5.694   5.584
 8795SOL    HW227285   1.442   5.555   5.499
 8796SOL     OW27286   3.969   1.984   4.170
 8796SOL    HW127287   4.012   1.900   4.205
 8796SOL    HW227288   3.956   1.975   4.071
 8797SOL     OW27289   0.342   6.829   6.252
 8797SOL    HW127290   0.375   6.737   6.230
 8797SOL    HW227291   0.392   6.863   6.332
 8798SOL     OW27292   4.845   5.881   5.984
 8798SOL    HW127293   4.775   5.951   5.972
 8798SOL    HW227294   4.830   5.833   6.071
 8799SOL     OW27295   2.255   4.933   3.864
 8799SOL    HW127296   2.306   5.019   3.855
 8799SOL    HW227297   2.223   4.924   3.958
 8800SOL     OW27298   5.938   3.681   5.492
 8800SOL    HW127299   5.985   3.711   5.409
 8800SOL    HW227300   5.863   3.744   5.512
 8801SOL     OW27301   0.310   2.214   5.132
 8801SOL    HW127302   0.324   2.309   5.104
 8801SOL    HW227303   0.267   2.163   5.057
 8802SOL     OW27304   1.597   6.570   0.582
 8802SOL    HW127305   1.681   6.544   0.533
 8802SOL    HW227306   1.607   6.549   0.679
 8803SOL     OW27307   6.361   5.695   6.554
 8803SOL    HW127308   6.352   5.795   6.561
 8803SOL    HW227309   6.287   5.651   6.604
 8804SOL     OW27310   2.996   0.398   2.440
 8804SOL    HW127311   3.083   0.369   2.481
 8804SOL    HW227312   3.012   0.473   2.376
 8805SOL     OW27313   2.883   6.954   4.190
 8805SOL    HW127314   2.861   6.949   4.093
 8805SOL    HW227315   2.957   0.002   4.205
 8806SOL     OW27316   2.754   5.451   2.746
 8806SOL    HW127317   2.727   5.524   2.809
 8806SOL    HW227318   2.758   5.487   2.653
 8807SOL     OW27319   5.810   6.736   0.028
 8807SOL    HW127320   5.825   6.638   0.016
 8807SOL    HW227321   5.747   6.769   6.975
 8808SOL     OW27322   5.740   2.754   0.098
 8808SOL    HW127323   5.800   2.679   0.126
 8808SOL    HW227324   5.795   2.836   0.083
 8809SOL     OW27325   4.789   5.558   3.661
 8809SOL    HW127326   4.799   5.649   3.699
 8809SOL    HW227327   4.879   5.521   3.637
 8810SOL     OW27328   5.417   0.680   6.274
 8810SOL    HW127329   5.390   0.615   6.345
 8810SOL    HW227330   5.508   0.656   6.240
 8811SOL     OW27331   3.173   1.295   3.374
 8811SOL    HW127332   3.088   1.248   3.349
 8811SOL    HW227333   3.155   1.393   3.381
 8812SOL     OW27334   1.961   6.996   1.020
 8812SOL    HW127335   1.989   0.061   0.972
 8812SOL    HW227336   1.872   6.965   0.986
 8813SOL     OW27337   1.851   4.869   1.487
 8813SOL    HW127338   1.852   4.825   1.398
 8813SOL    HW227339   1.920   4.942   1.489
 8814SOL     OW27340   5.263   0.126   1.170
 8814SOL    HW127341   5.289   0.207   1.224
 8814SOL    HW227342   5.238   0.052   1.232
 8815SOL     OW27343   5.961   0.062   0.721
 8815SOL    HW127344   5.903   7.003   0.694
 8815SOL    HW227345   6.013   0.093   0.641
 8816SOL     OW27346   1.447   6.905   6.693
 8816SOL    HW127347   1.537   6.918   6.734
 8816SOL    HW227348   1.380   6.887   6.764
 8817SOL     OW27349   0.828   5.374   4.678
 8817SOL    HW127350   0.810   5.455   4.734
 8817SOL    HW227351   0.816   5.292   4.734
 8818SOL     OW27352   0.181   4.441   4.786
 8818SOL    HW127353   0.127   4.361   4.759
 8818SOL    HW227354   0.121   4.521   4.793
 8819SOL     OW27355   5.285   5.269   5.003
 8819SOL    HW127356   5.294   5.298   4.908
 8819SOL    HW227357   5.341   5.328   5.061
 8820SOL     OW27358   2.053   0.947   5.073
 8820SOL    HW127359   2.007   0.947   5.162
 8820SOL    HW227360   2.106   0.863   5.063
 8821SOL     OW27361   2.553   6.471   0.311
 8821SOL    HW127362   2.558   6.511   0.402
 8821SOL    HW227363   2.514   6.379   0.316
 8822SOL     OW27364   0.067   0.115   4.391
 8822SOL    HW127365   0.072   0.081   4.485
 8822SOL    HW227366   7.011   0.181   4.383
 8823SOL     OW27367   2.851   0.668   1.335
 8823SOL    HW127368   2.950   0.656   1.330
 8823SOL    HW227369   2.824   0.741   1.272
 8824SOL     OW27370   1.107   2.430   0.737
 8824SOL    HW127371   1.042   2.487   0.688
 8824SOL    HW227372   1.113   2.458   0.832
 8825SOL     OW27373   2.135   0.154   2.365
 8825SOL    HW127374   2.226   0.196   2.366
 8825SOL    HW227375   2.077   0.198   2.434
 8826SOL     OW27376   6.289   3.588   1.197
 8826SOL    HW127377   6.346   3.610   1.277
 8826SOL    HW227378   6.195   3.618   1.214
 8827SOL     OW27379   3.912   1.609   2.686
 8827SOL    HW127380   3.988   1.590   2.623
 8827SOL    HW227381   3.857   1.684   2.650
 8828SOL     OW27382   4.562   5.746   5.778
 8828SOL    HW127383   4.486   5.805   5.749
 8828SOL    HW227384   4.581   5.678   5.707
 8829SOL     OW27385   5.332   2.475   0.663
 8829SOL    HW127386   5.292   2.567   0.660
 8829SOL    HW227387   5.360   2.454   0.757
 8830SOL     OW27388   1.444   1.697   2.280
 8830SOL    HW127389   1.537   1.678   2.309
 8830SOL    HW227390   1.380   1.658   2.345
 8831SOL     OW27391   4.540   1.974   4.066
 8831SOL    HW127392   4.561   1.905   4.136
 8831SOL    HW227393   4.441   1.979   4.053
 8832SOL     OW27394   0.081   5.328   3.351
 8832SOL    HW127395   0.009   5.263   3.373
 8832SOL    HW227396   0.090   5.335   3.252
 8833SOL     OW27397   2.621   5.504   5.627
 8833SOL    HW127398   2.700   5.561   5.603
 8833SOL    HW227399   2.650   5.408   5.629
 8834SOL     OW27400   4.908   4.100   4.667
 8834SOL    HW127401   4.976   4.054   4.724
 8834SOL    HW227402   4.871   4.036   4.600
 8835SOL     OW27403   5.193   0.541   6.050
 8835SOL    HW127404   5.289   0.564   6.066
 8835SOL    HW227405   5.142   0.549   6.136
 8836SOL     OW27406   5.385   3.471   0.030
 8836SOL    HW127407   5.292   3.438   0.015
 8836SOL    HW227408   5.449   3.414   6.998
 8837SOL     OW27409   6.658   5.774   2.745
 8837SOL    HW127410   6.731   5.706   2.750
 8837SOL    HW227411   6.590   5.756   2.816
 8838SOL     OW27412   2.596   5.790   3.103
 8838SOL    HW127413   2.580   5.751   3.194
 8838SOL    HW227414   2.534   5.867   3.089
 8839SOL     OW27415   5.884   5.222   3.498
 8839SOL    HW127416   5.867   5.139   3.550
 8839SOL    HW227417   5.861   5.208   3.402
 8840SOL     OW27418   6.803   1.875   2.621
 8840SOL    HW127419   6.761   1.952   2.669
 8840SOL    HW227420   6.902   1.891   2.614
 8841SOL     OW27421   0.639   1.263   5.363
 8841SOL    HW127422   0.651   1.168   5.337
 8841SOL    HW227423   0.632   1.319   5.280
 8842SOL     OW27424   3.518   2.868   2.448
 8842SOL    HW127425   3.482   2.928   2.519
 8842SOL    HW227426   3.461   2.873   2.367
 8843SOL     OW27427   1.783   2.982   5.777
 8843SOL    HW127428   1.804   3.072   5.739
 8843SOL    HW227429   1.707   2.991   5.842
 8844SOL     OW27430   6.757   2.441   6.686
 8844SOL    HW127431   6.710   2.372   6.631
 8844SOL    HW227432   6.736   2.427   6.782
 8845SOL     OW27433   3.601   3.250   0.047
 8845SOL    HW127434   3.669   3.316   0.079
 8845SOL    HW227435   3.555   3.287   6.984
 8846SOL     OW27436   3.235   5.456   3.837
 8846SOL    HW127437   3.275   5.365   3.841
 8846SOL    HW227438   3.281   5.516   3.902
 8847SOL     OW27439   2.823   0.979   3.146
 8847SOL    HW127440   2.805   0.965   3.049
 8847SOL    HW227441   2.865   0.897   3.185
 8848SOL     OW27442   2.783   1.064   1.743
 8848SOL    HW127443   2.794   1.150   1.693
 8848SOL    HW227444   2.758   0.992   1.679
 8849SOL     OW27445   2.744   6.452   3.223
 8849SOL    HW127446   2.680   6.460   3.146
 8849SOL    HW227447   2.735   6.362   3.265
 8850SOL     OW27448   0.655   2.255   0.351
 8850SOL    HW127449   0.653   2.189   0.426
 8850SOL    HW227450   0.668   2.207   0.264
 8851SOL     OW27451   1.377   4.355   3.658
 8851SOL    HW127452   1.346   4.293   3.586
 8851SOL    HW227453   1.474   4.340   3.677
 8852SOL     OW27454   6.621   2.607   5.552
 8852SOL    HW127455   6.694   2.583   5.488
 8852SOL    HW227456   6.660   2.648   5.634
 8853SOL     OW27457   3.125   0.832   1.391
 8853SOL    HW127458   3.218   0.796   1.381
 8853SOL    HW227459   3.111   0.862   1.485
 8854SOL     OW27460   3.523   2.500   5.890
 8854SOL    HW127461   3.546   2.528   5.983
 8854SOL    HW227462   3.424   2.496   5.879
 8855SOL     OW27463   6.775   5.630   1.517
 8855SOL    HW127464   6.714   5.677   1.453
 8855SOL    HW227465   6.817   5.551   1.471
 8856SOL     OW27466   0.576   6.177   6.566
 8856SOL    HW127467   0.525   6.092   6.583
 8856SOL    HW227468   0.534   6.226   6.490
 8857SOL     OW27469   7.017   1.663   4.434
 8857SOL    HW127470   0.016   1.571   4.397
 8857SOL    HW227471   6.919   1.681   4.436
 8858SOL     OW27472   0.596   3.566   4.747
 8858SOL    HW127473   0.690   3.541   4.771
 8858SOL    HW227474   0.534   3.534   4.818
 8859SOL     OW27475   1.465   0.770   3.487
 8859SOL    HW127476   1.418   0.775   3.399
 8859SOL    HW227477   1.555   0.728   3.474
 8860SOL     OW27478   6.997   2.627   2.155
 8860SOL    HW127479   6.972   2.626   2.058
 8860SOL    HW227480   6.914   2.621   2.211
 8861SOL     OW27481   4.462   1.300   6.389
 8861SOL    HW127482   4.540   1.238   6.385
 8861SOL    HW227483   4.459   1.344   6.479
 8862SOL     OW27484   5.276   0.247   3.743
 8862SOL    HW127485   5.318   0.310   3.678
 8862SOL    HW227486   5.180   0.233   3.717
 8863SOL     OW27487   2.319   4.739   3.669
 8863SOL    HW127488   2.309   4.816   3.732
 8863SOL    HW227489   2.246   4.673   3.686
 8864SOL     OW27490   2.784   5.315   6.404
 8864SOL    HW127491   2.863   5.366   6.437
 8864SOL    HW227492   2.806   5.271   6.317
 8865SOL     OW27493   3.124   0.481   4.810
 8865SOL    HW127494   3.050   0.501   4.746
 8865SOL    HW227495   3.212   0.487   4.762
 8866SOL     OW27496   4.972   0.083   2.935
 8866SOL    HW127497   5.056   0.116   2.978
 8866SOL    HW227498   4.977   7.001   2.923
 8867SOL     OW27499   5.791   4.833   3.365
 8867SOL    HW127500   5.796   4.756   3.429
 8867SOL    HW227501   5.700   4.835   3.323
 8868SOL     OW27502   0.183   3.248   1.484
 8868SOL    HW127503   0.203   3.186   1.407
 8868SOL    HW227504   0.108   3.211   1.538
 8869SOL     OW27505   3.601   6.050   5.178
 8869SOL    HW127506   3.607   5.978   5.247
 8869SOL    HW227507   3.690   6.065   5.137
 8870SOL     OW27508   2.540   6.804   0.768
 8870SOL    HW127509   2.546   6.858   0.683
 8870SOL    HW227510   2.467   6.842   0.825
 8871SOL     OW27511   1.993   0.588   3.972
 8871SOL    HW127512   2.066   0.654   3.956
 8871SOL    HW227513   1.931   0.624   4.042
 8872SOL     OW27514   1.597   4.637   5.216
 8872SOL    HW127515   1.649   4.578   5.153
 8872SOL    HW227516   1.576   4.723   5.170
 8873SOL     OW27517   0.777   6.911   2.289
 8873SOL    HW127518   0.692   6.876   2.329
 8873SOL    HW227519   0.794   6.865   2.202
 8874SOL     OW27520   2.475   5.790   2.250
 8874SOL    HW127521   2.397   5.837   2.210
 8874SOL    HW227522   2.559   5.839   2.228
 8875SOL     OW27523   0.481   3.499   4.474
 8875SOL    HW127524   0.498   3.567   4.545
 8875SOL    HW227525   0.382   3.494   4.456
 8876SOL     OW27526   2.215   6.686   5.302
 8876SOL    HW127527   2.295   6.670   5.361
 8876SOL    HW227528   2.243   6.739   5.223
 8877SOL     OW27529   2.942   1.486   3.885
 8877SOL    HW127530   2.978   1.578   3.899
 8877SOL    HW227531   2.981   1.448   3.800
 8878SOL     OW27532   5.159   5.080   1.146
 8878SOL    HW127533   5.063   5.108   1.142
 8878SOL    HW227534   5.169   5.005   1.212
 8879SOL     OW27535   4.450   4.915   2.238
 8879SOL    HW127536   4.368   4.921   2.182
 8879SOL    HW227537   4.450   4.828   2.288
 8880SOL     OW27538   4.535   5.948   4.322
 8880SOL    HW127539   4.475   6.007   4.377
 8880SOL    HW227540   4.624   5.943   4.366
 8881SOL     OW27541   5.082   6.409   3.926
 8881SOL    HW127542   5.180   6.418   3.910
 8881SOL    HW227543   5.049   6.324   3.886
 8882SOL     OW27544   5.355   0.899   1.457
 8882SOL    HW127545   5.308   0.831   1.401
 8882SOL    HW227546   5.400   0.965   1.398
 8883SOL     OW27547   1.914   6.300   6.008
 8883SOL    HW127548   1.929   6.359   6.087
 8883SOL    HW227549   1.999   6.254   5.983
 8884SOL     OW27550   5.757   3.170   4.937
 8884SOL    HW127551   5.853   3.175   4.965
 8884SOL    HW227552   5.724   3.262   4.913
 8885SOL     OW27553   5.466   4.318   1.315
 8885SOL    HW127554   5.492   4.407   1.279
 8885SOL    HW227555   5.537   4.251   1.294
 8886SOL     OW27556   2.685   6.177   4.905
 8886SOL    HW127557   2.780   6.166   4.936
 8886SOL    HW227558   2.668   6.273   4.886
 8887SOL     OW27559   3.736   0.837   0.719
 8887SOL    HW127560   3.642   0.825   0.688
 8887SOL    HW227561   3.798   0.821   0.642
 8888SOL     OW27562   2.008   1.587   5.866
 8888SOL    HW127563   1.929   1.579   5.927
 8888SOL    HW227564   2.062   1.503   5.869
 8889SOL     OW27565   6.855   6.913   0.033
 8889SOL    HW127566   6.815   7.004   0.047
 8889SOL    HW227567   6.911   6.889   0.113
 8890SOL     OW27568   0.109   6.215   5.472
 8890SOL    HW127569   0.045   6.271   5.525
 8890SOL    HW227570   0.117   6.125   5.514
 8891SOL     OW27571   3.982   3.656   6.963
 8891SOL    HW127572   4.034   3.738   6.939
 8891SOL    HW227573   3.982   3.593   6.885
 8892SOL     OW27574   3.650   4.884   2.730
 8892SOL    HW127575   3.564   4.926   2.760
 8892SOL    HW227576   3.638   4.845   2.639
 8893SOL     OW27577   1.008   5.571   4.101
 8893SOL    HW127578   0.954   5.493   4.067
 8893SOL    HW227579   1.069   5.540   4.174
 8894SOL     OW27580   2.828   1.926   6.589
 8894SOL    HW127581   2.888   1.908   6.667
 8894SOL    HW227582   2.818   1.843   6.535
 8895SOL     OW27583   6.843   2.935   2.157
 8895SOL    HW127584   6.764   2.896   2.205
 8895SOL    HW227585   6.827   2.932   2.058
 8896SOL     OW27586   2.346   3.030   5.467
 8896SOL    HW127587   2.410   3.058   5.396
 8896SOL    HW227588   2.267   2.985   5.426
 8897SOL     OW27589   2.441   2.692   3.990
 8897SOL    HW127590   2.461   2.684   3.892
 8897SOL    HW227591   2.358   2.641   4.011
 8898SOL     OW27592   5.146   3.494   2.557
 8898SOL    HW127593   5.090   3.489   2.640
 8898SOL    HW227594   5.086   3.505   2.477
 8899SOL     OW27595   1.097   4.679   1.418
 8899SOL    HW127596   1.068   4.637   1.504
 8899SOL    HW227597   1.130   4.772   1.436
 8900SOL     OW27598   5.688   3.028   2.999
 8900SOL    HW127599   5.690   2.996   3.094
 8900SOL    HW227600   5.749   3.108   2.990
 8901SOL     OW27601   1.522   1.368   4.787
 8901SOL    HW127602   1.464   1.358   4.868
 8901SOL    HW227603   1.499   1.453   4.740
 8902SOL     OW27604   0.625   5.702   0.362
 8902SOL    HW127605   0.715   5.675   0.328
 8902SOL    HW227606   0.585   5.626   0.414
 8903SOL     OW27607   0.572   2.065   4.229
 8903SOL    HW127608   0.656   2.019   4.201
 8903SOL    HW227609   0.594   2.137   4.295
 8904SOL     OW27610   6.983   0.929   5.030
 8904SOL    HW127611   0.002   0.882   5.110
 8904SOL    HW227612   6.889   0.899   5.013
 8905SOL     OW27613   2.142   3.498   3.535
 8905SOL    HW127614   2.213   3.431   3.515
 8905SOL    HW227615   2.111   3.539   3.449
 8906SOL     OW27616   1.347   6.285   0.188
 8906SOL    HW127617   1.442   6.314   0.176
 8906SOL    HW227618   1.326   6.278   0.285
 8907SOL     OW27619   3.052   3.061   5.623
 8907SOL    HW127620   3.006   3.027   5.705
 8907SOL    HW227621   3.064   2.986   5.558
 8908SOL     OW27622   1.647   5.490   6.892
 8908SOL    HW127623   1.703   5.457   6.816
 8908SOL    HW227624   1.705   5.540   6.957
 8909SOL     OW27625   2.589   1.387   5.458
 8909SOL    HW127626   2.549   1.477   5.477
 8909SOL    HW227627   2.524   1.316   5.485
 8910SOL     OW27628   0.494   3.078   5.665
 8910SOL    HW127629   0.548   3.090   5.748
 8910SOL    HW227630   0.442   3.161   5.646
 8911SOL     OW27631   4.704   2.764   4.353
 8911SOL    HW127632   4.644   2.684   4.349
 8911SOL    HW227633   4.731   2.790   4.260
 8912SOL     OW27634   3.284   3.469   0.186
 8912SOL    HW127635   3.252   3.395   0.126
 8912SOL    HW227636   3.350   3.526   0.138
 8913SOL     OW27637   4.111   5.238   5.987
 8913SOL    HW127638   4.117   5.306   6.059
 8913SOL    HW227639   4.018   5.236   5.950
 8914SOL     OW27640   4.454   6.956   4.838
 8914SOL    HW127641   4.456   6.858   4.820
 8914SOL    HW227642   4.370   6.979   4.887
 8915SOL     OW27643   1.553   2.543   3.493
 8915SOL    HW127644   1.465   2.590   3.504
 8915SOL    HW227645   1.625   2.611   3.476
 8916SOL     OW27646   6.745   3.357   0.618
 8916SOL    HW127647   6.704   3.402   0.539
 8916SOL    HW227648   6.683   3.286   0.652
 8917SOL     OW27649   6.188   2.760   0.201
 8917SOL    HW127650   6.130   2.841   0.191
 8917SOL    HW227651   6.283   2.789   0.210
 8918SOL     OW27652   6.829   4.377   1.281
 8918SOL    HW127653   6.879   4.441   1.222
 8918SOL    HW227654   6.780   4.311   1.224
 8919SOL     OW27655   4.826   4.237   0.069
 8919SOL    HW127656   4.915   4.201   0.097
 8919SOL    HW227657   4.824   4.247   6.987
 8920SOL     OW27658   0.182   1.865   6.912
 8920SOL    HW127659   0.211   1.947   6.960
 8920SOL    HW227660   0.082   1.861   6.912
 8921SOL     OW27661   1.765   2.769   1.759
 8921SOL    HW127662   1.683   2.803   1.805
 8921SOL    HW227663   1.820   2.846   1.727
 8922SOL     OW27664   3.996   5.204   2.017
 8922SOL    HW127665   4.007   5.198   2.116
 8922SOL    HW227666   3.939   5.128   1.985
 8923SOL     OW27667   1.728   1.520   6.693
 8923SOL    HW127668   1.789   1.446   6.661
 8923SOL    HW227669   1.764   1.558   6.778
 8924SOL     OW27670   4.821   5.686   5.344
 8924SOL    HW127671   4.813   5.779   5.310
 8924SOL    HW227672   4.842   5.688   5.442
 8925SOL     OW27673   0.778   0.553   2.716
 8925SOL    HW127674   0.744   0.647   2.730
 8925SOL    HW227675   0.719   0.489   2.765
 8926SOL     OW27676   6.809   2.963   6.345
 8926SOL    HW127677   6.838   3.050   6.387
 8926SOL    HW227678   6.753   2.912   6.410
 8927SOL     OW27679   0.158   0.931   4.829
 8927SOL    HW127680   0.214   0.851   4.850
 8927SOL    HW227681   0.087   0.940   4.899
 8928SOL     OW27682   1.429   6.990   6.115
 8928SOL    HW127683   1.497   6.961   6.049
 8928SOL    HW227684   1.364   0.034   6.071
 8929SOL     OW27685   5.593   1.526   5.236
 8929SOL    HW127686   5.583   1.487   5.328
 8929SOL    HW227687   5.503   1.555   5.203
 8930SOL     OW27688   1.279   2.912   4.952
 8930SOL    HW127689   1.317   2.941   4.864
 8930SOL    HW227690   1.347   2.923   5.024
 8931SOL     OW27691   3.012   3.730   1.254
 8931SOL    HW127692   2.923   3.776   1.260
 8931SOL    HW227693   3.045   3.709   1.346
 8932SOL     OW27694   5.931   2.301   1.858
 8932SOL    HW127695   5.976   2.380   1.899
 8932SOL    HW227696   5.912   2.321   1.761
 8933SOL     OW27697   2.619   3.108   6.385
 8933SOL    HW127698   2.528   3.114   6.426
 8933SOL    HW227699   2.668   3.029   6.424
 8934SOL     OW27700   2.475   5.659   4.315
 8934SOL    HW127701   2.563   5.657   4.363
 8934SOL    HW227702   2.455   5.569   4.278
 8935SOL     OW27703   0.500   4.513   0.134
 8935SOL    HW127704   0.495   4.599   0.184
 8935SOL    HW227705   0.517   4.531   0.037
 8936SOL     OW27706   1.272   3.884   2.383
 8936SOL    HW127707   1.205   3.810   2.376
 8936SOL    HW227708   1.249   3.942   2.461
 8937SOL     OW27709   0.508   0.209   5.760
 8937SOL    HW127710   0.484   0.294   5.713
 8937SOL    HW227711   0.596   0.221   5.807
 8938SOL     OW27712   0.452   6.270   0.107
 8938SOL    HW127713   0.494   6.230   0.025
 8938SOL    HW227714   0.490   6.227   0.188
 8939SOL     OW27715   5.222   3.932   4.086
 8939SOL    HW127716   5.145   3.886   4.130
 8939SOL    HW227717   5.262   3.999   4.148
 8940SOL     OW27718   0.495   1.467   1.969
 8940SOL    HW127719   0.476   1.562   1.944
 8940SOL    HW227720   0.409   1.418   1.981
 8941SOL     OW27721   6.237   2.649   5.351
 8941SOL    HW127722   6.253   2.702   5.268
 8941SOL    HW227723   6.139   2.638   5.366
 8942SOL     OW27724   6.248   4.940   5.592
 8942SOL    HW127725   6.306   4.947   5.673
 8942SOL    HW227726   6.261   5.021   5.534
 8943SOL     OW27727   3.530   5.104   6.187
 8943SOL    HW127728   3.469   5.074   6.114
 8943SOL    HW227729   3.598   5.032   6.204
 8944SOL     OW27730   5.851   4.936   5.723
 8944SOL    HW127731   5.930   4.902   5.774
 8944SOL    HW227732   5.767   4.899   5.763
 8945SOL     OW27733   1.023   0.496   2.999
 8945SOL    HW127734   1.028   0.480   2.900
 8945SOL    HW227735   1.007   0.410   3.046
 8946SOL     OW27736   3.075   1.456   5.179
 8946SOL    HW127737   3.132   1.378   5.151
 8946SOL    HW227738   3.050   1.509   5.098
 8947SOL     OW27739   1.956   3.369   6.040
 8947SOL    HW127740   1.904   3.437   6.091
 8947SOL    HW227741   2.043   3.409   6.010
 8948SOL     OW27742   5.662   6.084   4.400
 8948SOL    HW127743   5.643   5.996   4.357
 8948SOL    HW227744   5.726   6.071   4.476
 8949SOL     OW27745   3.004   6.608   0.859
 8949SOL    HW127746   3.010   6.535   0.790
 8949SOL    HW227747   2.908   6.628   0.878
 8950SOL     OW27748   4.802   4.403   6.144
 8950SOL    HW127749   4.856   4.319   6.141
 8950SOL    HW227750   4.786   4.436   6.051
 8951SOL     OW27751   1.273   1.736   5.211
 8951SOL    HW127752   1.234   1.645   5.196
 8951SOL    HW227753   1.371   1.728   5.229
 8952SOL     OW27754   1.355   6.577   2.942
 8952SOL    HW127755   1.312   6.554   3.029
 8952SOL    HW227756   1.419   6.505   2.915
 8953SOL     OW27757   1.895   4.000   6.793
 8953SOL    HW127758   1.929   3.973   6.703
 8953SOL    HW227759   1.960   3.971   6.863
 8954SOL     OW27760   0.723   0.412   5.055
 8954SOL    HW127761   0.773   0.480   5.001
 8954SOL    HW227762   0.702   0.333   4.998
 8955SOL     OW27763   0.109   4.885   2.481
 8955SOL    HW127764   0.131   4.980   2.504
 8955SOL    HW227765   0.096   4.877   2.382
 8956SOL     OW27766   1.587   0.755   6.916
 8956SOL    HW127767   1.503   0.707   6.940
 8956SOL    HW227768   1.613   0.816   6.991
 8957SOL     OW27769   2.888   4.715   0.933
 8957SOL    HW127770   2.929   4.640   0.881
 8957SOL    HW227771   2.919   4.802   0.896
 8958SOL     OW27772   0.645   1.467   4.709
 8958SOL    HW127773   0.686   1.378   4.726
 8958SOL    HW227774   0.717   1.537   4.706
 8959SOL     OW27775   1.860   4.643   1.663
 8959SOL    HW127776   1.830   4.720   1.608
 8959SOL    HW227777   1.941   4.602   1.622
 8960SOL     OW27778   4.773   4.563   2.714
 8960SOL    HW127779   4.721   4.647   2.700
 8960SOL    HW227780   4.733   4.490   2.659
 8961SOL     OW27781   2.340   1.039   4.031
 8961SOL    HW127782   2.363   1.015   4.126
 8961SOL    HW227783   2.246   1.074   4.027
 8962SOL     OW27784   6.286   5.570   2.218
 8962SOL    HW127785   6.307   5.529   2.130
 8962SOL    HW227786   6.261   5.498   2.283
 8963SOL     OW27787   3.990   6.017   4.071
 8963SOL    HW127788   3.937   6.016   3.986
 8963SOL    HW227789   4.084   6.045   4.051
 8964SOL     OW27790   4.932   3.416   3.274
 8964SOL    HW127791   4.875   3.334   3.284
 8964SOL    HW227792   5.026   3.389   3.253
 8965SOL     OW27793   2.981   4.945   0.333
 8965SOL    HW127794   2.935   5.032   0.348
 8965SOL    HW227795   2.943   4.876   0.394
 8966SOL     OW27796   6.800   4.310   0.352
 8966SOL    HW127797   6.809   4.407   0.376
 8966SOL    HW227798   6.836   4.254   0.427
 8967SOL     OW27799   4.178   0.560   1.461
 8967SOL    HW127800   4.274   0.534   1.461
 8967SOL    HW227801   4.161   0.626   1.388
 8968SOL     OW27802   4.802   5.402   3.001
 8968SOL    HW127803   4.825   5.329   3.065
 8968SOL    HW227804   4.783   5.363   2.911
 8969SOL     OW27805   6.785   1.341   4.673
 8969SOL    HW127806   6.876   1.309   4.646
 8969SOL    HW227807   6.790   1.436   4.701
 8970SOL     OW27808   2.237   3.095   0.370
 8970SOL    HW127809   2.330   3.132   0.360
 8970SOL    HW227810   2.187   3.107   0.284
 8971SOL     OW27811   5.452   5.412   1.274
 8971SOL    HW127812   5.356   5.438   1.288
 8971SOL    HW227813   5.458   5.314   1.256
 8972SOL     OW27814   5.443   4.543   6.567
 8972SOL    HW127815   5.360   4.566   6.617
 8972SOL    HW227816   5.439   4.448   6.536
 8973SOL     OW27817   0.728   3.212   2.251
 8973SOL    HW127818   0.691   3.158   2.327
 8973SOL    HW227819   0.674   3.195   2.168
 8974SOL     OW27820   0.919   4.561   5.569
 8974SOL    HW127821   0.994   4.497   5.557
 8974SOL    HW227822   0.857   4.555   5.491
 8975SOL     OW27823   1.518   7.016   5.623
 8975SOL    HW127824   1.554   0.019   5.532
 8975SOL    HW227825   1.498   6.918   5.629
 8976SOL     OW27826   6.686   5.083   5.985
 8976SOL    HW127827   6.726   5.152   6.045
 8976SOL    HW227828   6.606   5.043   6.028
 8977SOL     OW27829   6.157   2.513   0.263
 8977SOL    HW127830   6.156   2.598   0.210
 8977SOL    HW227831   6.165   2.535   0.360
 8978SOL     OW27832   6.110   0.413   4.254
 8978SOL    HW127833   6.115   0.321   4.216
 8978SOL    HW227834   6.203   0.446   4.273
 8979SOL     OW27835   1.323   3.949   4.709
 8979SOL    HW127836   1.369   3.890   4.643
 8979SOL    HW227837   1.224   3.935   4.703
 8980SOL     OW27838   3.331   2.751   5.568
 8980SOL    HW127839   3.269   2.676   5.591
 8980SOL    HW227840   3.367   2.737   5.475
 8981SOL     OW27841   4.095   1.420   5.849
 8981SOL    HW127842   4.114   1.379   5.759
 8981SOL    HW227843   4.103   1.351   5.920
 8982SOL     OW27844   0.639   2.586   1.460
 8982SOL    HW127845   0.626   2.680   1.491
 8982SOL    HW227846   0.703   2.539   1.521
 8983SOL     OW27847   1.318   5.688   6.926
 8983SOL    HW127848   1.362   5.633   6.997
 8983SOL    HW227849   1.278   5.769   6.968
 8984SOL     OW27850   6.606   6.799   4.395
 8984SOL    HW127851   6.654   6.824   4.311
 8984SOL    HW227852   6.563   6.709   4.382
 8985SOL     OW27853   2.614   1.901   0.971
 8985SOL    HW127854   2.656   1.959   1.041
 8985SOL    HW227855   2.516   1.919   0.968
 8986SOL     OW27856   4.510   5.156   2.110
 8986SOL    HW127857   4.447   5.117   2.043
 8986SOL    HW227858   4.519   5.093   2.188
 8987SOL     OW27859   5.043   6.787   1.089
 8987SOL    HW127860   4.967   6.852   1.088
 8987SOL    HW227861   5.044   6.739   1.177
 8988SOL     OW27862   1.031   3.469   5.786
 8988SOL    HW127863   1.007   3.372   5.793
 8988SOL    HW227864   1.095   3.494   5.858
 8989SOL     OW27865   4.970   3.779   1.409
 8989SOL    HW127866   4.981   3.701   1.471
 8989SOL    HW227867   4.936   3.746   1.321
 8990SOL     OW27868   1.933   6.088   3.221
 8990SOL    HW127869   1.964   6.032   3.144
 8990SOL    HW227870   2.006   6.149   3.250
 8991SOL     OW27871   1.410   1.240   6.893
 8991SOL    HW127872   1.354   1.322   6.889
 8991SOL    HW227873   1.373   1.171   6.831
 8992SOL     OW27874   5.721   1.795   0.087
 8992SOL    HW127875   5.633   1.756   0.059
 8992SOL    HW227876   5.791   1.724   0.085
 8993SOL     OW27877   4.639   2.147   2.766
 8993SOL    HW127878   4.550   2.192   2.767
 8993SOL    HW227879   4.631   2.061   2.714
 8994SOL     OW27880   1.461   4.766   4.671
 8994SOL    HW127881   1.560   4.765   4.681
 8994SOL    HW227882   1.435   4.718   4.587
 8995SOL     OW27883   0.830   2.649   0.134
 8995SOL    HW127884   0.830   2.574   0.200
 8995SOL    HW227885   0.906   2.711   0.154
 8996SOL     OW27886   6.206   4.911   0.966
 8996SOL    HW127887   6.159   4.961   0.894
 8996SOL    HW227888   6.272   4.848   0.925
 8997SOL     OW27889   4.670   1.179   5.813
 8997SOL    HW127890   4.673   1.079   5.822
 8997SOL    HW227891   4.670   1.220   5.904
 8998SOL     OW27892   6.343   3.619   4.413
 8998SOL    HW127893   6.306   3.679   4.484
 8998SOL    HW227894   6.267   3.572   4.367
 8999SOL     OW27895   5.073   6.516   7.008
 8999SOL    HW127896   5.106   6.532   6.915
 8999SOL    HW227897   5.012   6.436   7.009
 9000SOL     OW27898   1.988   4.185   0.681
 9000SOL    HW127899   1.920   4.129   0.633
 9000SOL    HW227900   2.075   4.136   0.686
 9001SOL     OW27901   1.356   5.479   2.647
 9001SOL    HW127902   1.329   5.568   2.610
 9001SOL    HW227903   1.377   5.417   2.572
 9002SOL     OW27904   0.067   4.945   5.040
 9002SOL    HW127905   6.998   4.916   5.002
 9002SOL    HW227906   0.079   5.043   5.027
 9003SOL     OW27907   5.119   2.929   1.575
 9003SOL    HW127908   5.092   2.994   1.646
 9003SOL    HW227909   5.108   2.835   1.609
 9004SOL     OW27910   3.923   6.648   1.451
 9004SOL    HW127911   3.941   6.721   1.384
 9004SOL    HW227912   3.929   6.559   1.405
 9005SOL     OW27913   5.134   2.375   4.173
 9005SOL    HW127914   5.115   2.328   4.259
 9005SOL    HW227915   5.170   2.466   4.192
 9006SOL     OW27916   2.136   6.761   0.785
 9006SOL    HW127917   2.189   6.836   0.746
 9006SOL    HW227918   2.194   6.708   0.848
 9007SOL     OW27919   3.715   0.893   4.435
 9007SOL    HW127920   3.810   0.883   4.465
 9007SOL    HW227921   3.654   0.865   4.509
 9008SOL     OW27922   1.393   5.821   3.319
 9008SOL    HW127923   1.416   5.769   3.237
 9008SOL    HW227924   1.320   5.774   3.368
 9009SOL     OW27925   3.183   0.239   0.566
 9009SOL    HW127926   3.143   0.245   0.658
 9009SOL    HW227927   3.248   0.163   0.563
 9010SOL     OW27928   1.347   6.434   3.722
 9010SOL    HW127929   1.302   6.392   3.801
 9010SOL    HW227930   1.329   6.533   3.722
 9011SOL     OW27931   5.314   2.412   2.283
 9011SOL    HW127932   5.259   2.357   2.221
 9011SOL    HW227933   5.381   2.354   2.329
 9012SOL     OW27934   2.030   4.140   1.122
 9012SOL    HW127935   1.944   4.190   1.117
 9012SOL    HW227936   2.084   4.157   1.040
 9013SOL     OW27937   6.907   6.632   5.360
 9013SOL    HW127938   6.927   6.540   5.326
 9013SOL    HW227939   6.819   6.631   5.408
 9014SOL     OW27940   6.320   2.094   0.015
 9014SOL    HW127941   6.279   2.031   0.081
 9014SOL    HW227942   6.281   2.185   0.029
 9015SOL     OW27943   5.336   1.306   1.006
 9015SOL    HW127944   5.256   1.254   1.037
 9015SOL    HW227945   5.312   1.358   0.924
 9016SOL     OW27946   0.651   6.563   6.372
 9016SOL    HW127947   0.733   6.541   6.319
 9016SOL    HW227948   0.677   6.603   6.460
 9017SOL     OW27949   4.119   1.934   3.278
 9017SOL    HW127950   4.183   1.884   3.219
 9017SOL    HW227951   4.115   2.029   3.250
 9018SOL     OW27952   3.895   2.206   6.882
 9018SOL    HW127953   3.992   2.212   6.907
 9018SOL    HW227954   3.860   2.299   6.866
 9019SOL     OW27955   1.418   6.629   2.073
 9019SOL    HW127956   1.500   6.667   2.029
 9019SOL    HW227957   1.440   6.541   2.115
 9020SOL     OW27958   0.485   4.296   1.806
 9020SOL    HW127959   0.414   4.259   1.745
 9020SOL    HW227960   0.488   4.395   1.797
 9021SOL     OW27961   6.694   0.105   3.876
 9021SOL    HW127962   6.740   0.037   3.933
 9021SOL    HW227963   6.748   0.189   3.875
 9022SOL     OW27964   3.250   2.361   6.689
 9022SOL    HW127965   3.168   2.348   6.633
 9022SOL    HW227966   3.300   2.275   6.697
 9023SOL     OW27967   3.105   3.112   2.360
 9023SOL    HW127968   3.071   3.114   2.266
 9023SOL    HW227969   3.111   3.205   2.395
 9024SOL     OW27970   0.777   4.838   4.833
 9024SOL    HW127971   0.724   4.794   4.761
 9024SOL    HW227972   0.734   4.821   4.922
 9025SOL     OW27973   1.030   5.236   0.261
 9025SOL    HW127974   0.967   5.287   0.203
 9025SOL    HW227975   1.053   5.291   0.342
 9026SOL     OW27976   4.209   2.983   1.317
 9026SOL    HW127977   4.188   2.992   1.220
 9026SOL    HW227978   4.160   2.905   1.355
 9027SOL     OW27979   1.408   2.522   3.815
 9027SOL    HW127980   1.323   2.510   3.866
 9027SOL    HW227981   1.434   2.436   3.772
 9028SOL     OW27982   2.380   3.509   5.314
 9028SOL    HW127983   2.353   3.570   5.240
 9028SOL    HW227984   2.327   3.529   5.395
 9029SOL     OW27985   3.641   6.633   4.948
 9029SOL    HW127986   3.606   6.658   5.038
 9029SOL    HW227987   3.731   6.675   4.934
 9030SOL     OW27988   2.280   1.596   3.058
 9030SOL    HW127989   2.284   1.634   3.151
 9030SOL    HW227990   2.197   1.628   3.012
 9031SOL     OW27991   4.057   5.296   4.418
 9031SOL    HW127992   4.025   5.280   4.511
 9031SOL    HW227993   4.099   5.386   4.412
 9032SOL     OW27994   3.780   3.034   0.554
 9032SOL    HW127995   3.790   2.995   0.463
 9032SOL    HW227996   3.866   3.077   0.582
 9033SOL     OW27997   0.868   4.195   3.436
 9033SOL    HW127998   0.810   4.140   3.376
 9033SOL    HW227999   0.819   4.278   3.463
 9034SOL     OW28000   2.799   0.579   5.706
 9034SOL    HW128001   2.846   0.601   5.621
 9034SOL    HW228002   2.710   0.538   5.685
 9035SOL     OW28003   1.381   5.019   6.310
 9035SOL    HW128004   1.457   5.009   6.374
 9035SOL    HW228005   1.336   5.107   6.326
 9036SOL     OW28006   1.588   1.428   5.806
 9036SOL    HW128007   1.520   1.372   5.853
 9036SOL    HW228008   1.675   1.424   5.857
 9037SOL     OW28009   0.993   3.973   5.224
 9037SOL    HW128010   1.091   3.992   5.232
 9037SOL    HW228011   0.973   3.931   5.136
 9038SOL     OW28012   4.523   6.890   5.769
 9038SOL    HW128013   4.616   6.928   5.770
 9038SOL    HW228014   4.526   6.795   5.797
 9039SOL     OW28015   2.658   5.701   5.383
 9039SOL    HW128016   2.577   5.707   5.442
 9039SOL    HW228017   2.636   5.647   5.302
 9040SOL     OW28018   3.534   1.672   2.318
 9040SOL    HW128019   3.580   1.624   2.244
 9040SOL    HW228020   3.563   1.633   2.406
 9041SOL     OW28021   0.899   2.471   1.579
 9041SOL    HW128022   0.874   2.399   1.643
 9041SOL    HW228023   0.958   2.434   1.508
 9042SOL     OW28024   3.070   0.380   4.126
 9042SOL    HW128025   3.085   0.471   4.163
 9042SOL    HW228026   3.116   0.312   4.183
 9043SOL     OW28027   1.285   0.931   0.212
 9043SOL    HW128028   1.222   0.909   0.138
 9043SOL    HW228029   1.323   1.023   0.198
 9044SOL     OW28030   6.283   1.056   0.357
 9044SOL    HW128031   6.332   1.127   0.306
 9044SOL    HW228032   6.343   1.019   0.429
 9045SOL     OW28033   2.460   1.228   2.436
 9045SOL    HW128034   2.429   1.234   2.531
 9045SOL    HW228035   2.439   1.314   2.389
 9046SOL     OW28036   3.707   3.534   3.254
 9046SOL    HW128037   3.744   3.525   3.161
 9046SOL    HW228038   3.616   3.493   3.257
 9047SOL     OW28039   1.710   3.242   6.034
 9047SOL    HW128040   1.647   3.314   6.065
 9047SOL    HW228041   1.804   3.276   6.038
 9048SOL     OW28042   5.333   3.041   5.826
 9048SOL    HW128043   5.331   3.141   5.825
 9048SOL    HW228044   5.421   3.009   5.789
 9049SOL     OW28045   3.336   0.207   5.940
 9049SOL    HW128046   3.268   0.145   5.981
 9049SOL    HW228047   3.351   0.285   6.000
 9050SOL     OW28048   0.295   3.133   0.521
 9050SOL    HW128049   0.369   3.151   0.456
 9050SOL    HW228050   0.314   3.049   0.572
 9051SOL     OW28051   3.896   6.680   0.825
 9051SOL    HW128052   3.825   6.626   0.872
 9051SOL    HW228053   3.858   6.717   0.740
 9052SOL     OW28054   2.507   2.008   3.910
 9052SOL    HW128055   2.425   1.990   3.965
 9052SOL    HW228056   2.525   1.928   3.852
 9053SOL     OW28057   1.954   1.195   2.741
 9053SOL    HW128058   1.883   1.237   2.798
 9053SOL    HW228059   2.017   1.143   2.799
 9054SOL     OW28060   3.083   6.227   3.013
 9054SOL    HW128061   3.004   6.186   2.967
 9054SOL    HW228062   3.104   6.316   2.973
 9055SOL     OW28063   5.274   2.588   4.257
 9055SOL    HW128064   5.243   2.567   4.349
 9055SOL    HW228065   5.291   2.686   4.249
 9056SOL     OW28066   0.581   1.553   2.332
 9056SOL    HW128067   0.529   1.575   2.414
 9056SOL    HW228068   0.548   1.609   2.256
 9057SOL     OW28069   4.943   4.165   6.060
 9057SOL    HW128070   4.972   4.073   6.085
 9057SOL    HW228071   5.018   4.210   6.010
 9058SOL     OW28072   2.295   2.137   2.250
 9058SOL    HW128073   2.223   2.205   2.239
 9058SOL    HW228074   2.267   2.069   2.318
 9059SOL     OW28075   0.847   2.394   4.176
 9059SOL    HW128076   0.935   2.403   4.131
 9059SOL    HW228077   0.775   2.432   4.118
 9060SOL     OW28078   6.726   2.773   3.505
 9060SOL    HW128079   6.782   2.758   3.423
 9060SOL    HW228080   6.706   2.870   3.515
 9061SOL     OW28081   2.328   5.591   2.399
 9061SOL    HW128082   2.253   5.607   2.335
 9061SOL    HW228083   2.392   5.668   2.395
 9062SOL     OW28084   1.582   6.064   2.194
 9062SOL    HW128085   1.667   6.023   2.163
 9062SOL    HW228086   1.602   6.142   2.253
 9063SOL     OW28087   2.413   6.987   3.145
 9063SOL    HW128088   2.508   7.009   3.168
 9063SOL    HW228089   2.412   6.916   3.075
 9064SOL     OW28090   6.332   2.006   5.260
 9064SOL    HW128091   6.342   1.946   5.181
 9064SOL    HW228092   6.298   1.954   5.338
 9065SOL     OW28093   3.100   0.141   5.622
 9065SOL    HW128094   3.075   0.190   5.538
 9065SOL    HW228095   3.106   0.206   5.697
 9066SOL     OW28096   4.983   6.028   0.688
 9066SOL    HW128097   5.049   5.960   0.720
 9066SOL    HW228098   4.928   5.990   0.614
 9067SOL     OW28099   0.003   0.669   4.421
 9067SOL    HW128100   0.047   0.687   4.332
 9067SOL    HW228101   6.922   0.666   4.409
 9068SOL     OW28102   2.343   6.583   4.516
 9068SOL    HW128103   2.405   6.661   4.524
 9068SOL    HW228104   2.387   6.501   4.552
 9069SOL     OW28105   1.795   3.224   1.343
 9069SOL    HW128106   1.756   3.262   1.427
 9069SOL    HW228107   1.872   3.280   1.313
 9070SOL     OW28108   1.126   3.808   4.991
 9070SOL    HW128109   1.070   3.854   4.921
 9070SOL    HW228110   1.220   3.801   4.959
 9071SOL     OW28111   5.477   0.252   1.613
 9071SOL    HW128112   5.451   0.210   1.526
 9071SOL    HW228113   5.488   0.350   1.601
 9072SOL     OW28114   6.992   1.757   1.965
 9072SOL    HW128115   0.010   1.751   2.058
 9072SOL    HW228116   6.916   1.692   1.954
 9073SOL     OW28117   3.259   6.871   2.502
 9073SOL    HW128118   3.239   6.814   2.582
 9073SOL    HW228119   3.209   6.958   2.510
 9074SOL     OW28120   1.765   2.077   1.958
 9074SOL    HW128121   1.676   2.095   2.001
 9074SOL    HW228122   1.760   2.099   1.861
 9075SOL     OW28123   0.957   1.385   2.041
 9075SOL    HW128124   0.881   1.334   2.000
 9075SOL    HW228125   0.935   1.406   2.136
 9076SOL     OW28126   6.722   2.261   5.684
 9076SOL    HW128127   6.787   2.268   5.608
 9076SOL    HW228128   6.684   2.168   5.687
 9077SOL     OW28129   4.198   0.464   0.509
 9077SOL    HW128130   4.220   0.504   0.420
 9077SOL    HW228131   4.280   0.466   0.568
 9078SOL     OW28132   4.354   3.400   6.401
 9078SOL    HW128133   4.434   3.341   6.414
 9078SOL    HW228134   4.357   3.439   6.309
 9079SOL     OW28135   3.217   0.380   4.379
 9079SOL    HW128136   3.158   0.459   4.366
 9079SOL    HW228137   3.299   0.391   4.323
 9080SOL     OW28138   4.348   2.471   6.191
 9080SOL    HW128139   4.350   2.406   6.115
 9080SOL    HW228140   4.314   2.559   6.159
 9081SOL     OW28141   3.655   6.890   2.508
 9081SOL    HW128142   3.745   6.851   2.485
 9081SOL    HW228143   3.595   6.817   2.540
 9082SOL     OW28144   2.057   0.326   5.626
 9082SOL    HW128145   2.130   0.269   5.589
 9082SOL    HW228146   1.970   0.301   5.583
 9083SOL     OW28147   3.340   5.619   6.028
 9083SOL    HW128148   3.372   5.623   5.934
 9083SOL    HW228149   3.419   5.623   6.090
 9084SOL     OW28150   3.080   3.954   4.571
 9084SOL    HW128151   3.054   3.967   4.475
 9084SOL    HW228152   3.137   4.030   4.601
 9085SOL     OW28153   2.305   0.212   1.661
 9085SOL    HW128154   2.371   0.182   1.592
 9085SOL    HW228155   2.228   0.256   1.616
 9086SOL     OW28156   1.084   4.513   0.451
 9086SOL    HW128157   1.058   4.578   0.521
 9086SOL    HW228158   1.170   4.468   0.477
 9087SOL     OW28159   4.251   2.175   1.539
 9087SOL    HW128160   4.284   2.081   1.531
 9087SOL    HW228161   4.219   2.192   1.632
 9088SOL     OW28162   0.149   6.754   0.838
 9088SOL    HW128163   0.213   6.679   0.853
 9088SOL    HW228164   0.072   6.747   0.901
 9089SOL     OW28165   5.267   5.678   5.775
 9089SOL    HW128166   5.348   5.628   5.807
 9089SOL    HW228167   5.204   5.614   5.731
 9090SOL     OW28168   0.148   1.196   4.086
 9090SOL    HW128169   0.072   1.181   4.151
 9090SOL    HW228170   0.221   1.245   4.132
 9091SOL     OW28171   3.372   4.396   6.629
 9091SOL    HW128172   3.287   4.352   6.658
 9091SOL    HW228173   3.409   4.449   6.705
 9092SOL     OW28174   6.403   0.840   6.911
 9092SOL    HW128175   6.490   0.828   6.864
 9092SOL    HW228176   6.370   0.933   6.896
 9093SOL     OW28177   0.957   5.892   5.727
 9093SOL    HW128178   1.036   5.852   5.774
 9093SOL    HW228179   0.884   5.824   5.721
 9094SOL     OW28180   6.565   4.567   2.973
 9094SOL    HW128181   6.593   4.472   2.959
 9094SOL    HW228182   6.562   4.614   2.884
 9095SOL     OW28183   4.907   4.655   6.265
 9095SOL    HW128184   4.952   4.570   6.237
 9095SOL    HW228185   4.809   4.640   6.277
 9096SOL     OW28186   6.335   5.138   2.596
 9096SOL    HW128187   6.331   5.202   2.673
 9096SOL    HW228188   6.431   5.122   2.571
 9097SOL     OW28189   1.159   1.799   1.098
 9097SOL    HW128190   1.199   1.817   1.188
 9097SOL    HW228191   1.108   1.880   1.067
 9098SOL     OW28192   3.457   2.012   4.573
 9098SOL    HW128193   3.439   2.053   4.663
 9098SOL    HW228194   3.441   1.913   4.578
 9099SOL     OW28195   3.625   3.269   6.155
 9099SOL    HW128196   3.605   3.241   6.061
 9099SOL    HW228197   3.628   3.369   6.159
 9100SOL     OW28198   0.061   3.116   3.189
 9100SOL    HW128199   6.998   3.088   3.137
 9100SOL    HW228200   0.060   3.072   3.279
 9101SOL     OW28201   2.627   2.492   1.818
 9101SOL    HW128202   2.701   2.494   1.886
 9101SOL    HW228203   2.666   2.471   1.729
 9102SOL     OW28204   3.875   6.342   2.027
 9102SOL    HW128205   3.832   6.251   2.032
 9102SOL    HW228206   3.821   6.401   1.967
 9103SOL     OW28207   5.849   2.462   6.933
 9103SOL    HW128208   5.888   2.370   6.924
 9103SOL    HW228209   5.910   2.529   6.890
 9104SOL     OW28210   6.929   6.527   1.473
 9104SOL    HW128211   6.927   6.466   1.552
 9104SOL    HW228212   6.891   6.616   1.499
 9105SOL     OW28213   0.619   1.220   6.575
 9105SOL    HW128214   0.701   1.179   6.615
 9105SOL    HW228215   0.591   1.299   6.631
 9106SOL     OW28216   5.436   3.823   1.314
 9106SOL    HW128217   5.507   3.816   1.383
 9106SOL    HW228218   5.389   3.735   1.305
 9107SOL     OW28219   2.193   0.947   6.674
 9107SOL    HW128220   2.097   0.965   6.652
 9107SOL    HW228221   2.250   1.023   6.643
 9108SOL     OW28222   5.038   4.198   5.346
 9108SOL    HW128223   5.043   4.199   5.246
 9108SOL    HW228224   5.119   4.152   5.383
 9109SOL     OW28225   6.118   3.606   2.873
 9109SOL    HW128226   6.085   3.554   2.952
 9109SOL    HW228227   6.041   3.652   2.829
 9110SOL     OW28228   1.912   5.228   4.383
 9110SOL    HW128229   1.909   5.286   4.302
 9110SOL    HW228230   1.867   5.274   4.460
 9111SOL     OW28231   4.830   2.782   6.834
 9111SOL    HW128232   4.913   2.745   6.794
 9111SOL    HW228233   4.822   2.749   6.929
 9112SOL     OW28234   2.009   5.942   2.768
 9112SOL    HW128235   2.033   5.865   2.710
 9112SOL    HW228236   1.917   5.974   2.744
 9113SOL     OW28237   5.186   2.671   2.633
 9113SOL    HW128238   5.124   2.599   2.600
 9113SOL    HW228239   5.198   2.740   2.562
 9114SOL     OW28240   6.448   5.361   3.479
 9114SOL    HW128241   6.349   5.349   3.490
 9114SOL    HW228242   6.469   5.458   3.467
 9115SOL     OW28243   5.837   5.554   5.035
 9115SOL    HW128244   5.869   5.521   5.123
 9115SOL    HW228245   5.913   5.592   4.984
 9116SOL     OW28246   0.351   6.693   3.030
 9116SOL    HW128247   0.366   6.594   3.040
 9116SOL    HW228248   0.253   6.709   3.013
 9117SOL     OW28249   3.689   2.853   5.753
 9117SOL    HW128250   3.690   2.792   5.674
 9117SOL    HW228251   3.708   2.947   5.722
 9118SOL     OW28252   6.528   3.421   0.151
 9118SOL    HW128253   6.492   3.329   0.139
 9118SOL    HW228254   6.452   3.486   0.160
 9119SOL     OW28255   3.684   0.959   2.075
 9119SOL    HW128256   3.682   1.021   1.996
 9119SOL    HW228257   3.741   0.998   2.147
 9120SOL     OW28258   0.167   2.014   5.820
 9120SOL    HW128259   0.244   2.038   5.761
 9120SOL    HW228260   0.189   1.932   5.872
 9121SOL     OW28261   3.608   6.214   4.776
 9121SOL    HW128262   3.586   6.306   4.808
 9121SOL    HW228263   3.524   6.164   4.754
 9122SOL     OW28264   2.529   4.576   2.086
 9122SOL    HW128265   2.621   4.601   2.056
 9122SOL    HW228266   2.489   4.511   2.021
 9123SOL     OW28267   2.161   0.738   4.566
 9123SOL    HW128268   2.093   0.739   4.493
 9123SOL    HW228269   2.216   0.655   4.559
 9124SOL     OW28270   3.851   5.398   0.764
 9124SOL    HW128271   3.793   5.325   0.729
 9124SOL    HW228272   3.830   5.415   0.861
 9125SOL     OW28273   3.957   4.542   1.271
 9125SOL    HW128274   3.927   4.492   1.190
 9125SOL    HW228275   3.963   4.479   1.349
 9126SOL     OW28276   5.038   3.801   1.689
 9126SOL    HW128277   5.111   3.865   1.712
 9126SOL    HW228278   5.072   3.707   1.698
 9127SOL     OW28279   6.661   1.974   5.851
 9127SOL    HW128280   6.752   2.014   5.854
 9127SOL    HW228281   6.662   1.892   5.794
 9128SOL     OW28282   6.019   2.288   5.488
 9128SOL    HW128283   6.023   2.193   5.521
 9128SOL    HW228284   6.084   2.300   5.414
 9129SOL     OW28285   6.195   1.898   0.206
 9129SOL    HW128286   6.223   1.805   0.230
 9129SOL    HW228287   6.153   1.941   0.286
 9130SOL     OW28288   1.199   4.659   6.167
 9130SOL    HW128289   1.165   4.595   6.098
 9130SOL    HW228290   1.166   4.632   6.257
 9131SOL     OW28291   5.101   3.534   6.075
 9131SOL    HW128292   5.174   3.597   6.049
 9131SOL    HW228293   5.031   3.533   6.003
 9132SOL     OW28294   1.037   5.268   4.515
 9132SOL    HW128295   0.962   5.312   4.565
 9132SOL    HW228296   1.040   5.171   4.539
 9133SOL     OW28297   3.449   0.330   1.203
 9133SOL    HW128298   3.451   0.300   1.298
 9133SOL    HW228299   3.500   0.415   1.193
 9134SOL     OW28300   4.329   5.281   1.242
 9134SOL    HW128301   4.410   5.327   1.206
 9134SOL    HW228302   4.318   5.303   1.339
 9135SOL     OW28303   1.004   6.496   1.367
 9135SOL    HW128304   1.079   6.478   1.431
 9135SOL    HW228305   0.962   6.584   1.390
 9136SOL     OW28306   4.747   5.962   5.601
 9136SOL    HW128307   4.742   5.970   5.501
 9136SOL    HW228308   4.693   5.884   5.631
 9137SOL     OW28309   3.600   0.744   6.805
 9137SOL    HW128310   3.526   0.792   6.853
 9137SOL    HW228311   3.630   0.799   6.726
 9138SOL     OW28312   1.373   3.920   6.243
 9138SOL    HW128313   1.353   4.008   6.199
 9138SOL    HW228314   1.310   3.906   6.320
 9139SOL     OW28315   1.327   1.388   2.063
 9139SOL    HW128316   1.263   1.400   2.139
 9139SOL    HW228317   1.279   1.404   1.977
 9140SOL     OW28318   1.114   4.357   1.849
 9140SOL    HW128319   1.140   4.387   1.941
 9140SOL    HW228320   1.061   4.272   1.855
 9141SOL     OW28321   6.362   6.741   0.185
 9141SOL    HW128322   6.376   6.765   0.089
 9141SOL    HW228323   6.423   6.667   0.210
 9142SOL     OW28324   0.451   3.841   1.490
 9142SOL    HW128325   0.402   3.906   1.433
 9142SOL    HW228326   0.385   3.788   1.544
 9143SOL     OW28327   0.128   4.332   1.342
 9143SOL    HW128328   0.149   4.282   1.425
 9143SOL    HW228329   0.038   4.306   1.308
 9144SOL     OW28330   3.637   5.354   4.563
 9144SOL    HW128331   3.595   5.352   4.654
 9144SOL    HW228332   3.714   5.418   4.564
 9145SOL     OW28333   1.461   5.756   6.686
 9145SOL    HW128334   1.418   5.745   6.775
 9145SOL    HW228335   1.558   5.732   6.693
 9146SOL     OW28336   5.526   3.505   2.472
 9146SOL    HW128337   5.466   3.462   2.540
 9146SOL    HW228338   5.562   3.590   2.509
 9147SOL     OW28339   6.868   0.417   5.072
 9147SOL    HW128340   6.883   0.320   5.050
 9147SOL    HW228341   6.888   0.472   4.991
 9148SOL     OW28342   5.877   6.624   1.959
 9148SOL    HW128343   5.914   6.632   1.866
 9148SOL    HW228344   5.940   6.666   2.024
 9149SOL     OW28345   5.775   2.943   2.044
 9149SOL    HW128346   5.703   2.895   2.093
 9149SOL    HW228347   5.837   2.986   2.109
 9150SOL     OW28348   3.663   4.354   1.096
 9150SOL    HW128349   3.582   4.352   1.037
 9150SOL    HW228350   3.722   4.430   1.067
 9151SOL     OW28351   2.164   3.944   3.345
 9151SOL    HW128352   2.197   4.007   3.416
 9151SOL    HW228353   2.216   3.959   3.261
 9152SOL     OW28354   1.812   4.420   4.337
 9152SOL    HW128355   1.781   4.501   4.287
 9152SOL    HW228356   1.735   4.357   4.348
 9153SOL     OW28357   0.188   2.618   6.828
 9153SOL    HW128358   0.193   2.544   6.762
 9153SOL    HW228359   0.136   2.694   6.790
 9154SOL     OW28360   5.246   3.976   3.443
 9154SOL    HW128361   5.270   4.073   3.438
 9154SOL    HW228362   5.200   3.949   3.359
 9155SOL     OW28363   2.435   4.777   2.817
 9155SOL    HW128364   2.390   4.866   2.803
 9155SOL    HW228365   2.454   4.764   2.914
 9156SOL     OW28366   6.533   2.299   1.807
 9156SOL    HW128367   6.622   2.264   1.836
 9156SOL    HW228368   6.520   2.391   1.844
 9157SOL     OW28369   3.066   4.348   6.634
 9157SOL    HW128370   3.047   4.433   6.683
 9157SOL    HW228371   3.043   4.270   6.692
 9158SOL     OW28372   6.509   3.738   4.260
 9158SOL    HW128373   6.442   3.696   4.322
 9158SOL    HW228374   6.472   3.738   4.167
 9159SOL     OW28375   1.716   0.394   3.689
 9159SOL    HW128376   1.794   0.367   3.745
 9159SOL    HW228377   1.745   0.409   3.595
 9160SOL     OW28378   0.346   5.835   5.526
 9160SOL    HW128379   0.287   5.915   5.511
 9160SOL    HW228380   0.363   5.825   5.623
 9161SOL     OW28381   6.371   4.832   3.219
 9161SOL    HW128382   6.278   4.863   3.201
 9161SOL    HW228383   6.393   4.754   3.161
 9162SOL     OW28384   3.969   0.416   3.026
 9162SOL    HW128385   3.949   0.373   3.114
 9162SOL    HW228386   3.900   0.486   3.006
 9163SOL     OW28387   6.784   3.660   2.806
 9163SOL    HW128388   6.726   3.741   2.819
 9163SOL    HW228389   6.738   3.597   2.744
 9164SOL     OW28390   1.872   1.039   6.947
 9164SOL    HW128391   1.855   0.945   6.916
 9164SOL    HW228392   1.785   1.088   6.954
 9165SOL     OW28393   4.590   1.495   6.100
 9165SOL    HW128394   4.554   1.509   6.192
 9165SOL    HW228395   4.620   1.583   6.062
 9166SOL     OW28396   4.417   5.122   0.862
 9166SOL    HW128397   4.352   5.150   0.932
 9166SOL    HW228398   4.385   5.153   0.772
 9167SOL     OW28399   1.556   2.438   6.105
 9167SOL    HW128400   1.617   2.367   6.140
 9167SOL    HW228401   1.472   2.396   6.071
 9168SOL     OW28402   6.583   5.964   6.709
 9168SOL    HW128403   6.610   6.007   6.795
 9168SOL    HW228404   6.653   5.898   6.682
 9169SOL     OW28405   6.230   5.863   6.077
 9169SOL    HW128406   6.167   5.787   6.095
 9169SOL    HW228407   6.273   5.891   6.162
 9170SOL     OW28408   1.898   0.884   6.621
 9170SOL    HW128409   1.911   0.842   6.710
 9170SOL    HW228410   1.930   0.821   6.550
 9171SOL     OW28411   3.145   5.287   0.500
 9171SOL    HW128412   3.053   5.256   0.476
 9171SOL    HW228413   3.139   5.363   0.564
 9172SOL     OW28414   4.425   2.078   4.433
 9172SOL    HW128415   4.514   2.036   4.452
 9172SOL    HW228416   4.356   2.038   4.493
 9173SOL     OW28417   5.992   2.984   4.463
 9173SOL    HW128418   5.911   2.954   4.514
 9173SOL    HW228419   6.074   2.944   4.504
 9174SOL     OW28420   0.906   6.026   0.027
 9174SOL    HW128421   0.892   5.930   0.002
 9174SOL    HW228422   0.992   6.035   0.077
 9175SOL     OW28423   1.343   6.895   0.074
 9175SOL    HW128424   1.322   6.917   0.169
 9175SOL    HW228425   1.344   6.795   0.062
 9176SOL     OW28426   2.651   6.659   1.154
 9176SOL    HW128427   2.683   6.741   1.201
 9176SOL    HW228428   2.645   6.583   1.218
 9177SOL     OW28429   1.605   2.727   3.786
 9177SOL    HW128430   1.562   2.638   3.768
 9177SOL    HW228431   1.699   2.712   3.819
 9178SOL     OW28432   2.440   5.301   6.159
 9178SOL    HW128433   2.433   5.203   6.181
 9178SOL    HW228434   2.416   5.355   6.240
 9179SOL     OW28435   2.283   5.903   5.112
 9179SOL    HW128436   2.224   5.936   5.039
 9179SOL    HW228437   2.379   5.909   5.083
 9180SOL     OW28438   6.459   2.393   3.737
 9180SOL    HW128439   6.545   2.382   3.786
 9180SOL    HW228440   6.383   2.365   3.795
 9181SOL     OW28441   5.280   2.549   3.760
 9181SOL    HW128442   5.287   2.480   3.832
 9181SOL    HW228443   5.255   2.504   3.674
 9182SOL     OW28444   3.263   1.109   3.194
 9182SOL    HW128445   3.216   1.021   3.191
 9182SOL    HW228446   3.206   1.174   3.246
 9183SOL     OW28447   4.764   3.944   6.364
 9183SOL    HW128448   4.665   3.955   6.356
 9183SOL    HW228449   4.804   3.930   6.273
 9184SOL     OW28450   3.762   2.261   1.110
 9184SOL    HW128451   3.806   2.202   1.043
 9184SOL    HW228452   3.768   2.220   1.201
 9185SOL     OW28453   0.683   6.540   5.926
 9185SOL    HW128454   0.729   6.628   5.916
 9185SOL    HW228455   0.752   6.467   5.931
 9186SOL     OW28456   4.691   0.163   5.293
 9186SOL    HW128457   4.727   0.236   5.351
 9186SOL    HW228458   4.614   0.119   5.340
 9187SOL     OW28459   4.177   2.005   6.580
 9187SOL    HW128460   4.167   1.990   6.678
 9187SOL    HW228461   4.140   2.095   6.555
 9188SOL     OW28462   1.148   0.591   1.457
 9188SOL    HW128463   1.202   0.623   1.379
 9188SOL    HW228464   1.078   0.527   1.425
 9189SOL     OW28465   3.080   0.486   3.255
 9189SOL    HW128466   3.085   0.555   3.327
 9189SOL    HW228467   3.113   0.398   3.290
 9190SOL     OW28468   6.754   3.326   5.220
 9190SOL    HW128469   6.829   3.378   5.180
 9190SOL    HW228470   6.711   3.379   5.293
 9191SOL     OW28471   4.662   6.797   6.557
 9191SOL    HW128472   4.709   6.730   6.616
 9191SOL    HW228473   4.647   6.881   6.609
 9192SOL     OW28474   6.007   3.480   6.101
 9192SOL    HW128475   6.045   3.444   6.016
 9192SOL    HW228476   5.942   3.414   6.139
 9193SOL     OW28477   3.362   3.788   3.993
 9193SOL    HW128478   3.319   3.872   3.960
 9193SOL    HW228479   3.448   3.810   4.040
 9194SOL     OW28480   3.487   6.025   1.716
 9194SOL    HW128481   3.438   6.031   1.803
 9194SOL    HW228482   3.422   6.003   1.643
 9195SOL     OW28483   2.307   2.477   4.537
 9195SOL    HW128484   2.397   2.511   4.563
 9195SOL    HW228485   2.317   2.401   4.473
 9196SOL     OW28486   5.957   0.045   3.571
 9196SOL    HW128487   5.887   0.012   3.634
 9196SOL    HW228488   5.919   0.049   3.478
 9197SOL     OW28489   3.638   4.793   0.785
 9197SOL    HW128490   3.699   4.717   0.765
 9197SOL    HW228491   3.688   4.862   0.838
 9198SOL     OW28492   5.704   4.368   5.993
 9198SOL    HW128493   5.752   4.386   5.907
 9198SOL    HW228494   5.770   4.339   6.062
 9199SOL     OW28495   0.440   3.128   6.306
 9199SOL    HW128496   0.403   3.214   6.340
 9199SOL    HW228497   0.364   3.065   6.287
 9200SOL     OW28498   2.027   5.835   6.693
 9200SOL    HW128499   1.953   5.901   6.678
 9200SOL    HW228500   1.988   5.748   6.722
 9201SOL     OW28501   0.438   3.977   1.095
 9201SOL    HW128502   0.405   3.966   1.189
 9201SOL    HW228503   0.364   3.956   1.031
 9202SOL     OW28504   1.124   5.496   4.345
 9202SOL    HW128505   1.104   5.574   4.404
 9202SOL    HW228506   1.096   5.412   4.391
 9203SOL     OW28507   5.365   2.433   6.171
 9203SOL    HW128508   5.299   2.402   6.102
 9203SOL    HW228509   5.357   2.376   6.253
 9204SOL     OW28510   5.071   3.861   3.247
 9204SOL    HW128511   4.986   3.877   3.298
 9204SOL    HW228512   5.103   3.768   3.267
 9205SOL     OW28513   5.386   3.856   2.484
 9205SOL    HW128514   5.313   3.877   2.549
 9205SOL    HW228515   5.450   3.791   2.525
 9206SOL     OW28516   2.930   0.267   4.362
 9206SOL    HW128517   2.986   0.231   4.287
 9206SOL    HW228518   2.917   0.365   4.349
 9207SOL     OW28519   3.530   6.566   5.665
 9207SOL    HW128520   3.542   6.506   5.744
 9207SOL    HW228521   3.486   6.651   5.693
 9208SOL     OW28522   5.442   4.621   2.125
 9208SOL    HW128523   5.421   4.719   2.125
 9208SOL    HW228524   5.400   4.578   2.045
 9209SOL     OW28525   4.473   0.610   2.011
 9209SOL    HW128526   4.519   0.668   1.943
 9209SOL    HW228527   4.485   0.514   1.986
 9210SOL     OW28528   0.808   0.975   1.296
 9210SOL    HW128529   0.785   1.065   1.259
 9210SOL    HW228530   0.863   0.986   1.378
 9211SOL     OW28531   5.179   2.418   5.883
 9211SOL    HW128532   5.123   2.405   5.801
 9211SOL    HW228533   5.266   2.459   5.857
 9212SOL     OW28534   4.846   4.063   4.949
 9212SOL    HW128535   4.916   4.122   4.989
 9212SOL    HW228536   4.843   4.077   4.850
 9213SOL     OW28537   4.937   6.043   4.382
 9213SOL    HW128538   4.931   6.113   4.453
 9213SOL    HW228539   4.927   6.085   4.292
 9214SOL     OW28540   0.242   2.654   5.428
 9214SOL    HW128541   0.302   2.660   5.348
 9214SOL    HW228542   0.270   2.577   5.486
 9215SOL     OW28543   0.553   4.474   2.603
 9215SOL    HW128544   0.605   4.551   2.639
 9215SOL    HW228545   0.583   4.389   2.647
 9216SOL     OW28546   2.526   6.779   4.546
 9216SOL    HW128547   2.562   6.860   4.500
 9216SOL    HW228548   2.595   6.742   4.609
 9217SOL     OW28549   5.523   1.492   6.776
 9217SOL    HW128550   5.582   1.411   6.784
 9217SOL    HW228551   5.527   1.526   6.682
 9218SOL     OW28552   4.329   1.175   6.670
 9218SOL    HW128553   4.232   1.186   6.647
 9218SOL    HW228554   4.374   1.264   6.668
 9219SOL     OW28555   4.389   3.344   5.755
 9219SOL    HW128556   4.424   3.251   5.749
 9219SOL    HW228557   4.447   3.398   5.817
 9220SOL     OW28558   1.890   5.923   2.486
 9220SOL    HW128559   1.975   5.870   2.485
 9220SOL    HW228560   1.817   5.867   2.446
 9221SOL     OW28561   2.696   0.236   5.459
 9221SOL    HW128562   2.661   0.143   5.450
 9221SOL    HW228563   2.645   0.297   5.398
 9222SOL     OW28564   2.509   4.833   4.809
 9222SOL    HW128565   2.464   4.900   4.749
 9222SOL    HW228566   2.480   4.847   4.903
 9223SOL     OW28567   1.124   2.474   3.849
 9223SOL    HW128568   1.042   2.526   3.824
 9223SOL    HW228569   1.105   2.376   3.842
 9224SOL     OW28570   1.406   3.074   3.727
 9224SOL    HW128571   1.368   3.160   3.692
 9224SOL    HW228572   1.439   3.018   3.651
 9225SOL     OW28573   3.904   6.188   6.205
 9225SOL    HW128574   3.959   6.268   6.182
 9225SOL    HW228575   3.875   6.194   6.300
 9226SOL     OW28576   1.305   0.713   1.246
 9226SOL    HW128577   1.320   0.651   1.168
 9226SOL    HW228578   1.390   0.720   1.299
 9227SOL     OW28579   2.349   5.601   1.404
 9227SOL    HW128580   2.445   5.599   1.377
 9227SOL    HW228581   2.295   5.644   1.331
 9228SOL     OW28582   1.979   2.236   6.508
 9228SOL    HW128583   1.896   2.180   6.497
 9228SOL    HW228584   1.995   2.288   6.425
 9229SOL     OW28585   1.003   4.906   6.370
 9229SOL    HW128586   0.947   4.917   6.287
 9229SOL    HW228587   0.946   4.870   6.444
 9230SOL     OW28588   4.886   2.683   3.602
 9230SOL    HW128589   4.965   2.622   3.596
 9230SOL    HW228590   4.917   2.778   3.604
 9231SOL     OW28591   0.750   4.515   5.353
 9231SOL    HW128592   0.780   4.424   5.325
 9231SOL    HW228593   0.771   4.581   5.281
 9232SOL     OW28594   2.674   5.860   1.090
 9232SOL    HW128595   2.739   5.824   1.157
 9232SOL    HW228596   2.599   5.795   1.079
 9233SOL     OW28597   1.261   6.893   0.401
 9233SOL    HW128598   1.218   6.980   0.424
 9233SOL    HW228599   1.192   6.821   0.404
 9234SOL     OW28600   2.492   5.610   0.637
 9234SOL    HW128601   2.537   5.662   0.709
 9234SOL    HW228602   2.449   5.673   0.572
 9235SOL     OW28603   2.450   2.636   3.224
 9235SOL    HW128604   2.394   2.715   3.251
 9235SOL    HW228605   2.457   2.634   3.124
 9236SOL     OW28606   2.489   3.155   6.684
 9236SOL    HW128607   2.533   3.236   6.646
 9236SOL    HW228608   2.515   3.146   6.780
 9237SOL     OW28609   0.245   5.729   2.799
 9237SOL    HW128610   0.229   5.821   2.833
 9237SOL    HW228611   0.207   5.662   2.863
 9238SOL     OW28612   2.960   2.363   6.164
 9238SOL    HW128613   2.948   2.264   6.169
 9238SOL    HW228614   3.015   2.386   6.084
 9239SOL     OW28615   6.668   4.640   6.486
 9239SOL    HW128616   6.667   4.546   6.521
 9239SOL    HW228617   6.587   4.655   6.429
 9240SOL     OW28618   5.148   3.022   2.874
 9240SOL    HW128619   5.115   2.929   2.889
 9240SOL    HW228620   5.128   3.050   2.781
 9241SOL     OW28621   0.281   5.607   0.576
 9241SOL    HW128622   0.353   5.671   0.604
 9241SOL    HW228623   0.284   5.596   0.476
 9242SOL     OW28624   2.204   3.360   1.625
 9242SOL    HW128625   2.255   3.405   1.698
 9242SOL    HW228626   2.106   3.365   1.644
 9243SOL     OW28627   0.776   0.412   2.042
 9243SOL    HW128628   0.710   0.349   2.000
 9243SOL    HW228629   0.842   0.361   2.097
 9244SOL     OW28630   2.455   6.473   6.175
 9244SOL    HW128631   2.356   6.473   6.183
 9244SOL    HW228632   2.481   6.436   6.086
 9245SOL     OW28633   0.066   4.528   4.106
 9245SOL    HW128634   0.082   4.456   4.173
 9245SOL    HW228635   0.096   4.616   4.143
 9246SOL     OW28636   6.258   0.223   3.911
 9246SOL    HW128637   6.194   0.258   3.842
 9246SOL    HW228638   6.340   0.278   3.911
 9247SOL     OW28639   4.016   5.201   3.297
 9247SOL    HW128640   4.012   5.300   3.310
 9247SOL    HW228641   4.112   5.172   3.291
 9248SOL     OW28642   2.928   2.124   5.231
 9248SOL    HW128643   2.880   2.164   5.153
 9248SOL    HW228644   2.954   2.030   5.208
 9249SOL     OW28645   4.587   5.330   1.136
 9249SOL    HW128646   4.592   5.410   1.077
 9249SOL    HW228647   4.678   5.309   1.172
 9250SOL     OW28648   6.708   3.018   3.960
 9250SOL    HW128649   6.737   2.925   3.940
 9250SOL    HW228650   6.738   3.043   4.052
 9251SOL     OW28651   4.562   1.900   2.000
 9251SOL    HW128652   4.465   1.919   1.985
 9251SOL    HW228653   4.572   1.817   2.054
 9252SOL     OW28654   5.500   0.509   4.779
 9252SOL    HW128655   5.497   0.582   4.710
 9252SOL    HW228656   5.446   0.537   4.858
 9253SOL     OW28657   5.175   5.371   5.985
 9253SOL    HW128658   5.122   5.454   5.999
 9253SOL    HW228659   5.248   5.365   6.053
 9254SOL     OW28660   4.934   5.068   2.583
 9254SOL    HW128661   4.990   4.989   2.606
 9254SOL    HW228662   4.874   5.047   2.506
 9255SOL     OW28663   5.153   3.184   6.383
 9255SOL    HW128664   5.159   3.274   6.426
 9255SOL    HW228665   5.237   3.133   6.399
 9256SOL     OW28666   1.962   0.087   1.546
 9256SOL    HW128667   1.970   0.052   1.639
 9256SOL    HW228668   2.041   0.056   1.492
 9257SOL     OW28669   5.827   5.780   3.032
 9257SOL    HW128670   5.730   5.769   3.011
 9257SOL    HW228671   5.837   5.844   3.109
 9258SOL     OW28672   4.078   3.255   1.059
 9258SOL    HW128673   4.039   3.239   1.150
 9258SOL    HW228674   4.120   3.345   1.056
 9259SOL     OW28675   1.722   1.065   0.318
 9259SOL    HW128676   1.706   1.163   0.310
 9259SOL    HW228677   1.804   1.048   0.372
 9260SOL     OW28678   6.876   3.022   5.773
 9260SOL    HW128679   6.973   3.010   5.793
 9260SOL    HW228680   6.855   3.119   5.766
 9261SOL     OW28681   4.766   0.877   6.454
 9261SOL    HW128682   4.676   0.846   6.485
 9261SOL    HW228683   4.794   0.824   6.374
 9262SOL     OW28684   1.223   6.391   5.354
 9262SOL    HW128685   1.136   6.387   5.402
 9262SOL    HW228686   1.232   6.313   5.293
 9263SOL     OW28687   3.184   5.268   2.344
 9263SOL    HW128688   3.156   5.336   2.412
 9263SOL    HW228689   3.115   5.196   2.338
 9264SOL     OW28690   4.557   3.220   0.201
 9264SOL    HW128691   4.576   3.172   0.287
 9264SOL    HW228692   4.460   3.244   0.198
 9265SOL     OW28693   3.948   2.608   6.386
 9265SOL    HW128694   4.023   2.669   6.412
 9265SOL    HW228695   3.894   2.651   6.314
 9266SOL     OW28696   0.403   5.864   1.519
 9266SOL    HW128697   0.473   5.859   1.590
 9266SOL    HW228698   0.389   5.959   1.493
 9267SOL     OW28699   0.564   2.269   4.043
 9267SOL    HW128700   0.577   2.191   4.105
 9267SOL    HW228701   0.567   2.354   4.095
 9268SOL     OW28702   1.123   6.580   2.483
 9268SOL    HW128703   1.099   6.579   2.580
 9268SOL    HW228704   1.223   6.578   2.473
 9269SOL     OW28705   3.805   0.114   6.422
 9269SOL    HW128706   3.816   0.206   6.461
 9269SOL    HW228707   3.708   0.094   6.412
 9270SOL     OW28708   3.998   0.795   5.488
 9270SOL    HW128709   3.969   0.828   5.398
 9270SOL    HW228710   4.046   0.868   5.537
 9271SOL     OW28711   6.754   0.355   0.317
 9271SOL    HW128712   6.803   0.370   0.231
 9271SOL    HW228713   6.728   0.258   0.323
 9272SOL     OW28714   0.857   6.054   6.418
 9272SOL    HW128715   0.854   6.154   6.405
 9272SOL    HW228716   0.778   6.013   6.372
 9273SOL     OW28717   5.901   6.036   2.622
 9273SOL    HW128718   5.832   5.972   2.657
 9273SOL    HW228719   5.919   6.107   2.690
 9274SOL     OW28720   6.763   2.376   6.947
 9274SOL    HW128721   6.712   2.397   0.013
 9274SOL    HW228722   6.810   2.288   6.958
 9275SOL     OW28723   0.144   6.588   6.994
 9275SOL    HW128724   0.180   6.661   0.033
 9275SOL    HW228725   0.184   6.594   6.902
 9276SOL     OW28726   2.006   5.133   6.636
 9276SOL    HW128727   1.992   5.039   6.604
 9276SOL    HW228728   2.072   5.179   6.577
 9277SOL     OW28729   3.696   5.562   2.547
 9277SOL    HW128730   3.725   5.535   2.455
 9277SOL    HW228731   3.677   5.481   2.601
 9278SOL     OW28732   1.322   0.597   5.496
 9278SOL    HW128733   1.404   0.654   5.499
 9278SOL    HW228734   1.336   0.517   5.555
 9279SOL     OW28735   3.735   6.968   1.885
 9279SOL    HW128736   3.735   0.032   1.943
 9279SOL    HW228737   3.662   6.907   1.913
 9280SOL     OW28738   2.313   1.871   2.701
 9280SOL    HW128739   2.343   1.894   2.608
 9280SOL    HW228740   2.252   1.942   2.735
 9281SOL     OW28741   3.456   3.865   6.395
 9281SOL    HW128742   3.532   3.902   6.342
 9281SOL    HW228743   3.402   3.941   6.432
 9282SOL     OW28744   4.309   1.051   4.242
 9282SOL    HW128745   4.363   1.119   4.191
 9282SOL    HW228746   4.250   1.001   4.179
 9283SOL     OW28747   5.225   0.233   5.473
 9283SOL    HW128748   5.319   0.221   5.506
 9283SOL    HW228749   5.224   0.226   5.373
 9284SOL     OW28750   2.902   3.507   5.580
 9284SOL    HW128751   2.832   3.439   5.559
 9284SOL    HW228752   2.900   3.579   5.511
 9285SOL     OW28753   5.294   3.335   0.841
 9285SOL    HW128754   5.241   3.403   0.789
 9285SOL    HW228755   5.239   3.300   0.916
 9286SOL     OW28756   5.167   5.503   0.556
 9286SOL    HW128757   5.216   5.416   0.553
 9286SOL    HW228758   5.172   5.542   0.648
 9287SOL     OW28759   3.732   4.225   5.689
 9287SOL    HW128760   3.760   4.155   5.623
 9287SOL    HW228761   3.633   4.236   5.685
 9288SOL     OW28762   4.755   1.949   2.941
 9288SOL    HW128763   4.680   1.903   2.893
 9288SOL    HW228764   4.771   2.039   2.900
 9289SOL     OW28765   4.156   0.950   6.869
 9289SOL    HW128766   4.185   1.016   6.938
 9289SOL    HW228767   4.226   0.942   6.798
 9290SOL     OW28768   6.332   0.819   3.741
 9290SOL    HW128769   6.384   0.849   3.821
 9290SOL    HW228770   6.311   0.722   3.749
 9291SOL     OW28771   1.815   6.064   6.126
 9291SOL    HW128772   1.841   6.160   6.113
 9291SOL    HW228773   1.889   6.005   6.094
 9292SOL     OW28774   1.899   1.274   6.811
 9292SOL    HW128775   1.799   1.280   6.813
 9292SOL    HW228776   1.927   1.182   6.838
 9293SOL     OW28777   5.457   3.442   6.517
 9293SOL    HW128778   5.526   3.475   6.580
 9293SOL    HW228779   5.484   3.463   6.423
 9294SOL     OW28780   4.977   0.904   6.623
 9294SOL    HW128781   4.946   0.917   6.717
 9294SOL    HW228782   4.898   0.888   6.564
 9295SOL     OW28783   6.733   0.808   5.034
 9295SOL    HW128784   6.737   0.728   5.093
 9295SOL    HW228785   6.650   0.860   5.053
 9296SOL     OW28786   2.147   5.161   0.501
 9296SOL    HW128787   2.066   5.148   0.558
 9296SOL    HW228788   2.176   5.257   0.505
 9297SOL     OW28789   0.493   6.535   3.462
 9297SOL    HW128790   0.492   6.617   3.520
 9297SOL    HW228791   0.410   6.533   3.406
 9298SOL     OW28792   1.286   6.323   6.513
 9298SOL    HW128793   1.248   6.413   6.491
 9298SOL    HW228794   1.384   6.322   6.494
 9299SOL     OW28795   0.982   1.709   4.018
 9299SOL    HW128796   0.989   1.808   4.029
 9299SOL    HW228797   1.072   1.668   4.030
 9300SOL     OW28798   0.303   5.249   5.175
 9300SOL    HW128799   0.390   5.204   5.154
 9300SOL    HW228800   0.320   5.344   5.203
 9301SOL     OW28801   6.588   4.371   4.938
 9301SOL    HW128802   6.510   4.432   4.926
 9301SOL    HW228803   6.634   4.391   5.024
 9302SOL     OW28804   2.089   3.201   4.427
 9302SOL    HW128805   2.000   3.165   4.398
 9302SOL    HW228806   2.085   3.225   4.524
 9303SOL     OW28807   2.714   4.271   0.108
 9303SOL    HW128808   2.809   4.245   0.095
 9303SOL    HW228809   2.657   4.222   0.041
 9304SOL     OW28810   4.516   5.079   0.543
 9304SOL    HW128811   4.444   5.038   0.598
 9304SOL    HW228812   4.489   5.079   0.446
 9305SOL     OW28813   3.642   1.104   0.740
 9305SOL    HW128814   3.578   1.103   0.817
 9305SOL    HW228815   3.670   1.011   0.718
 9306SOL     OW28816   0.409   4.213   5.414
 9306SOL    HW128817   0.438   4.124   5.378
 9306SOL    HW228818   0.451   4.228   5.503
 9307SOL     OW28819   1.482   4.296   0.265
 9307SOL    HW128820   1.442   4.368   0.322
 9307SOL    HW228821   1.415   4.223   0.252
 9308SOL     OW28822   1.394   4.523   1.718
 9308SOL    HW128823   1.345   4.447   1.676
 9308SOL    HW228824   1.479   4.490   1.758
 9309SOL     OW28825   4.167   6.337   5.601
 9309SOL    HW128826   4.142   6.278   5.524
 9309SOL    HW228827   4.248   6.391   5.575
 9310SOL     OW28828   5.329   6.416   5.521
 9310SOL    HW128829   5.277   6.384   5.443
 9310SOL    HW228830   5.408   6.356   5.536
 9311SOL     OW28831   5.493   4.718   1.309
 9311SOL    HW128832   5.584   4.757   1.293
 9311SOL    HW228833   5.432   4.742   1.234
 9312SOL     OW28834   1.199   2.297   1.073
 9312SOL    HW128835   1.278   2.340   1.117
 9312SOL    HW228836   1.153   2.363   1.013
 9313SOL     OW28837   0.196   0.116   1.325
 9313SOL    HW128838   0.242   0.179   1.263
 9313SOL    HW228839   0.207   0.022   1.292
 9314SOL     OW28840   6.601   3.568   0.912
 9314SOL    HW128841   6.509   3.528   0.917
 9314SOL    HW228842   6.593   3.668   0.913
 9315SOL     OW28843   6.264   0.397   6.028
 9315SOL    HW128844   6.286   0.477   5.973
 9315SOL    HW228845   6.237   0.425   6.120
 9316SOL     OW28846   5.644   0.076   5.467
 9316SOL    HW128847   5.653   0.144   5.394
 9316SOL    HW228848   5.691   0.108   5.549
 9317SOL     OW28849   4.222   5.614   2.901
 9317SOL    HW128850   4.132   5.583   2.872
 9317SOL    HW228851   4.212   5.694   2.961
 9318SOL     OW28852   4.213   6.718   6.979
 9318SOL    HW128853   4.266   6.785   6.926
 9318SOL    HW228854   4.242   6.626   6.955
 9319SOL     OW28855   2.513   2.976   0.659
 9319SOL    HW128856   2.484   2.993   0.565
 9319SOL    HW228857   2.451   2.910   0.701
 9320SOL     OW28858   4.675   0.378   5.478
 9320SOL    HW128859   4.703   0.328   5.560
 9320SOL    HW228860   4.588   0.423   5.494
 9321SOL     OW28861   1.246   1.291   5.728
 9321SOL    HW128862   1.248   1.208   5.671
 9321SOL    HW228863   1.317   1.285   5.798
 9322SOL     OW28864   0.056   4.369   6.138
 9322SOL    HW128865   6.989   4.390   6.187
 9322SOL    HW228866   0.051   4.407   6.046
 9323SOL     OW28867   2.496   1.970   5.043
 9323SOL    HW128868   2.482   2.065   5.069
 9323SOL    HW228869   2.431   1.912   5.093
 9324SOL     OW28870   1.943   3.837   2.551
 9324SOL    HW128871   1.975   3.839   2.456
 9324SOL    HW228872   1.884   3.916   2.568
 9325SOL     OW28873   0.479   6.374   0.754
 9325SOL    HW128874   0.547   6.387   0.681
 9325SOL    HW228875   0.511   6.304   0.817
 9326SOL     OW28876   3.429   4.987   0.019
 9326SOL    HW128877   3.500   4.918   0.036
 9326SOL    HW228878   3.385   4.970   6.948
 9327SOL     OW28879   4.389   0.092   2.827
 9327SOL    HW128880   4.407   0.105   2.925
 9327SOL    HW228881   4.299   0.128   2.805
 9328SOL     OW28882   1.897   0.486   5.046
 9328SOL    HW128883   1.872   0.566   5.100
 9328SOL    HW228884   1.814   0.439   5.015
 9329SOL     OW28885   6.534   5.840   0.651
 9329SOL    HW128886   6.593   5.761   0.669
 9329SOL    HW228887   6.590   5.916   0.616
 9330SOL     OW28888   0.208   0.282   6.075
 9330SOL    HW128889   0.247   0.190   6.080
 9330SOL    HW228890   0.119   0.278   6.030
 9331SOL     OW28891   2.168   1.613   6.351
 9331SOL    HW128892   2.254   1.595   6.398
 9331SOL    HW228893   2.107   1.665   6.411
 9332SOL     OW28894   4.473   5.750   0.808
 9332SOL    HW128895   4.538   5.803   0.755
 9332SOL    HW228896   4.431   5.681   0.750
 9333SOL     OW28897   3.559   5.529   0.044
 9333SOL    HW128898   3.472   5.546   0.090
 9333SOL    HW228899   3.584   5.432   0.053
 9334SOL     OW28900   5.094   0.289   4.625
 9334SOL    HW128901   5.000   0.275   4.594
 9334SOL    HW228902   5.143   0.344   4.558
 9335SOL     OW28903   1.627   1.319   0.240
 9335SOL    HW128904   1.692   1.392   0.215
 9335SOL    HW228905   1.554   1.358   0.296
 9336SOL     OW28906   5.565   0.346   4.183
 9336SOL    HW128907   5.655   0.390   4.193
 9336SOL    HW228908   5.501   0.386   4.249
 9337SOL     OW28909   5.317   0.921   6.397
 9337SOL    HW128910   5.382   0.848   6.376
 9337SOL    HW228911   5.249   0.928   6.324
 9338SOL     OW28912   6.981   6.388   0.967
 9338SOL    HW128913   6.967   6.438   1.053
 9338SOL    HW228914   0.048   6.336   0.973
 9339SOL     OW28915   5.593   5.757   0.467
 9339SOL    HW128916   5.632   5.846   0.492
 9339SOL    HW228917   5.494   5.766   0.455
 9340SOL     OW28918   4.233   4.794   2.714
 9340SOL    HW128919   4.285   4.796   2.799
 9340SOL    HW228920   4.261   4.716   2.658
 9341SOL     OW28921   6.443   3.856   0.711
 9341SOL    HW128922   6.536   3.889   0.727
 9341SOL    HW228923   6.378   3.929   0.731
 9342SOL     OW28924   2.712   0.683   4.426
 9342SOL    HW128925   2.742   0.762   4.479
 9342SOL    HW228926   2.636   0.708   4.367
 9343SOL     OW28927   4.909   3.411   2.082
 9343SOL    HW128928   4.923   3.398   2.180
 9343SOL    HW228929   4.907   3.322   2.036
 9344SOL     OW28930   5.076   5.696   6.671
 9344SOL    HW128931   4.978   5.709   6.685
 9344SOL    HW228932   5.119   5.785   6.655
 9345SOL     OW28933   6.799   4.684   0.764
 9345SOL    HW128934   6.801   4.633   0.850
 9345SOL    HW228935   6.703   4.702   0.739
 9346SOL     OW28936   5.271   6.695   1.942
 9346SOL    HW128937   5.311   6.652   2.023
 9346SOL    HW228938   5.342   6.746   1.893
 9347SOL     OW28939   3.124   5.479   0.695
 9347SOL    HW128940   3.033   5.463   0.733
 9347SOL    HW228941   3.148   5.575   0.706
 9348SOL     OW28942   2.807   5.279   3.270
 9348SOL    HW128943   2.783   5.311   3.178
 9348SOL    HW228944   2.906   5.263   3.275
 9349SOL     OW28945   6.258   5.810   2.082
 9349SOL    HW128946   6.310   5.766   2.009
 9349SOL    HW228947   6.269   5.758   2.167
 9350SOL     OW28948   0.394   2.031   4.699
 9350SOL    HW128949   0.380   1.949   4.754
 9350SOL    HW228950   0.361   2.015   4.606
 9351SOL     OW28951   2.892   0.571   6.394
 9351SOL    HW128952   2.950   0.610   6.465
 9351SOL    HW228953   2.938   0.579   6.305
 9352SOL     OW28954   2.549   3.151   5.813
 9352SOL    HW128955   2.620   3.105   5.866
 9352SOL    HW228956   2.462   3.145   5.861
 9353SOL     OW28957   1.884   4.055   2.074
 9353SOL    HW128958   1.850   3.961   2.086
 9353SOL    HW228959   1.817   4.119   2.111
 9354SOL     OW28960   6.208   1.984   0.496
 9354SOL    HW128961   6.142   1.911   0.513
 9354SOL    HW228962   6.300   1.947   0.500
 9355SOL     OW28963   6.529   1.103   4.275
 9355SOL    HW128964   6.567   1.178   4.329
 9355SOL    HW228965   6.583   1.091   4.191
 9356SOL     OW28966   4.316   5.339   1.509
 9356SOL    HW128967   4.271   5.428   1.508
 9356SOL    HW228968   4.399   5.344   1.566
 9357SOL     OW28969   2.832   3.746   6.808
 9357SOL    HW128970   2.753   3.807   6.810
 9357SOL    HW228971   2.828   3.683   6.885
 9358SOL     OW28972   6.034   3.871   1.807
 9358SOL    HW128973   6.071   3.947   1.860
 9358SOL    HW228974   6.107   3.826   1.757
 9359SOL     OW28975   0.918   3.228   5.819
 9359SOL    HW128976   0.925   3.190   5.727
 9359SOL    HW228977   0.848   3.179   5.870
 9360SOL     OW28978   1.127   6.778   5.885
 9360SOL    HW128979   1.114   6.868   5.844
 9360SOL    HW228980   1.163   6.715   5.816
 9361SOL     OW28981   2.701   6.525   3.779
 9361SOL    HW128982   2.604   6.547   3.774
 9361SOL    HW228983   2.749   6.591   3.836
 9362SOL     OW28984   1.467   1.609   1.937
 9362SOL    HW128985   1.431   1.549   2.009
 9362SOL    HW228986   1.564   1.625   1.952
 9363SOL     OW28987   4.121   5.321   1.828
 9363SOL    HW128988   4.052   5.311   1.900
 9363SOL    HW228989   4.171   5.406   1.842
 9364SOL     OW28990   4.580   3.612   6.122
 9364SOL    HW128991   4.638   3.589   6.200
 9364SOL    HW228992   4.507   3.545   6.114
 9365SOL     OW28993   2.914   1.893   5.578
 9365SOL    HW128994   2.854   1.971   5.564
 9365SOL    HW228995   2.864   1.820   5.624
 9366SOL     OW28996   2.656   1.248   0.256
 9366SOL    HW128997   2.668   1.275   0.352
 9366SOL    HW228998   2.733   1.281   0.202
 9367SOL     OW28999   6.954   5.780   3.425
 9367SOL    HW129000   7.014   5.828   3.361
 9367SOL    HW229001   6.959   5.682   3.408
 9368SOL     OW29002   2.490   1.677   3.262
 9368SOL    HW129003   2.553   1.630   3.200
 9368SOL    HW229004   2.540   1.715   3.339
 9369SOL     OW29005   0.308   0.934   5.827
 9369SOL    HW129006   0.276   0.885   5.909
 9369SOL    HW229007   0.250   1.013   5.811
 9370SOL     OW29008   4.663   0.505   2.527
 9370SOL    HW129009   4.741   0.554   2.487
 9370SOL    HW229010   4.695   0.417   2.563
 9371SOL     OW29011   2.275   4.702   0.932
 9371SOL    HW129012   2.217   4.769   0.886
 9371SOL    HW229013   2.349   4.674   0.871
 9372SOL     OW29014   5.767   6.188   2.816
 9372SOL    HW129015   5.721   6.120   2.873
 9372SOL    HW229016   5.771   6.275   2.865
 9373SOL     OW29017   4.052   2.204   2.756
 9373SOL    HW129018   3.999   2.121   2.739
 9373SOL    HW229019   4.069   2.213   2.854
 9374SOL     OW29020   6.491   3.585   0.644
 9374SOL    HW129021   6.480   3.675   0.686
 9374SOL    HW229022   6.540   3.525   0.708
 9375SOL     OW29023   6.668   1.826   3.243
 9375SOL    HW129024   6.578   1.855   3.209
 9375SOL    HW229025   6.738   1.888   3.208
 9376SOL     OW29026   2.458   4.130   1.651
 9376SOL    HW129027   2.447   4.168   1.560
 9376SOL    HW229028   2.547   4.085   1.658
 9377SOL     OW29029   1.556   5.669   3.986
 9377SOL    HW129030   1.541   5.687   4.084
 9377SOL    HW229031   1.533   5.750   3.933
 9378SOL     OW29032   0.575   0.310   5.272
 9378SOL    HW129033   0.640   0.358   5.212
 9378SOL    HW229034   0.622   0.234   5.317
 9379SOL     OW29035   4.659   5.429   5.544
 9379SOL    HW129036   4.626   5.476   5.462
 9379SOL    HW229037   4.636   5.332   5.539
 9380SOL     OW29038   5.880   4.692   4.794
 9380SOL    HW129039   5.887   4.635   4.876
 9380SOL    HW229040   5.903   4.637   4.713
 9381SOL     OW29041   2.776   2.806   5.845
 9381SOL    HW129042   2.845   2.749   5.889
 9381SOL    HW229043   2.778   2.898   5.885
 9382SOL     OW29044   3.629   1.396   3.072
 9382SOL    HW129045   3.729   1.391   3.067
 9382SOL    HW229046   3.601   1.393   3.168
 9383SOL     OW29047   1.726   6.108   4.364
 9383SOL    HW129048   1.720   6.121   4.463
 9383SOL    HW229049   1.644   6.144   4.320
 9384SOL     OW29050   2.977   6.095   1.480
 9384SOL    HW129051   2.887   6.063   1.452
 9384SOL    HW229052   2.984   6.093   1.579
 9385SOL     OW29053   4.406   0.513   3.236
 9385SOL    HW129054   4.419   0.415   3.252
 9385SOL    HW229055   4.342   0.526   3.160
 9386SOL     OW29056   2.403   6.256   4.325
 9386SOL    HW129057   2.369   6.190   4.393
 9386SOL    HW229058   2.329   6.319   4.301
 9387SOL     OW29059   2.686   1.610   0.032
 9387SOL    HW129060   2.690   1.667   0.114
 9387SOL    HW229061   2.591   1.583   0.014
 9388SOL     OW29062   2.080   5.663   3.153
 9388SOL    HW129063   1.982   5.644   3.153
 9388SOL    HW229064   2.112   5.671   3.247
 9389SOL     OW29065   1.294   6.665   5.067
 9389SOL    HW129066   1.237   6.736   5.107
 9389SOL    HW229067   1.391   6.689   5.080
 9390SOL     OW29068   3.358   5.265   4.965
 9390SOL    HW129069   3.261   5.289   4.961
 9390SOL    HW229070   3.376   5.188   4.903
 9391SOL     OW29071   2.519   0.857   4.722
 9391SOL    HW129072   2.512   0.934   4.786
 9391SOL    HW229073   2.429   0.841   4.681
 9392SOL     OW29074   6.727   0.135   5.425
 9392SOL    HW129075   6.670   0.216   5.411
 9392SOL    HW229076   6.700   0.063   5.361
 9393SOL     OW29077   2.556   0.184   5.098
 9393SOL    HW129078   2.514   0.120   5.033
 9393SOL    HW229079   2.629   0.235   5.053
 9394SOL     OW29080   0.059   1.533   2.143
 9394SOL    HW129081   0.110   1.494   2.067
 9394SOL    HW229082   7.002   1.471   2.168
 9395SOL     OW29083   2.280   1.497   0.325
 9395SOL    HW129084   2.357   1.560   0.314
 9395SOL    HW229085   2.220   1.503   0.245
 9396SOL     OW29086   1.765   5.442   3.468
 9396SOL    HW129087   1.787   5.346   3.455
 9396SOL    HW229088   1.675   5.450   3.510
 9397SOL     OW29089   3.276   0.228   6.983
 9397SOL    HW129090   3.266   0.148   0.025
 9397SOL    HW229091   3.188   0.251   6.942
 9398SOL     OW29092   0.672   0.128   5.456
 9398SOL    HW129093   0.747   0.158   5.515
 9398SOL    HW229094   0.604   0.080   5.512
 9399SOL     OW29095   6.867   1.775   6.371
 9399SOL    HW129096   6.792   1.823   6.414
 9399SOL    HW229097   6.888   1.816   6.282
 9400SOL     OW29098   4.249   1.740   1.956
 9400SOL    HW129099   4.283   1.653   1.990
 9400SOL    HW229100   4.270   1.813   2.021
 9401SOL     OW29101   5.384   6.813   3.440
 9401SOL    HW129102   5.440   6.887   3.479
 9401SOL    HW229103   5.327   6.773   3.511
 9402SOL     OW29104   1.160   4.901   3.668
 9402SOL    HW129105   1.112   4.989   3.675
 9402SOL    HW229106   1.170   4.876   3.572
 9403SOL     OW29107   5.996   1.597   2.302
 9403SOL    HW129108   6.043   1.584   2.389
 9403SOL    HW229109   5.923   1.665   2.313
 9404SOL     OW29110   1.144   3.191   6.426
 9404SOL    HW129111   1.084   3.249   6.371
 9404SOL    HW229112   1.197   3.132   6.365
 9405SOL     OW29113   0.759   5.882   2.094
 9405SOL    HW129114   0.696   5.954   2.066
 9405SOL    HW229115   0.712   5.794   2.093
 9406SOL     OW29116   6.776   2.874   5.980
 9406SOL    HW129117   6.810   2.935   5.909
 9406SOL    HW229118   6.717   2.925   6.043
 9407SOL     OW29119   2.730   5.260   3.587
 9407SOL    HW129120   2.726   5.356   3.561
 9407SOL    HW229121   2.792   5.211   3.525
 9408SOL     OW29122   4.063   1.881   6.380
 9408SOL    HW129123   4.068   1.782   6.391
 9408SOL    HW229124   4.086   1.926   6.466
 9409SOL     OW29125   5.958   4.557   6.704
 9409SOL    HW129126   5.873   4.511   6.731
 9409SOL    HW229127   5.982   4.626   6.772
 9410SOL     OW29128   2.950   6.286   1.934
 9410SOL    HW129129   2.977   6.241   2.019
 9410SOL    HW229130   2.965   6.384   1.942
 9411SOL     OW29131   3.479   3.736   1.875
 9411SOL    HW129132   3.451   3.651   1.920
 9411SOL    HW229133   3.515   3.799   1.942
 9412SOL     OW29134   0.308   3.012   1.874
 9412SOL    HW129135   0.211   3.035   1.879
 9412SOL    HW229136   0.349   3.015   1.965
 9413SOL     OW29137   3.286   6.274   4.289
 9413SOL    HW129138   3.197   6.229   4.293
 9413SOL    HW229139   3.331   6.252   4.202
 9414SOL     OW29140   3.150   0.859   3.190
 9414SOL    HW129141   3.195   0.795   3.127
 9414SOL    HW229142   3.090   0.808   3.252
 9415SOL     OW29143   2.608   6.961   1.705
 9415SOL    HW129144   2.553   0.001   1.645
 9415SOL    HW229145   2.671   0.000   1.758
 9416SOL     OW29146   0.615   1.952   0.882
 9416SOL    HW129147   0.701   1.912   0.850
 9416SOL    HW229148   0.555   1.879   0.915
 9417SOL     OW29149   3.746   6.644   6.002
 9417SOL    HW129150   3.732   6.620   6.098
 9417SOL    HW229151   3.817   6.714   5.996
 9418SOL     OW29152   3.550   6.076   1.314
 9418SOL    HW129153   3.562   6.151   1.379
 9418SOL    HW229154   3.539   6.114   1.222
 9419SOL     OW29155   3.512   5.176   5.750
 9419SOL    HW129156   3.493   5.118   5.830
 9419SOL    HW229157   3.598   5.224   5.763
 9420SOL     OW29158   6.830   2.641   5.374
 9420SOL    HW129159   6.812   2.690   5.289
 9420SOL    HW229160   6.875   2.702   5.439
 9421SOL     OW29161   1.832   6.911   4.859
 9421SOL    HW129162   1.899   6.836   4.865
 9421SOL    HW229163   1.748   6.876   4.817
 9422SOL     OW29164   5.151   6.174   3.284
 9422SOL    HW129165   5.096   6.158   3.366
 9422SOL    HW229166   5.126   6.262   3.243
 9423SOL     OW29167   4.131   0.481   3.699
 9423SOL    HW129168   4.105   0.385   3.710
 9423SOL    HW229169   4.209   0.488   3.637
 9424SOL     OW29170   4.838   0.406   4.853
 9424SOL    HW129171   4.813   0.345   4.778
 9424SOL    HW229172   4.808   0.366   4.940
 9425SOL     OW29173   6.592   3.429   6.360
 9425SOL    HW129174   6.562   3.404   6.268
 9425SOL    HW229175   6.576   3.527   6.375
 9426SOL     OW29176   2.941   1.942   0.381
 9426SOL    HW129177   2.912   2.005   0.309
 9426SOL    HW229178   3.041   1.935   0.382
 9427SOL     OW29179   2.794   5.738   4.320
 9427SOL    HW129180   2.799   5.710   4.224
 9427SOL    HW229181   2.800   5.658   4.379
 9428SOL     OW29182   5.881   0.864   1.037
 9428SOL    HW129183   5.782   0.848   1.037
 9428SOL    HW229184   5.928   0.778   1.054
 9429SOL     OW29185   2.055   3.633   2.124
 9429SOL    HW129186   1.991   3.575   2.174
 9429SOL    HW229187   2.127   3.577   2.084
 9430SOL     OW29188   0.395   4.636   2.459
 9430SOL    HW129189   0.305   4.600   2.434
 9430SOL    HW229190   0.453   4.561   2.491
 9431SOL     OW29191   5.853   3.974   1.431
 9431SOL    HW129192   5.825   3.942   1.521
 9431SOL    HW229193   5.929   4.039   1.440
 9432SOL     OW29194   4.700   0.495   3.477
 9432SOL    HW129195   4.702   0.400   3.446
 9432SOL    HW229196   4.722   0.556   3.401
 9433SOL     OW29197   3.719   5.163   3.286
 9433SOL    HW129198   3.682   5.076   3.319
 9433SOL    HW229199   3.819   5.162   3.295
 9434SOL     OW29200   5.169   4.942   3.644
 9434SOL    HW129201   5.216   5.021   3.605
 9434SOL    HW229202   5.134   4.966   3.735
 9435SOL     OW29203   0.759   2.660   4.838
 9435SOL    HW129204   0.741   2.729   4.908
 9435SOL    HW229205   0.839   2.688   4.784
 9436SOL     OW29206   1.100   3.233   1.886
 9436SOL    HW129207   1.076   3.282   1.970
 9436SOL    HW229208   1.169   3.284   1.836
 9437SOL     OW29209   2.441   6.442   3.585
 9437SOL    HW129210   2.430   6.458   3.683
 9437SOL    HW229211   2.474   6.349   3.571
 9438SOL     OW29212   6.933   0.023   1.583
 9438SOL    HW129213   0.013   0.035   1.599
 9438SOL    HW229214   6.889   0.113   1.575
 9439SOL     OW29215   0.319   3.339   1.717
 9439SOL    HW129216   0.271   3.307   1.635
 9439SOL    HW229217   0.418   3.334   1.701
 9440SOL     OW29218   4.127   4.796   3.772
 9440SOL    HW129219   4.145   4.895   3.770
 9440SOL    HW229220   4.029   4.780   3.765
 9441SOL     OW29221   1.425   3.551   5.321
 9441SOL    HW129222   1.428   3.647   5.347
 9441SOL    HW229223   1.346   3.534   5.261
 9442SOL     OW29224   4.571   3.455   0.357
 9442SOL    HW129225   4.579   3.392   0.279
 9442SOL    HW229226   4.658   3.503   0.368
 9443SOL     OW29227   2.614   5.338   1.181
 9443SOL    HW129228   2.574   5.354   1.271
 9443SOL    HW229229   2.583   5.249   1.146
 9444SOL     OW29230   1.705   4.063   6.593
 9444SOL    HW129231   1.773   4.062   6.667
 9444SOL    HW229232   1.713   3.978   6.541
 9445SOL     OW29233   5.687   3.583   2.957
 9445SOL    HW129234   5.698   3.599   3.055
 9445SOL    HW229235   5.613   3.519   2.941
 9446SOL     OW29236   6.622   6.153   4.348
 9446SOL    HW129237   6.676   6.133   4.430
 9446SOL    HW229238   6.531   6.186   4.375
 9447SOL     OW29239   6.045   3.232   4.374
 9447SOL    HW129240   5.951   3.263   4.359
 9447SOL    HW229241   6.044   3.138   4.406
 9448SOL     OW29242   6.847   6.652   6.588
 9448SOL    HW129243   6.820   6.556   6.586
 9448SOL    HW229244   6.779   6.705   6.639
 9449SOL     OW29245   6.592   5.659   6.986
 9449SOL    HW129246   6.560   5.631   6.895
 9449SOL    HW229247   6.609   5.579   0.024
 9450SOL     OW29248   2.784   5.953   5.255
 9450SOL    HW129249   2.817   5.873   5.204
 9450SOL    HW229250   2.751   5.924   5.345
 9451SOL     OW29251   4.022   6.422   6.125
 9451SOL    HW129252   4.066   6.387   6.042
 9451SOL    HW229253   4.085   6.482   6.174
 9452SOL     OW29254   1.466   3.825   0.246
 9452SOL    HW129255   1.432   3.767   0.320
 9452SOL    HW229256   1.406   3.904   0.235
 9453SOL     OW29257   2.347   5.094   3.210
 9453SOL    HW129258   2.360   5.021   3.276
 9453SOL    HW229259   2.271   5.153   3.238
 9454SOL     OW29260   2.527   3.484   6.985
 9454SOL    HW129261   2.489   3.544   6.914
 9454SOL    HW229262   2.543   3.393   6.946
 9455SOL     OW29263   3.764   1.813   2.566
 9455SOL    HW129264   3.669   1.800   2.539
 9455SOL    HW229265   3.819   1.833   2.485
 9456SOL     OW29266   0.640   3.487   0.959
 9456SOL    HW129267   0.591   3.571   0.939
 9456SOL    HW229268   0.735   3.496   0.927
 9457SOL     OW29269   2.075   3.866   5.114
 9457SOL    HW129270   2.030   3.874   5.025
 9457SOL    HW229271   2.119   3.953   5.137
 9458SOL     OW29272   1.622   3.498   0.523
 9458SOL    HW129273   1.707   3.481   0.574
 9458SOL    HW229274   1.619   3.438   0.443
 9459SOL     OW29275   4.975   4.714   2.864
 9459SOL    HW129276   4.915   4.651   2.814
 9459SOL    HW229277   5.043   4.661   2.915
 9460SOL     OW29278   0.430   2.715   4.020
 9460SOL    HW129279   0.372   2.633   4.023
 9460SOL    HW229280   0.386   2.789   4.070
 9461SOL     OW29281   6.489   1.864   2.638
 9461SOL    HW129282   6.450   1.863   2.546
 9461SOL    HW229283   6.557   1.937   2.645
 9462SOL     OW29284   2.136   3.743   2.747
 9462SOL    HW129285   2.063   3.769   2.684
 9462SOL    HW229286   2.167   3.650   2.726
 9463SOL     OW29287   0.458   1.034   1.542
 9463SOL    HW129288   0.362   1.052   1.566
 9463SOL    HW229289   0.462   0.959   1.476
 9464SOL     OW29290   5.524   0.256   1.275
 9464SOL    HW129291   5.450   0.317   1.302
 9464SOL    HW229292   5.599   0.310   1.235
 9465SOL     OW29293   1.438   5.379   3.239
 9465SOL    HW129294   1.394   5.423   3.161
 9465SOL    HW229295   1.409   5.424   3.324
 9466SOL     OW29296   4.670   5.004   5.776
 9466SOL    HW129297   4.729   5.051   5.841
 9466SOL    HW229298   4.698   5.028   5.683
 9467SOL     OW29299   0.886   2.844   1.533
 9467SOL    HW129300   0.936   2.820   1.616
 9467SOL    HW229301   0.788   2.826   1.547
 9468SOL     OW29302   6.178   2.681   6.069
 9468SOL    HW129303   6.198   2.682   6.167
 9468SOL    HW229304   6.191   2.773   6.032
 9469SOL     OW29305   6.144   6.441   1.535
 9469SOL    HW129306   6.061   6.456   1.589
 9469SOL    HW229307   6.119   6.427   1.439
 9470SOL     OW29308   4.283   4.011   5.605
 9470SOL    HW129309   4.375   4.005   5.644
 9470SOL    HW229310   4.287   4.002   5.506
 9471SOL     OW29311   6.632   1.318   4.419
 9471SOL    HW129312   6.542   1.311   4.463
 9471SOL    HW229313   6.701   1.338   4.488
 9472SOL     OW29314   5.615   3.186   4.483
 9472SOL    HW129315   5.678   3.171   4.407
 9472SOL    HW229316   5.668   3.208   4.566
 9473SOL     OW29317   2.839   5.399   5.370
 9473SOL    HW129318   2.744   5.404   5.340
 9473SOL    HW229319   2.873   5.491   5.390
 9474SOL     OW29320   0.044   3.186   0.389
 9474SOL    HW129321   0.131   3.175   0.438
 9474SOL    HW229322   7.013   3.266   0.425
 9475SOL     OW29323   3.189   3.575   6.860
 9475SOL    HW129324   3.256   3.520   6.809
 9475SOL    HW229325   3.109   3.520   6.882
 9476SOL     OW29326   2.962   3.820   5.143
 9476SOL    HW129327   3.058   3.827   5.116
 9476SOL    HW229328   2.907   3.798   5.063
 9477SOL     OW29329   0.443   3.832   2.198
 9477SOL    HW129330   0.512   3.889   2.154
 9477SOL    HW229331   0.480   3.741   2.216
 9478SOL     OW29332   5.520   3.510   6.249
 9478SOL    HW129333   5.520   3.423   6.200
 9478SOL    HW229334   5.567   3.579   6.194
 9479SOL     OW29335   4.218   6.488   6.825
 9479SOL    HW129336   4.247   6.400   6.786
 9479SOL    HW229337   4.255   6.563   6.770
 9480SOL     OW29338   5.157   3.728   0.988
 9480SOL    HW129339   5.059   3.739   0.971
 9480SOL    HW229340   5.205   3.812   0.965
 9481SOL     OW29341   5.298   3.295   2.682
 9481SOL    HW129342   5.257   3.369   2.628
 9481SOL    HW229343   5.254   3.208   2.659
 9482SOL     OW29344   6.616   0.985   3.004
 9482SOL    HW129345   6.571   0.981   3.093
 9482SOL    HW229346   6.715   0.986   3.016
 9483SOL     OW29347   0.823   1.606   1.813
 9483SOL    HW129348   0.735   1.613   1.765
 9483SOL    HW229349   0.887   1.551   1.759
 9484SOL     OW29350   3.959   1.247   3.353
 9484SOL    HW129351   3.986   1.154   3.377
 9484SOL    HW229352   3.894   1.244   3.277
 9485SOL     OW29353   0.829   0.076   1.646
 9485SOL    HW129354   0.868   7.017   1.595
 9485SOL    HW229355   0.856   0.069   1.742
 9486SOL     OW29356   2.828   6.294   1.169
 9486SOL    HW129357   2.892   6.304   1.093
 9486SOL    HW229358   2.878   6.268   1.251
 9487SOL     OW29359   3.067   3.135   3.269
 9487SOL    HW129360   3.027   3.224   3.249
 9487SOL    HW229361   3.142   3.116   3.205
 9488SOL     OW29362   1.420   6.248   0.754
 9488SOL    HW129363   1.401   6.296   0.668
 9488SOL    HW229364   1.404   6.150   0.741
 9489SOL     OW29365   4.274   4.315   1.353
 9489SOL    HW129366   4.294   4.383   1.282
 9489SOL    HW229367   4.344   4.244   1.351
 9490SOL     OW29368   6.932   5.657   1.027
 9490SOL    HW129369   6.878   5.575   1.009
 9490SOL    HW229370   6.991   5.641   1.107
 9491SOL     OW29371   7.000   3.767   3.962
 9491SOL    HW129372   6.950   3.854   3.955
 9491SOL    HW229373   6.943   3.693   3.929
 9492SOL     OW29374   3.505   2.867   2.873
 9492SOL    HW129375   3.502   2.949   2.932
 9492SOL    HW229376   3.458   2.792   2.919
 9493SOL     OW29377   3.852   5.277   3.762
 9493SOL    HW129378   3.907   5.234   3.691
 9493SOL    HW229379   3.773   5.322   3.720
 9494SOL     OW29380   4.484   4.770   1.851
 9494SOL    HW129381   4.420   4.697   1.873
 9494SOL    HW229382   4.443   4.833   1.785
 9495SOL     OW29383   6.749   1.664   3.552
 9495SOL    HW129384   6.726   1.761   3.542
 9495SOL    HW229385   6.686   1.609   3.498
 9496SOL     OW29386   5.716   5.178   1.112
 9496SOL    HW129387   5.707   5.095   1.056
 9496SOL    HW229388   5.636   5.187   1.170
 9497SOL     OW29389   5.946   5.957   6.685
 9497SOL    HW129390   5.895   5.883   6.730
 9497SOL    HW229391   6.037   5.965   6.727
 9498SOL     OW29392   5.310   6.702   4.801
 9498SOL    HW129393   5.249   6.726   4.877
 9498SOL    HW229394   5.297   6.767   4.726
 9499SOL     OW29395   1.949   4.913   6.468
 9499SOL    HW129396   1.929   4.820   6.439
 9499SOL    HW229397   1.864   4.963   6.482
 9500SOL     OW29398   5.429   0.352   0.770
 9500SOL    HW129399   5.428   0.266   0.821
 9500SOL    HW229400   5.491   0.344   0.692
 9501SOL     OW29401   2.846   1.683   5.166
 9501SOL    HW129402   2.847   1.591   5.205
 9501SOL    HW229403   2.907   1.742   5.219
 9502SOL     OW29404   0.039   2.413   5.281
 9502SOL    HW129405   0.127   2.399   5.324
 9502SOL    HW229406   7.007   2.486   5.328
 9503SOL     OW29407   0.037   2.040   1.262
 9503SOL    HW129408   0.121   2.066   1.310
 9503SOL    HW229409   7.007   1.969   1.314
 9504SOL     OW29410   6.917   2.195   0.783
 9504SOL    HW129411   6.955   2.275   0.737
 9504SOL    HW229412   6.970   2.175   0.865
 9505SOL     OW29413   5.550   4.892   3.236
 9505SOL    HW129414   5.580   4.988   3.238
 9505SOL    HW229415   5.491   4.877   3.157
 9506SOL     OW29416   0.451   2.573   6.639
 9506SOL    HW129417   0.426   2.655   6.587
 9506SOL    HW229418   0.479   2.600   6.731
 9507SOL     OW29419   0.997   1.805   3.091
 9507SOL    HW129420   1.043   1.831   3.005
 9507SOL    HW229421   1.033   1.861   3.165
 9508SOL     OW29422   6.555   4.082   0.858
 9508SOL    HW129423   6.494   4.154   0.890
 9508SOL    HW229424   6.590   4.031   0.936
 9509SOL     OW29425   0.277   0.719   5.196
 9509SOL    HW129426   0.322   0.651   5.254
 9509SOL    HW229427   0.326   0.805   5.200
 9510SOL     OW29428   1.103   3.683   2.414
 9510SOL    HW129429   1.046   3.735   2.477
 9510SOL    HW229430   1.144   3.605   2.462
 9511SOL     OW29431   0.425   1.459   0.100
 9511SOL    HW129432   0.433   1.360   0.085
 9511SOL    HW229433   0.360   1.497   0.035
 9512SOL     OW29434   5.670   1.719   1.482
 9512SOL    HW129435   5.585   1.771   1.480
 9512SOL    HW229436   5.725   1.740   1.401
 9513SOL     OW29437   1.516   3.597   5.789
 9513SOL    HW129438   1.443   3.621   5.725
 9513SOL    HW229439   1.519   3.665   5.863
 9514SOL     OW29440   2.270   4.528   6.471
 9514SOL    HW129441   2.292   4.625   6.469
 9514SOL    HW229442   2.341   4.476   6.425
 9515SOL     OW29443   1.372   6.343   1.431
 9515SOL    HW129444   1.351   6.271   1.498
 9515SOL    HW229445   1.471   6.357   1.428
 9516SOL     OW29446   5.398   3.910   4.899
 9516SOL    HW129447   5.498   3.909   4.898
 9516SOL    HW229448   5.364   3.865   4.981
 9517SOL     OW29449   0.685   4.644   1.277
 9517SOL    HW129450   0.665   4.613   1.370
 9517SOL    HW229451   0.784   4.644   1.262
 9518SOL     OW29452   0.909   1.619   0.279
 9518SOL    HW129453   0.895   1.716   0.261
 9518SOL    HW229454   0.968   1.609   0.359
 9519SOL     OW29455   3.352   4.079   4.317
 9519SOL    HW129456   3.334   3.983   4.341
 9519SOL    HW229457   3.266   4.124   4.293
 9520SOL     OW29458   0.863   1.356   3.412
 9520SOL    HW129459   0.835   1.425   3.345
 9520SOL    HW229460   0.947   1.312   3.382
 9521SOL     OW29461   4.363   5.027   1.376
 9521SOL    HW129462   4.367   5.122   1.347
 9521SOL    HW229463   4.269   4.993   1.367
 9522SOL     OW29464   4.038   5.291   1.239
 9522SOL    HW129465   4.040   5.315   1.336
 9522SOL    HW229466   4.101   5.350   1.189
 9523SOL     OW29467   2.438   5.010   4.604
 9523SOL    HW129468   2.533   5.038   4.598
 9523SOL    HW229469   2.405   4.984   4.513
 9524SOL     OW29470   2.636   3.330   0.680
 9524SOL    HW129471   2.649   3.255   0.745
 9524SOL    HW229472   2.672   3.415   0.719
 9525SOL     OW29473   2.380   2.187   5.954
 9525SOL    HW129474   2.285   2.215   5.943
 9525SOL    HW229475   2.383   2.092   5.986
 9526SOL     OW29476   5.419   4.777   1.055
 9526SOL    HW129477   5.372   4.840   0.993
 9526SOL    HW229478   5.518   4.792   1.048
 9527SOL     OW29479   0.670   0.862   4.513
 9527SOL    HW129480   0.615   0.938   4.549
 9527SOL    HW229481   0.750   0.899   4.467
 9528SOL     OW29482   0.019   1.730   1.132
 9528SOL    HW129483   6.974   1.804   1.108
 9528SOL    HW229484   0.045   1.737   1.228
 9529SOL     OW29485   6.161   3.350   6.362
 9529SOL    HW129486   6.065   3.355   6.390
 9529SOL    HW229487   6.219   3.348   6.443
 9530SOL     OW29488   1.969   2.855   3.386
 9530SOL    HW129489   2.038   2.786   3.363
 9530SOL    HW229490   1.936   2.897   3.301
 9531SOL     OW29491   5.047   4.722   2.414
 9531SOL    HW129492   5.080   4.771   2.495
 9531SOL    HW229493   5.042   4.624   2.435
 9532SOL     OW29494   0.237   6.133   1.292
 9532SOL    HW129495   0.204   6.195   1.363
 9532SOL    HW229496   0.181   6.051   1.291
 9533SOL     OW29497   6.674   5.702   5.089
 9533SOL    HW129498   6.715   5.658   5.009
 9533SOL    HW229499   6.728   5.681   5.170
 9534SOL     OW29500   6.663   3.881   5.569
 9534SOL    HW129501   6.629   3.823   5.643
 9534SOL    HW229502   6.594   3.887   5.497
 9535SOL     OW29503   1.429   0.497   5.739
 9535SOL    HW129504   1.440   0.401   5.762
 9535SOL    HW229505   1.399   0.548   5.819
 9536SOL     OW29506   3.212   4.028   5.698
 9536SOL    HW129507   3.190   3.973   5.617
 9536SOL    HW229508   3.156   4.111   5.697
 9537SOL     OW29509   2.960   0.439   4.601
 9537SOL    HW129510   2.936   0.482   4.514
 9537SOL    HW229511   3.025   0.365   4.585
 9538SOL     OW29512   5.936   0.839   3.328
 9538SOL    HW129513   5.836   0.841   3.333
 9538SOL    HW229514   5.972   0.773   3.393
 9539SOL     OW29515   3.628   3.837   4.119
 9539SOL    HW129516   3.716   3.809   4.082
 9539SOL    HW229517   3.617   3.936   4.107
 9540SOL     OW29518   6.003   4.633   4.155
 9540SOL    HW129519   5.979   4.678   4.240
 9540SOL    HW229520   6.101   4.614   4.154
 9541SOL     OW29521   3.032   0.611   5.908
 9541SOL    HW129522   3.078   0.684   5.959
 9541SOL    HW229523   2.962   0.652   5.849
 9542SOL     OW29524   4.993   4.384   4.639
 9542SOL    HW129525   4.986   4.286   4.659
 9542SOL    HW229526   4.982   4.399   4.541
 9543SOL     OW29527   3.671   0.735   5.916
 9543SOL    HW129528   3.748   0.792   5.888
 9543SOL    HW229529   3.589   0.792   5.926
 9544SOL     OW29530   6.908   2.081   3.496
 9544SOL    HW129531   6.907   2.178   3.518
 9544SOL    HW229532   6.992   2.039   3.530
 9545SOL     OW29533   5.609   5.871   4.228
 9545SOL    HW129534   5.572   5.787   4.269
 9545SOL    HW229535   5.657   5.849   4.144
 9546SOL     OW29536   4.278   2.068   5.100
 9546SOL    HW129537   4.338   2.007   5.153
 9546SOL    HW229538   4.254   2.023   5.014
 9547SOL     OW29539   2.832   4.988   4.357
 9547SOL    HW129540   2.881   4.923   4.298
 9547SOL    HW229541   2.840   4.958   4.453
 9548SOL     OW29542   5.698   4.531   5.664
 9548SOL    HW129543   5.791   4.543   5.629
 9548SOL    HW229544   5.661   4.444   5.631
 9549SOL     OW29545   2.566   3.051   1.178
 9549SOL    HW129546   2.587   3.050   1.275
 9549SOL    HW229547   2.470   3.077   1.165
 9550SOL     OW29548   6.638   1.494   0.423
 9550SOL    HW129549   6.606   1.403   0.400
 9550SOL    HW229550   6.684   1.535   0.345
 9551SOL     OW29551   5.723   1.858   6.031
 9551SOL    HW129552   5.632   1.836   6.067
 9551SOL    HW229553   5.790   1.793   6.067
 9552SOL     OW29554   1.691   6.897   3.948
 9552SOL    HW129555   1.772   6.893   4.007
 9552SOL    HW229556   1.671   6.993   3.926
 9553SOL     OW29557   6.180   2.653   6.643
 9553SOL    HW129558   6.156   2.706   6.562
 9553SOL    HW229559   6.188   2.556   6.619
 9554SOL     OW29560   2.855   6.995   1.450
 9554SOL    HW129561   2.887   6.922   1.510
 9554SOL    HW229562   2.876   0.066   1.490
 9555SOL     OW29563   0.504   0.558   2.856
 9555SOL    HW129564   0.449   0.625   2.806
 9555SOL    HW229565   0.512   0.475   2.801
 9556SOL     OW29566   1.840   3.747   1.614
 9556SOL    HW129567   1.850   3.804   1.695
 9556SOL    HW229568   1.922   3.755   1.558
 9557SOL     OW29569   6.786   5.682   2.274
 9557SOL    HW129570   6.700   5.717   2.313
 9557SOL    HW229571   6.819   5.745   2.204
 9558SOL     OW29572   6.060   6.314   4.962
 9558SOL    HW129573   6.015   6.291   5.048
 9558SOL    HW229574   6.140   6.372   4.981
 9559SOL     OW29575   0.339   4.974   1.617
 9559SOL    HW129576   0.260   5.033   1.633
 9559SOL    HW229577   0.395   5.012   1.542
 9560SOL     OW29578   1.815   1.887   3.361
 9560SOL    HW129579   1.740   1.913   3.422
 9560SOL    HW229580   1.784   1.890   3.266
 9561SOL     OW29581   2.093   0.272   0.668
 9561SOL    HW129582   2.079   0.250   0.765
 9561SOL    HW229583   2.120   0.367   0.660
 9562SOL     OW29584   2.468   0.676   5.492
 9562SOL    HW129585   2.509   0.671   5.401
 9562SOL    HW229586   2.496   0.597   5.546
 9563SOL     OW29587   6.844   6.447   0.534
 9563SOL    HW129588   6.924   6.476   0.482
 9563SOL    HW229589   6.807   6.363   0.494
 9564SOL     OW29590   2.982   0.450   0.526
 9564SOL    HW129591   3.037   0.392   0.587
 9564SOL    HW229592   2.971   0.405   0.438
 9565SOL     OW29593   3.624   0.295   4.858
 9565SOL    HW129594   3.648   0.275   4.953
 9565SOL    HW229595   3.527   0.318   4.852
 9566SOL     OW29596   2.086   4.573   6.937
 9566SOL    HW129597   2.046   4.503   6.996
 9566SOL    HW229598   2.065   4.551   6.841
 9567SOL     OW29599   4.816   4.991   1.159
 9567SOL    HW129600   4.726   4.983   1.116
 9567SOL    HW229601   4.824   5.079   1.205
 9568SOL     OW29602   4.130   2.427   6.337
 9568SOL    HW129603   4.200   2.480   6.289
 9568SOL    HW229604   4.059   2.488   6.370
 9569SOL     OW29605   6.741   1.616   2.233
 9569SOL    HW129606   6.790   1.532   2.255
 9569SOL    HW229607   6.804   1.680   2.189
 9570SOL     OW29608   0.944   3.391   2.094
 9570SOL    HW129609   0.913   3.372   2.187
 9570SOL    HW229610   0.989   3.481   2.092
 9571SOL     OW29611   3.800   3.987   6.018
 9571SOL    HW129612   3.843   4.076   6.003
 9571SOL    HW229613   3.722   3.978   5.956
 9572SOL     OW29614   2.305   5.099   1.839
 9572SOL    HW129615   2.217   5.120   1.795
 9572SOL    HW229616   2.374   5.164   1.808
 9573SOL     OW29617   0.467   2.662   6.893
 9573SOL    HW129618   0.492   2.759   6.895
 9573SOL    HW229619   0.369   2.653   6.877
 9574SOL     OW29620   4.138   3.502   3.332
 9574SOL    HW129621   4.110   3.447   3.411
 9574SOL    HW229622   4.220   3.555   3.356
 9575SOL     OW29623   0.315   1.208   1.071
 9575SOL    HW129624   0.259   1.174   1.147
 9575SOL    HW229625   0.260   1.272   1.016
 9576SOL     OW29626   1.905   0.579   1.703
 9576SOL    HW129627   1.842   0.655   1.687
 9576SOL    HW229628   1.999   0.613   1.700
 9577SOL     OW29629   0.984   0.574   6.040
 9577SOL    HW129630   1.011   0.487   6.081
 9577SOL    HW229631   0.886   0.590   6.056
 9578SOL     OW29632   0.328   3.941   3.687
 9578SOL    HW129633   0.386   4.020   3.705
 9578SOL    HW229634   0.386   3.864   3.659
 9579SOL     OW29635   1.717   5.167   2.489
 9579SOL    HW129636   1.658   5.215   2.424
 9579SOL    HW229637   1.660   5.125   2.560
 9580SOL     OW29638   4.756   3.355   0.675
 9580SOL    HW129639   4.661   3.334   0.652
 9580SOL    HW229640   4.815   3.337   0.596
 9581SOL     OW29641   0.518   5.097   5.812
 9581SOL    HW129642   0.550   5.016   5.862
 9581SOL    HW229643   0.467   5.069   5.731
 9582SOL     OW29644   4.820   5.291   6.380
 9582SOL    HW129645   4.869   5.363   6.329
 9582SOL    HW229646   4.826   5.205   6.329
 9583SOL     OW29647   3.826   4.195   1.208
 9583SOL    HW129648   3.754   4.251   1.167
 9583SOL    HW229649   3.913   4.215   1.163
 9584SOL     OW29650   6.650   5.423   0.110
 9584SOL    HW129651   6.647   5.375   0.022
 9584SOL    HW229652   6.686   5.362   0.180
 9585SOL     OW29653   6.880   0.312   4.375
 9585SOL    HW129654   6.839   0.392   4.330
 9585SOL    HW229655   6.816   0.277   4.443
 9586SOL     OW29656   5.727   4.769   2.244
 9586SOL    HW129657   5.716   4.768   2.144
 9586SOL    HW229658   5.816   4.807   2.267
 9587SOL     OW29659   6.929   0.960   1.826
 9587SOL    HW129660   6.887   0.869   1.822
 9587SOL    HW229661   6.935   0.998   1.733
 9588SOL     OW29662   6.428   1.591   1.584
 9588SOL    HW129663   6.358   1.593   1.513
 9588SOL    HW229664   6.388   1.620   1.671
 9589SOL     OW29665   2.420   4.839   6.052
 9589SOL    HW129666   2.506   4.857   6.006
 9589SOL    HW229667   2.349   4.820   5.984
 9590SOL     OW29668   6.448   3.268   2.254
 9590SOL    HW129669   6.519   3.205   2.222
 9590SOL    HW229670   6.462   3.287   2.351
 9591SOL     OW29671   3.490   6.115   6.245
 9591SOL    HW129672   3.492   6.087   6.341
 9591SOL    HW229673   3.401   6.089   6.205
 9592SOL     OW29674   4.110   4.149   1.009
 9592SOL    HW129675   4.076   4.055   1.006
 9592SOL    HW229676   4.205   4.150   0.976
 9593SOL     OW29677   0.181   1.338   5.293
 9593SOL    HW129678   0.186   1.238   5.289
 9593SOL    HW229679   0.086   1.366   5.303
 9594SOL     OW29680   1.565   6.113   3.084
 9594SOL    HW129681   1.486   6.107   3.145
 9594SOL    HW229682   1.597   6.208   3.080
 9595SOL     OW29683   0.877   4.282   5.272
 9595SOL    HW129684   0.974   4.291   5.250
 9595SOL    HW229685   0.827   4.255   5.190
 9596SOL     OW29686   6.818   5.411   6.587
 9596SOL    HW129687   6.907   5.414   6.633
 9596SOL    HW229688   6.777   5.321   6.599
 9597SOL     OW29689   0.676   4.528   1.526
 9597SOL    HW129690   0.676   4.432   1.495
 9597SOL    HW229691   0.619   4.537   1.607
 9598SOL     OW29692   1.120   3.420   4.086
 9598SOL    HW129693   1.182   3.342   4.099
 9598SOL    HW229694   1.174   3.504   4.084
 9599SOL     OW29695   4.125   6.762   4.831
 9599SOL    HW129696   4.148   6.856   4.855
 9599SOL    HW229697   4.029   6.758   4.801
 9600SOL     OW29698   2.078   0.311   6.610
 9600SOL    HW129699   2.135   0.246   6.661
 9600SOL    HW229700   2.134   0.355   6.539
 9601SOL     OW29701   5.398   3.795   1.761
 9601SOL    HW129702   5.412   3.824   1.667
 9601SOL    HW229703   5.418   3.697   1.769
 9602SOL     OW29704   6.588   5.198   6.423
 9602SOL    HW129705   6.643   5.176   6.504
 9602SOL    HW229706   6.649   5.222   6.348
 9603SOL     OW29707   3.668   1.834   4.150
 9603SOL    HW129708   3.727   1.763   4.188
 9603SOL    HW229709   3.627   1.886   4.224
 9604SOL     OW29710   4.056   0.416   6.515
 9604SOL    HW129711   3.978   0.476   6.531
 9604SOL    HW229712   4.043   0.365   6.431
 9605SOL     OW29713   0.685   5.423   3.696
 9605SOL    HW129714   0.736   5.502   3.729
 9605SOL    HW229715   0.725   5.339   3.733
 9606SOL     OW29716   2.132   6.775   6.223
 9606SOL    HW129717   2.198   6.731   6.162
 9606SOL    HW229718   2.042   6.776   6.178
 9607SOL     OW29719   1.473   1.508   0.821
 9607SOL    HW129720   1.382   1.540   0.845
 9607SOL    HW229721   1.528   1.585   0.788
 9608SOL     OW29722   6.621   5.952   2.225
 9608SOL    HW129723   6.554   5.903   2.169
 9608SOL    HW229724   6.669   6.019   2.168
 9609SOL     OW29725   2.079   4.071   6.297
 9609SOL    HW129726   2.001   4.131   6.317
 9609SOL    HW229727   2.160   4.106   6.345
 9610SOL     OW29728   1.874   5.087   4.057
 9610SOL    HW129729   1.786   5.135   4.055
 9610SOL    HW229730   1.901   5.063   3.964
 9611SOL     OW29731   0.052   6.180   6.557
 9611SOL    HW129732   0.044   6.264   6.610
 9611SOL    HW229733   0.142   6.139   6.572
 9612SOL     OW29734   1.015   4.096   1.884
 9612SOL    HW129735   0.997   4.025   1.953
 9612SOL    HW229736   0.996   4.060   1.793
 9613SOL     OW29737   4.529   6.177   3.371
 9613SOL    HW129738   4.564   6.108   3.308
 9613SOL    HW229739   4.450   6.222   3.331
 9614SOL     OW29740   3.670   2.576   0.386
 9614SOL    HW129741   3.590   2.588   0.326
 9614SOL    HW229742   3.740   2.643   0.362
 9615SOL     OW29743   0.715   6.932   0.998
 9615SOL    HW129744   0.638   6.870   0.986
 9615SOL    HW229745   0.791   6.903   0.939
 9616SOL     OW29746   4.607   3.200   1.123
 9616SOL    HW129747   4.538   3.130   1.105
 9616SOL    HW229748   4.573   3.289   1.093
 9617SOL     OW29749   1.796   2.967   3.886
 9617SOL    HW129750   1.842   3.024   3.954
 9617SOL    HW229751   1.851   2.885   3.868
 9618SOL     OW29752   3.523   7.015   5.647
 9618SOL    HW129753   3.549   6.956   5.723
 9618SOL    HW229754   3.589   7.004   5.573
 9619SOL     OW29755   0.950   6.681   0.109
 9619SOL    HW129756   1.007   6.620   0.165
 9619SOL    HW229757   1.006   6.756   0.074
 9620SOL     OW29758   4.142   2.441   6.783
 9620SOL    HW129759   4.141   2.357   6.836
 9620SOL    HW229760   4.149   2.418   6.685
 9621SOL     OW29761   0.914   1.019   2.459
 9621SOL    HW129762   0.931   1.062   2.547
 9621SOL    HW229763   0.867   0.932   2.473
 9622SOL     OW29764   6.625   0.875   0.162
 9622SOL    HW129765   6.627   0.781   0.194
 9622SOL    HW229766   6.575   0.880   0.075
 9623SOL     OW29767   3.414   4.864   5.377
 9623SOL    HW129768   3.404   4.957   5.412
 9623SOL    HW229769   3.509   4.848   5.350
 9624SOL     OW29770   6.135   4.482   3.338
 9624SOL    HW129771   6.199   4.502   3.264
 9624SOL    HW229772   6.178   4.422   3.405
 9625SOL     OW29773   5.045   5.435   7.010
 9625SOL    HW129774   4.960   5.489   7.015
 9625SOL    HW229775   5.029   5.345   0.032
 9626SOL     OW29776   2.567   6.549   0.046
 9626SOL    HW129777   2.574   6.509   0.138
 9626SOL    HW229778   2.640   6.513   7.006
 9627SOL     OW29779   0.184   4.556   3.125
 9627SOL    HW129780   0.129   4.584   3.204
 9627SOL    HW229781   0.133   4.572   3.041
 9628SOL     OW29782   6.092   4.823   6.838
 9628SOL    HW129783   6.052   4.837   6.747
 9628SOL    HW229784   6.076   4.905   6.894
 9629SOL     OW29785   0.464   6.495   2.650
 9629SOL    HW129786   0.377   6.541   2.630
 9629SOL    HW229787   0.461   6.458   2.743
 9630SOL     OW29788   5.928   6.641   5.453
 9630SOL    HW129789   6.019   6.680   5.440
 9630SOL    HW229790   5.861   6.715   5.456
 9631SOL     OW29791   6.166   0.630   0.226
 9631SOL    HW129792   6.162   0.692   0.148
 9631SOL    HW229793   6.085   0.644   0.283
 9632SOL     OW29794   1.944   5.508   2.777
 9632SOL    HW129795   1.932   5.422   2.728
 9632SOL    HW229796   2.013   5.495   2.849
 9633SOL     OW29797   4.905   4.849   6.650
 9633SOL    HW129798   4.847   4.837   6.569
 9633SOL    HW229799   4.934   4.945   6.656
 9634SOL     OW29800   0.918   6.839   4.929
 9634SOL    HW129801   0.919   6.873   4.835
 9634SOL    HW229802   0.841   6.879   4.978
 9635SOL     OW29803   1.481   4.384   5.455
 9635SOL    HW129804   1.533   4.426   5.380
 9635SOL    HW229805   1.541   4.372   5.534
 9636SOL     OW29806   4.075   1.622   6.355
 9636SOL    HW129807   4.049   1.572   6.437
 9636SOL    HW229808   4.033   1.580   6.275
 9637SOL     OW29809   2.244   2.154   0.157
 9637SOL    HW129810   2.339   2.157   0.126
 9637SOL    HW229811   2.239   2.105   0.244
 9638SOL     OW29812   0.051   3.546   0.151
 9638SOL    HW129813   6.974   3.558   0.183
 9638SOL    HW229814   0.084   3.455   0.179
 9639SOL     OW29815   4.700   1.640   1.978
 9639SOL    HW129816   4.654   1.552   1.965
 9639SOL    HW229817   4.751   1.639   2.064
 9640SOL     OW29818   3.123   1.559   3.315
 9640SOL    HW129819   3.200   1.608   3.275
 9640SOL    HW229820   3.046   1.558   3.251
 9641SOL     OW29821   5.348   6.186   0.780
 9641SOL    HW129822   5.254   6.215   0.797
 9641SOL    HW229823   5.348   6.102   0.726
 9642SOL     OW29824   2.218   6.017   4.415
 9642SOL    HW129825   2.282   5.960   4.467
 9642SOL    HW229826   2.133   5.965   4.399
 9643SOL     OW29827   6.500   4.477   4.000
 9643SOL    HW129828   6.542   4.393   3.966
 9643SOL    HW229829   6.560   4.555   3.981
 9644SOL     OW29830   0.473   5.153   4.258
 9644SOL    HW129831   0.548   5.178   4.320
 9644SOL    HW229832   0.457   5.229   4.194
 9645SOL     OW29833   3.285   4.998   3.558
 9645SOL    HW129834   3.220   5.032   3.625
 9645SOL    HW229835   3.236   4.953   3.483
 9646SOL     OW29836   2.779   4.755   2.216
 9646SOL    HW129837   2.796   4.702   2.133
 9646SOL    HW229838   2.717   4.705   2.275
 9647SOL     OW29839   0.740   5.682   1.525
 9647SOL    HW129840   0.654   5.684   1.473
 9647SOL    HW229841   0.773   5.588   1.531
 9648SOL     OW29842   3.554   1.972   6.734
 9648SOL    HW129843   3.651   1.951   6.744
 9648SOL    HW229844   3.541   2.071   6.734
 9649SOL     OW29845   2.672   4.937   6.978
 9649SOL    HW129846   2.759   4.889   6.993
 9649SOL    HW229847   2.678   4.989   6.892
 9650SOL     OW29848   4.845   4.408   3.091
 9650SOL    HW129849   4.892   4.414   3.003
 9650SOL    HW229850   4.861   4.492   3.143
 9651SOL     OW29851   6.541   0.513   6.883
 9651SOL    HW129852   6.566   0.608   6.861
 9651SOL    HW229853   6.465   0.485   6.824
 9652SOL     OW29854   2.255   4.221   0.958
 9652SOL    HW129855   2.255   4.157   0.881
 9652SOL    HW229856   2.264   4.315   0.923
 9653SOL     OW29857   4.352   5.203   5.130
 9653SOL    HW129858   4.278   5.162   5.077
 9653SOL    HW229859   4.421   5.239   5.068
 9654SOL     OW29860   3.722   3.166   2.290
 9654SOL    HW129861   3.791   3.094   2.275
 9654SOL    HW229862   3.740   3.210   2.377
 9655SOL     OW29863   6.416   1.214   0.151
 9655SOL    HW129864   6.507   1.254   0.148
 9655SOL    HW229865   6.397   1.167   0.064
 9656SOL     OW29866   4.377   2.115   0.935
 9656SOL    HW129867   4.316   2.145   1.008
 9656SOL    HW229868   4.462   2.079   0.975
 9657SOL     OW29869   6.005   1.965   3.699
 9657SOL    HW129870   6.103   1.975   3.720
 9657SOL    HW229871   5.994   1.900   3.624
 9658SOL     OW29872   5.790   1.829   2.306
 9658SOL    HW129873   5.805   1.926   2.325
 9658SOL    HW229874   5.719   1.794   2.367
 9659SOL     OW29875   6.687   3.178   0.265
 9659SOL    HW129876   6.616   3.159   0.333
 9659SOL    HW229877   6.716   3.274   0.272
 9660SOL     OW29878   0.256   6.405   2.253
 9660SOL    HW129879   0.230   6.502   2.261
 9660SOL    HW229880   0.312   6.378   2.331
 9661SOL     OW29881   3.306   6.362   1.716
 9661SOL    HW129882   3.332   6.272   1.682
 9661SOL    HW229883   3.380   6.399   1.773
 9662SOL     OW29884   4.553   2.978   5.487
 9662SOL    HW129885   4.597   3.007   5.572
 9662SOL    HW229886   4.581   3.038   5.412
 9663SOL     OW29887   6.781   5.942   3.778
 9663SOL    HW129888   6.823   5.857   3.745
 9663SOL    HW229889   6.763   6.002   3.700
 9664SOL     OW29890   5.486   6.241   4.109
 9664SOL    HW129891   5.540   6.288   4.179
 9664SOL    HW229892   5.548   6.198   4.043
 9665SOL     OW29893   5.202   6.661   0.169
 9665SOL    HW129894   5.125   6.695   0.223
 9665SOL    HW229895   5.169   6.594   0.102
 9666SOL     OW29896   6.160   3.794   1.483
 9666SOL    HW129897   6.071   3.781   1.526
 9666SOL    HW229898   6.154   3.868   1.416
 9667SOL     OW29899   4.001   3.193   5.460
 9667SOL    HW129900   4.049   3.190   5.372
 9667SOL    HW229901   3.978   3.100   5.488
 9668SOL     OW29902   6.870   0.907   6.198
 9668SOL    HW129903   6.782   0.918   6.152
 9668SOL    HW229904   6.923   0.835   6.153
 9669SOL     OW29905   1.392   0.145   2.112
 9669SOL    HW129906   1.337   0.192   2.181
 9669SOL    HW229907   1.332   0.100   2.046
 9670SOL     OW29908   6.251   4.611   6.914
 9670SOL    HW129909   6.192   4.683   6.880
 9670SOL    HW229910   6.346   4.633   6.892
 9671SOL     OW29911   5.948   4.778   0.097
 9671SOL    HW129912   6.037   4.821   0.113
 9671SOL    HW229913   5.898   4.830   0.027
 9672SOL     OW29914   1.517   6.005   3.871
 9672SOL    HW129915   1.616   6.012   3.857
 9672SOL    HW229916   1.471   5.997   3.782
 9673SOL     OW29917   5.350   3.688   0.537
 9673SOL    HW129918   5.283   3.657   0.604
 9673SOL    HW229919   5.323   3.658   0.446
 9674SOL     OW29920   2.560   6.390   2.986
 9674SOL    HW129921   2.621   6.467   2.970
 9674SOL    HW229922   2.475   6.404   2.934
 9675SOL     OW29923   5.589   2.536   0.644
 9675SOL    HW129924   5.493   2.510   0.640
 9675SOL    HW229925   5.627   2.541   0.551
 9676SOL     OW29926   1.347   3.637   5.593
 9676SOL    HW129927   1.387   3.699   5.526
 9676SOL    HW229928   1.247   3.639   5.586
 9677SOL     OW29929   1.213   5.126   4.983
 9677SOL    HW129930   1.299   5.155   4.942
 9677SOL    HW229931   1.186   5.037   4.946
 9678SOL     OW29932   3.307   3.649   3.096
 9678SOL    HW129933   3.344   3.733   3.135
 9678SOL    HW229934   3.347   3.570   3.143
 9679SOL     OW29935   2.450   0.954   2.319
 9679SOL    HW129936   2.458   1.039   2.371
 9679SOL    HW229937   2.477   0.972   2.224
 9680SOL     OW29938   5.019   1.176   2.844
 9680SOL    HW129939   5.099   1.226   2.877
 9680SOL    HW229940   4.984   1.220   2.762
 9681SOL     OW29941   3.162   1.535   0.517
 9681SOL    HW129942   3.159   1.529   0.616
 9681SOL    HW229943   3.119   1.454   0.477
 9682SOL     OW29944   5.038   4.624   3.653
 9682SOL    HW129945   4.975   4.564   3.605
 9682SOL    HW229946   5.022   4.619   3.752
 9683SOL     OW29947   2.904   5.211   0.352
 9683SOL    HW129948   2.905   5.256   0.263
 9683SOL    HW229949   2.810   5.205   0.385
 9684SOL     OW29950   0.134   3.290   5.213
 9684SOL    HW129951   0.217   3.346   5.215
 9684SOL    HW229952   0.058   3.343   5.251
 9685SOL     OW29953   3.054   4.558   1.278
 9685SOL    HW129954   2.980   4.618   1.250
 9685SOL    HW229955   3.084   4.503   1.200
 9686SOL     OW29956   6.568   1.515   6.643
 9686SOL    HW129957   6.556   1.416   6.642
 9686SOL    HW229958   6.483   1.558   6.674
 9687SOL     OW29959   1.587   0.562   3.853
 9687SOL    HW129960   1.632   0.494   3.795
 9687SOL    HW229961   1.505   0.522   3.894
 9688SOL     OW29962   0.549   3.267   2.589
 9688SOL    HW129963   0.608   3.186   2.590
 9688SOL    HW229964   0.500   3.274   2.676
 9689SOL     OW29965   1.116   5.239   6.685
 9689SOL    HW129966   1.143   5.199   6.597
 9689SOL    HW229967   1.121   5.339   6.679
 9690SOL     OW29968   5.688   5.731   0.033
 9690SOL    HW129969   5.715   5.703   0.126
 9690SOL    HW229970   5.696   5.652   6.989
 9691SOL     OW29971   2.889   5.217   1.185
 9691SOL    HW129972   2.897   5.120   1.166
 9691SOL    HW229973   2.792   5.244   1.184
 9692SOL     OW29974   3.832   5.269   2.521
 9692SOL    HW129975   3.841   5.171   2.504
 9692SOL    HW229976   3.746   5.287   2.569
 9693SOL     OW29977   6.118   4.921   1.653
 9693SOL    HW129978   6.059   4.990   1.610
 9693SOL    HW229979   6.092   4.912   1.749
 9694SOL     OW29980   2.353   0.811   0.396
 9694SOL    HW129981   2.365   0.905   0.364
 9694SOL    HW229982   2.390   0.802   0.488
 9695SOL     OW29983   6.922   3.868   2.556
 9695SOL    HW129984   7.007   3.823   2.527
 9695SOL    HW229985   6.888   3.825   2.639
 9696SOL     OW29986   5.186   3.574   0.754
 9696SOL    HW129987   5.106   3.609   0.706
 9696SOL    HW229988   5.202   3.627   0.837
 9697SOL     OW29989   0.412   5.549   6.758
 9697SOL    HW129990   0.343   5.619   6.742
 9697SOL    HW229991   0.444   5.513   6.671
 9698SOL     OW29992   4.443   1.141   6.143
 9698SOL    HW129993   4.407   1.217   6.089
 9698SOL    HW229994   4.494   1.177   6.221
 9699SOL     OW29995   6.698   4.969   6.947
 9699SOL    HW129996   6.786   4.995   6.987
 9699SOL    HW229997   6.713   4.929   6.856
 9700SOL     OW29998   4.564   5.453   4.766
 9700SOL    HW129999   4.538   5.362   4.799
 9700SOL    HW230000   4.652   5.448   4.719
 9701SOL     OW30001   3.913   5.191   5.319
 9701SOL    HW130002   4.006   5.228   5.313
 9701SOL    HW230003   3.915   5.103   5.367
 9702SOL     OW30004   4.709   0.468   6.769
 9702SOL    HW130005   4.749   0.433   6.854
 9702SOL    HW230006   4.781   0.512   6.715
 9703SOL     OW30007   4.455   4.494   3.554
 9703SOL    HW130008   4.449   4.493   3.454
 9703SOL    HW230009   4.491   4.406   3.586
 9704SOL     OW30010   3.452   0.861   2.821
 9704SOL    HW130011   3.501   0.845   2.736
 9704SOL    HW230012   3.513   0.900   2.889
 9705SOL     OW30013   5.865   4.373   6.211
 9705SOL    HW130014   5.864   4.274   6.225
 9705SOL    HW230015   5.855   4.419   6.299
 9706SOL     OW30016   0.516   3.744   0.886
 9706SOL    HW130017   0.558   3.744   0.795
 9706SOL    HW230018   0.429   3.795   0.882
 9707SOL     OW30019   6.899   4.718   2.302
 9707SOL    HW130020   6.943   4.691   2.217
 9707SOL    HW230021   6.875   4.636   2.355
 9708SOL     OW30022   1.409   2.121   2.658
 9708SOL    HW130023   1.417   2.216   2.630
 9708SOL    HW230024   1.313   2.092   2.651
 9709SOL     OW30025   6.073   6.519   3.119
 9709SOL    HW130026   6.055   6.613   3.091
 9709SOL    HW230027   6.125   6.518   3.204
 9710SOL     OW30028   0.425   0.996   1.928
 9710SOL    HW130029   0.339   0.963   1.889
 9710SOL    HW230030   0.467   1.061   1.865
 9711SOL     OW30031   1.900   4.769   5.887
 9711SOL    HW130032   1.923   4.821   5.969
 9711SOL    HW230033   1.807   4.789   5.859
 9712SOL     OW30034   5.931   3.867   6.590
 9712SOL    HW130035   5.953   3.965   6.595
 9712SOL    HW230036   5.906   3.835   6.682
 9713SOL     OW30037   1.133   5.056   3.188
 9713SOL    HW130038   1.228   5.062   3.217
 9713SOL    HW230039   1.123   5.092   3.095
 9714SOL     OW30040   3.009   0.141   0.333
 9714SOL    HW130041   3.078   0.180   0.392
 9714SOL    HW230042   2.949   0.213   0.299
 9715SOL     OW30043   4.968   3.958   6.550
 9715SOL    HW130044   4.889   3.980   6.493
 9715SOL    HW230045   4.974   3.859   6.562
 9716SOL     OW30046   3.927   3.239   0.163
 9716SOL    HW130047   3.953   3.265   0.070
 9716SOL    HW230048   3.914   3.321   0.219
 9717SOL     OW30049   5.125   6.262   6.002
 9717SOL    HW130050   5.076   6.202   6.066
 9717SOL    HW230051   5.216   6.225   5.984
 9718SOL     OW30052   4.763   2.708   0.276
 9718SOL    HW130053   4.739   2.790   0.225
 9718SOL    HW230054   4.837   2.729   0.341
 9719SOL     OW30055   6.382   1.755   5.704
 9719SOL    HW130056   6.440   1.832   5.678
 9719SOL    HW230057   6.432   1.669   5.690
 9720SOL     OW30058   6.821   5.384   2.252
 9720SOL    HW130059   6.878   5.466   2.253
 9720SOL    HW230060   6.878   5.304   2.232
 9721SOL     OW30061   0.179   2.594   1.536
 9721SOL    HW130062   0.229   2.629   1.457
 9721SOL    HW230063   0.125   2.515   1.509
 9722SOL     OW30064   6.528   0.260   4.320
 9722SOL    HW130065   6.436   0.227   4.341
 9722SOL    HW230066   6.592   0.226   4.390
 9723SOL     OW30067   2.139   6.883   2.939
 9723SOL    HW130068   2.085   6.882   3.023
 9723SOL    HW230069   2.124   6.970   2.891
 9724SOL     OW30070   1.754   4.656   0.324
 9724SOL    HW130071   1.686   4.669   0.252
 9724SOL    HW230072   1.841   4.696   0.295
 9725SOL     OW30073   3.885   5.090   6.415
 9725SOL    HW130074   3.873   5.009   6.472
 9725SOL    HW230075   3.953   5.071   6.344
 9726SOL     OW30076   5.136   0.508   4.307
 9726SOL    HW130077   5.144   0.569   4.228
 9726SOL    HW230078   5.213   0.524   4.369
 9727SOL     OW30079   0.728   3.978   5.809
 9727SOL    HW130080   0.797   3.913   5.778
 9727SOL    HW230081   0.770   4.046   5.869
 9728SOL     OW30082   0.251   0.763   6.018
 9728SOL    HW130083   0.266   0.683   5.961
 9728SOL    HW230084   0.306   0.756   6.101
 9729SOL     OW30085   1.097   4.058   3.347
 9729SOL    HW130086   1.016   4.090   3.396
 9729SOL    HW230087   1.173   4.122   3.363
 9730SOL     OW30088   1.211   3.812   3.806
 9730SOL    HW130089   1.227   3.903   3.769
 9730SOL    HW230090   1.115   3.787   3.795
 9731SOL     OW30091   4.674   4.412   1.025
 9731SOL    HW130092   4.740   4.400   1.098
 9731SOL    HW230093   4.584   4.432   1.064
 9732SOL     OW30094   5.854   5.751   3.529
 9732SOL    HW130095   5.931   5.695   3.558
 9732SOL    HW230096   5.787   5.693   3.482
 9733SOL     OW30097   5.467   5.068   0.786
 9733SOL    HW130098   5.383   5.016   0.770
 9733SOL    HW230099   5.540   5.006   0.814
 9734SOL     OW30100   6.583   1.617   2.458
 9734SOL    HW130101   6.639   1.616   2.375
 9734SOL    HW230102   6.496   1.664   2.439
 9735SOL     OW30103   2.698   4.615   3.345
 9735SOL    HW130104   2.644   4.694   3.370
 9735SOL    HW230105   2.675   4.538   3.403
 9736SOL     OW30106   6.639   1.779   6.650
 9736SOL    HW130107   6.617   1.683   6.637
 9736SOL    HW230108   6.630   1.828   6.563
 9737SOL     OW30109   5.932   2.638   3.917
 9737SOL    HW130110   6.030   2.623   3.929
 9737SOL    HW230111   5.883   2.605   3.997
 9738SOL     OW30112   1.448   0.164   1.303
 9738SOL    HW130113   1.373   0.100   1.288
 9738SOL    HW230114   1.533   0.124   1.269
 9739SOL     OW30115   6.108   4.535   1.918
 9739SOL    HW130116   6.151   4.502   1.833
 9739SOL    HW230117   6.135   4.476   1.994
 9740SOL     OW30118   6.603   2.204   2.990
 9740SOL    HW130119   6.660   2.224   3.069
 9740SOL    HW230120   6.508   2.189   3.019
 9741SOL     OW30121   4.592   1.305   3.124
 9741SOL    HW130122   4.519   1.357   3.168
 9741SOL    HW230123   4.603   1.217   3.170
 9742SOL     OW30124   4.541   6.808   0.875
 9742SOL    HW130125   4.583   6.897   0.891
 9742SOL    HW230126   4.455   6.802   0.926
 9743SOL     OW30127   0.824   2.020   5.269
 9743SOL    HW130128   0.751   2.064   5.218
 9743SOL    HW230129   0.908   2.021   5.215
 9744SOL     OW30130   0.291   6.921   2.639
 9744SOL    HW130131   0.357   6.911   2.714
 9744SOL    HW230132   0.208   6.965   2.673
 9745SOL     OW30133   6.337   2.484   5.907
 9745SOL    HW130134   6.301   2.577   5.904
 9745SOL    HW230135   6.363   2.455   5.815
 9746SOL     OW30136   6.784   0.967   5.696
 9746SOL    HW130137   6.760   0.870   5.693
 9746SOL    HW230138   6.715   1.020   5.647
 9747SOL     OW30139   2.423   0.960   1.556
 9747SOL    HW130140   2.478   1.001   1.483
 9747SOL    HW230141   2.332   0.939   1.521
 9748SOL     OW30142   0.650   1.223   3.336
 9748SOL    HW130143   0.704   1.282   3.396
 9748SOL    HW230144   0.569   1.274   3.305
 9749SOL     OW30145   2.362   1.537   5.184
 9749SOL    HW130146   2.286   1.475   5.204
 9749SOL    HW230147   2.416   1.499   5.109
 9750SOL     OW30148   5.659   4.613   3.616
 9750SOL    HW130149   5.599   4.543   3.656
 9750SOL    HW230150   5.727   4.568   3.558
 9751SOL     OW30151   0.449   0.905   0.643
 9751SOL    HW130152   0.355   0.929   0.667
 9751SOL    HW230153   0.473   0.817   0.683
 9752SOL     OW30154   4.758   1.658   5.722
 9752SOL    HW130155   4.812   1.613   5.793
 9752SOL    HW230156   4.796   1.749   5.704
 9753SOL     OW30157   5.678   6.168   5.971
 9753SOL    HW130158   5.694   6.264   5.951
 9753SOL    HW230159   5.629   6.125   5.895
 9754SOL     OW30160   0.941   1.380   6.584
 9754SOL    HW130161   0.927   1.409   6.489
 9754SOL    HW230162   1.038   1.385   6.605
 9755SOL     OW30163   4.136   3.218   5.191
 9755SOL    HW130164   4.060   3.232   5.128
 9755SOL    HW230165   4.131   3.126   5.229
 9756SOL     OW30166   6.095   3.373   1.105
 9756SOL    HW130167   6.003   3.367   1.066
 9756SOL    HW230168   6.088   3.392   1.203
 9757SOL     OW30169   6.169   3.627   3.562
 9757SOL    HW130170   6.093   3.654   3.503
 9757SOL    HW230171   6.156   3.532   3.592
 9758SOL     OW30172   2.480   0.061   6.671
 9758SOL    HW130173   2.574   0.080   6.642
 9758SOL    HW230174   2.436   0.146   6.700
 9759SOL     OW30175   2.070   6.841   6.767
 9759SOL    HW130176   2.025   6.890   6.693
 9759SOL    HW230177   2.165   6.873   6.776
 9760SOL     OW30178   4.690   3.165   5.290
 9760SOL    HW130179   4.712   3.262   5.284
 9760SOL    HW230180   4.771   3.111   5.268
 9761SOL     OW30181   6.012   0.872   2.461
 9761SOL    HW130182   6.071   0.890   2.383
 9761SOL    HW230183   5.953   0.793   2.441
 9762SOL     OW30184   3.509   1.695   4.543
 9762SOL    HW130185   3.509   1.599   4.515
 9762SOL    HW230186   3.600   1.733   4.531
 9763SOL     OW30187   5.133   2.316   2.084
 9763SOL    HW130188   5.056   2.364   2.041
 9763SOL    HW230189   5.183   2.264   2.015
 9764SOL     OW30190   0.521   2.887   2.726
 9764SOL    HW130191   0.447   2.871   2.662
 9764SOL    HW230192   0.560   2.800   2.756
 9765SOL     OW30193   6.771   1.379   3.454
 9765SOL    HW130194   6.711   1.426   3.390
 9765SOL    HW230195   6.809   1.445   3.519
 9766SOL     OW30196   2.713   0.319   3.111
 9766SOL    HW130197   2.773   0.259   3.058
 9766SOL    HW230198   2.749   0.328   3.204
 9767SOL     OW30199   4.779   1.386   5.377
 9767SOL    HW130200   4.791   1.457   5.309
 9767SOL    HW230201   4.835   1.406   5.457
 9768SOL     OW30202   6.020   2.064   3.260
 9768SOL    HW130203   5.920   2.070   3.259
 9768SOL    HW230204   6.059   2.156   3.261
 9769SOL     OW30205   2.909   0.753   2.749
 9769SOL    HW130206   2.997   0.793   2.774
 9769SOL    HW230207   2.921   0.690   2.672
 9770SOL     OW30208   5.746   6.896   0.268
 9770SOL    HW130209   5.770   6.867   0.176
 9770SOL    HW230210   5.647   6.908   0.276
 9771SOL     OW30211   2.612   5.050   1.090
 9771SOL    HW130212   2.694   4.993   1.083
 9771SOL    HW230213   2.531   4.994   1.074
 9772SOL     OW30214   1.151   6.055   2.942
 9772SOL    HW130215   1.069   5.998   2.955
 9772SOL    HW230216   1.192   6.075   3.031
 9773SOL     OW30217   5.133   5.864   4.433
 9773SOL    HW130218   5.221   5.902   4.406
 9773SOL    HW230219   5.064   5.936   4.432
 9774SOL     OW30220   6.847   5.024   2.006
 9774SOL    HW130221   6.830   4.926   1.994
 9774SOL    HW230222   6.792   5.075   1.941
 9775SOL     OW30223   2.133   0.446   3.631
 9775SOL    HW130224   2.110   0.469   3.536
 9775SOL    HW230225   2.076   0.371   3.662
 9776SOL     OW30226   0.980   4.770   4.181
 9776SOL    HW130227   1.076   4.797   4.176
 9776SOL    HW230228   0.923   4.841   4.140
 9777SOL     OW30229   5.425   4.307   6.420
 9777SOL    HW130230   5.460   4.229   6.368
 9777SOL    HW230231   5.381   4.372   6.358
 9778SOL     OW30232   0.416   0.852   3.111
 9778SOL    HW130233   0.496   0.830   3.167
 9778SOL    HW230234   0.397   0.777   3.048
 9779SOL     OW30235   1.848   0.890   4.872
 9779SOL    HW130236   1.770   0.947   4.899
 9779SOL    HW230237   1.927   0.913   4.929
 9780SOL     OW30238   2.909   1.742   1.202
 9780SOL    HW130239   2.819   1.712   1.171
 9780SOL    HW230240   2.979   1.677   1.171
 9781SOL     OW30241   1.751   3.652   4.271
 9781SOL    HW130242   1.849   3.634   4.272
 9781SOL    HW230243   1.703   3.573   4.232
 9782SOL     OW30244   6.589   0.647   1.587
 9782SOL    HW130245   6.526   0.606   1.520
 9782SOL    HW230246   6.683   0.638   1.554
 9783SOL     OW30247   5.129   1.760   3.204
 9783SOL    HW130248   5.031   1.758   3.185
 9783SOL    HW230249   5.155   1.851   3.236
 9784SOL     OW30250   4.066   1.469   4.607
 9784SOL    HW130251   4.024   1.406   4.673
 9784SOL    HW230252   4.009   1.474   4.525
 9785SOL     OW30253   0.644   3.584   5.892
 9785SOL    HW130254   0.595   3.606   5.808
 9785SOL    HW230255   0.727   3.639   5.897
 9786SOL     OW30256   2.430   4.551   0.192
 9786SOL    HW130257   2.385   4.493   0.124
 9786SOL    HW230258   2.464   4.495   0.267
 9787SOL     OW30259   4.514   3.395   1.715
 9787SOL    HW130260   4.589   3.329   1.703
 9787SOL    HW230261   4.550   3.488   1.712
 9788SOL     OW30262   0.655   0.773   3.256
 9788SOL    HW130263   0.673   0.731   3.345
 9788SOL    HW230264   0.737   0.766   3.199
 9789SOL     OW30265   1.060   5.450   0.436
 9789SOL    HW130266   1.140   5.508   0.423
 9789SOL    HW230267   0.978   5.501   0.409
 9790SOL     OW30268   5.862   3.989   5.385
 9790SOL    HW130269   5.922   4.016   5.459
 9790SOL    HW230270   5.813   4.068   5.350
 9791SOL     OW30271   0.252   1.134   2.724
 9791SOL    HW130272   0.311   1.138   2.805
 9791SOL    HW230273   0.216   1.041   2.714
 9792SOL     OW30274   5.161   5.507   1.889
 9792SOL    HW130275   5.161   5.548   1.797
 9792SOL    HW230276   5.241   5.448   1.899
 9793SOL     OW30277   5.095   5.563   3.375
 9793SOL    HW130278   5.045   5.641   3.338
 9793SOL    HW230279   5.083   5.484   3.315
 9794SOL     OW30280   6.329   3.888   0.281
 9794SOL    HW130281   6.415   3.868   0.328
 9794SOL    HW230282   6.253   3.881   0.345
 9795SOL     OW30283   2.144   1.704   4.282
 9795SOL    HW130284   2.132   1.803   4.294
 9795SOL    HW230285   2.235   1.678   4.315
 9796SOL     OW30286   4.460   2.361   1.609
 9796SOL    HW130287   4.394   2.293   1.578
 9796SOL    HW230288   4.552   2.325   1.600
 9797SOL     OW30289   2.750   5.075   6.750
 9797SOL    HW130290   2.830   5.117   6.794
 9797SOL    HW230291   2.680   5.145   6.736
 9798SOL     OW30292   2.862   0.281   1.246
 9798SOL    HW130293   2.842   0.251   1.339
 9798SOL    HW230294   2.952   0.325   1.243
 9799SOL     OW30295   3.358   3.881   3.222
 9799SOL    HW130296   3.347   3.812   3.293
 9799SOL    HW230297   3.269   3.923   3.203
 9800SOL     OW30298   3.497   6.411   4.911
 9800SOL    HW130299   3.409   6.418   4.959
 9800SOL    HW230300   3.556   6.487   4.937
 9801SOL     OW30301   4.747   3.913   0.382
 9801SOL    HW130302   4.731   3.956   0.471
 9801SOL    HW230303   4.719   3.976   0.309
 9802SOL     OW30304   0.877   3.312   1.611
 9802SOL    HW130305   0.971   3.279   1.608
 9802SOL    HW230306   0.855   3.339   1.705
 9803SOL     OW30307   6.601   1.543   6.975
 9803SOL    HW130308   6.561   1.626   7.013
 9803SOL    HW230309   6.591   1.544   6.875
 9804SOL     OW30310   0.907   6.324   2.935
 9804SOL    HW130311   0.937   6.407   2.983
 9804SOL    HW230312   0.969   6.305   2.860
 9805SOL     OW30313   1.086   6.475   5.752
 9805SOL    HW130314   1.031   6.456   5.834
 9805SOL    HW230315   1.042   6.435   5.672
 9806SOL     OW30316   1.517   0.918   1.122
 9806SOL    HW130317   1.488   0.868   1.041
 9806SOL    HW230318   1.437   0.944   1.175
 9807SOL     OW30319   1.917   3.018   0.180
 9807SOL    HW130320   1.873   3.084   0.241
 9807SOL    HW230321   1.861   2.934   0.177
 9808SOL     OW30322   5.275   1.066   5.563
 9808SOL    HW130323   5.296   1.037   5.470
 9808SOL    HW230324   5.190   1.120   5.563
 9809SOL     OW30325   0.737   2.129   6.809
 9809SOL    HW130326   0.746   2.157   6.713
 9809SOL    HW230327   0.731   2.029   6.814
 9810SOL     OW30328   2.597   2.506   4.159
 9810SOL    HW130329   2.595   2.517   4.258
 9810SOL    HW230330   2.562   2.589   4.115
 9811SOL     OW30331   5.470   5.667   3.897
 9811SOL    HW130332   5.385   5.712   3.922
 9811SOL    HW230333   5.450   5.574   3.866
 9812SOL     OW30334   3.158   2.538   5.614
 9812SOL    HW130335   3.083   2.570   5.555
 9812SOL    HW230336   3.210   2.467   5.567
 9813SOL     OW30337   5.991   0.660   6.831
 9813SOL    HW130338   5.955   0.567   6.818
 9813SOL    HW230339   5.918   0.726   6.814
 9814SOL     OW30340   0.129   0.993   0.240
 9814SOL    HW130341   0.083   1.081   0.228
 9814SOL    HW230342   0.108   0.934   0.162
 9815SOL     OW30343   5.597   3.721   2.608
 9815SOL    HW130344   5.522   3.753   2.666
 9815SOL    HW230345   5.684   3.737   2.654
 9816SOL     OW30346   0.198   1.842   6.093
 9816SOL    HW130347   0.180   1.772   6.163
 9816SOL    HW230348   0.270   1.810   6.032
 9817SOL     OW30349   2.466   5.527   2.648
 9817SOL    HW130350   2.425   5.436   2.651
 9817SOL    HW230351   2.408   5.588   2.595
 9818SOL     OW30352   1.565   0.744   4.359
 9818SOL    HW130353   1.570   0.843   4.370
 9818SOL    HW230354   1.601   0.699   4.441
 9819SOL     OW30355   4.865   2.829   4.823
 9819SOL    HW130356   4.852   2.915   4.873
 9819SOL    HW230357   4.873   2.849   4.725
 9820SOL     OW30358   3.634   3.446   5.752
 9820SOL    HW130359   3.652   3.519   5.819
 9820SOL    HW230360   3.624   3.359   5.800
 9821SOL     OW30361   4.979   0.825   0.536
 9821SOL    HW130362   5.004   0.870   0.450
 9821SOL    HW230363   4.910   0.880   0.583
 9822SOL     OW30364   2.374   5.534   3.719
 9822SOL    HW130365   2.395   5.496   3.629
 9822SOL    HW230366   2.283   5.503   3.748
 9823SOL     OW30367   2.519   0.132   1.497
 9823SOL    HW130368   2.482   0.070   1.428
 9823SOL    HW230369   2.572   0.204   1.451
 9824SOL     OW30370   1.723   5.836   4.336
 9824SOL    HW130371   1.726   5.933   4.361
 9824SOL    HW230372   1.817   5.800   4.335
 9825SOL     OW30373   5.467   0.014   4.461
 9825SOL    HW130374   5.495   0.024   4.556
 9825SOL    HW230375   5.440   6.936   4.444
 9826SOL     OW30376   3.439   6.200   5.349
 9826SOL    HW130377   3.489   6.149   5.279
 9826SOL    HW230378   3.348   6.222   5.316
 9827SOL     OW30379   1.579   4.035   3.487
 9827SOL    HW130380   1.531   4.011   3.402
 9827SOL    HW230381   1.555   3.969   3.558
 9828SOL     OW30382   3.300   2.676   5.290
 9828SOL    HW130383   3.282   2.586   5.251
 9828SOL    HW230384   3.311   2.742   5.215
 9829SOL     OW30385   4.584   5.923   6.615
 9829SOL    HW130386   4.519   5.906   6.689
 9829SOL    HW230387   4.602   6.021   6.609
 9830SOL     OW30388   5.171   1.510   2.010
 9830SOL    HW130389   5.246   1.553   2.060
 9830SOL    HW230390   5.206   1.466   1.928
 9831SOL     OW30391   1.106   4.243   2.741
 9831SOL    HW130392   1.122   4.294   2.656
 9831SOL    HW230393   1.010   4.251   2.766
 9832SOL     OW30394   4.883   5.584   1.601
 9832SOL    HW130395   4.832   5.563   1.685
 9832SOL    HW230396   4.940   5.664   1.617
 9833SOL     OW30397   3.437   3.455   3.234
 9833SOL    HW130398   3.498   3.377   3.225
 9833SOL    HW230399   3.388   3.449   3.322
 9834SOL     OW30400   1.986   4.462   5.521
 9834SOL    HW130401   1.963   4.559   5.522
 9834SOL    HW230402   2.083   4.450   5.503
 9835SOL     OW30403   3.582   3.363   4.187
 9835SOL    HW130404   3.601   3.317   4.273
 9835SOL    HW230405   3.540   3.298   4.123
 9836SOL     OW30406   0.673   4.066   4.413
 9836SOL    HW130407   0.577   4.078   4.387
 9836SOL    HW230408   0.691   3.969   4.429
 9837SOL     OW30409   4.866   0.457   2.892
 9837SOL    HW130410   4.955   0.435   2.853
 9837SOL    HW230411   4.842   0.389   2.962
 9838SOL     OW30412   1.512   6.846   0.492
 9838SOL    HW130413   1.527   6.747   0.493
 9838SOL    HW230414   1.415   6.866   0.484
 9839SOL     OW30415   5.041   6.501   2.971
 9839SOL    HW130416   5.065   6.449   2.889
 9839SOL    HW230417   4.962   6.459   3.015
 9840SOL     OW30418   5.023   1.982   0.798
 9840SOL    HW130419   4.932   1.944   0.782
 9840SOL    HW230420   5.033   2.068   0.749
 9841SOL     OW30421   1.059   4.424   4.090
 9841SOL    HW130422   1.146   4.473   4.096
 9841SOL    HW230423   1.066   4.337   4.140
 9842SOL     OW30424   3.639   3.305   1.366
 9842SOL    HW130425   3.551   3.341   1.335
 9842SOL    HW230426   3.647   3.318   1.465
 9843SOL     OW30427   6.687   0.154   1.773
 9843SOL    HW130428   6.710   0.174   1.678
 9843SOL    HW230429   6.677   0.239   1.824
 9844SOL     OW30430   6.443   1.283   3.922
 9844SOL    HW130431   6.453   1.213   3.851
 9844SOL    HW230432   6.370   1.256   3.985
 9845SOL     OW30433   1.571   2.196   3.323
 9845SOL    HW130434   1.596   2.116   3.379
 9845SOL    HW230435   1.584   2.174   3.226
 9846SOL     OW30436   4.693   2.165   0.648
 9846SOL    HW130437   4.595   2.183   0.638
 9846SOL    HW230438   4.745   2.238   0.604
 9847SOL     OW30439   4.027   3.524   2.375
 9847SOL    HW130440   3.927   3.532   2.364
 9847SOL    HW230441   4.050   3.528   2.472
 9848SOL     OW30442   4.412   4.985   5.822
 9848SOL    HW130443   4.507   4.992   5.791
 9848SOL    HW230444   4.395   5.055   5.892
 9849SOL     OW30445   0.742   7.017   6.328
 9849SOL    HW130446   0.775   6.933   6.370
 9849SOL    HW230447   0.752   0.075   6.392
 9850SOL     OW30448   0.266   0.815   3.819
 9850SOL    HW130449   0.242   0.718   3.813
 9850SOL    HW230450   0.297   0.847   3.730
 9851SOL     OW30451   2.367   0.229   4.371
 9851SOL    HW130452   2.346   0.194   4.280
 9851SOL    HW230453   2.465   0.246   4.378
 9852SOL     OW30454   1.621   1.611   5.000
 9852SOL    HW130455   1.604   1.577   5.092
 9852SOL    HW230456   1.661   1.539   4.944
 9853SOL     OW30457   6.547   3.391   5.076
 9853SOL    HW130458   6.528   3.342   4.991
 9853SOL    HW230459   6.609   3.336   5.133
 9854SOL     OW30460   0.360   5.688   4.398
 9854SOL    HW130461   0.424   5.627   4.443
 9854SOL    HW230462   0.372   5.781   4.434
 9855SOL     OW30463   2.071   3.569   0.620
 9855SOL    HW130464   2.167   3.540   0.620
 9855SOL    HW230465   2.050   3.612   0.708
 9856SOL     OW30466   5.356   4.582   3.799
 9856SOL    HW130467   5.276   4.629   3.762
 9856SOL    HW230468   5.407   4.645   3.858
 9857SOL     OW30469   5.374   2.390   2.838
 9857SOL    HW130470   5.453   2.427   2.887
 9857SOL    HW230471   5.300   2.456   2.839
 9858SOL     OW30472   0.502   6.735   1.590
 9858SOL    HW130473   0.408   6.721   1.622
 9858SOL    HW230474   0.565   6.723   1.666
 9859SOL     OW30475   6.590   5.249   3.925
 9859SOL    HW130476   6.496   5.284   3.921
 9859SOL    HW230477   6.651   5.315   3.881
 9860SOL     OW30478   1.575   2.543   4.676
 9860SOL    HW130479   1.579   2.608   4.751
 9860SOL    HW230480   1.520   2.463   4.703
 9861SOL     OW30481   2.851   0.308   3.346
 9861SOL    HW130482   2.809   0.245   3.412
 9861SOL    HW230483   2.948   0.319   3.368
 9862SOL     OW30484   2.615   3.875   0.550
 9862SOL    HW130485   2.538   3.811   0.554
 9862SOL    HW230486   2.694   3.829   0.508
 9863SOL     OW30487   3.154   5.876   1.019
 9863SOL    HW130488   3.086   5.947   1.003
 9863SOL    HW230489   3.166   5.861   1.117
 9864SOL     OW30490   3.413   0.566   5.023
 9864SOL    HW130491   3.495   0.616   5.050
 9864SOL    HW230492   3.347   0.629   4.981
 9865SOL     OW30493   1.277   6.513   4.154
 9865SOL    HW130494   1.269   6.448   4.078
 9865SOL    HW230495   1.373   6.525   4.177
 9866SOL     OW30496   6.386   4.563   5.359
 9866SOL    HW130497   6.360   4.467   5.349
 9866SOL    HW230498   6.306   4.621   5.347
 9867SOL     OW30499   6.421   1.903   3.206
 9867SOL    HW130500   6.416   2.001   3.228
 9867SOL    HW230501   6.392   1.889   3.112
 9868SOL     OW30502   0.958   3.310   4.273
 9868SOL    HW130503   0.993   3.351   4.357
 9868SOL    HW230504   0.993   3.361   4.194
 9869SOL     OW30505   0.425   2.761   0.911
 9869SOL    HW130506   0.425   2.690   0.841
 9869SOL    HW230507   0.511   2.757   0.962
 9870SOL     OW30508   4.456   6.470   2.743
 9870SOL    HW130509   4.387   6.398   2.733
 9870SOL    HW230510   4.502   6.461   2.831
 9871SOL     OW30511   6.617   3.348   5.753
 9871SOL    HW130512   6.539   3.408   5.736
 9871SOL    HW230513   6.596   3.255   5.723
 9872SOL     OW30514   2.632   5.403   4.693
 9872SOL    HW130515   2.532   5.401   4.692
 9872SOL    HW230516   2.667   5.310   4.685
 9873SOL     OW30517   2.205   2.582   0.008
 9873SOL    HW130518   2.235   2.487   7.015
 9873SOL    HW230519   2.105   2.585   0.013
 9874SOL     OW30520   0.456   3.360   5.795
 9874SOL    HW130521   0.534   3.418   5.769
 9874SOL    HW230522   0.434   3.375   5.891
 9875SOL     OW30523   6.299   5.588   2.651
 9875SOL    HW130524   6.238   5.626   2.721
 9875SOL    HW230525   6.268   5.618   2.560
 9876SOL     OW30526   5.564   0.939   3.700
 9876SOL    HW130527   5.492   0.909   3.638
 9876SOL    HW230528   5.653   0.932   3.654
 9877SOL     OW30529   6.754   4.704   4.135
 9877SOL    HW130530   6.755   4.697   4.035
 9877SOL    HW230531   6.737   4.613   4.174
 9878SOL     OW30532   2.440   3.706   5.816
 9878SOL    HW130533   2.458   3.784   5.876
 9878SOL    HW230534   2.441   3.622   5.870
 9879SOL     OW30535   6.661   4.599   5.292
 9879SOL    HW130536   6.720   4.522   5.268
 9879SOL    HW230537   6.569   4.566   5.312
 9880SOL     OW30538   2.130   0.758   0.739
 9880SOL    HW130539   2.182   0.843   0.731
 9880SOL    HW230540   2.116   0.737   0.836
 9881SOL     OW30541   6.713   1.458   4.210
 9881SOL    HW130542   6.681   1.399   4.284
 9881SOL    HW230543   6.803   1.427   4.179
 9882SOL     OW30544   3.270   3.701   5.690
 9882SOL    HW130545   3.171   3.706   5.706
 9882SOL    HW230546   3.317   3.762   5.754
 9883SOL     OW30547   0.764   6.330   1.464
 9883SOL    HW130548   0.829   6.326   1.388
 9883SOL    HW230549   0.691   6.394   1.442
 9884SOL     OW30550   4.160   1.932   0.847
 9884SOL    HW130551   4.219   1.852   0.858
 9884SOL    HW230552   4.216   2.015   0.843
 9885SOL     OW30553   0.751   3.110   4.622
 9885SOL    HW130554   0.728   3.143   4.530
 9885SOL    HW230555   0.672   3.120   4.682
 9886SOL     OW30556   6.807   6.206   2.491
 9886SOL    HW130557   6.825   6.146   2.413
 9886SOL    HW230558   6.745   6.160   2.555
 9887SOL     OW30559   3.181   0.024   0.160
 9887SOL    HW130560   3.112   0.060   0.222
 9887SOL    HW230561   3.272   0.037   0.199
 9888SOL     OW30562   5.557   6.031   3.288
 9888SOL    HW130563   5.480   6.090   3.309
 9888SOL    HW230564   5.545   5.943   3.334
 9889SOL     OW30565   1.122   5.058   2.399
 9889SOL    HW130566   1.091   5.152   2.392
 9889SOL    HW230567   1.154   5.040   2.492
 9890SOL     OW30568   0.115   3.311   1.065
 9890SOL    HW130569   0.188   3.370   1.100
 9890SOL    HW230570   0.152   3.220   1.044
 9891SOL     OW30571   5.600   4.728   1.593
 9891SOL    HW130572   5.545   4.755   1.514
 9891SOL    HW230573   5.553   4.655   1.642
 9892SOL     OW30574   2.154   5.687   3.413
 9892SOL    HW130575   2.179   5.783   3.424
 9892SOL    HW230576   2.215   5.631   3.469
 9893SOL     OW30577   6.580   6.430   2.374
 9893SOL    HW130578   6.537   6.374   2.446
 9893SOL    HW230579   6.522   6.431   2.293
 9894SOL     OW30580   2.565   1.480   6.260
 9894SOL    HW130581   2.508   1.525   6.329
 9894SOL    HW230582   2.583   1.544   6.185
 9895SOL     OW30583   6.236   2.152   5.801
 9895SOL    HW130584   6.158   2.137   5.739
 9895SOL    HW230585   6.304   2.209   5.756
 9896SOL     OW30586   4.930   2.354   6.856
 9896SOL    HW130587   4.959   2.401   6.940
 9896SOL    HW230588   4.830   2.354   6.850
 9897SOL     OW30589   4.856   0.529   2.302
 9897SOL    HW130590   4.886   0.556   2.210
 9897SOL    HW230591   4.926   0.554   2.368
 9898SOL     OW30592   0.528   5.126   4.693
 9898SOL    HW130593   0.464   5.054   4.666
 9898SOL    HW230594   0.577   5.159   4.612
 9899SOL     OW30595   6.596   4.777   2.517
 9899SOL    HW130596   6.543   4.856   2.547
 9899SOL    HW230597   6.581   4.761   2.420
 9900SOL     OW30598   2.337   2.223   2.906
 9900SOL    HW130599   2.370   2.229   2.812
 9900SOL    HW230600   2.322   2.315   2.943
 9901SOL     OW30601   1.747   1.983   0.319
 9901SOL    HW130602   1.756   1.883   0.323
 9901SOL    HW230603   1.833   2.026   0.347
 9902SOL     OW30604   3.912   3.253   1.301
 9902SOL    HW130605   3.926   3.167   1.349
 9902SOL    HW230606   3.817   3.282   1.313
 9903SOL     OW30607   4.423   6.714   2.283
 9903SOL    HW130608   4.477   6.631   2.272
 9903SOL    HW230609   4.473   6.780   2.338
 9904SOL     OW30610   6.728   3.937   6.968
 9904SOL    HW130611   6.665   3.969   0.021
 9904SOL    HW230612   6.681   3.940   6.879
 9905SOL     OW30613   1.772   6.407   0.420
 9905SOL    HW130614   1.737   6.350   0.345
 9905SOL    HW230615   1.848   6.359   0.465
 9906SOL     OW30616   1.901   3.709   0.173
 9906SOL    HW130617   1.985   3.655   0.172
 9906SOL    HW230618   1.875   3.730   0.267
 9907SOL     OW30619   2.299   0.066   3.591
 9907SOL    HW130620   2.353   0.150   3.587
 9907SOL    HW230621   2.288   0.030   3.498
 9908SOL     OW30622   0.570   3.874   5.558
 9908SOL    HW130623   0.619   3.924   5.629
 9908SOL    HW230624   0.626   3.873   5.475
 9909SOL     OW30625   3.932   0.276   3.275
 9909SOL    HW130626   3.963   0.338   3.348
 9909SOL    HW230627   3.838   0.248   3.293
 9910SOL     OW30628   0.814   4.999   1.584
 9910SOL    HW130629   0.810   5.047   1.497
 9910SOL    HW230630   0.766   4.911   1.576
 9911SOL     OW30631   4.577   5.186   2.719
 9911SOL    HW130632   4.531   5.148   2.638
 9911SOL    HW230633   4.510   5.230   2.778
 9912SOL     OW30634   4.240   1.101   1.542
 9912SOL    HW130635   4.170   1.065   1.480
 9912SOL    HW230636   4.196   1.141   1.622
 9913SOL     OW30637   6.519   3.200   2.519
 9913SOL    HW130638   6.557   3.200   2.611
 9913SOL    HW230639   6.496   3.106   2.492
 9914SOL     OW30640   0.775   0.386   5.829
 9914SOL    HW130641   0.815   0.445   5.759
 9914SOL    HW230642   0.763   0.439   5.913
 9915SOL     OW30643   4.757   2.856   4.117
 9915SOL    HW130644   4.777   2.826   4.023
 9915SOL    HW230645   4.757   2.956   4.120
 9916SOL     OW30646   2.415   2.523   3.460
 9916SOL    HW130647   2.426   2.563   3.369
 9916SOL    HW230648   2.365   2.436   3.452
 9917SOL     OW30649   3.050   3.359   4.174
 9917SOL    HW130650   3.150   3.361   4.162
 9917SOL    HW230651   3.018   3.449   4.203
 9918SOL     OW30652   0.483   2.110   0.706
 9918SOL    HW130653   0.507   2.054   0.785
 9918SOL    HW230654   0.550   2.096   0.633
 9919SOL     OW30655   2.291   5.378   1.203
 9919SOL    HW130656   2.333   5.410   1.119
 9919SOL    HW230657   2.337   5.418   1.282
 9920SOL     OW30658   3.638   0.995   3.056
 9920SOL    HW130659   3.596   1.046   3.131
 9920SOL    HW230660   3.667   0.905   3.088
 9921SOL     OW30661   5.349   6.001   4.388
 9921SOL    HW130662   5.377   5.986   4.293
 9921SOL    HW230663   5.374   6.094   4.416
 9922SOL     OW30664   5.002   4.408   0.854
 9922SOL    HW130665   5.077   4.474   0.861
 9922SOL    HW230666   5.021   4.343   0.780
 9923SOL     OW30667   6.972   3.393   0.507
 9923SOL    HW130668   7.009   3.485   0.517
 9923SOL    HW230669   6.887   3.386   0.559
 9924SOL     OW30670   5.841   2.336   3.058
 9924SOL    HW130671   5.817   2.357   2.963
 9924SOL    HW230672   5.758   2.317   3.110
 9925SOL     OW30673   2.060   4.232   5.050
 9925SOL    HW130674   2.048   4.315   4.995
 9925SOL    HW230675   2.129   4.173   5.009
 9926SOL     OW30676   3.117   2.385   1.404
 9926SOL    HW130677   3.085   2.290   1.405
 9926SOL    HW230678   3.088   2.431   1.488
 9927SOL     OW30679   0.717   2.291   1.253
 9927SOL    HW130680   0.620   2.282   1.278
 9927SOL    HW230681   0.774   2.251   1.324
 9928SOL     OW30682   6.030   4.059   2.520
 9928SOL    HW130683   6.106   4.076   2.582
 9928SOL    HW230684   5.986   4.145   2.496
 9929SOL     OW30685   3.381   4.439   5.502
 9929SOL    HW130686   3.432   4.498   5.565
 9929SOL    HW230687   3.288   4.474   5.492
 9930SOL     OW30688   0.290   0.025   6.071
 9930SOL    HW130689   0.264   7.000   5.984
 9930SOL    HW230690   0.319   6.972   6.136
 9931SOL     OW30691   6.997   5.587   5.155
 9931SOL    HW130692   6.961   5.494   5.153
 9931SOL    HW230693   6.945   5.641   5.220
 9932SOL     OW30694   1.345   2.036   6.981
 9932SOL    HW130695   1.282   2.094   6.929
 9932SOL    HW230696   1.438   2.052   6.948
 9933SOL     OW30697   1.931   0.763   3.730
 9933SOL    HW130698   2.003   0.724   3.672
 9933SOL    HW230699   1.948   0.738   3.825
 9934SOL     OW30700   6.144   2.350   0.027
 9934SOL    HW130701   6.232   2.384   7.013
 9934SOL    HW230702   6.123   2.390   0.116
 9935SOL     OW30703   2.210   1.022   0.762
 9935SOL    HW130704   2.119   1.063   0.758
 9935SOL    HW230705   2.256   1.037   0.675
 9936SOL     OW30706   5.992   5.136   6.324
 9936SOL    HW130707   5.917   5.176   6.377
 9936SOL    HW230708   6.028   5.056   6.373
 9937SOL     OW30709   1.271   0.750   2.777
 9937SOL    HW130710   1.279   0.705   2.688
 9937SOL    HW230711   1.343   0.715   2.838
 9938SOL     OW30712   5.896   0.379   3.866
 9938SOL    HW130713   5.824   0.331   3.918
 9938SOL    HW230714   5.879   0.369   3.768
 9939SOL     OW30715   2.027   3.080   1.153
 9939SOL    HW130716   2.058   3.126   1.236
 9939SOL    HW230717   2.034   3.143   1.076
 9940SOL     OW30718   0.784   0.497   3.269
 9940SOL    HW130719   0.829   0.584   3.251
 9940SOL    HW230720   0.718   0.478   3.195
 9941SOL     OW30721   3.095   5.470   5.729
 9941SOL    HW130722   3.047   5.510   5.650
 9941SOL    HW230723   3.073   5.524   5.810
 9942SOL     OW30724   4.685   5.414   2.045
 9942SOL    HW130725   4.662   5.486   2.110
 9942SOL    HW230726   4.628   5.333   2.064
 9943SOL     OW30727   0.812   4.379   6.526
 9943SOL    HW130728   0.837   4.284   6.544
 9943SOL    HW230729   0.832   4.401   6.430
 9944SOL     OW30730   6.735   5.494   6.324
 9944SOL    HW130731   6.642   5.521   6.348
 9944SOL    HW230732   6.783   5.463   6.406
 9945SOL     OW30733   5.562   3.782   6.650
 9945SOL    HW130734   5.633   3.790   6.580
 9945SOL    HW230735   5.484   3.840   6.625
 9946SOL     OW30736   6.510   0.052   3.094
 9946SOL    HW130737   6.597   0.014   3.125
 9946SOL    HW230738   6.489   0.134   3.147
 9947SOL     OW30739   1.948   1.638   3.772
 9947SOL    HW130740   1.906   1.720   3.809
 9947SOL    HW230741   1.983   1.657   3.680
 9948SOL     OW30742   6.586   5.328   5.091
 9948SOL    HW130743   6.568   5.245   5.037
 9948SOL    HW230744   6.566   5.408   5.035
 9949SOL     OW30745   0.050   5.080   4.323
 9949SOL    HW130746   6.996   5.114   4.383
 9949SOL    HW230747   0.010   5.048   4.237
 9950SOL     OW30748   6.456   5.121   5.749
 9950SOL    HW130749   6.541   5.083   5.784
 9950SOL    HW230750   6.462   5.133   5.650
 9951SOL     OW30751   1.530   1.905   2.818
 9951SOL    HW130752   1.462   1.961   2.772
 9951SOL    HW230753   1.571   1.842   2.752
 9952SOL     OW30754   1.591   4.097   1.170
 9952SOL    HW130755   1.508   4.058   1.130
 9952SOL    HW230756   1.670   4.066   1.119
 9953SOL     OW30757   5.368   2.299   3.440
 9953SOL    HW130758   5.399   2.367   3.373
 9953SOL    HW230759   5.436   2.291   3.513
 9954SOL     OW30760   1.468   0.691   4.798
 9954SOL    HW130761   1.398   0.620   4.783
 9954SOL    HW230762   1.457   0.730   4.890
 9955SOL     OW30763   3.999   3.979   6.431
 9955SOL    HW130764   3.927   4.003   6.367
 9955SOL    HW230765   3.961   3.972   6.523
 9956SOL     OW30766   0.551   3.911   2.597
 9956SOL    HW130767   0.588   3.934   2.508
 9956SOL    HW230768   0.613   3.847   2.644
 9957SOL     OW30769   5.230   0.058   1.798
 9957SOL    HW130770   5.193   0.122   1.731
 9957SOL    HW230771   5.299   7.018   1.754
 9958SOL     OW30772   2.991   5.876   5.658
 9958SOL    HW130773   2.929   5.945   5.697
 9958SOL    HW230774   3.059   5.922   5.600
 9959SOL     OW30775   4.101   3.288   2.239
 9959SOL    HW130776   4.197   3.282   2.269
 9959SOL    HW230777   4.064   3.377   2.264
 9960SOL     OW30778   0.476   6.514   1.110
 9960SOL    HW130779   0.407   6.509   1.038
 9960SOL    HW230780   0.552   6.571   1.080
 9961SOL     OW30781   2.503   4.376   2.576
 9961SOL    HW130782   2.456   4.314   2.638
 9961SOL    HW230783   2.543   4.452   2.628
 9962SOL     OW30784   3.874   0.749   2.030
 9962SOL    HW130785   3.863   0.650   2.043
 9962SOL    HW230786   3.784   0.792   2.023
 9963SOL     OW30787   2.642   3.374   6.592
 9963SOL    HW130788   2.701   3.454   6.578
 9963SOL    HW230789   2.577   3.368   6.516
 9964SOL     OW30790   3.831   4.928   5.494
 9964SOL    HW130791   3.797   4.976   5.574
 9964SOL    HW230792   3.896   4.857   5.523
 9965SOL     OW30793   3.211   5.641   4.557
 9965SOL    HW130794   3.278   5.713   4.574
 9965SOL    HW230795   3.251   5.572   4.496
 9966SOL     OW30796   2.432   5.328   1.788
 9966SOL    HW130797   2.415   5.423   1.762
 9966SOL    HW230798   2.527   5.316   1.814
 9967SOL     OW30799   6.126   4.984   2.527
 9967SOL    HW130800   6.095   4.959   2.618
 9967SOL    HW230801   6.208   5.042   2.534
 9968SOL     OW30802   3.953   5.551   6.776
 9968SOL    HW130803   3.939   5.602   6.691
 9968SOL    HW230804   3.892   5.587   6.847
 9969SOL     OW30805   1.619   2.796   4.306
 9969SOL    HW130806   1.678   2.815   4.227
 9969SOL    HW230807   1.656   2.842   4.387
 9970SOL     OW30808   6.736   5.092   1.619
 9970SOL    HW130809   6.780   5.155   1.682
 9970SOL    HW230810   6.798   5.072   1.543
 9971SOL     OW30811   2.609   3.532   1.030
 9971SOL    HW130812   2.539   3.467   1.000
 9971SOL    HW230813   2.667   3.489   1.100
 9972SOL     OW30814   2.916   4.509   0.655
 9972SOL    HW130815   2.828   4.520   0.608
 9972SOL    HW230816   2.907   4.436   0.724
 9973SOL     OW30817   4.146   2.284   4.243
 9973SOL    HW130818   4.169   2.281   4.341
 9973SOL    HW230819   4.057   2.241   4.228
 9974SOL     OW30820   0.021   3.489   2.867
 9974SOL    HW130821   6.974   3.565   2.882
 9974SOL    HW230822   7.004   3.430   2.794
 9975SOL     OW30823   6.949   5.137   6.351
 9975SOL    HW130824   6.946   5.066   6.420
 9975SOL    HW230825   7.016   5.114   6.280
 9976SOL     OW30826   0.751   5.178   5.343
 9976SOL    HW130827   0.715   5.096   5.388
 9976SOL    HW230828   0.685   5.209   5.274
 9977SOL     OW30829   5.798   4.998   6.050
 9977SOL    HW130830   5.884   5.001   6.101
 9977SOL    HW230831   5.818   4.999   5.952
 9978SOL     OW30832   6.288   1.355   5.612
 9978SOL    HW130833   6.213   1.394   5.665
 9978SOL    HW230834   6.335   1.428   5.562
 9979SOL     OW30835   6.772   3.999   6.575
 9979SOL    HW130836   6.774   3.905   6.543
 9979SOL    HW230837   6.864   4.027   6.604
 9980SOL     OW30838   1.599   0.416   0.456
 9980SOL    HW130839   1.576   0.320   0.471
 9980SOL    HW230840   1.572   0.470   0.536
 9981SOL     OW30841   2.904   2.267   0.726
 9981SOL    HW130842   2.890   2.272   0.627
 9981SOL    HW230843   2.851   2.339   0.771
 9982SOL     OW30844   1.208   1.247   4.042
 9982SOL    HW130845   1.260   1.314   3.990
 9982SOL    HW230846   1.138   1.294   4.097
 9983SOL     OW30847   0.637   1.290   2.193
 9983SOL    HW130848   0.643   1.374   2.247
 9983SOL    HW230849   0.635   1.313   2.096
 9984SOL     OW30850   0.674   6.728   0.110
 9984SOL    HW130851   0.774   6.719   0.116
 9984SOL    HW230852   0.631   6.639   0.126
 9985SOL     OW30853   3.543   6.229   1.091
 9985SOL    HW130854   3.565   6.224   0.994
 9985SOL    HW230855   3.445   6.247   1.102
 9986SOL     OW30856   5.705   4.942   1.001
 9986SOL    HW130857   5.675   4.860   0.953
 9986SOL    HW230858   5.790   4.975   0.958
 9987SOL     OW30859   6.365   2.164   3.084
 9987SOL    HW130860   6.307   2.194   3.160
 9987SOL    HW230861   6.309   2.159   3.001
 9988SOL     OW30862   6.821   5.183   4.451
 9988SOL    HW130863   6.756   5.192   4.376
 9988SOL    HW230864   6.857   5.273   4.475
 9989SOL     OW30865   6.238   4.086   2.691
 9989SOL    HW130866   6.287   4.151   2.749
 9989SOL    HW230867   6.201   4.013   2.748
 9990SOL     OW30868   2.176   6.563   3.797
 9990SOL    HW130869   2.119   6.520   3.727
 9990SOL    HW230870   2.195   6.658   3.771
 9991SOL     OW30871   2.164   3.015   4.069
 9991SOL    HW130872   2.196   2.934   4.119
 9991SOL    HW230873   2.243   3.071   4.043
 9992SOL     OW30874   4.155   3.544   0.588
 9992SOL    HW130875   4.173   3.467   0.527
 9992SOL    HW230876   4.202   3.529   0.675
 9993SOL     OW30877   4.034   6.706   3.549
 9993SOL    HW130878   4.131   6.684   3.547
 9993SOL    HW230879   3.990   6.659   3.626
 9994SOL     OW30880   6.977   4.177   2.267
 9994SOL    HW130881   6.946   4.083   2.277
 9994SOL    HW230882   6.902   4.239   2.288
 9995SOL     OW30883   3.605   0.422   3.580
 9995SOL    HW130884   3.565   0.512   3.561
 9995SOL    HW230885   3.553   0.378   3.654
 9996SOL     OW30886   2.745   3.308   1.757
 9996SOL    HW130887   2.650   3.280   1.745
 9996SOL    HW230888   2.749   3.407   1.771
 9997SOL     OW30889   5.150   0.902   1.849
 9997SOL    HW130890   5.140   0.827   1.783
 9997SOL    HW230891   5.183   0.984   1.801
 9998SOL     OW30892   5.771   3.485   2.360
 9998SOL    HW130893   5.683   3.500   2.405
 9998SOL    HW230894   5.808   3.573   2.329
 9999SOL     OW30895   0.348   5.898   4.911
 9999SOL    HW130896   0.333   5.910   5.009
 9999SOL    HW230897   0.369   5.986   4.869
10000SOL     OW30898   5.379   2.150   0.030
10000SOL    HW130899   5.392   2.120   0.125
10000SOL    HW230900   5.445   2.104   6.989
10001SOL     OW30901   4.085   0.936   1.321
10001SOL    HW130902   4.036   0.990   1.253
10001SOL    HW230903   4.020   0.890   1.381
10002SOL     OW30904   1.729   1.065   1.728
10002SOL    HW130905   1.677   1.092   1.810
10002SOL    HW230906   1.826   1.078   1.744
10003SOL     OW30907   3.006   2.110   2.250
10003SOL    HW130908   3.088   2.068   2.209
10003SOL    HW230909   2.966   2.175   2.185
10004SOL     OW30910   5.483   3.051   4.995
10004SOL    HW130911   5.556   2.993   4.960
10004SOL    HW230912   5.400   2.997   5.007
10005SOL     OW30913   3.105   5.597   2.323
10005SOL    HW130914   3.039   5.534   2.364
10005SOL    HW230915   3.117   5.676   2.384
10006SOL     OW30916   5.999   0.209   5.608
10006SOL    HW130917   6.027   0.235   5.700
10006SOL    HW230918   6.033   0.117   5.587
10007SOL     OW30919   0.665   3.128   3.999
10007SOL    HW130920   0.763   3.146   3.991
10007SOL    HW230921   0.640   3.055   3.934
10008SOL     OW30922   4.580   1.073   3.363
10008SOL    HW130923   4.523   1.142   3.408
10008SOL    HW230924   4.521   1.002   3.324
10009SOL     OW30925   1.509   4.276   1.537
10009SOL    HW130926   1.410   4.263   1.549
10009SOL    HW230927   1.542   4.344   1.601
10010SOL     OW30928   2.442   6.213   0.278
10010SOL    HW130929   2.350   6.181   0.300
10010SOL    HW230930   2.460   6.195   0.181
10011SOL     OW30931   0.608   3.921   6.435
10011SOL    HW130932   0.621   3.951   6.341
10011SOL    HW230933   0.610   3.821   6.440
10012SOL     OW30934   5.472   0.028   2.438
10012SOL    HW130935   5.493   0.122   2.465
10012SOL    HW230936   5.537   6.983   2.480
10013SOL     OW30937   1.538   1.933   3.805
10013SOL    HW130938   1.609   1.906   3.870
10013SOL    HW230939   1.500   2.022   3.833
10014SOL     OW30940   0.632   1.616   1.341
10014SOL    HW130941   0.582   1.552   1.282
10014SOL    HW230942   0.723   1.579   1.360
10015SOL     OW30943   4.182   5.426   0.115
10015SOL    HW130944   4.273   5.463   0.130
10015SOL    HW230945   4.184   5.327   0.126
10016SOL     OW30946   1.320   0.626   4.357
10016SOL    HW130947   1.302   0.532   4.388
10016SOL    HW230948   1.414   0.652   4.381
10017SOL     OW30949   1.709   1.849   3.118
10017SOL    HW130950   1.653   1.770   3.094
10017SOL    HW230951   1.656   1.932   3.103
10018SOL     OW30952   6.716   4.460   6.017
10018SOL    HW130953   6.755   4.423   6.102
10018SOL    HW230954   6.776   4.438   5.940
10019SOL     OW30955   0.781   1.938   3.302
10019SOL    HW130956   0.788   1.946   3.203
10019SOL    HW230957   0.688   1.961   3.331
10020SOL     OW30958   0.502   0.854   1.335
10020SOL    HW130959   0.458   0.877   1.249
10020SOL    HW230960   0.598   0.884   1.333
10021SOL     OW30961   1.155   1.976   2.556
10021SOL    HW130962   1.085   1.922   2.603
10021SOL    HW230963   1.191   1.923   2.478
10022SOL     OW30964   3.553   6.643   0.775
10022SOL    HW130965   3.588   6.613   0.686
10022SOL    HW230966   3.598   6.591   0.847
10023SOL     OW30967   1.888   4.850   4.998
10023SOL    HW130968   1.923   4.943   4.989
10023SOL    HW230969   1.894   4.804   4.910
10024SOL     OW30970   1.930   6.045   1.332
10024SOL    HW130971   1.937   6.005   1.424
10024SOL    HW230972   1.997   6.002   1.272
10025SOL     OW30973   2.133   3.017   1.940
10025SOL    HW130974   2.045   2.976   1.965
10025SOL    HW230975   2.203   2.946   1.934
10026SOL     OW30976   5.124   0.101   3.374
10026SOL    HW130977   5.133   0.037   3.298
10026SOL    HW230978   5.154   0.192   3.345
10027SOL     OW30979   0.464   2.946   5.264
10027SOL    HW130980   0.404   3.007   5.316
10027SOL    HW230981   0.560   2.971   5.281
10028SOL     OW30982   1.685   1.612   2.338
10028SOL    HW130983   1.704   1.636   2.243
10028SOL    HW230984   1.771   1.592   2.385
10029SOL     OW30985   1.731   1.817   3.953
10029SOL    HW130986   1.802   1.835   4.022
10029SOL    HW230987   1.696   1.725   3.966
10030SOL     OW30988   3.126   0.188   4.806
10030SOL    HW130989   3.061   0.159   4.736
10030SOL    HW230990   3.132   0.288   4.807
10031SOL     OW30991   5.504   4.659   4.237
10031SOL    HW130992   5.517   4.589   4.167
10031SOL    HW230993   5.501   4.616   4.327
10032SOL     OW30994   4.125   0.572   5.235
10032SOL    HW130995   4.116   0.545   5.331
10032SOL    HW230996   4.102   0.669   5.225
10033SOL     OW30997   4.627   2.557   3.825
10033SOL    HW130998   4.693   2.482   3.820
10033SOL    HW230999   4.594   2.567   3.918
10034SOL     OW31000   3.456   0.362   4.282
10034SOL    HW131001   3.498   0.328   4.198
10034SOL    HW231002   3.508   0.329   4.361
10035SOL     OW31003   6.623   4.857   1.782
10035SOL    HW131004   6.675   4.911   1.716
10035SOL    HW231005   6.683   4.787   1.822
10036SOL     OW31006   6.433   0.489   0.859
10036SOL    HW131007   6.342   0.448   0.872
10036SOL    HW231008   6.453   0.498   0.762
10037SOL     OW31009   5.926   1.496   0.297
10037SOL    HW131010   5.964   1.404   0.292
10037SOL    HW231011   5.930   1.529   0.392
10038SOL     OW31012   4.335   0.716   6.272
10038SOL    HW131013   4.332   0.785   6.344
10038SOL    HW231014   4.247   0.668   6.268
10039SOL     OW31015   3.877   6.308   5.443
10039SOL    HW131016   3.786   6.346   5.454
10039SOL    HW231017   3.912   6.332   5.352
10040SOL     OW31018   4.176   6.088   6.194
10040SOL    HW131019   4.078   6.091   6.175
10040SOL    HW231020   4.200   5.999   6.232
10041SOL     OW31021   4.115   5.782   6.872
10041SOL    HW131022   4.130   5.685   6.850
10041SOL    HW231023   4.107   5.792   6.971
10042SOL     OW31024   1.617   2.192   5.010
10042SOL    HW131025   1.538   2.149   4.968
10042SOL    HW231026   1.642   2.143   5.094
10043SOL     OW31027   0.676   2.512   4.534
10043SOL    HW131028   0.654   2.603   4.499
10043SOL    HW231029   0.767   2.513   4.576
10044SOL     OW31030   3.024   1.491   4.870
10044SOL    HW131031   3.010   1.436   4.788
10044SOL    HW231032   3.121   1.517   4.876
10045SOL     OW31033   5.246   6.708   3.666
10045SOL    HW131034   5.164   6.728   3.613
10045SOL    HW231035   5.248   6.611   3.688
10046SOL     OW31036   1.898   3.529   1.370
10046SOL    HW131037   1.967   3.520   1.298
10046SOL    HW231038   1.943   3.539   1.459
10047SOL     OW31039   6.536   3.065   4.846
10047SOL    HW131040   6.614   3.032   4.900
10047SOL    HW231041   6.452   3.023   4.880
10048SOL     OW31042   6.119   1.505   2.528
10048SOL    HW131043   6.149   1.500   2.623
10048SOL    HW231044   6.095   1.413   2.495
10049SOL     OW31045   0.488   0.352   6.756
10049SOL    HW131046   0.396   0.361   6.716
10049SOL    HW231047   0.491   0.271   6.813
10050SOL     OW31048   5.812   2.366   4.618
10050SOL    HW131049   5.812   2.318   4.706
10050SOL    HW231050   5.860   2.312   4.550
10051SOL     OW31051   6.135   2.115   5.067
10051SOL    HW131052   6.061   2.059   5.030
10051SOL    HW231053   6.186   2.062   5.135
10052SOL     OW31054   2.686   2.226   2.895
10052SOL    HW131055   2.631   2.153   2.935
10052SOL    HW231056   2.667   2.312   2.942
10053SOL     OW31057   3.312   6.030   1.952
10053SOL    HW131058   3.218   6.001   1.933
10053SOL    HW231059   3.311   6.124   1.986
10054SOL     OW31060   5.143   5.212   6.318
10054SOL    HW131061   5.192   5.282   6.369
10054SOL    HW231062   5.080   5.164   6.379
10055SOL     OW31063   6.375   1.816   5.066
10055SOL    HW131064   6.433   1.862   4.999
10055SOL    HW231065   6.304   1.764   5.019
10056SOL     OW31066   5.779   4.322   2.444
10056SOL    HW131067   5.724   4.404   2.425
10056SOL    HW231068   5.870   4.350   2.475
10057SOL     OW31069   3.791   1.751   4.501
10057SOL    HW131070   3.795   1.741   4.601
10057SOL    HW231071   3.844   1.831   4.474
10058SOL     OW31072   0.671   3.811   4.477
10058SOL    HW131073   0.726   3.728   4.467
10058SOL    HW231074   0.579   3.787   4.509
10059SOL     OW31075   5.524   0.695   1.308
10059SOL    HW131076   5.578   0.702   1.224
10059SOL    HW231077   5.528   0.782   1.357
10060SOL     OW31078   1.532   1.514   1.224
10060SOL    HW131079   1.580   1.531   1.310
10060SOL    HW231080   1.598   1.491   1.152
10061SOL     OW31081   4.858   1.599   4.227
10061SOL    HW131082   4.820   1.579   4.136
10061SOL    HW231083   4.908   1.520   4.261
10062SOL     OW31084   6.724   0.480   4.058
10062SOL    HW131085   6.708   0.520   4.148
10062SOL    HW231086   6.805   0.422   4.060
10063SOL     OW31087   2.346   0.536   3.768
10063SOL    HW131088   2.270   0.476   3.743
10063SOL    HW231089   2.418   0.528   3.699
10064SOL     OW31090   4.844   6.710   7.012
10064SOL    HW131091   4.876   6.780   0.058
10064SOL    HW231092   4.898   6.626   0.008
10065SOL     OW31093   2.067   0.243   2.106
10065SOL    HW131094   2.134   0.236   2.032
10065SOL    HW231095   2.106   0.207   2.190
10066SOL     OW31096   0.886   2.598   3.791
10066SOL    HW131097   0.850   2.686   3.821
10066SOL    HW231098   0.818   2.527   3.808
10067SOL     OW31099   6.574   4.116   5.040
10067SOL    HW131100   6.504   4.049   5.017
10067SOL    HW231101   6.561   4.198   4.986
10068SOL     OW31102   6.927   3.375   3.256
10068SOL    HW131103   6.989   3.405   3.328
10068SOL    HW231104   6.966   3.297   3.208
10069SOL     OW31105   2.463   5.199   2.992
10069SOL    HW131106   2.436   5.175   3.085
10069SOL    HW231107   2.460   5.298   2.981
10070SOL     OW31108   6.514   6.767   5.165
10070SOL    HW131109   6.572   6.730   5.093
10070SOL    HW231110   6.425   6.793   5.126
10071SOL     OW31111   6.029   5.848   4.188
10071SOL    HW131112   6.066   5.827   4.279
10071SOL    HW231113   6.101   5.887   4.131
10072SOL     OW31114   0.131   6.305   3.878
10072SOL    HW131115   0.156   6.304   3.975
10072SOL    HW231116   0.039   6.343   3.868
10073SOL     OW31117   5.895   4.493   5.324
10073SOL    HW131118   5.870   4.563   5.258
10073SOL    HW231119   5.856   4.405   5.296
10074SOL     OW31120   1.598   0.501   5.295
10074SOL    HW131121   1.650   0.573   5.250
10074SOL    HW231122   1.645   0.413   5.284
10075SOL     OW31123   1.971   2.844   2.872
10075SOL    HW131124   1.886   2.862   2.822
10075SOL    HW231125   2.023   2.773   2.824
10076SOL     OW31126   0.183   0.238   3.940
10076SOL    HW131127   0.254   0.172   3.965
10076SOL    HW231128   0.164   0.297   4.019
10077SOL     OW31129   4.173   3.028   6.342
10077SOL    HW131130   4.139   3.031   6.248
10077SOL    HW231131   4.154   2.937   6.382
10078SOL     OW31132   0.574   5.478   4.128
10078SOL    HW131133   0.553   5.565   4.084
10078SOL    HW231134   0.519   5.406   4.085
10079SOL     OW31135   6.742   3.847   3.285
10079SOL    HW131136   6.713   3.919   3.348
10079SOL    HW231137   6.841   3.837   3.288
10080SOL     OW31138   4.476   1.259   5.642
10080SOL    HW131139   4.551   1.235   5.704
10080SOL    HW231140   4.509   1.258   5.548
10081SOL     OW31141   6.828   0.352   0.802
10081SOL    HW131142   6.871   0.368   0.713
10081SOL    HW231143   6.887   0.388   0.874
10082SOL     OW31144   0.282   5.298   1.353
10082SOL    HW131145   0.200   5.281   1.408
10082SOL    HW231146   0.266   5.376   1.293
10083SOL     OW31147   4.392   1.123   3.593
10083SOL    HW131148   4.387   1.023   3.585
10083SOL    HW231149   4.299   1.161   3.590
10084SOL     OW31150   1.987   0.864   5.340
10084SOL    HW131151   1.950   0.914   5.417
10084SOL    HW231152   2.050   0.793   5.373
10085SOL     OW31153   2.479   6.028   1.163
10085SOL    HW131154   2.421   6.004   1.241
10085SOL    HW231155   2.531   5.948   1.134
10086SOL     OW31156   4.257   5.757   2.654
10086SOL    HW131157   4.175   5.702   2.667
10086SOL    HW231158   4.335   5.711   2.696
10087SOL     OW31159   6.945   6.699   3.802
10087SOL    HW131160   6.845   6.686   3.801
10087SOL    HW231161   6.967   6.786   3.758
10088SOL     OW31162   6.755   0.230   1.506
10088SOL    HW131163   6.679   0.270   1.455
10088SOL    HW231164   6.841   0.251   1.459
10089SOL     OW31165   2.809   1.924   2.340
10089SOL    HW131166   2.726   1.980   2.352
10089SOL    HW231167   2.888   1.984   2.327
10090SOL     OW31168   1.467   4.711   1.554
10090SOL    HW131169   1.434   4.627   1.596
10090SOL    HW231170   1.418   4.789   1.592
10091SOL     OW31171   0.602   4.380   6.340
10091SOL    HW131172   0.657   4.381   6.424
10091SOL    HW231173   0.508   4.406   6.362
10092SOL     OW31174   2.327   2.415   5.618
10092SOL    HW131175   2.243   2.413   5.672
10092SOL    HW231176   2.400   2.459   5.671
10093SOL     OW31177   6.509   2.715   4.691
10093SOL    HW131178   6.451   2.694   4.612
10093SOL    HW231179   6.593   2.758   4.659
10094SOL     OW31180   2.821   5.835   1.656
10094SOL    HW131181   2.745   5.840   1.720
10094SOL    HW231182   2.875   5.919   1.662
10095SOL     OW31183   6.102   1.693   5.156
10095SOL    HW131184   6.166   1.617   5.152
10095SOL    HW231185   6.008   1.658   5.164
10096SOL     OW31186   4.461   5.086   3.003
10096SOL    HW131187   4.442   5.001   2.955
10096SOL    HW231188   4.449   5.163   2.941
10097SOL     OW31189   0.733   1.311   0.648
10097SOL    HW131190   0.800   1.238   0.634
10097SOL    HW231191   0.642   1.277   0.628
10098SOL     OW31192   2.774   0.333   5.019
10098SOL    HW131193   2.694   0.372   4.973
10098SOL    HW231194   2.821   0.404   5.071
10099SOL     OW31195   0.044   5.239   1.166
10099SOL    HW131196   0.042   5.153   1.115
10099SOL    HW231197   0.117   5.235   1.234
10100SOL     OW31198   4.716   0.022   4.789
10100SOL    HW131199   4.626   7.001   4.808
10100SOL    HW231200   4.708   0.098   4.725
10101SOL     OW31201   6.392   3.901   1.822
10101SOL    HW131202   6.464   3.831   1.813
10101SOL    HW231203   6.422   3.971   1.886
10102SOL     OW31204   0.418   1.651   2.550
10102SOL    HW131205   0.338   1.685   2.501
10102SOL    HW231206   0.399   1.560   2.586
10103SOL     OW31207   2.435   0.661   5.887
10103SOL    HW131208   2.380   0.579   5.904
10103SOL    HW231209   2.514   0.661   5.948
10104SOL     OW31210   1.951   1.861   4.113
10104SOL    HW131211   2.005   1.779   4.131
10104SOL    HW231212   2.011   1.934   4.081
10105SOL     OW31213   1.619   0.843   0.186
10105SOL    HW131214   1.553   0.840   0.261
10105SOL    HW231215   1.698   0.899   0.212
10106SOL     OW31216   3.892   6.486   0.539
10106SOL    HW131217   3.884   6.427   0.459
10106SOL    HW231218   3.946   6.440   0.610
10107SOL     OW31219   5.965   1.508   5.813
10107SOL    HW131220   5.995   1.531   5.905
10107SOL    HW231221   5.950   1.409   5.807
10108SOL     OW31222   6.484   0.259   7.015
10108SOL    HW131223   6.478   0.202   6.933
10108SOL    HW231224   6.466   0.354   6.992
10109SOL     OW31225   5.682   0.291   0.593
10109SOL    HW131226   5.738   0.223   0.547
10109SOL    HW231227   5.722   0.382   0.580
10110SOL     OW31228   3.647   5.039   4.783
10110SOL    HW131229   3.549   5.035   4.800
10110SOL    HW231230   3.666   5.011   4.689
10111SOL     OW31231   5.827   3.246   3.323
10111SOL    HW131232   5.858   3.337   3.295
10111SOL    HW231233   5.880   3.177   3.274
10112SOL     OW31234   5.541   3.427   3.748
10112SOL    HW131235   5.571   3.414   3.653
10112SOL    HW231236   5.450   3.386   3.760
10113SOL     OW31237   4.279   0.148   0.076
10113SOL    HW131238   4.362   0.113   0.032
10113SOL    HW231239   4.265   0.101   0.163
10114SOL     OW31240   4.358   1.335   1.298
10114SOL    HW131241   4.407   1.261   1.344
10114SOL    HW231242   4.270   1.351   1.344
10115SOL     OW31243   3.830   0.894   4.998
10115SOL    HW131244   3.872   0.810   4.964
10115SOL    HW231245   3.735   0.900   4.966
10116SOL     OW31246   0.635   6.473   0.162
10116SOL    HW131247   0.722   6.425   0.169
10116SOL    HW231248   0.562   6.407   0.143
10117SOL     OW31249   6.744   5.665   6.005
10117SOL    HW131250   6.689   5.581   6.012
10117SOL    HW231251   6.728   5.708   5.916
10118SOL     OW31252   2.609   4.637   2.656
10118SOL    HW131253   2.684   4.628   2.722
10118SOL    HW231254   2.533   4.687   2.699
10119SOL     OW31255   0.038   5.760   4.572
10119SOL    HW131256   0.085   5.817   4.504
10119SOL    HW231257   0.106   5.718   4.632
10120SOL     OW31258   2.141   3.544   4.545
10120SOL    HW131259   2.164   3.448   4.529
10120SOL    HW231260   2.116   3.588   4.459
10121SOL     OW31261   6.225   3.374   6.834
10121SOL    HW131262   6.168   3.292   6.842
10121SOL    HW231263   6.321   3.349   6.844
10122SOL     OW31264   6.173   2.986   2.334
10122SOL    HW131265   6.227   2.993   2.250
10122SOL    HW231266   6.076   2.986   2.311
10123SOL     OW31267   5.316   6.112   0.023
10123SOL    HW131268   5.241   6.088   6.979
10123SOL    HW231269   5.337   6.035   0.083
10124SOL     OW31270   1.309   4.077   0.284
10124SOL    HW131271   1.332   4.101   0.378
10124SOL    HW231272   1.210   4.083   0.272
10125SOL     OW31273   1.868   0.822   2.208
10125SOL    HW131274   1.832   0.731   2.186
10125SOL    HW231275   1.904   0.823   2.301
10126SOL     OW31276   0.003   6.853   6.622
10126SOL    HW131277   6.978   6.765   6.601
10126SOL    HW231278   0.039   6.894   6.539
10127SOL     OW31279   2.949   4.721   6.196
10127SOL    HW131280   2.943   4.634   6.148
10127SOL    HW231281   3.045   4.747   6.205
10128SOL     OW31282   2.726   0.979   0.286
10128SOL    HW131283   2.708   0.961   0.383
10128SOL    HW231284   2.736   1.077   0.272
10129SOL     OW31285   6.165   1.904   2.274
10129SOL    HW131286   6.108   1.900   2.192
10129SOL    HW231287   6.194   1.812   2.299
10130SOL     OW31288   1.357   3.080   1.430
10130SOL    HW131289   1.293   3.130   1.372
10130SOL    HW231290   1.313   2.999   1.468
10131SOL     OW31291   1.085   6.979   5.100
10131SOL    HW131292   1.082   6.928   5.186
10131SOL    HW231293   1.044   6.923   5.027
10132SOL     OW31294   3.780   0.536   4.326
10132SOL    HW131295   3.736   0.626   4.334
10132SOL    HW231296   3.820   0.511   4.414
10133SOL     OW31297   3.600   6.502   0.524
10133SOL    HW131298   3.584   6.411   0.564
10133SOL    HW231299   3.698   6.522   0.527
10134SOL     OW31300   6.914   6.597   2.681
10134SOL    HW131301   6.824   6.558   2.665
10134SOL    HW231302   6.958   6.618   2.593
10135SOL     OW31303   4.851   3.223   3.542
10135SOL    HW131304   4.836   3.146   3.604
10135SOL    HW231305   4.813   3.202   3.453
10136SOL     OW31306   5.332   1.238   2.280
10136SOL    HW131307   5.402   1.250   2.210
10136SOL    HW231308   5.327   1.141   2.307
10137SOL     OW31309   6.880   3.215   4.431
10137SOL    HW131310   6.874   3.314   4.435
10137SOL    HW231311   6.976   3.187   4.432
10138SOL     OW31312   5.723   3.448   0.030
10138SOL    HW131313   5.815   3.464   7.013
10138SOL    HW231314   5.679   3.536   0.051
10139SOL     OW31315   2.894   3.515   3.440
10139SOL    HW131316   2.866   3.573   3.517
10139SOL    HW231317   2.900   3.420   3.471
10140SOL     OW31318   6.318   5.805   7.004
10140SOL    HW131319   6.399   5.750   6.983
10140SOL    HW231320   6.260   5.757   0.051
10141SOL     OW31321   4.027   0.951   5.712
10141SOL    HW131322   4.104   0.914   5.763
10141SOL    HW231323   4.059   1.026   5.653
10142SOL     OW31324   6.747   0.106   6.069
10142SOL    HW131325   6.739   0.143   6.162
10142SOL    HW231326   6.682   0.153   6.010
10143SOL     OW31327   5.207   1.198   6.972
10143SOL    HW131328   5.185   1.128   0.023
10143SOL    HW231329   5.296   1.177   6.931
10144SOL     OW31330   3.437   0.882   5.865
10144SOL    HW131331   3.448   0.981   5.867
10144SOL    HW231332   3.348   0.857   5.904
10145SOL     OW31333   2.880   5.211   3.914
10145SOL    HW131334   2.786   5.183   3.896
10145SOL    HW231335   2.884   5.264   3.999
10146SOL     OW31336   4.582   4.480   4.925
10146SOL    HW131337   4.510   4.544   4.952
10146SOL    HW231338   4.571   4.394   4.974
10147SOL     OW31339   5.545   4.082   5.601
10147SOL    HW131340   5.501   4.142   5.534
10147SOL    HW231341   5.479   4.014   5.633
10148SOL     OW31342   5.045   4.940   6.291
10148SOL    HW131343   5.008   4.847   6.284
10148SOL    HW231344   5.145   4.936   6.286
10149SOL     OW31345   5.813   3.467   1.509
10149SOL    HW131346   5.714   3.453   1.510
10149SOL    HW231347   5.833   3.554   1.464
10150SOL     OW31348   3.831   3.231   0.940
10150SOL    HW131349   3.920   3.239   0.985
10150SOL    HW231350   3.763   3.202   1.007
10151SOL     OW31351   0.507   5.840   6.978
10151SOL    HW131352   0.414   5.823   7.011
10151SOL    HW231353   0.553   5.753   6.963
10152SOL     OW31354   6.713   6.172   4.640
10152SOL    HW131355   6.758   6.083   4.629
10152SOL    HW231356   6.615   6.158   4.653
10153SOL     OW31357   4.392   5.666   3.406
10153SOL    HW131358   4.300   5.692   3.435
10153SOL    HW231359   4.393   5.568   3.387
10154SOL     OW31360   3.954   6.047   5.151
10154SOL    HW131361   3.955   5.952   5.184
10154SOL    HW231362   3.937   6.048   5.053
10155SOL     OW31363   3.689   2.100   6.173
10155SOL    HW131364   3.690   2.187   6.222
10155SOL    HW231365   3.618   2.041   6.211
10156SOL     OW31366   5.838   0.926   2.157
10156SOL    HW131367   5.826   0.988   2.079
10156SOL    HW231368   5.918   0.868   2.140
10157SOL     OW31369   0.394   1.694   0.521
10157SOL    HW131370   0.490   1.668   0.533
10157SOL    HW231371   0.381   1.728   0.428
10158SOL     OW31372   6.475   5.803   1.051
10158SOL    HW131373   6.531   5.734   1.006
10158SOL    HW231374   6.497   5.893   1.015
10159SOL     OW31375   2.154   3.231   0.600
10159SOL    HW131376   2.160   3.184   0.512
10159SOL    HW231377   2.062   3.221   0.636
10160SOL     OW31378   1.545   2.964   2.179
10160SOL    HW131379   1.558   2.905   2.099
10160SOL    HW231380   1.589   3.052   2.162
10161SOL     OW31381   4.511   3.500   1.027
10161SOL    HW131382   4.548   3.584   1.065
10161SOL    HW231383   4.413   3.495   1.047
10162SOL     OW31384   3.833   4.791   1.047
10162SOL    HW131385   3.883   4.874   1.072
10162SOL    HW231386   3.761   4.774   1.114
10163SOL     OW31387   6.307   4.109   0.101
10163SOL    HW131388   6.315   4.024   0.153
10163SOL    HW231389   6.390   4.121   0.046
10164SOL     OW31390   5.981   3.328   3.943
10164SOL    HW131391   6.026   3.275   4.015
10164SOL    HW231392   6.030   3.315   3.857
10165SOL     OW31393   6.686   1.169   3.595
10165SOL    HW131394   6.729   1.235   3.533
10165SOL    HW231395   6.590   1.194   3.609
10166SOL     OW31396   3.310   1.562   1.998
10166SOL    HW131397   3.346   1.646   1.957
10166SOL    HW231398   3.261   1.585   2.083
10167SOL     OW31399   1.452   4.432   6.802
10167SOL    HW131400   1.502   4.416   6.717
10167SOL    HW231401   1.517   4.439   6.878
10168SOL     OW31402   5.781   3.074   6.441
10168SOL    HW131403   5.813   3.069   6.347
10168SOL    HW231404   5.841   3.020   6.500
10169SOL     OW31405   0.126   4.071   3.561
10169SOL    HW131406   0.204   4.025   3.603
10169SOL    HW231407   0.132   4.061   3.461
10170SOL     OW31408   6.093   5.619   5.485
10170SOL    HW131409   6.061   5.643   5.577
10170SOL    HW231410   6.169   5.555   5.491
10171SOL     OW31411   0.031   2.383   5.024
10171SOL    HW131412   0.100   2.433   4.972
10171SOL    HW231413   0.053   2.387   5.121
10172SOL     OW31414   0.858   5.979   5.376
10172SOL    HW131415   0.787   6.038   5.416
10172SOL    HW231416   0.818   5.890   5.355
10173SOL     OW31417   1.919   2.796   0.481
10173SOL    HW131418   1.838   2.847   0.510
10173SOL    HW231419   1.926   2.798   0.382
10174SOL     OW31420   5.136   4.853   3.258
10174SOL    HW131421   5.047   4.889   3.230
10174SOL    HW231422   5.195   4.843   3.178
10175SOL     OW31423   5.712   1.992   2.902
10175SOL    HW131424   5.624   1.979   2.856
10175SOL    HW231425   5.748   2.082   2.881
10176SOL     OW31426   0.286   3.268   5.619
10176SOL    HW131427   0.228   3.335   5.572
10176SOL    HW231428   0.341   3.313   5.688
10177SOL     OW31429   2.338   1.194   1.671
10177SOL    HW131430   2.341   1.154   1.762
10177SOL    HW231431   2.382   1.132   1.606
10178SOL     OW31432   0.030   1.150   6.790
10178SOL    HW131433   6.956   1.113   6.772
10178SOL    HW231434   0.090   1.129   6.712
10179SOL     OW31435   0.742   2.766   6.570
10179SOL    HW131436   0.704   2.708   6.498
10179SOL    HW231437   0.684   2.847   6.582
10180SOL     OW31438   4.071   1.168   6.013
10180SOL    HW131439   4.067   1.074   5.978
10180SOL    HW231440   4.109   1.167   6.105
10181SOL     OW31441   6.375   3.429   1.866
10181SOL    HW131442   6.474   3.428   1.877
10181SOL    HW231443   6.339   3.517   1.898
10182SOL     OW31444   4.749   0.923   1.622
10182SOL    HW131445   4.741   0.894   1.717
10182SOL    HW231446   4.720   1.019   1.614
10183SOL     OW31447   6.351   2.824   6.403
10183SOL    HW131448   6.446   2.800   6.423
10183SOL    HW231449   6.349   2.897   6.335
10184SOL     OW31450   4.212   1.287   6.227
10184SOL    HW131451   4.292   1.267   6.285
10184SOL    HW231452   4.239   1.348   6.153
10185SOL     OW31453   6.204   6.022   2.825
10185SOL    HW131454   6.132   5.961   2.792
10185SOL    HW231455   6.162   6.102   2.867
10186SOL     OW31456   5.100   3.750   3.862
10186SOL    HW131457   5.122   3.787   3.772
10186SOL    HW231458   5.139   3.808   3.933
10187SOL     OW31459   1.315   3.644   6.977
10187SOL    HW131460   1.280   3.597   0.041
10187SOL    HW231461   1.350   3.577   6.912
10188SOL     OW31462   4.101   4.626   0.411
10188SOL    HW131463   4.025   4.689   0.396
10188SOL    HW231464   4.131   4.588   0.324
10189SOL     OW31465   0.663   0.897   6.705
10189SOL    HW131466   0.713   0.983   6.690
10189SOL    HW231467   0.565   0.916   6.707
10190SOL     OW31468   4.746   2.807   1.390
10190SOL    HW131469   4.826   2.762   1.350
10190SOL    HW231470   4.680   2.737   1.418
10191SOL     OW31471   4.273   5.564   6.881
10191SOL    HW131472   4.284   5.537   6.785
10191SOL    HW231473   4.224   5.492   6.930
10192SOL     OW31474   4.205   1.303   5.616
10192SOL    HW131475   4.179   1.382   5.560
10192SOL    HW231476   4.303   1.307   5.635
10193SOL     OW31477   3.855   2.965   1.987
10193SOL    HW131478   3.913   2.970   2.068
10193SOL    HW231479   3.764   2.934   2.013
10194SOL     OW31480   4.812   6.362   5.367
10194SOL    HW131481   4.736   6.297   5.369
10194SOL    HW231482   4.811   6.418   5.449
10195SOL     OW31483   6.703   6.236   0.398
10195SOL    HW131484   6.607   6.245   0.373
10195SOL    HW231485   6.713   6.166   0.469
10196SOL     OW31486   3.989   2.172   3.859
10196SOL    HW131487   3.960   2.077   3.845
10196SOL    HW231488   4.065   2.175   3.923
10197SOL     OW31489   5.307   1.839   4.762
10197SOL    HW131490   5.300   1.936   4.785
10197SOL    HW231491   5.367   1.793   4.827
10198SOL     OW31492   2.622   6.835   2.721
10198SOL    HW131493   2.525   6.822   2.698
10198SOL    HW231494   2.647   6.931   2.705
10199SOL     OW31495   1.067   2.843   0.733
10199SOL    HW131496   1.072   2.867   0.636
10199SOL    HW231497   1.160   2.827   0.767
10200SOL     OW31498   4.777   3.089   5.903
10200SOL    HW131499   4.745   3.173   5.945
10200SOL    HW231500   4.787   3.018   5.973
10201SOL     OW31501   1.253   5.111   0.166
10201SOL    HW131502   1.174   5.163   0.201
10201SOL    HW231503   1.237   5.086   0.071
10202SOL     OW31504   3.234   4.935   0.242
10202SOL    HW131505   3.142   4.957   0.274
10202SOL    HW231506   3.240   4.952   0.144
10203SOL     OW31507   6.924   2.512   2.505
10203SOL    HW131508   6.989   2.455   2.454
10203SOL    HW231509   6.864   2.453   2.559
10204SOL     OW31510   4.062   5.427   6.454
10204SOL    HW131511   4.133   5.489   6.487
10204SOL    HW231512   3.984   5.479   6.421
10205SOL     OW31513   2.458   0.749   1.956
10205SOL    HW131514   2.500   0.725   1.869
10205SOL    HW231515   2.384   0.815   1.941
10206SOL     OW31516   0.028   0.190   6.699
10206SOL    HW131517   0.036   0.120   6.771
10206SOL    HW231518   0.101   0.177   6.633
10207SOL     OW31519   0.665   2.131   0.095
10207SOL    HW131520   0.703   2.073   0.023
10207SOL    HW231521   0.571   2.103   0.113
10208SOL     OW31522   6.207   5.353   4.170
10208SOL    HW131523   6.112   5.324   4.158
10208SOL    HW231524   6.216   5.449   4.144
10209SOL     OW31525   0.230   6.453   6.339
10209SOL    HW131526   0.233   6.443   6.438
10209SOL    HW231527   0.188   6.373   6.298
10210SOL     OW31528   4.598   6.361   0.829
10210SOL    HW131529   4.543   6.305   0.890
10210SOL    HW231530   4.658   6.303   0.775
10211SOL     OW31531   4.642   6.130   4.597
10211SOL    HW131532   4.728   6.176   4.576
10211SOL    HW231533   4.662   6.043   4.643
10212SOL     OW31534   0.472   0.000   5.599
10212SOL    HW131535   0.479   0.085   5.652
10212SOL    HW231536   0.383   7.013   5.555
10213SOL     OW31537   5.423   2.840   1.953
10213SOL    HW131538   5.437   2.936   1.929
10213SOL    HW231539   5.326   2.825   1.975
10214SOL     OW31540   0.174   1.580   1.874
10214SOL    HW131541   0.160   1.544   1.782
10214SOL    HW231542   0.124   1.666   1.884
10215SOL     OW31543   3.710   3.366   3.622
10215SOL    HW131544   3.664   3.306   3.557
10215SOL    HW231545   3.650   3.384   3.699
10216SOL     OW31546   6.903   1.106   1.203
10216SOL    HW131547   6.862   1.145   1.121
10216SOL    HW231548   6.839   1.042   1.245
10217SOL     OW31549   1.966   2.052   3.816
10217SOL    HW131550   2.017   2.039   3.731
10217SOL    HW231551   2.025   2.030   3.894
10218SOL     OW31552   0.830   0.721   1.520
10218SOL    HW131553   0.908   0.770   1.483
10218SOL    HW231554   0.776   0.782   1.578
10219SOL     OW31555   0.305   2.266   2.600
10219SOL    HW131556   0.207   2.250   2.587
10219SOL    HW231557   0.344   2.304   2.516
10220SOL     OW31558   4.321   1.484   1.630
10220SOL    HW131559   4.408   1.527   1.606
10220SOL    HW231560   4.260   1.485   1.551
10221SOL     OW31561   1.805   4.235   4.957
10221SOL    HW131562   1.802   4.181   4.873
10221SOL    HW231563   1.900   4.244   4.988
10222SOL     OW31564   3.091   4.205   5.235
10222SOL    HW131565   3.049   4.296   5.236
10222SOL    HW231566   3.030   4.140   5.282
10223SOL     OW31567   2.935   4.949   1.114
10223SOL    HW131568   3.031   4.939   1.141
10223SOL    HW231569   2.926   4.934   1.016
10224SOL     OW31570   6.434   2.338   5.696
10224SOL    HW131571   6.405   2.361   5.604
10224SOL    HW231572   6.534   2.325   5.698
10225SOL     OW31573   1.793   5.904   5.635
10225SOL    HW131574   1.779   6.001   5.613
10225SOL    HW231575   1.890   5.887   5.653
10226SOL     OW31576   2.181   0.271   6.166
10226SOL    HW131577   2.258   0.248   6.226
10226SOL    HW231578   2.148   0.363   6.187
10227SOL     OW31579   5.171   4.687   6.942
10227SOL    HW131580   5.205   4.633   0.002
10227SOL    HW231581   5.114   4.761   6.976
10228SOL     OW31582   1.000   6.011   2.102
10228SOL    HW131583   0.929   5.947   2.070
10228SOL    HW231584   1.079   6.007   2.041
10229SOL     OW31585   2.204   2.465   4.776
10229SOL    HW131586   2.217   2.440   4.680
10229SOL    HW231587   2.231   2.560   4.789
10230SOL     OW31588   6.387   6.395   3.157
10230SOL    HW131589   6.418   6.332   3.087
10230SOL    HW231590   6.420   6.487   3.137
10231SOL     OW31591   6.453   4.625   4.819
10231SOL    HW131592   6.364   4.666   4.798
10231SOL    HW231593   6.515   4.640   4.742
10232SOL     OW31594   3.514   1.483   3.764
10232SOL    HW131595   3.449   1.552   3.733
10232SOL    HW231596   3.605   1.503   3.727
10233SOL     OW31597   3.624   3.971   5.202
10233SOL    HW131598   3.677   3.925   5.131
10233SOL    HW231599   3.681   3.982   5.284
10234SOL     OW31600   5.332   0.830   0.474
10234SOL    HW131601   5.400   0.760   0.454
10234SOL    HW231602   5.346   0.864   0.567
10235SOL     OW31603   2.926   1.991   1.284
10235SOL    HW131604   3.023   2.006   1.301
10235SOL    HW231605   2.912   1.898   1.250
10236SOL     OW31606   1.438   1.236   1.367
10236SOL    HW131607   1.446   1.335   1.363
10236SOL    HW231608   1.344   1.208   1.348
10237SOL     OW31609   6.858   4.746   6.268
10237SOL    HW131610   6.833   4.758   6.172
10237SOL    HW231611   6.788   4.692   6.314
10238SOL     OW31612   3.838   4.017   2.243
10238SOL    HW131613   3.764   4.044   2.305
10238SOL    HW231614   3.919   3.991   2.296
10239SOL     OW31615   2.112   3.579   5.715
10239SOL    HW131616   2.188   3.612   5.659
10239SOL    HW231617   2.049   3.526   5.658
10240SOL     OW31618   2.156   4.084   2.588
10240SOL    HW131619   2.193   3.991   2.587
10240SOL    HW231620   2.208   4.141   2.652
10241SOL     OW31621   0.113   6.077   3.489
10241SOL    HW131622   0.134   5.981   3.468
10241SOL    HW231623   0.070   6.083   3.578
10242SOL     OW31624   0.799   1.262   1.646
10242SOL    HW131625   0.746   1.284   1.564
10242SOL    HW231626   0.874   1.327   1.656
10243SOL     OW31627   2.701   5.038   2.971
10243SOL    HW131628   2.607   5.070   2.976
10243SOL    HW231629   2.763   5.115   2.989
10244SOL     OW31630   1.861   4.354   1.074
10244SOL    HW131631   1.909   4.425   1.125
10244SOL    HW231632   1.834   4.390   0.984
10245SOL     OW31633   3.935   4.380   1.040
10245SOL    HW131634   3.973   4.449   0.978
10245SOL    HW231635   3.987   4.295   1.032
10246SOL     OW31636   2.935   3.257   3.504
10246SOL    HW131637   2.982   3.211   3.429
10246SOL    HW231638   2.880   3.191   3.555
10247SOL     OW31639   0.311   4.399   6.398
10247SOL    HW131640   0.263   4.345   6.330
10247SOL    HW231641   0.255   4.405   6.481
10248SOL     OW31642   1.806   6.811   2.895
10248SOL    HW131643   1.723   6.804   2.951
10248SOL    HW231644   1.883   6.772   2.946
10249SOL     OW31645   2.266   6.424   6.579
10249SOL    HW131646   2.353   6.438   6.626
10249SOL    HW231647   2.223   6.512   6.561
10250SOL     OW31648   6.545   2.576   2.135
10250SOL    HW131649   6.556   2.644   2.062
10250SOL    HW231650   6.622   2.584   2.199
10251SOL     OW31651   2.315   1.359   4.890
10251SOL    HW131652   2.303   1.458   4.881
10251SOL    HW231653   2.412   1.337   4.885
10252SOL     OW31654   3.827   5.077   5.808
10252SOL    HW131655   3.813   5.157   5.867
10252SOL    HW231656   3.840   4.995   5.865
10253SOL     OW31657   2.562   6.933   0.538
10253SOL    HW131658   2.493   6.959   0.472
10253SOL    HW231659   2.633   6.878   0.493
10254SOL     OW31660   4.772   1.054   5.497
10254SOL    HW131661   4.777   0.963   5.457
10254SOL    HW231662   4.695   1.104   5.458
10255SOL     OW31663   2.296   5.948   0.886
10255SOL    HW131664   2.253   5.994   0.964
10255SOL    HW231665   2.241   5.869   0.859
10256SOL     OW31666   5.155   1.762   1.355
10256SOL    HW131667   5.091   1.831   1.323
10256SOL    HW231668   5.106   1.686   1.398
10257SOL     OW31669   2.236   4.724   4.526
10257SOL    HW131670   2.285   4.786   4.465
10257SOL    HW231671   2.181   4.660   4.471
10258SOL     OW31672   3.496   1.204   3.723
10258SOL    HW131673   3.520   1.302   3.727
10258SOL    HW231674   3.421   1.191   3.659
10259SOL     OW31675   0.895   5.163   3.293
10259SOL    HW131676   0.967   5.099   3.265
10259SOL    HW231677   0.936   5.253   3.312
10260SOL     OW31678   1.492   1.024   3.561
10260SOL    HW131679   1.460   0.938   3.522
10260SOL    HW231680   1.574   1.008   3.616
10261SOL     OW31681   6.869   5.020   2.653
10261SOL    HW131682   6.883   4.926   2.683
10261SOL    HW231683   6.948   5.050   2.598
10262SOL     OW31684   2.538   6.981   5.315
10262SOL    HW131685   2.533   0.061   5.293
10262SOL    HW231686   2.460   6.934   5.274
10263SOL     OW31687   5.155   7.014   7.009
10263SOL    HW131688   5.241   6.977   0.027
10263SOL    HW231689   5.166   0.019   6.912
10264SOL     OW31690   6.245   0.061   6.697
10264SOL    HW131691   6.265   6.980   6.702
10264SOL    HW231692   6.212   0.083   6.605
10265SOL     OW31693   2.075   3.033   1.488
10265SOL    HW131694   2.160   3.019   1.539
10265SOL    HW231695   2.076   3.124   1.446
10266SOL     OW31696   4.104   3.455   3.851
10266SOL    HW131697   4.139   3.546   3.870
10266SOL    HW231698   4.008   3.461   3.822
10267SOL     OW31699   5.773   2.683   6.650
10267SOL    HW131700   5.704   2.701   6.720
10267SOL    HW231701   5.789   2.584   6.644
10268SOL     OW31702   5.792   5.692   2.386
10268SOL    HW131703   5.809   5.748   2.305
10268SOL    HW231704   5.855   5.614   2.387
10269SOL     OW31705   0.369   3.467   6.959
10269SOL    HW131706   0.311   3.426   6.889
10269SOL    HW231707   0.350   3.565   6.965
10270SOL     OW31708   4.018   4.949   2.882
10270SOL    HW131709   4.050   4.902   2.800
10270SOL    HW231710   3.924   4.920   2.903
10271SOL     OW31711   3.513   2.840   5.980
10271SOL    HW131712   3.497   2.923   6.033
10271SOL    HW231713   3.599   2.848   5.930
10272SOL     OW31714   1.732   1.288   4.935
10272SOL    HW131715   1.669   1.311   4.860
10272SOL    HW231716   1.826   1.310   4.907
10273SOL     OW31717   2.923   5.770   2.788
10273SOL    HW131718   2.931   5.676   2.820
10273SOL    HW231719   2.831   5.784   2.751
10274SOL     OW31720   0.837   5.893   5.069
10274SOL    HW131721   0.935   5.913   5.065
10274SOL    HW231722   0.788   5.948   5.001
10275SOL     OW31723   0.362   6.426   1.803
10275SOL    HW131724   0.393   6.407   1.897
10275SOL    HW231725   0.262   6.428   1.801
10276SOL     OW31726   5.148   5.098   5.434
10276SOL    HW131727   5.229   5.138   5.478
10276SOL    HW231728   5.177   5.027   5.371
10277SOL     OW31729   1.318   5.251   3.808
10277SOL    HW131730   1.244   5.315   3.787
10277SOL    HW231731   1.375   5.289   3.880
10278SOL     OW31732   0.340   2.341   4.433
10278SOL    HW131733   0.430   2.298   4.429
10278SOL    HW231734   0.292   2.327   4.346
10279SOL     OW31735   2.280   5.136   4.213
10279SOL    HW131736   2.365   5.151   4.163
10279SOL    HW231737   2.217   5.082   4.156
10280SOL     OW31738   0.152   3.372   0.803
10280SOL    HW131739   0.172   3.327   0.890
10280SOL    HW231740   0.083   3.319   0.754
10281SOL     OW31741   5.866   1.393   2.160
10281SOL    HW131742   5.932   1.454   2.204
10281SOL    HW231743   5.786   1.383   2.220
10282SOL     OW31744   4.865   3.300   4.338
10282SOL    HW131745   4.811   3.266   4.415
10282SOL    HW231746   4.857   3.237   4.261
10283SOL     OW31747   1.164   3.545   0.417
10283SOL    HW131748   1.190   3.508   0.328
10283SOL    HW231749   1.067   3.524   0.434
10284SOL     OW31750   5.255   2.892   5.050
10284SOL    HW131751   5.277   2.871   5.146
10284SOL    HW231752   5.195   2.821   5.014
10285SOL     OW31753   6.183   0.086   2.499
10285SOL    HW131754   6.231   0.045   2.423
10285SOL    HW231755   6.162   0.182   2.478
10286SOL     OW31756   3.315   1.706   3.172
10286SOL    HW131757   3.232   1.762   3.166
10286SOL    HW231758   3.334   1.667   3.082
10287SOL     OW31759   1.904   6.913   1.323
10287SOL    HW131760   1.922   6.971   1.403
10287SOL    HW231761   1.937   6.959   1.241
10288SOL     OW31762   4.906   6.202   2.935
10288SOL    HW131763   4.885   6.271   2.866
10288SOL    HW231764   4.879   6.235   3.025
10289SOL     OW31765   2.005   6.758   0.190
10289SOL    HW131766   1.973   6.842   0.147
10289SOL    HW231767   2.023   6.689   0.120
10290SOL     OW31768   3.145   3.898   2.691
10290SOL    HW131769   3.225   3.955   2.675
10290SOL    HW231770   3.147   3.819   2.631
10291SOL     OW31771   4.686   1.156   2.721
10291SOL    HW131772   4.611   1.171   2.657
10291SOL    HW231773   4.772   1.185   2.679
10292SOL     OW31774   1.615   0.968   5.248
10292SOL    HW131775   1.684   1.025   5.202
10292SOL    HW231776   1.555   1.027   5.302
10293SOL     OW31777   2.284   4.579   2.692
10293SOL    HW131778   2.238   4.622   2.613
10293SOL    HW231779   2.333   4.650   2.744
10294SOL     OW31780   5.863   3.229   3.018
10294SOL    HW131781   5.848   3.325   2.996
10294SOL    HW231782   5.949   3.198   2.976
10295SOL     OW31783   6.730   4.257   5.471
10295SOL    HW131784   6.713   4.240   5.568
10295SOL    HW231785   6.651   4.226   5.418
10296SOL     OW31786   5.231   1.373   0.176
10296SOL    HW131787   5.197   1.314   0.248
10296SOL    HW231788   5.207   1.335   0.086
10297SOL     OW31789   1.791   6.826   6.434
10297SOL    HW131790   1.856   6.880   6.486
10297SOL    HW231791   1.736   6.887   6.376
10298SOL     OW31792   2.830   4.532   1.583
10298SOL    HW131793   2.840   4.504   1.678
10298SOL    HW231794   2.906   4.494   1.529
10299SOL     OW31795   4.993   5.128   2.950
10299SOL    HW131796   5.085   5.094   2.930
10299SOL    HW231797   4.956   5.175   2.870
10300SOL     OW31798   1.279   3.889   3.241
10300SOL    HW131799   1.238   3.821   3.181
10300SOL    HW231800   1.209   3.949   3.277
10301SOL     OW31801   4.944   2.597   4.373
10301SOL    HW131802   4.916   2.546   4.292
10301SOL    HW231803   4.868   2.656   4.403
10302SOL     OW31804   2.002   6.925   3.800
10302SOL    HW131805   2.063   7.004   3.807
10302SOL    HW231806   1.948   6.918   3.884
10303SOL     OW31807   2.142   6.276   3.055
10303SOL    HW131808   2.068   6.298   2.991
10303SOL    HW231809   2.114   6.300   3.148
10304SOL     OW31810   5.648   0.155   1.786
10304SOL    HW131811   5.592   0.213   1.726
10304SOL    HW231812   5.735   0.200   1.805
10305SOL     OW31813   1.108   4.350   6.800
10305SOL    HW131814   1.174   4.335   6.873
10305SOL    HW231815   1.072   4.443   6.806
10306SOL     OW31816   4.706   6.934   6.085
10306SOL    HW131817   4.720   6.992   6.005
10306SOL    HW231818   4.608   6.929   6.106
10307SOL     OW31819   2.311   2.074   5.623
10307SOL    HW131820   2.250   2.153   5.634
10307SOL    HW231821   2.397   2.104   5.581
10308SOL     OW31822   2.257   4.403   3.478
10308SOL    HW131823   2.246   4.341   3.400
10308SOL    HW231824   2.240   4.497   3.449
10309SOL     OW31825   6.969   1.434   5.395
10309SOL    HW131826   6.949   1.336   5.399
10309SOL    HW231827   6.890   1.482   5.357
10310SOL     OW31828   3.405   3.728   1.119
10310SOL    HW131829   3.413   3.645   1.174
10310SOL    HW231830   3.324   3.779   1.148
10311SOL     OW31831   6.882   6.308   0.196
10311SOL    HW131832   6.814   6.261   0.252
10311SOL    HW231833   6.866   6.406   0.198
10312SOL     OW31834   3.685   6.406   2.517
10312SOL    HW131835   3.587   6.389   2.517
10312SOL    HW231836   3.727   6.359   2.595
10313SOL     OW31837   4.962   6.285   1.268
10313SOL    HW131838   5.051   6.329   1.270
10313SOL    HW231839   4.892   6.352   1.243
10314SOL     OW31840   6.635   0.935   1.927
10314SOL    HW131841   6.626   1.035   1.935
10314SOL    HW231842   6.609   0.892   2.013
10315SOL     OW31843   4.732   6.108   4.953
10315SOL    HW131844   4.802   6.064   5.008
10315SOL    HW231845   4.696   6.188   5.002
10316SOL     OW31846   6.286   1.585   4.455
10316SOL    HW131847   6.291   1.630   4.366
10316SOL    HW231848   6.190   1.573   4.481
10317SOL     OW31849   4.252   5.770   4.847
10317SOL    HW131850   4.217   5.860   4.822
10317SOL    HW231851   4.176   5.709   4.869
10318SOL     OW31852   4.780   5.726   6.659
10318SOL    HW131853   4.732   5.799   6.611
10318SOL    HW231854   4.714   5.671   6.711
10319SOL     OW31855   1.512   2.707   5.231
10319SOL    HW131856   1.471   2.669   5.148
10319SOL    HW231857   1.451   2.777   5.268
10320SOL     OW31858   0.304   0.591   3.039
10320SOL    HW131859   0.361   0.566   2.961
10320SOL    HW231860   0.320   0.526   3.114
10321SOL     OW31861   3.853   1.345   2.238
10321SOL    HW131862   3.939   1.340   2.188
10321SOL    HW231863   3.850   1.272   2.306
10322SOL     OW31864   6.510   5.491   5.545
10322SOL    HW131865   6.503   5.574   5.599
10322SOL    HW231866   6.420   5.447   5.540
10323SOL     OW31867   5.939   3.026   5.648
10323SOL    HW131868   5.938   2.956   5.576
10323SOL    HW231869   6.028   3.071   5.649
10324SOL     OW31870   3.386   3.390   2.394
10324SOL    HW131871   3.457   3.337   2.441
10324SOL    HW231872   3.419   3.483   2.378
10325SOL     OW31873   0.194   3.772   2.423
10325SOL    HW131874   0.222   3.832   2.348
10325SOL    HW231875   0.252   3.788   2.503
10326SOL     OW31876   4.015   3.901   0.301
10326SOL    HW131877   3.986   3.869   0.211
10326SOL    HW231878   4.115   3.903   0.305
10327SOL     OW31879   2.425   1.861   1.732
10327SOL    HW131880   2.497   1.907   1.784
10327SOL    HW231881   2.389   1.785   1.785
10328SOL     OW31882   5.932   2.854   1.105
10328SOL    HW131883   5.915   2.756   1.109
10328SOL    HW231884   5.853   2.903   1.145
10329SOL     OW31885   3.552   0.258   4.015
10329SOL    HW131886   3.518   0.167   4.038
10329SOL    HW231887   3.651   0.262   4.031
10330SOL     OW31888   4.445   0.366   2.359
10330SOL    HW131889   4.538   0.373   2.321
10330SOL    HW231890   4.450   0.322   2.449
10331SOL     OW31891   0.386   1.462   5.159
10331SOL    HW131892   0.347   1.453   5.067
10331SOL    HW231893   0.316   1.440   5.227
10332SOL     OW31894   6.060   1.018   0.697
10332SOL    HW131895   6.094   0.924   0.693
10332SOL    HW231896   6.115   1.071   0.762
10333SOL     OW31897   5.984   4.013   4.612
10333SOL    HW131898   5.984   4.086   4.543
10333SOL    HW231899   5.983   4.053   4.703
10334SOL     OW31900   4.069   6.206   3.691
10334SOL    HW131901   4.166   6.202   3.715
10334SOL    HW231902   4.061   6.217   3.592
10335SOL     OW31903   3.009   4.650   6.575
10335SOL    HW131904   2.940   4.708   6.532
10335SOL    HW231905   3.083   4.633   6.509
10336SOL     OW31906   6.646   6.637   2.800
10336SOL    HW131907   6.666   6.644   2.898
10336SOL    HW231908   6.550   6.661   2.784
10337SOL     OW31909   0.151   6.933   5.853
10337SOL    HW131910   0.087   6.922   5.929
10337SOL    HW231911   0.107   6.987   5.781
10338SOL     OW31912   2.369   6.344   2.462
10338SOL    HW131913   2.352   6.442   2.470
10338SOL    HW231914   2.331   6.297   2.541
10339SOL     OW31915   3.486   5.060   0.273
10339SOL    HW131916   3.519   4.975   0.314
10339SOL    HW231917   3.455   5.043   0.179
10340SOL     OW31918   2.053   5.269   1.004
10340SOL    HW131919   2.108   5.220   1.072
10340SOL    HW231920   1.989   5.330   1.050
10341SOL     OW31921   2.118   3.694   1.512
10341SOL    HW131922   2.187   3.643   1.461
10341SOL    HW231923   2.126   3.671   1.610
10342SOL     OW31924   0.922   6.940   5.533
10342SOL    HW131925   0.903   0.021   5.540
10342SOL    HW231926   0.836   6.890   5.543
10343SOL     OW31927   3.338   5.619   0.190
10343SOL    HW131928   3.347   5.669   0.277
10343SOL    HW231929   3.280   5.539   0.204
10344SOL     OW31930   4.579   4.050   1.600
10344SOL    HW131931   4.497   4.082   1.646
10344SOL    HW231932   4.642   4.012   1.668
10345SOL     OW31933   1.646   1.179   7.008
10345SOL    HW131934   1.557   1.205   6.969
10345SOL    HW231935   1.654   1.218   0.082
10346SOL     OW31936   6.335   0.117   1.638
10346SOL    HW131937   6.429   0.083   1.639
10346SOL    HW231938   6.281   0.064   1.572
10347SOL     OW31939   4.809   1.990   2.469
10347SOL    HW131940   4.819   2.060   2.397
10347SOL    HW231941   4.870   2.011   2.545
10348SOL     OW31942   6.313   1.489   0.460
10348SOL    HW131943   6.363   1.541   0.529
10348SOL    HW231944   6.284   1.401   0.499
10349SOL     OW31945   0.133   1.181   1.268
10349SOL    HW131946   0.042   1.150   1.242
10349SOL    HW231947   0.127   1.273   1.308
10350SOL     OW31948   1.914   6.802   5.373
10350SOL    HW131949   1.940   6.817   5.278
10350SOL    HW231950   1.872   6.712   5.382
10351SOL     OW31951   4.362   5.164   6.036
10351SOL    HW131952   4.270   5.190   6.063
10351SOL    HW231953   4.401   5.104   6.106
10352SOL     OW31954   4.433   2.312   6.412
10352SOL    HW131955   4.380   2.344   6.333
10352SOL    HW231956   4.456   2.390   6.470
10353SOL     OW31957   0.142   3.042   5.813
10353SOL    HW131958   0.217   3.082   5.865
10353SOL    HW231959   0.179   2.985   5.739
10354SOL     OW31960   5.794   2.532   2.099
10354SOL    HW131961   5.854   2.549   2.021
10354SOL    HW231962   5.702   2.566   2.079
10355SOL     OW31963   1.679   0.182   2.471
10355SOL    HW131964   1.650   0.134   2.554
10355SOL    HW231965   1.599   0.213   2.421
10356SOL     OW31966   0.339   4.288   6.001
10356SOL    HW131967   0.250   4.318   6.034
10356SOL    HW231968   0.339   4.189   5.991
10357SOL     OW31969   3.143   3.328   6.514
10357SOL    HW131970   3.065   3.391   6.520
10357SOL    HW231971   3.180   3.328   6.422
10358SOL     OW31972   6.326   3.254   3.497
10358SOL    HW131973   6.243   3.202   3.516
10358SOL    HW231974   6.390   3.197   3.446
10359SOL     OW31975   0.004   1.780   1.443
10359SOL    HW131976   0.005   1.779   1.543
10359SOL    HW231977   6.927   1.768   1.410
10360SOL     OW31978   4.246   5.782   2.180
10360SOL    HW131979   4.290   5.809   2.265
10360SOL    HW231980   4.316   5.754   2.114
10361SOL     OW31981   2.623   0.710   2.799
10361SOL    HW131982   2.593   0.615   2.793
10361SOL    HW231983   2.721   0.716   2.779
10362SOL     OW31984   0.746   5.146   3.794
10362SOL    HW131985   0.657   5.154   3.750
10362SOL    HW231986   0.787   5.058   3.772
10363SOL     OW31987   4.509   2.377   0.832
10363SOL    HW131988   4.588   2.374   0.771
10363SOL    HW231989   4.455   2.294   0.820
10364SOL     OW31990   4.036   3.873   2.377
10364SOL    HW131991   3.988   3.792   2.410
10364SOL    HW231992   4.126   3.847   2.342
10365SOL     OW31993   5.006   4.449   5.280
10365SOL    HW131994   4.910   4.468   5.259
10365SOL    HW231995   5.012   4.363   5.331
10366SOL     OW31996   4.338   0.193   4.052
10366SOL    HW131997   4.345   0.094   4.043
10366SOL    HW231998   4.423   0.235   4.022
10367SOL     OW31999   6.878   1.614   1.677
10367SOL    HW132000   6.825   1.609   1.761
10367SOL    HW232001   6.819   1.643   1.601
10368SOL     OW32002   2.194   0.588   2.103
10368SOL    HW132003   2.116   0.532   2.133
10368SOL    HW232004   2.161   0.677   2.072
10369SOL     OW32005   4.359   1.315   5.170
10369SOL    HW132006   4.388   1.244   5.105
10369SOL    HW232007   4.290   1.278   5.231
10370SOL     OW32008   5.865   1.602   5.225
10370SOL    HW132009   5.880   1.525   5.287
10370SOL    HW232010   5.767   1.621   5.219
10371SOL     OW32011   1.886   5.662   4.164
10371SOL    HW132012   1.955   5.599   4.128
10371SOL    HW232013   1.838   5.706   4.088
10372SOL     OW32014   1.573   1.062   0.745
10372SOL    HW132015   1.648   1.041   0.681
10372SOL    HW232016   1.497   1.000   0.728
10373SOL     OW32017   1.614   6.862   4.734
10373SOL    HW132018   1.566   6.948   4.746
10373SOL    HW232019   1.558   6.799   4.680
10374SOL     OW32020   3.913   1.397   3.051
10374SOL    HW132021   3.939   1.493   3.054
10374SOL    HW232022   3.985   1.344   3.005
10375SOL     OW32023   2.801   1.712   6.422
10375SOL    HW132024   2.770   1.622   6.452
10375SOL    HW232025   2.725   1.760   6.378
10376SOL     OW32026   1.349   5.744   3.722
10376SOL    HW132027   1.279   5.753   3.793
10376SOL    HW232028   1.361   5.831   3.676
10377SOL     OW32029   6.850   1.132   3.818
10377SOL    HW132030   6.943   1.108   3.788
10377SOL    HW232031   6.785   1.110   3.745
10378SOL     OW32032   6.186   0.360   5.479
10378SOL    HW132033   6.186   0.400   5.388
10378SOL    HW232034   6.100   0.311   5.495
10379SOL     OW32035   3.144   6.515   4.346
10379SOL    HW132036   3.073   6.481   4.407
10379SOL    HW232037   3.211   6.443   4.329
10380SOL     OW32038   0.622   2.270   4.430
10380SOL    HW132039   0.645   2.354   4.479
10380SOL    HW232040   0.699   2.206   4.436
10381SOL     OW32041   4.386   3.938   0.572
10381SOL    HW132042   4.369   3.939   0.473
10381SOL    HW232043   4.316   3.884   0.617
10382SOL     OW32044   2.155   4.897   0.752
10382SOL    HW132045   2.154   4.874   0.655
10382SOL    HW232046   2.105   4.982   0.767
10383SOL     OW32047   6.842   3.647   0.630
10383SOL    HW132048   6.824   3.586   0.707
10383SOL    HW232049   6.940   3.654   0.614
10384SOL     OW32050   0.212   0.295   0.908
10384SOL    HW132051   0.276   0.292   0.985
10384SOL    HW232052   0.192   0.202   0.878
10385SOL     OW32053   3.547   6.837   5.885
10385SOL    HW132054   3.468   6.810   5.939
10385SOL    HW232055   3.624   6.776   5.905
10386SOL     OW32056   6.191   1.790   5.396
10386SOL    HW132057   6.162   1.723   5.465
10386SOL    HW232058   6.158   1.761   5.306
10387SOL     OW32059   4.673   1.695   2.670
10387SOL    HW132060   4.649   1.670   2.763
10387SOL    HW232061   4.773   1.693   2.659
10388SOL     OW32062   1.975   6.110   2.309
10388SOL    HW132063   1.925   6.069   2.385
10388SOL    HW232064   2.056   6.156   2.345
10389SOL     OW32065   0.296   6.599   1.304
10389SOL    HW132066   0.292   6.564   1.397
10389SOL    HW232067   0.347   6.534   1.247
10390SOL     OW32068   1.926   2.321   1.738
10390SOL    HW132069   1.924   2.221   1.735
10390SOL    HW232070   2.014   2.351   1.775
10391SOL     OW32071   0.905   5.320   3.943
10391SOL    HW132072   0.909   5.289   4.038
10391SOL    HW232073   0.846   5.259   3.891
10392SOL     OW32074   7.008   4.058   6.692
10392SOL    HW132075   0.005   4.036   6.789
10392SOL    HW232076   7.008   4.157   6.680
10393SOL     OW32077   2.065   2.394   2.129
10393SOL    HW132078   2.034   2.301   2.109
10393SOL    HW232079   2.112   2.431   2.050
10394SOL     OW32080   2.282   6.176   4.821
10394SOL    HW132081   2.350   6.103   4.828
10394SOL    HW232082   2.327   6.262   4.798
10395SOL     OW32083   6.928   1.021   3.204
10395SOL    HW132084   0.002   0.983   3.211
10395SOL    HW232085   6.933   1.121   3.203
10396SOL     OW32086   2.718   0.259   3.871
10396SOL    HW132087   2.658   0.289   3.797
10396SOL    HW232088   2.748   0.338   3.924
10397SOL     OW32089   2.915   1.871   3.875
10397SOL    HW132090   3.002   1.895   3.830
10397SOL    HW232091   2.922   1.891   3.973
10398SOL     OW32092   5.684   2.288   0.746
10398SOL    HW132093   5.642   2.236   0.672
10398SOL    HW232094   5.656   2.384   0.740
10399SOL     OW32095   4.242   2.040   4.631
10399SOL    HW132096   4.230   1.998   4.722
10399SOL    HW232097   4.205   2.133   4.632
10400SOL     OW32098   3.938   5.816   0.801
10400SOL    HW132099   3.893   5.756   0.735
10400SOL    HW232100   4.022   5.772   0.834
10401SOL     OW32101   0.194   0.348   2.324
10401SOL    HW132102   0.109   0.316   2.367
10401SOL    HW232103   0.217   0.438   2.359
10402SOL     OW32104   0.187   2.568   5.708
10402SOL    HW132105   0.109   2.620   5.672
10402SOL    HW232106   0.163   2.471   5.713
10403SOL     OW32107   5.100   0.933   2.774
10403SOL    HW132108   5.199   0.930   2.788
10403SOL    HW232109   5.063   1.016   2.816
10404SOL     OW32110   6.987   6.611   4.056
10404SOL    HW132111   0.048   6.671   4.068
10404SOL    HW232112   6.940   6.634   3.971
10405SOL     OW32113   1.106   5.811   5.022
10405SOL    HW132114   1.169   5.802   5.099
10405SOL    HW232115   1.071   5.721   4.996
10406SOL     OW32116   2.234   3.215   5.182
10406SOL    HW132117   2.313   3.154   5.185
10406SOL    HW232118   2.250   3.294   5.241
10407SOL     OW32119   2.321   0.694   6.576
10407SOL    HW132120   2.380   0.755   6.524
10407SOL    HW232121   2.270   0.747   6.644
10408SOL     OW32122   3.586   6.464   2.179
10408SOL    HW132123   3.686   6.466   2.178
10408SOL    HW232124   3.552   6.459   2.085
10409SOL     OW32125   0.305   3.892   0.832
10409SOL    HW132126   0.250   3.816   0.799
10409SOL    HW232127   0.352   3.936   0.755
10410SOL     OW32128   5.573   2.005   1.258
10410SOL    HW132129   5.568   1.958   1.170
10410SOL    HW232130   5.505   1.965   1.320
10411SOL     OW32131   4.110   5.592   4.470
10411SOL    HW132132   4.107   5.669   4.407
10411SOL    HW232133   4.189   5.601   4.531
10412SOL     OW32134   6.966   0.996   0.684
10412SOL    HW132135   6.976   0.941   0.767
10412SOL    HW232136   0.017   0.968   0.617
10413SOL     OW32137   6.719   2.227   1.412
10413SOL    HW132138   6.773   2.148   1.441
10413SOL    HW232139   6.708   2.290   1.489
10414SOL     OW32140   4.288   6.257   6.011
10414SOL    HW132141   4.362   6.203   5.971
10414SOL    HW232142   4.238   6.200   6.077
10415SOL     OW32143   2.396   4.286   3.951
10415SOL    HW132144   2.376   4.189   3.931
10415SOL    HW232145   2.370   4.341   3.872
10416SOL     OW32146   6.444   0.375   4.979
10416SOL    HW132147   6.497   0.452   5.015
10416SOL    HW232148   6.373   0.350   5.045
10417SOL     OW32149   4.523   4.677   4.137
10417SOL    HW132150   4.439   4.709   4.181
10417SOL    HW232151   4.564   4.752   4.085
10418SOL     OW32152   6.018   4.132   5.900
10418SOL    HW132153   6.072   4.208   5.938
10418SOL    HW232154   5.989   4.155   5.807
10419SOL     OW32155   3.209   0.288   5.199
10419SOL    HW132156   3.143   0.344   5.249
10419SOL    HW232157   3.166   0.202   5.172
10420SOL     OW32158   6.614   3.503   3.846
10420SOL    HW132159   6.534   3.499   3.905
10420SOL    HW232160   6.601   3.441   3.768
10421SOL     OW32161   1.450   3.289   4.900
10421SOL    HW132162   1.489   3.242   4.821
10421SOL    HW232163   1.431   3.384   4.876
10422SOL     OW32164   6.685   3.440   5.456
10422SOL    HW132165   6.615   3.400   5.514
10422SOL    HW232166   6.768   3.457   5.510
10423SOL     OW32167   4.477   4.900   5.180
10423SOL    HW132168   4.539   4.923   5.105
10423SOL    HW232169   4.470   4.978   5.242
10424SOL     OW32170   3.966   2.743   0.284
10424SOL    HW132171   3.972   2.654   0.238
10424SOL    HW232172   4.016   2.739   0.370
10425SOL     OW32173   1.058   5.587   2.488
10425SOL    HW132174   1.118   5.649   2.540
10425SOL    HW232175   1.051   5.500   2.535
10426SOL     OW32176   5.400   3.804   5.572
10426SOL    HW132177   5.325   3.799   5.506
10426SOL    HW232178   5.377   3.748   5.652
10427SOL     OW32179   4.860   6.943   6.829
10427SOL    HW132180   4.861   6.859   6.882
10427SOL    HW232181   4.927   6.937   6.755
10428SOL     OW32182   2.605   1.765   4.136
10428SOL    HW132183   2.656   1.812   4.208
10428SOL    HW232184   2.630   1.803   4.047
10429SOL     OW32185   0.868   4.165   3.097
10429SOL    HW132186   0.772   4.138   3.112
10429SOL    HW232187   0.926   4.084   3.101
10430SOL     OW32188   3.753   6.327   4.551
10430SOL    HW132189   3.790   6.262   4.485
10430SOL    HW232190   3.722   6.277   4.632
10431SOL     OW32191   2.930   0.545   4.355
10431SOL    HW132192   2.839   0.587   4.355
10431SOL    HW232193   2.994   0.607   4.310
10432SOL     OW32194   0.496   1.968   5.783
10432SOL    HW132195   0.495   1.992   5.880
10432SOL    HW232196   0.541   1.880   5.771
10433SOL     OW32197   0.047   6.261   2.575
10433SOL    HW132198   6.967   6.249   2.557
10433SOL    HW232199   0.068   6.359   2.580
10434SOL     OW32200   4.256   6.234   4.714
10434SOL    HW132201   4.206   6.320   4.726
10434SOL    HW232202   4.350   6.245   4.745
10435SOL     OW32203   1.989   1.730   6.537
10435SOL    HW132204   1.898   1.706   6.504
10435SOL    HW232205   1.986   1.744   6.636
10436SOL     OW32206   6.194   4.018   4.148
10436SOL    HW132207   6.289   3.994   4.130
10436SOL    HW232208   6.136   3.985   4.074
10437SOL     OW32209   6.220   4.792   4.808
10437SOL    HW132210   6.249   4.847   4.887
10437SOL    HW232211   6.144   4.838   4.762
10438SOL     OW32212   0.489   6.067   6.083
10438SOL    HW132213   0.398   6.048   6.119
10438SOL    HW232214   0.501   6.166   6.073
10439SOL     OW32215   5.586   1.008   4.674
10439SOL    HW132216   5.566   1.080   4.608
10439SOL    HW232217   5.662   1.037   4.733
10440SOL     OW32218   0.230   6.653   6.711
10440SOL    HW132219   0.153   6.695   6.664
10440SOL    HW232220   0.298   6.723   6.733
10441SOL     OW32221   2.977   1.320   1.170
10441SOL    HW132222   2.881   1.334   1.145
10441SOL    HW232223   2.989   1.226   1.204
10442SOL     OW32224   3.950   6.759   5.185
10442SOL    HW132225   3.865   6.802   5.155
10442SOL    HW232226   4.005   6.825   5.235
10443SOL     OW32227   6.092   2.654   3.215
10443SOL    HW132228   6.045   2.614   3.137
10443SOL    HW232229   6.100   2.753   3.203
10444SOL     OW32230   3.805   5.509   2.277
10444SOL    HW132231   3.903   5.521   2.257
10444SOL    HW232232   3.779   5.414   2.261
10445SOL     OW32233   0.688   3.722   2.705
10445SOL    HW132234   0.638   3.732   2.791
10445SOL    HW232235   0.786   3.721   2.724
10446SOL     OW32236   2.047   3.689   6.343
10446SOL    HW132237   2.009   3.653   6.257
10446SOL    HW232238   2.003   3.776   6.365
10447SOL     OW32239   6.992   0.802   2.489
10447SOL    HW132240   0.065   0.832   2.460
10447SOL    HW232241   6.940   0.881   2.522
10448SOL     OW32242   3.367   0.451   2.475
10448SOL    HW132243   3.442   0.518   2.470
10448SOL    HW232244   3.337   0.443   2.570
10449SOL     OW32245   2.474   5.826   6.643
10449SOL    HW132246   2.494   5.758   6.572
10449SOL    HW232247   2.500   5.917   6.611
10450SOL     OW32248   6.845   1.743   6.923
10450SOL    HW132249   6.856   1.687   7.005
10450SOL    HW232250   6.856   1.685   6.842
10451SOL     OW32251   3.312   6.988   3.160
10451SOL    HW132252   3.357   0.039   3.217
10451SOL    HW232253   3.307   6.901   3.210
10452SOL     OW32254   6.800   3.067   3.122
10452SOL    HW132255   6.730   3.139   3.124
10452SOL    HW232256   6.757   2.978   3.135
10453SOL     OW32257   4.835   6.312   1.566
10453SOL    HW132258   4.873   6.278   1.480
10453SOL    HW232259   4.736   6.324   1.556
10454SOL     OW32260   4.986   1.583   0.554
10454SOL    HW132261   5.070   1.625   0.587
10454SOL    HW232262   4.915   1.653   0.546
10455SOL     OW32263   0.044   6.040   3.796
10455SOL    HW132264   6.968   6.009   3.812
10455SOL    HW232265   0.057   6.131   3.836
10456SOL     OW32266   0.761   5.830   0.678
10456SOL    HW132267   0.800   5.830   0.771
10456SOL    HW232268   0.825   5.785   0.616
10457SOL     OW32269   4.275   3.107   0.331
10457SOL    HW132270   4.260   3.089   0.234
10457SOL    HW232271   4.321   3.028   0.372
10458SOL     OW32272   6.525   0.117   6.776
10458SOL    HW132273   6.431   0.109   6.742
10458SOL    HW232274   6.584   0.052   6.728
10459SOL     OW32275   4.100   5.497   1.430
10459SOL    HW132276   4.119   5.566   1.361
10459SOL    HW232277   4.016   5.522   1.479
10460SOL     OW32278   1.400   3.963   2.132
10460SOL    HW132279   1.471   3.894   2.118
10460SOL    HW232280   1.353   3.944   2.218
10461SOL     OW32281   5.876   4.749   5.199
10461SOL    HW132282   5.955   4.716   5.148
10461SOL    HW232283   5.905   4.811   5.271
10462SOL     OW32284   6.073   2.339   3.188
10462SOL    HW132285   6.057   2.375   3.280
10462SOL    HW232286   5.986   2.338   3.138
10463SOL     OW32287   4.034   1.906   5.892
10463SOL    HW132288   4.022   1.930   5.988
10463SOL    HW232289   3.964   1.952   5.837
10464SOL     OW32290   5.938   6.400   2.096
10464SOL    HW132291   5.906   6.488   2.060
10464SOL    HW232292   6.023   6.374   2.051
10465SOL     OW32293   4.601   5.705   1.291
10465SOL    HW132294   4.644   5.620   1.322
10465SOL    HW232295   4.557   5.690   1.202
10466SOL     OW32296   4.885   5.039   5.317
10466SOL    HW132297   4.895   5.024   5.218
10466SOL    HW232298   4.971   5.075   5.354
10467SOL     OW32299   1.583   2.343   0.522
10467SOL    HW132300   1.500   2.363   0.574
10467SOL    HW232301   1.591   2.245   0.507
10468SOL     OW32302   3.982   4.777   3.439
10468SOL    HW132303   3.982   4.830   3.354
10468SOL    HW232304   4.073   4.742   3.458
10469SOL     OW32305   4.464   4.254   6.017
10469SOL    HW132306   4.552   4.253   6.065
10469SOL    HW232307   4.477   4.222   5.923
10470SOL     OW32308   2.245   1.592   3.343
10470SOL    HW132309   2.339   1.627   3.337
10470SOL    HW232310   2.247   1.496   3.371
10471SOL     OW32311   2.273   0.143   0.467
10471SOL    HW132312   2.334   0.204   0.416
10471SOL    HW232313   2.219   0.197   0.532
10472SOL     OW32314   3.344   5.754   0.425
10472SOL    HW132315   3.372   5.772   0.520
10472SOL    HW232316   3.251   5.717   0.425
10473SOL     OW32317   6.361   6.519   6.103
10473SOL    HW132318   6.333   6.610   6.071
10473SOL    HW232319   6.424   6.479   6.038
10474SOL     OW32320   4.112   0.862   4.155
10474SOL    HW132321   4.117   0.861   4.055
10474SOL    HW232322   4.133   0.771   4.190
10475SOL     OW32323   3.416   6.694   1.730
10475SOL    HW132324   3.438   6.681   1.633
10475SOL    HW232325   3.323   6.729   1.739
10476SOL     OW32326   5.674   6.650   6.038
10476SOL    HW132327   5.624   6.646   6.124
10476SOL    HW232328   5.647   6.733   5.988
10477SOL     OW32329   6.920   1.205   5.050
10477SOL    HW132330   6.968   1.258   4.981
10477SOL    HW232331   6.951   1.110   5.046
10478SOL     OW32332   6.665   6.728   6.918
10478SOL    HW132333   6.709   6.639   6.906
10478SOL    HW232334   6.731   6.795   6.950
10479SOL     OW32335   6.763   1.928   1.934
10479SOL    HW132336   6.852   1.882   1.935
10479SOL    HW232337   6.723   1.927   2.025
10480SOL     OW32338   0.832   1.054   2.004
10480SOL    HW132339   0.767   1.129   1.991
10480SOL    HW232340   0.801   0.996   2.080
10481SOL     OW32341   2.024   6.204   3.781
10481SOL    HW132342   2.083   6.183   3.858
10481SOL    HW232343   1.930   6.177   3.802
10482SOL     OW32344   6.158   5.210   4.613
10482SOL    HW132345   6.155   5.118   4.573
10482SOL    HW232346   6.246   5.224   4.658
10483SOL     OW32347   5.510   5.313   0.886
10483SOL    HW132348   5.609   5.329   0.881
10483SOL    HW232349   5.488   5.230   0.834
10484SOL     OW32350   5.670   1.498   1.974
10484SOL    HW132351   5.747   1.464   2.028
10484SOL    HW232352   5.692   1.490   1.877
10485SOL     OW32353   3.466   4.245   0.132
10485SOL    HW132354   3.459   4.233   0.033
10485SOL    HW232355   3.424   4.167   0.179
10486SOL     OW32356   0.233   0.496   0.712
10486SOL    HW132357   0.141   0.534   0.702
10486SOL    HW232358   0.231   0.419   0.776
10487SOL     OW32359   4.909   0.351   1.854
10487SOL    HW132360   4.864   0.348   1.765
10487SOL    HW232361   5.007   0.367   1.841
10488SOL     OW32362   3.478   1.515   5.482
10488SOL    HW132363   3.547   1.541   5.414
10488SOL    HW232364   3.477   1.583   5.555
10489SOL     OW32365   0.760   6.715   5.322
10489SOL    HW132366   0.754   6.812   5.298
10489SOL    HW232367   0.735   6.703   5.418
10490SOL     OW32368   5.916   1.985   0.669
10490SOL    HW132369   5.912   1.892   0.631
10490SOL    HW232370   5.917   2.051   0.594
10491SOL     OW32371   1.791   2.782   0.210
10491SOL    HW132372   1.816   2.755   0.117
10491SOL    HW232373   1.694   2.764   0.226
10492SOL     OW32374   5.948   4.192   5.654
10492SOL    HW132375   6.019   4.259   5.632
10492SOL    HW232376   5.858   4.232   5.636
10493SOL     OW32377   3.485   0.770   2.000
10493SOL    HW132378   3.541   0.853   2.009
10493SOL    HW232379   3.545   0.692   1.981
10494SOL     OW32380   5.605   4.117   5.960
10494SOL    HW132381   5.686   4.090   5.908
10494SOL    HW232382   5.589   4.215   5.948
10495SOL     OW32383   2.321   6.903   6.806
10495SOL    HW132384   2.382   6.965   6.756
10495SOL    HW232385   2.370   6.819   6.828
10496SOL     OW32386   0.096   4.372   6.577
10496SOL    HW132387   7.014   4.374   6.577
10496SOL    HW232388   0.129   4.350   6.668
10497SOL     OW32389   2.236   6.868   2.127
10497SOL    HW132390   2.324   6.866   2.176
10497SOL    HW232391   2.249   6.914   2.039
10498SOL     OW32392   3.157   5.755   1.310
10498SOL    HW132393   3.249   5.776   1.276
10498SOL    HW232394   3.154   5.659   1.338
10499SOL     OW32395   3.474   6.708   2.582
10499SOL    HW132396   3.453   6.614   2.555
10499SOL    HW232397   3.402   6.742   2.643
10500SOL     OW32398   6.938   1.863   6.106
10500SOL    HW132399   0.019   1.863   6.121
10500SOL    HW232400   6.912   1.949   6.061
10501SOL     OW32401   2.120   5.916   3.037
10501SOL    HW132402   2.106   5.822   3.067
10501SOL    HW232403   2.083   5.927   2.945
10502SOL     OW32404   2.682   0.374   1.019
10502SOL    HW132405   2.624   0.321   1.081
10502SOL    HW232406   2.681   0.332   0.928
10503SOL     OW32407   4.393   2.877   0.460
10503SOL    HW132408   4.457   2.849   0.532
10503SOL    HW232409   4.390   2.807   0.388
10504SOL     OW32410   1.451   1.548   6.648
10504SOL    HW132411   1.413   1.457   6.665
10504SOL    HW232412   1.549   1.541   6.633
10505SOL     OW32413   5.606   5.909   0.254
10505SOL    HW132414   5.703   5.888   0.239
10505SOL    HW232415   5.550   5.841   0.207
10506SOL     OW32416   0.271   5.062   0.313
10506SOL    HW132417   0.349   5.078   0.252
10506SOL    HW232418   0.271   5.131   0.385
10507SOL     OW32419   2.056   0.315   0.318
10507SOL    HW132420   2.011   0.384   0.374
10507SOL    HW232421   2.005   0.301   0.233
10508SOL     OW32422   6.258   6.768   4.729
10508SOL    HW132423   6.261   6.760   4.829
10508SOL    HW232424   6.350   6.787   4.694
10509SOL     OW32425   0.857   5.779   4.039
10509SOL    HW132426   0.864   5.836   4.120
10509SOL    HW232427   0.916   5.699   4.049
10510SOL     OW32428   4.588   6.182   6.204
10510SOL    HW132429   4.564   6.095   6.161
10510SOL    HW232430   4.633   6.240   6.137
10511SOL     OW32431   4.022   1.323   2.053
10511SOL    HW132432   4.107   1.275   2.030
10511SOL    HW232433   4.021   1.413   2.009
10512SOL     OW32434   4.073   0.324   5.761
10512SOL    HW132435   4.075   0.288   5.668
10512SOL    HW232436   4.009   0.400   5.767
10513SOL     OW32437   6.209   2.496   4.461
10513SOL    HW132438   6.158   2.503   4.375
10513SOL    HW232439   6.297   2.543   4.451
10514SOL     OW32440   6.714   3.873   0.580
10514SOL    HW132441   6.778   3.796   0.582
10514SOL    HW232442   6.652   3.862   0.502
10515SOL     OW32443   0.628   3.331   2.994
10515SOL    HW132444   0.641   3.267   3.070
10515SOL    HW232445   0.543   3.310   2.947
10516SOL     OW32446   4.214   1.092   0.425
10516SOL    HW132447   4.127   1.107   0.378
10516SOL    HW232448   4.284   1.068   0.357
10517SOL     OW32449   0.756   2.493   2.330
10517SOL    HW132450   0.721   2.401   2.310
10517SOL    HW232451   0.788   2.496   2.425
10518SOL     OW32452   0.788   5.415   6.530
10518SOL    HW132453   0.805   5.330   6.481
10518SOL    HW232454   0.826   5.491   6.477
10519SOL     OW32455   2.194   3.249   6.623
10519SOL    HW132456   2.287   3.214   6.635
10519SOL    HW232457   2.194   3.321   6.553
10520SOL     OW32458   0.963   2.918   6.598
10520SOL    HW132459   0.879   2.875   6.564
10520SOL    HW232460   1.037   2.903   6.532
10521SOL     OW32461   6.188   6.442   1.992
10521SOL    HW132462   6.264   6.404   2.044
10521SOL    HW232463   6.219   6.524   1.943
10522SOL     OW32464   6.870   0.536   5.954
10522SOL    HW132465   6.904   0.568   5.866
10522SOL    HW232466   6.925   0.575   6.028
10523SOL     OW32467   0.095   4.988   3.875
10523SOL    HW132468   0.044   4.946   3.949
10523SOL    HW232469   0.074   4.941   3.789
10524SOL     OW32470   1.702   0.633   4.610
10524SOL    HW132471   1.777   0.669   4.666
10524SOL    HW232472   1.619   0.627   4.665
10525SOL     OW32473   3.669   6.469   6.484
10525SOL    HW132474   3.585   6.447   6.434
10525SOL    HW232475   3.736   6.396   6.472
10526SOL     OW32476   1.004   6.663   3.742
10526SOL    HW132477   1.011   6.654   3.643
10526SOL    HW232478   0.909   6.679   3.768
10527SOL     OW32479   6.733   1.623   5.020
10527SOL    HW132480   6.693   1.637   4.929
10527SOL    HW232481   6.820   1.670   5.026
10528SOL     OW32482   1.837   3.624   6.133
10528SOL    HW132483   1.823   3.709   6.183
10528SOL    HW232484   1.873   3.644   6.042
10529SOL     OW32485   2.472   5.652   3.947
10529SOL    HW132486   2.411   5.717   3.991
10529SOL    HW232487   2.429   5.615   3.865
10530SOL     OW32488   2.403   0.232   6.339
10530SOL    HW132489   2.469   0.289   6.290
10530SOL    HW232490   2.441   0.140   6.350
10531SOL     OW32491   1.206   3.014   3.909
10531SOL    HW132492   1.223   3.075   3.987
10531SOL    HW232493   1.274   3.030   3.838
10532SOL     OW32494   1.347   5.129   5.561
10532SOL    HW132495   1.271   5.193   5.547
10532SOL    HW232496   1.326   5.042   5.517
10533SOL     OW32497   2.614   1.344   4.911
10533SOL    HW132498   2.641   1.361   5.005
10533SOL    HW232499   2.616   1.430   4.860
10534SOL     OW32500   6.199   6.075   1.309
10534SOL    HW132501   6.223   5.979   1.324
10534SOL    HW232502   6.196   6.122   1.397
10535SOL     OW32503   0.762   2.226   0.981
10535SOL    HW132504   0.685   2.180   0.936
10535SOL    HW232505   0.735   2.256   1.072
10536SOL     OW32506   3.792   0.622   2.961
10536SOL    HW132507   3.708   0.645   3.009
10536SOL    HW232508   3.808   0.689   2.888
10537SOL     OW32509   4.220   5.092   4.280
10537SOL    HW132510   4.161   5.161   4.320
10537SOL    HW232511   4.231   5.110   4.182
10538SOL     OW32512   4.802   1.794   0.569
10538SOL    HW132513   4.792   1.835   0.659
10538SOL    HW232514   4.721   1.814   0.514
10539SOL     OW32515   0.417   3.978   0.581
10539SOL    HW132516   0.496   3.941   0.531
10539SOL    HW232517   0.419   4.078   0.576
10540SOL     OW32518   1.627   2.700   4.923
10540SOL    HW132519   1.585   2.791   4.919
10540SOL    HW232520   1.717   2.707   4.967
10541SOL     OW32521   3.570   4.073   2.341
10541SOL    HW132522   3.519   4.027   2.413
10541SOL    HW232523   3.581   4.170   2.363
10542SOL     OW32524   6.568   0.517   5.410
10542SOL    HW132525   6.543   0.423   5.431
10542SOL    HW232526   6.500   0.579   5.448
10543SOL     OW32527   0.647   1.002   5.252
10543SOL    HW132528   0.708   0.932   5.290
10543SOL    HW232529   0.638   0.988   5.153
10544SOL     OW32530   2.229   6.605   2.084
10544SOL    HW132531   2.206   6.592   1.988
10544SOL    HW232532   2.237   6.703   2.103
10545SOL     OW32533   6.036   1.258   2.439
10545SOL    HW132534   6.101   1.237   2.366
10545SOL    HW232535   5.944   1.228   2.411
10546SOL     OW32536   2.077   0.932   0.085
10546SOL    HW132537   2.021   0.996   0.033
10546SOL    HW232538   2.019   0.875   0.143
10547SOL     OW32539   5.852   2.740   2.305
10547SOL    HW132540   5.811   2.715   2.217
10547SOL    HW232541   5.803   2.693   2.379
10548SOL     OW32542   5.437   4.506   4.492
10548SOL    HW132543   5.358   4.478   4.438
10548SOL    HW232544   5.412   4.585   4.549
10549SOL     OW32545   6.979   6.683   1.889
10549SOL    HW132546   7.002   6.781   1.890
10549SOL    HW232547   6.910   6.664   1.958
10550SOL     OW32548   4.443   5.726   3.917
10550SOL    HW132549   4.378   5.703   3.990
10550SOL    HW232550   4.517   5.659   3.916
10551SOL     OW32551   1.391   2.673   6.270
10551SOL    HW132552   1.444   2.620   6.203
10551SOL    HW232553   1.381   2.620   6.354
10552SOL     OW32554   3.232   1.507   6.631
10552SOL    HW132555   3.317   1.526   6.582
10552SOL    HW232556   3.155   1.519   6.569
10553SOL     OW32557   0.633   4.794   1.563
10553SOL    HW132558   0.581   4.825   1.484
10553SOL    HW232559   0.658   4.698   1.551
10554SOL     OW32560   5.585   5.110   0.035
10554SOL    HW132561   5.578   5.040   0.105
10554SOL    HW232562   5.567   5.070   6.963
10555SOL     OW32563   1.871   3.370   0.575
10555SOL    HW132564   1.839   3.375   0.670
10555SOL    HW232565   1.957   3.419   0.567
10556SOL     OW32566   2.259   1.877   5.407
10556SOL    HW132567   2.277   1.939   5.484
10556SOL    HW232568   2.312   1.793   5.419
10557SOL     OW32569   2.446   2.682   2.949
10557SOL    HW132570   2.406   2.650   2.863
10557SOL    HW232571   2.390   2.755   2.988
10558SOL     OW32572   3.907   1.043   3.971
10558SOL    HW132573   3.851   0.999   4.041
10558SOL    HW232574   3.873   1.135   3.954
10559SOL     OW32575   4.967   0.524   0.866
10559SOL    HW132576   4.898   0.467   0.821
10559SOL    HW232577   5.054   0.515   0.817
10560SOL     OW32578   3.492   5.902   3.346
10560SOL    HW132579   3.508   5.813   3.304
10560SOL    HW232580   3.549   5.971   3.302
10561SOL     OW32581   3.257   4.180   0.505
10561SOL    HW132582   3.318   4.259   0.510
10561SOL    HW232583   3.308   4.097   0.526
10562SOL     OW32584   4.600   5.499   0.400
10562SOL    HW132585   4.583   5.593   0.371
10562SOL    HW232586   4.692   5.472   0.372
10563SOL     OW32587   0.864   1.354   3.676
10563SOL    HW132588   0.880   1.262   3.712
10563SOL    HW232589   0.864   1.351   3.576
10564SOL     OW32590   5.466   6.331   1.643
10564SOL    HW132591   5.500   6.397   1.576
10564SOL    HW232592   5.470   6.239   1.604
10565SOL     OW32593   0.014   0.664   6.118
10565SOL    HW132594   0.092   0.706   6.072
10565SOL    HW232595   0.046   0.611   6.196
10566SOL     OW32596   3.775   2.551   6.998
10566SOL    HW132597   3.823   2.636   6.978
10566SOL    HW232598   3.836   2.489   0.029
10567SOL     OW32599   3.329   2.035   4.165
10567SOL    HW132600   3.340   2.052   4.067
10567SOL    HW232601   3.244   2.077   4.196
10568SOL     OW32602   6.220   2.061   1.443
10568SOL    HW132603   6.273   2.049   1.359
10568SOL    HW232604   6.279   2.095   1.516
10569SOL     OW32605   5.501   1.982   1.971
10569SOL    HW132606   5.532   2.065   2.018
10569SOL    HW232607   5.528   1.902   2.024
10570SOL     OW32608   1.758   5.177   3.443
10570SOL    HW132609   1.689   5.189   3.515
10570SOL    HW232610   1.748   5.087   3.402
10571SOL     OW32611   6.756   5.135   5.541
10571SOL    HW132612   6.833   5.152   5.479
10571SOL    HW232613   6.670   5.142   5.489
10572SOL     OW32614   6.964   3.706   3.587
10572SOL    HW132615   6.935   3.656   3.669
10572SOL    HW232616   6.956   3.804   3.603
10573SOL     OW32617   4.143   6.937   5.300
10573SOL    HW132618   4.242   6.951   5.299
10573SOL    HW232619   4.112   6.921   5.393
10574SOL     OW32620   1.227   1.053   3.828
10574SOL    HW132621   1.214   1.124   3.897
10574SOL    HW232622   1.206   0.964   3.868
10575SOL     OW32623   6.477   1.270   3.231
10575SOL    HW132624   6.455   1.360   3.269
10575SOL    HW232625   6.449   1.267   3.135
10576SOL     OW32626   0.140   6.167   5.048
10576SOL    HW132627   0.041   6.156   5.059
10576SOL    HW232628   0.166   6.260   5.072
10577SOL     OW32629   1.726   2.993   0.545
10577SOL    HW132630   1.633   2.970   0.573
10577SOL    HW232631   1.724   3.051   0.464
10578SOL     OW32632   5.375   0.930   2.885
10578SOL    HW132633   5.360   1.023   2.850
10578SOL    HW232634   5.459   0.894   2.845
10579SOL     OW32635   4.178   2.236   1.120
10579SOL    HW132636   4.120   2.268   1.045
10579SOL    HW232637   4.121   2.212   1.198
10580SOL     OW32638   6.887   0.405   0.088
10580SOL    HW132639   6.969   0.458   0.111
10580SOL    HW232640   6.855   0.432   7.015
10581SOL     OW32641   6.876   7.003   3.371
10581SOL    HW132642   6.828   6.988   3.457
10581SOL    HW232643   6.880   0.083   3.350
10582SOL     OW32644   5.279   5.048   6.557
10582SOL    HW132645   5.314   4.955   6.552
10582SOL    HW232646   5.262   5.072   6.653
10583SOL     OW32647   4.167   1.557   5.187
10583SOL    HW132648   4.220   1.480   5.153
10583SOL    HW232649   4.156   1.550   5.286
10584SOL     OW32650   7.012   6.528   1.209
10584SOL    HW132651   0.092   6.538   1.230
10584SOL    HW232652   6.961   6.520   1.295
10585SOL     OW32653   2.295   2.773   6.342
10585SOL    HW132654   2.251   2.779   6.252
10585SOL    HW232655   2.315   2.865   6.375
10586SOL     OW32656   6.879   4.785   4.824
10586SOL    HW132657   6.876   4.833   4.736
10586SOL    HW232658   6.894   4.688   4.808
10587SOL     OW32659   6.080   3.561   0.269
10587SOL    HW132660   6.174   3.546   0.239
10587SOL    HW232661   6.033   3.619   0.202
10588SOL     OW32662   0.505   3.356   3.515
10588SOL    HW132663   0.588   3.372   3.462
10588SOL    HW232664   0.458   3.443   3.531
10589SOL     OW32665   5.895   1.039   4.393
10589SOL    HW132666   5.828   0.995   4.334
10589SOL    HW232667   5.924   0.975   4.465
10590SOL     OW32668   1.283   0.249   1.801
10590SOL    HW132669   1.258   0.161   1.842
10590SOL    HW232670   1.206   0.283   1.747
10591SOL     OW32671   1.171   1.621   6.401
10591SOL    HW132672   1.135   1.647   6.491
10591SOL    HW232673   1.252   1.564   6.412
10592SOL     OW32674   5.604   3.767   1.512
10592SOL    HW132675   5.655   3.785   1.596
10592SOL    HW232676   5.666   3.733   1.442
10593SOL     OW32677   2.644   5.167   0.436
10593SOL    HW132678   2.616   5.138   0.345
10593SOL    HW232679   2.611   5.260   0.454
10594SOL     OW32680   4.781   6.830   2.321
10594SOL    HW132681   4.772   6.823   2.420
10594SOL    HW232682   4.874   6.860   2.297
10595SOL     OW32683   3.735   6.701   5.551
10595SOL    HW132684   3.666   6.639   5.588
10595SOL    HW232685   3.819   6.650   5.532
10596SOL     OW32686   4.273   0.530   0.072
10596SOL    HW132687   4.228   0.450   0.032
10596SOL    HW232688   4.326   0.501   0.152
10597SOL     OW32689   3.606   1.116   5.079
10597SOL    HW132690   3.694   1.136   5.037
10597SOL    HW232691   3.569   1.031   5.042
10598SOL     OW32692   3.053   2.535   0.366
10598SOL    HW132693   3.090   2.613   0.317
10598SOL    HW232694   3.127   2.485   0.411
10599SOL     OW32695   4.906   2.435   6.472
10599SOL    HW132696   4.980   2.397   6.528
10599SOL    HW232697   4.843   2.486   6.531
10600SOL     OW32698   2.047   2.578   0.575
10600SOL    HW132699   2.008   2.662   0.536
10600SOL    HW232700   2.012   2.565   0.667
10601SOL     OW32701   1.592   4.673   5.922
10601SOL    HW132702   1.672   4.619   5.950
10601SOL    HW232703   1.530   4.682   6.000
10602SOL     OW32704   3.920   1.711   3.227
10602SOL    HW132705   3.963   1.801   3.238
10602SOL    HW232706   3.914   1.690   3.129
10603SOL     OW32707   2.915   5.841   3.616
10603SOL    HW132708   2.866   5.772   3.669
10603SOL    HW232709   3.001   5.863   3.661
10604SOL     OW32710   5.986   4.598   5.565
10604SOL    HW132711   6.025   4.685   5.534
10604SOL    HW232712   5.974   4.537   5.487
10605SOL     OW32713   2.168   5.677   0.917
10605SOL    HW132714   2.100   5.643   0.852
10605SOL    HW232715   2.126   5.691   1.006
10606SOL     OW32716   0.016   0.736   2.153
10606SOL    HW132717   0.010   0.828   2.116
10606SOL    HW232718   0.027   0.741   2.253
10607SOL     OW32719   4.299   4.692   6.048
10607SOL    HW132720   4.308   4.753   5.969
10607SOL    HW232721   4.346   4.731   6.127
10608SOL     OW32722   4.959   2.162   5.769
10608SOL    HW132723   4.955   2.254   5.730
10608SOL    HW232724   5.054   2.135   5.781
10609SOL     OW32725   3.149   6.634   1.091
10609SOL    HW132726   3.132   6.732   1.102
10609SOL    HW232727   3.079   6.595   1.031
10610SOL     OW32728   1.339   2.951   5.876
10610SOL    HW132729   1.305   2.962   5.782
10610SOL    HW232730   1.437   2.972   5.878
10611SOL     OW32731   4.284   3.599   5.696
10611SOL    HW132732   4.246   3.583   5.604
10611SOL    HW232733   4.315   3.512   5.735
10612SOL     OW32734   2.923   0.859   5.414
10612SOL    HW132735   2.895   0.900   5.327
10612SOL    HW232736   2.948   0.763   5.399
10613SOL     OW32737   6.144   0.017   5.264
10613SOL    HW132738   6.237   0.053   5.253
10613SOL    HW232739   6.146   6.953   5.322
10614SOL     OW32740   6.268   1.947   4.295
10614SOL    HW132741   6.298   2.040   4.270
10614SOL    HW232742   6.339   1.882   4.269
10615SOL     OW32743   3.322   6.701   6.039
10615SOL    HW132744   3.282   6.728   6.127
10615SOL    HW232745   3.340   6.602   6.040
10616SOL     OW32746   2.729   6.193   0.646
10616SOL    HW132747   2.733   6.290   0.669
10616SOL    HW232748   2.720   6.183   0.547
10617SOL     OW32749   2.626   2.335   1.213
10617SOL    HW132750   2.612   2.366   1.307
10617SOL    HW232751   2.615   2.413   1.151
10618SOL     OW32752   6.772   3.784   6.426
10618SOL    HW132753   6.819   3.783   6.338
10618SOL    HW232754   6.823   3.727   6.491
10619SOL     OW32755   0.240   4.124   2.271
10619SOL    HW132756   0.268   4.123   2.175
10619SOL    HW232757   0.141   4.137   2.277
10620SOL     OW32758   1.487   5.382   5.435
10620SOL    HW132759   1.518   5.394   5.340
10620SOL    HW232760   1.460   5.287   5.448
10621SOL     OW32761   1.525   6.305   1.795
10621SOL    HW132762   1.580   6.325   1.714
10621SOL    HW232763   1.430   6.327   1.776
10622SOL     OW32764   5.104   1.159   1.144
10622SOL    HW132765   5.027   1.223   1.152
10622SOL    HW232766   5.071   1.066   1.158
10623SOL     OW32767   6.942   4.554   4.720
10623SOL    HW132768   6.951   4.576   4.623
10623SOL    HW232769   6.862   4.496   4.733
10624SOL     OW32770   0.689   1.874   4.992
10624SOL    HW132771   0.618   1.808   4.969
10624SOL    HW232772   0.649   1.952   5.041
10625SOL     OW32773   0.605   4.203   6.946
10625SOL    HW132774   0.532   4.210   7.014
10625SOL    HW232775   0.565   4.200   6.854
10626SOL     OW32776   2.330   3.074   0.998
10626SOL    HW132777   2.358   2.987   0.959
10626SOL    HW232778   2.249   3.108   0.950
10627SOL     OW32779   5.623   6.559   0.577
10627SOL    HW132780   5.665   6.546   0.487
10627SOL    HW232781   5.567   6.641   0.576
10628SOL     OW32782   4.588   5.756   0.260
10628SOL    HW132783   4.671   5.770   0.205
10628SOL    HW232784   4.514   5.724   0.200
10629SOL     OW32785   2.772   4.912   5.099
10629SOL    HW132786   2.802   4.816   5.092
10629SOL    HW232787   2.673   4.916   5.091
10630SOL     OW32788   6.494   1.505   4.058
10630SOL    HW132789   6.464   1.422   4.010
10630SOL    HW232790   6.562   1.481   4.127
10631SOL     OW32791   2.683   5.133   4.667
10631SOL    HW132792   2.773   5.096   4.643
10631SOL    HW232793   2.654   5.095   4.755
10632SOL     OW32794   6.218   1.792   4.044
10632SOL    HW132795   6.133   1.811   4.092
10632SOL    HW232796   6.293   1.785   4.109
10633SOL     OW32797   2.736   3.615   1.771
10633SOL    HW132798   2.728   3.609   1.870
10633SOL    HW232799   2.648   3.643   1.732
10634SOL     OW32800   3.047   5.653   0.923
10634SOL    HW132801   3.092   5.720   0.982
10634SOL    HW232802   2.955   5.634   0.957
10635SOL     OW32803   3.640   1.525   1.283
10635SOL    HW132804   3.636   1.450   1.349
10635SOL    HW232805   3.674   1.491   1.196
10636SOL     OW32806   1.001   1.455   1.681
10636SOL    HW132807   1.042   1.493   1.598
10636SOL    HW232808   1.071   1.410   1.736
10637SOL     OW32809   2.551   4.721   5.633
10637SOL    HW132810   2.482   4.650   5.619
10637SOL    HW232811   2.601   4.702   5.717
10638SOL     OW32812   0.082   5.303   3.053
10638SOL    HW132813   7.000   5.304   3.054
10638SOL    HW232814   0.114   5.250   2.974
10639SOL     OW32815   1.027   3.308   2.695
10639SOL    HW132816   0.951   3.364   2.728
10639SOL    HW232817   0.991   3.232   2.640
10640SOL     OW32818   3.404   0.267   5.667
10640SOL    HW132819   3.371   0.273   5.761
10640SOL    HW232820   3.427   0.172   5.645
10641SOL     OW32821   3.755   2.147   0.084
10641SOL    HW132822   3.802   2.140   7.013
10641SOL    HW232823   3.656   2.144   0.069
10642SOL     OW32824   6.736   3.206   1.899
10642SOL    HW132825   6.720   3.229   1.803
10642SOL    HW232826   6.762   3.110   1.907
10643SOL     OW32827   2.286   5.103   5.348
10643SOL    HW132828   2.369   5.051   5.369
10643SOL    HW232829   2.276   5.177   5.414
10644SOL     OW32830   5.466   2.510   3.280
10644SOL    HW132831   5.525   2.544   3.354
10644SOL    HW232832   5.439   2.586   3.221
10645SOL     OW32833   1.088   1.529   5.182
10645SOL    HW132834   0.993   1.558   5.172
10645SOL    HW232835   1.111   1.521   5.279
10646SOL     OW32836   6.963   1.115   6.370
10646SOL    HW132837   6.934   1.051   6.299
10646SOL    HW232838   6.960   1.209   6.335
10647SOL     OW32839   3.195   5.333   6.800
10647SOL    HW132840   3.294   5.327   6.784
10647SOL    HW232841   3.149   5.357   6.714
10648SOL     OW32842   5.216   4.308   6.039
10648SOL    HW132843   5.230   4.357   6.125
10648SOL    HW232844   5.274   4.347   5.968
10649SOL     OW32845   0.331   4.251   3.687
10649SOL    HW132846   0.363   4.303   3.607
10649SOL    HW232847   0.249   4.294   3.723
10650SOL     OW32848   0.998   6.039   3.322
10650SOL    HW132849   0.911   6.073   3.288
10650SOL    HW232850   0.987   6.011   3.418
10651SOL     OW32851   4.740   0.038   5.814
10651SOL    HW132852   4.713   0.127   5.778
10651SOL    HW232853   4.839   0.028   5.807
10652SOL     OW32854   3.790   6.824   6.303
10652SOL    HW132855   3.853   6.897   6.276
10652SOL    HW232856   3.834   6.735   6.292
10653SOL     OW32857   5.415   3.693   4.231
10653SOL    HW132858   5.403   3.782   4.188
10653SOL    HW232859   5.495   3.647   4.193
10654SOL     OW32860   4.378   1.330   0.503
10654SOL    HW132861   4.334   1.409   0.545
10654SOL    HW232862   4.309   1.263   0.476
10655SOL     OW32863   2.792   5.527   1.052
10655SOL    HW132864   2.793   5.604   1.115
10655SOL    HW232865   2.726   5.458   1.083
10656SOL     OW32866   6.685   2.436   1.593
10656SOL    HW132867   6.632   2.405   1.672
10656SOL    HW232868   6.672   2.535   1.581
10657SOL     OW32869   6.482   0.541   6.341
10657SOL    HW132870   6.387   0.523   6.317
10657SOL    HW232871   6.542   0.509   6.269
10658SOL     OW32872   5.907   3.824   4.942
10658SOL    HW132873   5.987   3.769   4.918
10658SOL    HW232874   5.835   3.764   4.977
10659SOL     OW32875   0.070   6.174   0.612
10659SOL    HW132876   7.006   6.215   0.653
10659SOL    HW232877   0.134   6.247   0.587
10660SOL     OW32878   5.496   3.856   6.930
10660SOL    HW132879   5.546   3.816   6.853
10660SOL    HW232880   5.402   3.876   6.901
10661SOL     OW32881   6.942   6.392   2.914
10661SOL    HW132882   0.019   6.367   2.935
10661SOL    HW232883   6.940   6.445   2.829
10662SOL     OW32884   5.360   0.625   2.504
10662SOL    HW132885   5.365   0.540   2.451
10662SOL    HW232886   5.366   0.604   2.602
10663SOL     OW32887   0.393   0.521   1.970
10663SOL    HW132888   0.429   0.488   2.057
10663SOL    HW232889   0.469   0.556   1.915
10664SOL     OW32890   1.419   5.025   4.793
10664SOL    HW132891   1.436   5.086   4.715
10664SOL    HW232892   1.436   4.931   4.765
10665SOL     OW32893   0.215   1.009   0.790
10665SOL    HW132894   0.188   1.105   0.798
10665SOL    HW232895   0.174   0.970   0.708
10666SOL     OW32896   3.168   4.071   0.284
10666SOL    HW132897   3.184   4.134   0.360
10666SOL    HW232898   3.197   3.979   0.310
10667SOL     OW32899   4.100   2.959   5.315
10667SOL    HW132900   4.161   2.918   5.382
10667SOL    HW232901   4.012   2.913   5.318
10668SOL     OW32902   1.529   1.801   5.260
10668SOL    HW132903   1.601   1.793   5.191
10668SOL    HW232904   1.517   1.897   5.284
10669SOL     OW32905   6.113   6.786   1.060
10669SOL    HW132906   6.062   6.838   1.129
10669SOL    HW232907   6.169   6.849   1.006
10670SOL     OW32908   4.910   3.842   5.081
10670SOL    HW132909   4.866   3.923   5.044
10670SOL    HW232910   4.887   3.763   5.025
10671SOL     OW32911   2.553   1.839   2.845
10671SOL    HW132912   2.521   1.900   2.918
10671SOL    HW232913   2.479   1.826   2.778
10672SOL     OW32914   6.671   2.377   0.687
10672SOL    HW132915   6.754   2.362   0.739
10672SOL    HW232916   6.694   2.419   0.599
10673SOL     OW32917   1.357   1.199   0.169
10673SOL    HW132918   1.371   1.227   0.074
10673SOL    HW232919   1.414   1.256   0.229
10674SOL     OW32920   3.069   4.363   1.030
10674SOL    HW132921   2.970   4.358   1.042
10674SOL    HW232922   3.091   4.431   0.959
10675SOL     OW32923   1.741   0.477   5.584
10675SOL    HW132924   1.651   0.510   5.557
10675SOL    HW232925   1.761   0.391   5.536
10676SOL     OW32926   6.469   6.164   5.987
10676SOL    HW132927   6.474   6.250   5.937
10676SOL    HW232928   6.543   6.160   6.054
10677SOL     OW32929   0.872   0.641   1.843
10677SOL    HW132930   0.954   0.617   1.791
10677SOL    HW232931   0.845   0.563   1.900
10678SOL     OW32932   3.465   5.551   1.890
10678SOL    HW132933   3.480   5.649   1.885
10678SOL    HW232934   3.431   5.527   1.981
10679SOL     OW32935   5.350   4.436   5.821
10679SOL    HW132936   5.450   4.438   5.819
10679SOL    HW232937   5.316   4.400   5.734
10680SOL     OW32938   2.641   1.715   3.772
10680SOL    HW132939   2.642   1.792   3.709
10680SOL    HW232940   2.735   1.688   3.794
10681SOL     OW32941   0.080   3.993   0.170
10681SOL    HW132942   0.057   3.962   0.077
10681SOL    HW232943   0.020   4.069   0.195
10682SOL     OW32944   2.091   2.259   3.275
10682SOL    HW132945   2.176   2.290   3.233
10682SOL    HW232946   2.102   2.167   3.311
10683SOL     OW32947   3.502   2.089   3.774
10683SOL    HW132948   3.582   2.127   3.729
10683SOL    HW232949   3.519   2.083   3.873
10684SOL     OW32950   4.874   3.742   1.043
10684SOL    HW132951   4.818   3.734   1.124
10684SOL    HW232952   4.829   3.696   0.966
10685SOL     OW32953   6.350   4.308   2.223
10685SOL    HW132954   6.394   4.229   2.264
10685SOL    HW232955   6.271   4.279   2.170
10686SOL     OW32956   3.327   5.050   6.780
10686SOL    HW132957   3.228   5.040   6.767
10686SOL    HW232958   3.371   5.060   6.690
10687SOL     OW32959   0.012   5.046   2.198
10687SOL    HW132960   6.984   4.988   2.131
10687SOL    HW232961   0.000   5.142   2.173
10688SOL     OW32962   6.927   4.653   2.984
10688SOL    HW132963   6.928   4.648   3.084
10688SOL    HW232964   6.914   4.748   2.956
10689SOL     OW32965   0.456   0.026   4.045
10689SOL    HW132966   0.535   0.088   4.051
10689SOL    HW232967   0.489   6.951   4.022
10690SOL     OW32968   6.327   5.353   3.890
10690SOL    HW132969   6.281   5.440   3.872
10690SOL    HW232970   6.281   5.305   3.965
10691SOL     OW32971   0.056   1.213   2.510
10691SOL    HW132972   0.099   1.175   2.593
10691SOL    HW232973   0.036   1.310   2.524
10692SOL     OW32974   3.765   4.924   2.967
10692SOL    HW132975   3.737   5.017   2.992
10692SOL    HW232976   3.714   4.894   2.887
10693SOL     OW32977   1.781   0.337   1.567
10693SOL    HW132978   1.827   0.413   1.612
10693SOL    HW232979   1.838   0.255   1.572
10694SOL     OW32980   3.908   6.176   1.696
10694SOL    HW132981   3.904   6.077   1.707
10694SOL    HW232982   4.002   6.207   1.710
10695SOL     OW32983   5.852   2.078   2.365
10695SOL    HW132984   5.841   2.076   2.464
10695SOL    HW232985   5.809   2.160   2.328
10696SOL     OW32986   6.725   4.526   2.467
10696SOL    HW132987   6.773   4.484   2.544
10696SOL    HW232988   6.673   4.605   2.500
10697SOL     OW32989   0.110   6.358   4.428
10697SOL    HW132990   0.073   6.327   4.516
10697SOL    HW232991   0.056   6.435   4.395
10698SOL     OW32992   3.978   6.352   3.917
10698SOL    HW132993   3.879   6.335   3.920
10698SOL    HW232994   4.021   6.293   3.849
10699SOL     OW32995   4.526   1.931   2.600
10699SOL    HW132996   4.594   1.939   2.527
10699SOL    HW232997   4.549   1.854   2.660
10700SOL     OW32998   1.106   0.074   0.472
10700SOL    HW132999   1.077   0.157   0.425
10700SOL    HW233000   1.157   0.098   0.554
10701SOL     OW33001   3.785   6.153   0.178
10701SOL    HW133002   3.800   6.056   0.160
10701SOL    HW233003   3.849   6.185   0.247
10702SOL     OW33004   6.648   2.450   2.816
10702SOL    HW133005   6.571   2.386   2.824
10702SOL    HW233006   6.716   2.413   2.753
10703SOL     OW33007   3.888   3.160   4.031
10703SOL    HW133008   3.931   3.250   4.036
10703SOL    HW233009   3.895   3.115   4.120
10704SOL     OW33010   5.691   5.753   1.537
10704SOL    HW133011   5.643   5.811   1.603
10704SOL    HW233012   5.754   5.809   1.483
10705SOL     OW33013   6.852   4.075   1.214
10705SOL    HW133014   6.848   4.029   1.125
10705SOL    HW233015   6.762   4.112   1.236
10706SOL     OW33016   4.805   6.536   1.914
10706SOL    HW133017   4.839   6.444   1.895
10706SOL    HW233018   4.715   6.530   1.956
10707SOL     OW33019   0.214   0.163   4.937
10707SOL    HW133020   0.271   0.177   5.018
10707SOL    HW233021   0.270   0.126   4.862
10708SOL     OW33022   4.658   0.913   2.527
10708SOL    HW133023   4.598   0.989   2.504
10708SOL    HW233024   4.740   0.917   2.469
10709SOL     OW33025   6.754   1.396   5.147
10709SOL    HW133026   6.740   1.475   5.087
10709SOL    HW233027   6.813   1.329   5.102
10710SOL     OW33028   0.951   6.557   4.855
10710SOL    HW133029   0.966   6.653   4.876
10710SOL    HW233030   1.038   6.513   4.832
10711SOL     OW33031   2.237   6.831   3.724
10711SOL    HW133032   2.146   6.854   3.759
10711SOL    HW233033   2.281   6.914   3.689
10712SOL     OW33034   3.881   0.218   2.317
10712SOL    HW133035   3.859   0.240   2.412
10712SOL    HW233036   3.889   0.302   2.264
10713SOL     OW33037   1.752   4.274   2.273
10713SOL    HW133038   1.763   4.204   2.344
10713SOL    HW233039   1.679   4.247   2.210
10714SOL     OW33040   6.665   2.551   5.091
10714SOL    HW133041   6.572   2.517   5.107
10714SOL    HW233042   6.666   2.651   5.095
10715SOL     OW33043   4.417   0.787   2.831
10715SOL    HW133044   4.411   0.734   2.747
10715SOL    HW233045   4.387   0.731   2.908
10716SOL     OW33046   0.201   2.996   3.435
10716SOL    HW133047   0.254   3.065   3.386
10716SOL    HW233048   0.237   2.905   3.412
10717SOL     OW33049   0.843   2.300   0.711
10717SOL    HW133050   0.839   2.272   0.807
10717SOL    HW233051   0.938   2.316   0.684
10718SOL     OW33052   6.263   4.519   0.159
10718SOL    HW133053   6.292   4.549   0.068
10718SOL    HW233054   6.266   4.596   0.223
10719SOL     OW33055   4.397   5.652   1.467
10719SOL    HW133056   4.475   5.651   1.404
10719SOL    HW233057   4.312   5.659   1.416
10720SOL     OW33058   0.443   4.129   6.241
10720SOL    HW133059   0.497   4.204   6.278
10720SOL    HW233060   0.395   4.083   6.316
10721SOL     OW33061   6.502   2.189   4.543
10721SOL    HW133062   6.545   2.247   4.612
10721SOL    HW233063   6.403   2.190   4.555
10722SOL     OW33064   6.964   3.177   0.712
10722SOL    HW133065   6.942   3.261   0.663
10722SOL    HW233066   6.917   3.100   0.669
10723SOL     OW33067   5.982   3.845   6.879
10723SOL    HW133068   5.941   3.926   6.921
10723SOL    HW233069   6.017   3.784   6.950
10724SOL     OW33070   3.453   0.366   6.148
10724SOL    HW133071   3.496   0.300   6.086
10724SOL    HW233072   3.506   0.372   6.233
10725SOL     OW33073   6.926   4.950   4.094
10725SOL    HW133074   6.899   4.871   4.148
10725SOL    HW233075   6.845   5.003   4.068
10726SOL     OW33076   5.763   6.777   5.203
10726SOL    HW133077   5.723   6.755   5.292
10726SOL    HW233078   5.706   6.846   5.158
10727SOL     OW33079   1.831   5.109   4.982
10727SOL    HW133080   1.824   5.164   4.899
10727SOL    HW233081   1.756   5.132   5.044
10728SOL     OW33082   6.240   6.597   2.262
10728SOL    HW133083   6.339   6.610   2.271
10728SOL    HW233084   6.222   6.522   2.197
10729SOL     OW33085   6.321   1.604   2.901
10729SOL    HW133086   6.240   1.609   2.841
10729SOL    HW233087   6.398   1.568   2.849
10730SOL     OW33088   2.643   6.452   1.345
10730SOL    HW133089   2.714   6.516   1.375
10730SOL    HW233090   2.681   6.359   1.341
10731SOL     OW33091   2.564   5.546   6.823
10731SOL    HW133092   2.471   5.583   6.819
10731SOL    HW233093   2.592   5.538   6.919
10732SOL     OW33094   6.044   0.558   2.615
10732SOL    HW133095   6.123   0.613   2.588
10732SOL    HW233096   6.000   0.599   2.694
10733SOL     OW33097   5.451   2.353   0.312
10733SOL    HW133098   5.471   2.301   0.229
10733SOL    HW233099   5.489   2.445   0.304
10734SOL     OW33100   1.139   0.902   6.774
10734SOL    HW133101   1.193   0.844   6.714
10734SOL    HW233102   1.162   0.883   6.869
10735SOL     OW33103   1.468   4.779   2.195
10735SOL    HW133104   1.480   4.762   2.097
10735SOL    HW233105   1.554   4.762   2.243
10736SOL     OW33106   0.916   0.717   3.186
10736SOL    HW133107   0.991   0.662   3.149
10736SOL    HW233108   0.949   0.808   3.211
10737SOL     OW33109   0.623   2.568   0.834
10737SOL    HW133110   0.591   2.548   0.927
10737SOL    HW233111   0.550   2.548   0.769
10738SOL     OW33112   2.386   6.963   2.483
10738SOL    HW133113   2.399   0.043   2.464
10738SOL    HW233114   2.334   6.952   2.568
10739SOL     OW33115   6.938   1.349   2.980
10739SOL    HW133116   6.932   1.437   2.933
10739SOL    HW233117   6.862   1.340   3.045
10740SOL     OW33118   1.337   5.586   5.824
10740SOL    HW133119   1.432   5.582   5.856
10740SOL    HW233120   1.335   5.580   5.725
10741SOL     OW33121   1.081   1.222   3.279
10741SOL    HW133122   1.058   1.292   3.212
10741SOL    HW233123   1.180   1.222   3.294
10742SOL     OW33124   6.037   6.727   2.149
10742SOL    HW133125   6.046   6.826   2.145
10742SOL    HW233126   6.114   6.688   2.200
10743SOL     OW33127   2.411   2.638   3.718
10743SOL    HW133128   2.331   2.693   3.694
10743SOL    HW233129   2.442   2.588   3.636
10744SOL     OW33130   3.119   1.601   2.452
10744SOL    HW133131   3.175   1.563   2.526
10744SOL    HW233132   3.139   1.698   2.441
10745SOL     OW33133   1.743   4.680   6.910
10745SOL    HW133134   1.771   4.646   7.000
10745SOL    HW233135   1.771   4.614   6.840
10746SOL     OW33136   1.736   5.500   1.427
10746SOL    HW133137   1.790   5.420   1.401
10746SOL    HW233138   1.725   5.559   1.347
10747SOL     OW33139   5.159   1.423   3.485
10747SOL    HW133140   5.215   1.451   3.407
10747SOL    HW233141   5.076   1.377   3.452
10748SOL     OW33142   5.930   5.890   0.957
10748SOL    HW133143   5.908   5.824   0.885
10748SOL    HW233144   6.021   5.871   0.994
10749SOL     OW33145   0.298   5.144   3.101
10749SOL    HW133146   0.244   5.229   3.096
10749SOL    HW233147   0.236   5.066   3.091
10750SOL     OW33148   4.685   4.497   4.676
10750SOL    HW133149   4.747   4.424   4.646
10750SOL    HW233150   4.633   4.467   4.756
10751SOL     OW33151   0.887   3.421   5.133
10751SOL    HW133152   0.881   3.360   5.053
10751SOL    HW233153   0.925   3.370   5.210
10752SOL     OW33154   6.127   3.903   6.375
10752SOL    HW133155   6.189   3.975   6.405
10752SOL    HW233156   6.052   3.894   6.441
10753SOL     OW33157   6.435   6.952   3.872
10753SOL    HW133158   6.341   6.985   3.876
10753SOL    HW233159   6.499   0.012   3.871
10754SOL     OW33160   1.954   2.407   2.636
10754SOL    HW133161   1.890   2.369   2.701
10754SOL    HW233162   1.905   2.444   2.557
10755SOL     OW33163   6.995   1.834   0.640
10755SOL    HW133164   7.017   1.756   0.581
10755SOL    HW233165   7.006   1.809   0.736
10756SOL     OW33166   6.261   3.177   0.948
10756SOL    HW133167   6.187   3.114   0.926
10756SOL    HW233168   6.237   3.231   1.028
10757SOL     OW33169   0.363   3.369   0.614
10757SOL    HW133170   0.336   3.277   0.585
10757SOL    HW233171   0.297   3.403   0.681
10758SOL     OW33172   0.487   5.970   5.330
10758SOL    HW133173   0.448   5.964   5.422
10758SOL    HW233174   0.540   5.887   5.312
10759SOL     OW33175   1.990   2.870   6.781
10759SOL    HW133176   1.943   2.814   6.848
10759SOL    HW233177   2.025   2.813   6.708
10760SOL     OW33178   0.328   6.546   0.880
10760SOL    HW133179   0.398   6.498   0.827
10760SOL    HW233180   0.264   6.479   0.919
10761SOL     OW33181   0.985   2.584   6.398
10761SOL    HW133182   1.017   2.670   6.359
10761SOL    HW233183   1.057   2.515   6.391
10762SOL     OW33184   4.727   0.694   4.871
10762SOL    HW133185   4.807   0.635   4.876
10762SOL    HW233186   4.650   0.648   4.916
10763SOL     OW33187   4.181   0.208   1.133
10763SOL    HW133188   4.093   0.173   1.165
10763SOL    HW233189   4.244   0.132   1.119
10764SOL     OW33190   5.063   1.560   6.346
10764SOL    HW133191   5.021   1.624   6.410
10764SOL    HW233192   5.011   1.474   6.346
10765SOL     OW33193   5.333   1.572   1.631
10765SOL    HW133194   5.332   1.589   1.533
10765SOL    HW233195   5.328   1.659   1.680
10766SOL     OW33196   2.717   3.584   0.524
10766SOL    HW133197   2.777   3.653   0.484
10766SOL    HW233198   2.746   3.565   0.618
10767SOL     OW33199   1.487   0.146   0.774
10767SOL    HW133200   1.550   0.114   0.845
10767SOL    HW233201   1.537   0.163   0.689
10768SOL     OW33202   5.333   5.723   0.369
10768SOL    HW133203   5.331   5.623   0.357
10768SOL    HW233204   5.336   5.767   0.280
10769SOL     OW33205   2.978   5.169   5.408
10769SOL    HW133206   2.973   5.117   5.323
10769SOL    HW233207   2.930   5.256   5.397
10770SOL     OW33208   5.478   0.385   5.100
10770SOL    HW133209   5.383   0.416   5.093
10770SOL    HW233210   5.534   0.459   5.138
10771SOL     OW33211   4.347   0.271   5.359
10771SOL    HW133212   4.391   0.263   5.448
10771SOL    HW233213   4.279   0.344   5.362
10772SOL     OW33214   6.936   0.243   3.334
10772SOL    HW133215   6.886   0.309   3.390
10772SOL    HW233216   6.893   0.237   3.244
10773SOL     OW33217   6.525   4.782   0.076
10773SOL    HW133218   6.592   4.843   0.033
10773SOL    HW233219   6.514   4.807   0.172
10774SOL     OW33220   1.114   2.572   0.991
10774SOL    HW133221   1.210   2.588   1.014
10774SOL    HW233222   1.062   2.656   1.004
10775SOL     OW33223   2.338   4.441   0.783
10775SOL    HW133224   2.376   4.515   0.728
10775SOL    HW233225   2.244   4.423   0.754
10776SOL     OW33226   0.574   6.516   1.423
10776SOL    HW133227   0.539   6.598   1.469
10776SOL    HW233228   0.580   6.534   1.325
10777SOL     OW33229   4.104   0.035   3.300
10777SOL    HW133230   4.132   0.010   3.208
10777SOL    HW233231   4.061   0.125   3.299
10778SOL     OW33232   6.474   6.575   4.434
10778SOL    HW133233   6.425   6.535   4.512
10778SOL    HW233234   6.443   6.533   4.349
10779SOL     OW33235   0.146   4.780   2.722
10779SOL    HW133236   0.130   4.799   2.625
10779SOL    HW233237   0.241   4.803   2.745
10780SOL     OW33238   0.513   6.007   3.447
10780SOL    HW133239   0.516   5.951   3.529
10780SOL    HW233240   0.436   6.071   3.452
10781SOL     OW33241   4.534   1.781   4.249
10781SOL    HW133242   4.446   1.764   4.294
10781SOL    HW233243   4.605   1.793   4.319
10782SOL     OW33244   6.648   2.497   3.506
10782SOL    HW133245   6.585   2.458   3.574
10782SOL    HW233246   6.688   2.581   3.542
10783SOL     OW33247   1.901   3.226   2.549
10783SOL    HW133248   1.825   3.186   2.600
10783SOL    HW233249   1.886   3.213   2.451
10784SOL     OW33250   2.399   6.960   0.932
10784SOL    HW133251   2.333   6.915   0.992
10784SOL    HW233252   2.492   6.943   0.966
10785SOL     OW33253   2.024   5.069   1.504
10785SOL    HW133254   2.123   5.062   1.515
10785SOL    HW233255   1.983   5.098   1.590
10786SOL     OW33256   5.444   3.115   2.025
10786SOL    HW133257   5.481   3.101   2.117
10786SOL    HW233258   5.369   3.180   2.029
10787SOL     OW33259   3.773   1.461   4.857
10787SOL    HW133260   3.750   1.536   4.795
10787SOL    HW233261   3.703   1.453   4.928
10788SOL     OW33262   2.486   4.021   0.161
10788SOL    HW133263   2.512   3.932   0.124
10788SOL    HW233264   2.455   4.011   0.255
10789SOL     OW33265   5.285   1.196   0.600
10789SOL    HW133266   5.337   1.263   0.654
10789SOL    HW233267   5.308   1.104   0.631
10790SOL     OW33268   0.631   0.613   5.543
10790SOL    HW133269   0.579   0.696   5.566
10790SOL    HW233270   0.589   0.534   5.588
10791SOL     OW33271   1.391   1.734   1.708
10791SOL    HW133272   1.393   1.693   1.799
10791SOL    HW233273   1.477   1.782   1.691
10792SOL     OW33274   3.142   3.178   1.673
10792SOL    HW133275   3.144   3.194   1.772
10792SOL    HW233276   3.201   3.100   1.651
10793SOL     OW33277   5.589   2.393   3.826
10793SOL    HW133278   5.506   2.388   3.881
10793SOL    HW233279   5.634   2.481   3.842
10794SOL     OW33280   3.603   4.153   2.023
10794SOL    HW133281   3.604   4.192   2.115
10794SOL    HW233282   3.508   4.140   1.994
10795SOL     OW33283   6.150   4.237   2.963
10795SOL    HW133284   6.096   4.311   3.003
10795SOL    HW233285   6.146   4.157   3.022
10796SOL     OW33286   3.543   0.018   6.395
10796SOL    HW133287   3.552   6.937   6.400
10796SOL    HW233288   3.490   0.043   6.313
10797SOL     OW33289   3.862   2.436   0.577
10797SOL    HW133290   3.821   2.428   0.486
10797SOL    HW233291   3.842   2.527   0.614
10798SOL     OW33292   1.826   0.144   0.573
10798SOL    HW133293   1.894   0.206   0.615
10798SOL    HW233294   1.841   0.051   0.607
10799SOL     OW33295   3.827   1.958   2.077
10799SOL    HW133296   3.769   1.879   2.055
10799SOL    HW233297   3.785   2.041   2.040
10800SOL     OW33298   1.965   5.994   0.446
10800SOL    HW133299   2.022   6.059   0.397
10800SOL    HW233300   1.940   6.032   0.535
10801SOL     OW33301   1.039   0.649   3.972
10801SOL    HW133302   1.118   0.709   3.988
10801SOL    HW233303   1.033   0.627   3.875
10802SOL     OW33304   2.205   2.767   4.984
10802SOL    HW133305   2.266   2.846   4.995
10802SOL    HW233306   2.164   2.769   4.893
10803SOL     OW33307   5.101   4.551   4.838
10803SOL    HW133308   5.073   4.486   4.767
10803SOL    HW233309   5.034   4.552   4.912
10804SOL     OW33310   6.972   4.549   1.138
10804SOL    HW133311   6.923   4.634   1.156
10804SOL    HW233312   0.053   4.568   1.131
10805SOL     OW33313   3.524   0.496   6.681
10805SOL    HW133314   3.547   0.564   6.750
10805SOL    HW233315   3.527   0.405   6.722
10806SOL     OW33316   5.602   4.044   0.087
10806SOL    HW133317   5.579   4.019   0.181
10806SOL    HW233318   5.551   3.986   0.024
10807SOL     OW33319   3.900   6.782   3.320
10807SOL    HW133320   3.939   6.739   3.401
10807SOL    HW233321   3.880   6.878   3.339
10808SOL     OW33322   6.594   3.928   0.322
10808SOL    HW133323   6.630   4.013   0.284
10808SOL    HW233324   6.644   3.850   0.283
10809SOL     OW33325   2.845   0.478   3.991
10809SOL    HW133326   2.920   0.438   4.044
10809SOL    HW233327   2.851   0.578   3.994
10810SOL     OW33328   1.414   1.602   6.073
10810SOL    HW133329   1.366   1.690   6.078
10810SOL    HW233330   1.434   1.580   5.978
10811SOL     OW33331   3.672   4.965   5.058
10811SOL    HW133332   3.642   4.995   4.968
10811SOL    HW233333   3.611   5.004   5.128
10812SOL     OW33334   0.435   3.701   1.834
10812SOL    HW133335   0.377   3.725   1.912
10812SOL    HW233336   0.379   3.660   1.762
10813SOL     OW33337   3.052   6.165   0.101
10813SOL    HW133338   3.004   6.251   0.117
10813SOL    HW233339   3.000   6.090   0.141
10814SOL     OW33340   1.066   0.628   5.397
10814SOL    HW133341   1.158   0.644   5.434
10814SOL    HW233342   1.039   0.707   5.341
10815SOL     OW33343   5.099   5.336   3.224
10815SOL    HW133344   5.176   5.274   3.238
10815SOL    HW233345   5.017   5.284   3.199
10816SOL     OW33346   1.949   1.602   2.432
10816SOL    HW133347   2.045   1.575   2.436
10816SOL    HW233348   1.930   1.671   2.501
10817SOL     OW33349   6.024   6.771   3.070
10817SOL    HW133350   5.950   6.763   3.137
10817SOL    HW233351   5.996   6.835   2.998
10818SOL     OW33352   5.650   2.205   5.626
10818SOL    HW133353   5.658   2.126   5.565
10818SOL    HW233354   5.731   2.264   5.615
10819SOL     OW33355   0.807   4.135   6.770
10819SOL    HW133356   0.743   4.180   6.832
10819SOL    HW233357   0.900   4.169   6.788
10820SOL     OW33358   6.789   6.840   4.193
10820SOL    HW133359   6.820   6.754   4.154
10820SOL    HW233360   6.807   6.914   4.129
10821SOL     OW33361   6.049   6.799   2.694
10821SOL    HW133362   6.121   6.869   2.699
10821SOL    HW233363   6.050   6.756   2.603
10822SOL     OW33364   1.609   2.576   2.592
10822SOL    HW133365   1.563   2.663   2.577
10822SOL    HW233366   1.687   2.568   2.531
10823SOL     OW33367   1.826   5.153   1.280
10823SOL    HW133368   1.730   5.129   1.292
10823SOL    HW233369   1.879   5.124   1.360
10824SOL     OW33370   4.997   6.784   3.581
10824SOL    HW133371   4.971   6.739   3.667
10824SOL    HW233372   4.923   6.772   3.514
10825SOL     OW33373   2.853   0.544   0.914
10825SOL    HW133374   2.875   0.614   0.982
10825SOL    HW233375   2.801   0.470   0.957
10826SOL     OW33376   6.627   3.478   2.982
10826SOL    HW133377   6.684   3.500   2.903
10826SOL    HW233378   6.632   3.380   3.001
10827SOL     OW33379   6.031   3.609   4.060
10827SOL    HW133380   6.012   3.524   4.010
10827SOL    HW233381   5.951   3.669   4.054
10828SOL     OW33382   1.378   5.773   2.205
10828SOL    HW133383   1.283   5.740   2.209
10828SOL    HW233384   1.397   5.827   2.287
10829SOL     OW33385   3.020   3.586   1.005
10829SOL    HW133386   3.034   3.492   1.037
10829SOL    HW233387   3.011   3.646   1.084
10830SOL     OW33388   4.999   2.047   3.330
10830SOL    HW133389   4.983   2.015   3.424
10830SOL    HW233390   5.090   2.089   3.325
10831SOL     OW33391   5.002   6.603   1.576
10831SOL    HW133392   5.080   6.552   1.614
10831SOL    HW233393   4.923   6.542   1.568
10832SOL     OW33394   6.884   2.710   1.180
10832SOL    HW133395   6.927   2.691   1.268
10832SOL    HW233396   6.953   2.704   1.108
10833SOL     OW33397   1.070   0.619   3.713
10833SOL    HW133398   1.107   0.708   3.689
10833SOL    HW233399   1.142   0.550   3.707
10834SOL     OW33400   1.096   1.695   5.851
10834SOL    HW133401   1.190   1.702   5.819
10834SOL    HW233402   1.081   1.761   5.925
10835SOL     OW33403   5.334   1.625   0.917
10835SOL    HW133404   5.360   1.715   0.883
10835SOL    HW233405   5.416   1.570   0.933
10836SOL     OW33406   0.386   1.487   5.706
10836SOL    HW133407   0.359   1.397   5.737
10836SOL    HW233408   0.326   1.517   5.631
10837SOL     OW33409   0.456   4.738   0.298
10837SOL    HW133410   0.525   4.807   0.278
10837SOL    HW233411   0.366   4.772   0.268
10838SOL     OW33412   5.819   6.753   4.425
10838SOL    HW133413   5.766   6.795   4.498
10838SOL    HW233414   5.914   6.787   4.429
10839SOL     OW33415   2.636   3.096   0.873
10839SOL    HW133416   2.598   3.060   0.788
10839SOL    HW233417   2.614   3.035   0.949
10840SOL     OW33418   3.762   5.954   1.436
10840SOL    HW133419   3.816   5.894   1.377
10840SOL    HW233420   3.675   5.975   1.391
10841SOL     OW33421   3.236   6.081   6.172
10841SOL    HW133422   3.222   6.058   6.076
10841SOL    HW233423   3.175   6.025   6.229
10842SOL     OW33424   6.214   4.007   1.290
10842SOL    HW133425   6.311   4.014   1.269
10842SOL    HW233426   6.161   4.055   1.219
10843SOL     OW33427   0.472   1.752   2.150
10843SOL    HW133428   0.408   1.828   2.161
10843SOL    HW233429   0.529   1.767   2.070
10844SOL     OW33430   0.643   6.648   4.325
10844SOL    HW133431   0.561   6.705   4.315
10844SOL    HW233432   0.673   6.650   4.420
10845SOL     OW33433   1.946   0.725   1.269
10845SOL    HW133434   1.936   0.816   1.309
10845SOL    HW233435   1.952   0.732   1.170
10846SOL     OW33436   4.414   2.702   0.712
10846SOL    HW133437   4.501   2.709   0.760
10846SOL    HW233438   4.345   2.758   0.759
10847SOL     OW33439   2.554   1.936   6.734
10847SOL    HW133440   2.596   1.918   6.645
10847SOL    HW233441   2.477   1.999   6.723
10848SOL     OW33442   3.030   2.502   6.560
10848SOL    HW133443   3.091   2.563   6.509
10848SOL    HW233444   2.984   2.440   6.496
10849SOL     OW33445   3.856   4.886   3.781
10849SOL    HW133446   3.820   4.825   3.711
10849SOL    HW233447   3.858   4.980   3.745
10850SOL     OW33448   4.028   6.688   6.542
10850SOL    HW133449   3.941   6.709   6.586
10850SOL    HW233450   4.102   6.695   6.609
10851SOL     OW33451   2.752   2.473   6.683
10851SOL    HW133452   2.841   2.518   6.672
10851SOL    HW233453   2.736   2.412   6.605
10852SOL     OW33454   0.670   6.989   6.077
10852SOL    HW133455   0.592   6.926   6.081
10852SOL    HW233456   0.706   7.003   6.169
10853SOL     OW33457   3.781   1.744   4.798
10853SOL    HW133458   3.778   1.840   4.825
10853SOL    HW233459   3.781   1.686   4.879
10854SOL     OW33460   6.606   0.062   6.344
10854SOL    HW133461   6.523   0.056   6.288
10854SOL    HW233462   6.611   0.152   6.387
10855SOL     OW33463   3.099   6.441   2.569
10855SOL    HW133464   3.038   6.518   2.553
10855SOL    HW233465   3.079   6.401   2.659
10856SOL     OW33466   6.192   0.779   1.397
10856SOL    HW133467   6.177   0.873   1.426
10856SOL    HW233468   6.191   0.773   1.297
10857SOL     OW33469   5.358   3.072   3.526
10857SOL    HW133470   5.421   3.002   3.560
10857SOL    HW233471   5.275   3.072   3.582
10858SOL     OW33472   1.596   2.795   6.752
10858SOL    HW133473   1.653   2.768   6.675
10858SOL    HW233474   1.536   2.870   6.724
10859SOL     OW33475   1.967   4.174   3.601
10859SOL    HW133476   1.932   4.202   3.690
10859SOL    HW233477   1.944   4.243   3.533
10860SOL     OW33478   0.002   1.506   6.000
10860SOL    HW133479   7.003   1.597   6.038
10860SOL    HW233480   7.013   1.510   5.900
10861SOL     OW33481   3.533   2.729   1.931
10861SOL    HW133482   3.560   2.772   2.017
10861SOL    HW233483   3.612   2.682   1.891
10862SOL     OW33484   2.762   1.472   6.580
10862SOL    HW133485   2.821   1.498   6.657
10862SOL    HW233486   2.692   1.408   6.613
10863SOL     OW33487   3.623   1.096   2.584
10863SOL    HW133488   3.539   1.139   2.551
10863SOL    HW233489   3.649   1.138   2.671
10864SOL     OW33490   2.639   4.353   1.311
10864SOL    HW133491   2.545   4.321   1.305
10864SOL    HW233492   2.640   4.452   1.325
10865SOL     OW33493   5.936   2.488   3.387
10865SOL    HW133494   5.978   2.461   3.473
10865SOL    HW233495   5.989   2.562   3.345
10866SOL     OW33496   5.603   3.321   1.223
10866SOL    HW133497   5.537   3.277   1.162
10866SOL    HW233498   5.671   3.370   1.168
10867SOL     OW33499   2.510   3.115   0.351
10867SOL    HW133500   2.532   3.212   0.354
10867SOL    HW233501   2.588   3.065   0.312
10868SOL     OW33502   1.572   2.071   3.031
10868SOL    HW133503   1.548   1.994   2.972
10868SOL    HW233504   1.553   2.156   2.982
10869NA      NA33505   0.655   2.311   6.151
10870NA      NA33506   4.306   4.725   5.188
10871NA      NA33507   2.348   4.646   2.266
10872NA      NA33508   5.135   4.753   3.487
10873NA      NA33509   4.155   2.248   5.151
10874NA      NA33510   3.394   4.246   1.482
10875NA      NA33511   1.157   4.577   0.242
10876NA      NA33512   4.130   4.192   1.554
10877NA      NA33513   4.750   4.431   0.809
10878NA      NA33514   3.309   0.765   5.374
10879NA      NA33515   5.613   5.560   1.378
10880NA      NA33516   1.033   0.653   5.825
10881NA      NA33517   4.876   4.832   2.000
10882NA      NA33518   3.551   2.983   0.900
   7.01767   7.01767   7.01767
